Membrane in water
40167
    1TCq1    O1    1   3.243   2.108  11.323  0.0789 -0.0994  0.1907
    1TCq1    C1    2   3.292   2.145  11.440 -0.4493 -0.2272  0.1064
    1TCq1    O2    3   3.229   2.155  11.543  0.2983  0.3794  0.1565
    1TCq1    C2    4   3.426   2.092  11.432  0.6047 -0.1681 -0.5314
    1TCq1    C3    5   3.519   2.137  11.337  0.2271 -0.4405 -0.1775
    1TCq1    C4    6   3.647   2.080  11.336  0.0691  0.4461 -0.1275
    1TCq1    C5    7   3.684   1.973  11.414  0.2643  0.4654 -0.2743
    1TCq1    C6    8   3.586   1.930  11.499  0.0121  0.4330  0.4841
    1TCq1    C7    9   3.460   1.988  11.511  0.0464  0.2670 -0.1985
    1TCq1    C8   10   3.621   1.830  11.602  0.3847  0.0150 -0.1987
    1TCq1    O4   11   3.544   1.823  11.696  0.4523  0.3944 -0.1491
    1TCq1    C9   12   3.740   2.134  11.235  0.3273  0.4996  0.1958
    1TCq1    O5   13   3.707   2.239  11.182  0.1356 -0.2992 -0.2325
    1TCq1    O6   14   3.856   2.080  11.231 -0.0787 -0.3473 -0.0687
    1TCq1    H1   15   3.311   2.090  11.254  1.1535 -0.1147  1.2595
    1TCq1    H2   16   3.493   2.209  11.260 -0.9294  1.4056  1.9630
    1TCq1    H3   17   3.780   1.923  11.404  0.4081  0.8883 -1.0836
    1TCq1    H4   18   3.385   1.933  11.567  1.9925 -1.1656  0.9674
    2MPD2     C   19   3.952   1.485  11.787  0.2603  0.6932  0.3209
    2MPD2    C1   20   3.862   1.563  11.858  0.3192  0.2877 -0.0532
    2MPD2    C2   21   3.784   1.654  11.788  0.4232 -0.2449 -0.5927
    2MPD2    C3   22   3.800   1.656  11.651 -0.0297  0.2101  0.3552
    2MPD2    C4   23   3.881   1.568  11.583 -0.5043 -1.0552  0.5496
    2MPD2    C5   24   3.960   1.483  11.650 -0.0164  0.1303  0.2559
    2MPD2     H   25   3.721   1.722  11.844  2.4330  1.2343 -0.1179
    2MPD2    H1   26   3.888   1.558  11.475 -0.4469  0.4191  0.4159
    2MPD2    H2   27   4.013   1.415  11.842 -1.4517 -1.5807 -0.6266
    2MPD2    H3   28   4.021   1.411  11.597  2.0358  1.8085  0.3075
    2MPD2     N   29   3.736   1.748  11.569  0.2020  0.3025  0.1387
    2MPD2    H5   30   3.752   1.749  11.468 -0.5941  1.1692  0.0260
    2MPD2    N1   31   3.856   1.583  11.994  0.8572 -0.1584  0.2607
    2MPD2    H7   32   3.782   1.644  12.029  0.3122 -0.7225  0.0713
    3TCq1    O1   33   3.199   0.696  10.633  0.1291  0.1253  0.0583
    3TCq1    C1   34   3.077   0.680  10.681 -0.4525 -0.0745  0.1291
    3TCq1    O2   35   3.006   0.770  10.718  0.3205 -0.3015 -0.0465
    3TCq1    C2   36   3.092   0.551  10.751  0.0712  1.1406 -0.1339
    3TCq1    C3   37   3.140   0.437  10.692  0.1539 -1.1240  0.1579
    3TCq1    C4   38   3.150   0.330  10.773 -0.1046  0.5890 -0.1916
    3TCq1    C5   39   3.108   0.331  10.900  0.9638 -0.9790 -0.0586
    3TCq1    C6   40   3.060   0.448  10.953  0.0246 -0.5083  0.3310
    3TCq1    C7   41   3.043   0.553  10.876 -0.2085  0.0818 -0.0192
    3TCq1    C8   42   2.971   0.436  11.065 -0.4574  0.7565  0.2745
    3TCq1    O4   43   2.952   0.544  11.121  0.7374 -0.0659  0.1050
    3TCq1    C9   44   3.211   0.212  10.717 -0.1884  0.1331 -0.1744
    3TCq1    O5   45   3.157   0.160  10.613 -0.0428 -0.4591  0.1940
    3TCq1    O6   46   3.329   0.200  10.750 -0.1005 -0.6683 -0.1430
    3TCq1    H1   47   3.247   0.616  10.662 -1.1692 -0.9643 -0.7901
    3TCq1    H2   48   3.176   0.428  10.590  0.1725 -1.1236  0.1644
    3TCq1    H3   49   3.116   0.248  10.969  0.2162 -0.9657  0.0400
    3TCq1    H4   50   2.996   0.642  10.916  1.0963  1.1735 -0.9415
    4MPD2     C   51   2.604   0.190  11.318  0.2600 -0.1690  0.5271
    4MPD2    C1   52   2.621   0.138  11.188 -0.5841  0.3343  1.1694
    4MPD2    C2   53   2.724   0.180  11.111  0.0597 -0.1084 -0.3236
    4MPD2    C3   54   2.799   0.286  11.151  0.9210 -0.5741 -0.5485
    4MPD2    C4   55   2.781   0.343  11.273  0.1309  0.3654  0.1974
    4MPD2    C5   56   2.681   0.301  11.354  0.1167 -0.2568  0.1133
    4MPD2     H   57   2.744   0.145  11.011  2.3817  2.1042 -0.5971
    4MPD2    H1   58   2.843   0.427  11.303 -1.8079  2.7462 -2.3971
    4MPD2    H2   59   2.527   0.169  11.391 -0.5794 -1.2300 -0.6465
    4MPD2    H3   60   2.672   0.351  11.450  1.2323 -0.3234  0.2600
    4MPD2     N   61   2.897   0.324  11.053 -0.0585  0.6057  0.4768
    4MPD2    H5   62   2.901   0.277  10.963  1.1754  1.5988  0.0200
    4MPD2    N1   63   2.534   0.053  11.132  0.9401  0.4368  0.0641
    4MPD2    H7   64   2.557   0.026  11.037  0.7633  0.0905  0.1212
    5TCq1    O1   65   3.174   4.470  12.331  0.0116 -0.3415  0.2639
    5TCq1    C1   66   3.068   4.496  12.252 -0.5190 -0.1420  0.4294
    5TCq1    O2   67   2.954   4.469  12.288  0.2947  0.0785 -0.1017
    5TCq1    C2   68   3.105   4.516  12.120 -0.0390  0.0829 -0.5647
    5TCq1    C3   69   3.012   4.563  12.036 -0.4089 -0.0257 -0.4952
    5TCq1    C4   70   3.046   4.590  11.905 -0.3616  0.1211  0.2238
    5TCq1    C5   71   3.170   4.552  11.858  0.4643 -0.2250 -0.3630
    5TCq1    C6   72   3.258   4.498  11.945 -0.0988 -0.2883 -0.2201
    5TCq1    C7   73   3.226   4.474  12.075 -0.2401  0.0656 -0.3810
    5TCq1    C8   74   3.372   4.439  11.878 -0.2939  0.1950 -0.6381
    5TCq1    O4   75   3.416   4.344  11.931  0.1785  0.3290 -0.2021
    5TCq1    C9   76   2.944   4.638  11.813 -0.5210  0.2773  0.0962
    5TCq1    O5   77   2.825   4.651  11.866 -0.1091 -0.0151  0.5404
    5TCq1    O6   78   2.998   4.695  11.715  0.2491 -0.1259  0.3558
    5TCq1    H1   79   3.259   4.509  12.300  2.0659 -3.1922  2.3225
    5TCq1    H2   80   2.914   4.596  12.067 -1.0217 -0.4791 -1.9487
    5TCq1    H3   81   3.183   4.559  11.751 -1.6365  1.8522 -0.4762
    5TCq1    H4   82   3.300   4.433  12.142 -0.5688 -1.5823 -1.0229
    6MPD2     C   83   3.614   4.572  11.633 -0.1327 -0.1458  0.0681
    6MPD2    C1   84   3.545   4.479  11.705 -0.0549  0.0582  0.1084
    6MPD2    C2   85   3.574   4.342  11.683 -0.2193  0.2942  0.2859
    6MPD2    C3   86   3.671   4.297  11.602 -0.1379  0.0889 -0.0754
    6MPD2    C4   87   3.734   4.396  11.529  0.1725  0.1631  0.3873
    6MPD2    C5   88   3.700   4.526  11.543 -0.5279 -0.3832  0.5007
    6MPD2     H   89   3.519   4.265  11.736  0.0366  0.0372  0.1801
    6MPD2    H1   90   3.815   4.366  11.464 -0.1987 -0.3153  0.1424
    6MPD2    H2   91   3.586   4.676  11.640 -3.0497 -0.8024 -1.8959
    6MPD2    H3   92   3.750   4.591  11.472 -1.1484 -0.8576 -0.3728
    6MPD2     N   93   3.714   4.163  11.583 -0.4069  0.0456  0.3327
    6MPD2    H5   94   3.796   4.152  11.524 -1.1080  0.8699 -0.8028
    6MPD2    N1   95   3.431   4.524  11.784  0.4654 -0.2618  0.0188
    6MPD2    H7   96   3.409   4.623  11.792 -0.0551 -0.3552 -0.2987
    7TCq1    O1   97   1.404   0.017  13.116 -0.6415  0.0285 -0.7356
    7TCq1    C1   98   1.480   4.639  13.165 -0.0711 -0.1720 -0.8470
    7TCq1    O2   99   1.551   4.645  13.266 -0.0233 -1.1929  0.2404
    7TCq1    C2  100   1.432   4.517  13.102 -0.5699 -0.4899  0.1399
    7TCq1    C3  101   1.395   4.504  12.970  0.0106  0.3101 -0.0000
    7TCq1    C4  102   1.384   4.377  12.917 -0.3905  0.0792 -0.1919
    7TCq1    C5  103   1.404   4.263  12.985 -0.8296  0.3244  0.0560
    7TCq1    C6  104   1.431   4.278  13.118 -0.2594 -0.1181 -0.2155
    7TCq1    C7  105   1.453   4.407  13.172  0.0774  0.6801 -0.2126
    7TCq1    C8  106   1.469   4.159  13.195 -0.2604  0.1678  0.2655
    7TCq1    O4  107   1.416   4.050  13.170  0.3013 -0.2299  0.2641
    7TCq1    C9  108   1.338   4.368  12.781  0.4352  0.4403  0.2170
    7TCq1    O5  109   1.326   4.255  12.726  0.3978  0.0198  0.2169
    7TCq1    O6  110   1.338   4.471  12.711  0.7473  0.3236 -0.2848
    7TCq1    H1  111   1.335   4.710  13.051 -0.6056 -0.0444 -0.7463
    7TCq1    H2  112   1.375   4.585  12.901 -1.1841  0.3915  0.4356
    7TCq1    H3  113   1.377   4.163  12.955  0.1546  0.0510  0.0566
    7TCq1    H4  114   1.477   4.430  13.275 -1.5605  0.8543  0.1367
    8MPD2     C  115   1.696   3.933  13.597  0.3581 -0.3492 -0.0951
    8MPD2    C1  116   1.585   3.897  13.532 -0.2505 -0.0400  1.2810
    8MPD2    C2  117   1.547   3.974  13.421 -0.5019 -0.0826 -0.5538
    8MPD2    C3  118   1.609   4.089  13.391 -0.5580 -0.2167 -0.1503
    8MPD2    C4  119   1.724   4.123  13.460 -0.6160  0.1384 -0.1232
    8MPD2    C5  120   1.768   4.039  13.559  0.2524 -0.3413 -0.4610
    8MPD2     H  121   1.453   3.956  13.369  0.3874 -1.5850 -1.6207
    8MPD2    H1  122   1.794   4.205  13.447  0.8107 -1.1176 -0.3615
    8MPD2    H2  123   1.739   3.870  13.673 -0.0701 -0.4936  0.0251
    8MPD2    H3  124   1.861   4.055  13.612 -0.7713  3.3225  0.2602
    8MPD2     N  125   1.563   4.187  13.296 -0.7459  0.3404 -0.4323
    8MPD2    H5  126   1.606   4.279  13.296  2.0930 -0.9861 -1.2277
    8MPD2    N1  127   1.530   3.774  13.570  0.5785  0.7965 -0.4151
    8MPD2    H7  128   1.543   3.736  13.663  4.6196  1.2085 -0.8291
    9TCq1    O1  129   3.427   2.066  10.868 -0.2509  0.1190 -0.2633
    9TCq1    C1  130   3.361   2.117  10.975 -0.1161  0.3044 -0.6904
    9TCq1    O2  131   3.392   2.094  11.093 -0.4557  0.3091 -0.0501
    9TCq1    C2  132   3.253   2.210  10.932 -0.5912  0.5603  0.2349
    9TCq1    C3  133   3.186   2.190  10.815  0.4352 -0.2655 -0.0735
    9TCq1    C4  134   3.071   2.261  10.792 -0.0350  0.2841  0.0780
    9TCq1    C5  135   3.020   2.339  10.898  0.3521  0.9466  0.8821
    9TCq1    C6  136   3.082   2.336  11.022 -0.0098  0.1835  0.0490
    9TCq1    C7  137   3.200   2.271  11.036  0.0000  0.2748  0.6862
    9TCq1    C8  138   2.998   2.383  11.135  0.3688  0.3720 -0.1565
    9TCq1    O4  139   2.888   2.439  11.109 -0.4481 -0.4587 -0.4346
    9TCq1    C9  140   3.002   2.251  10.667  0.9475 -0.3984  0.5377
    9TCq1    O5  141   3.053   2.169  10.582 -0.1663  0.2303  0.4107
    9TCq1    O6  142   2.881   2.283  10.662 -0.6981  0.1476 -0.1782
    9TCq1    H1  143   3.406   2.117  10.788  0.3184 -0.3615 -0.7243
    9TCq1    H2  144   3.218   2.113  10.746  0.6255 -1.5792  1.4758
    9TCq1    H3  145   2.928   2.391  10.874 -1.0867 -1.9295  0.1645
    9TCq1    H4  146   3.259   2.280  11.126  0.3147 -2.3196  0.7567
   10MPD2     C  147   2.871   2.445  11.394 -0.3667 -0.2136 -0.3152
   10MPD2    C1  148   3.005   2.414  11.380  0.7588 -0.2781  0.1315
   10MPD2    C2  149   3.090   2.415  11.487 -0.2920 -0.1430  0.5513
   10MPD2    C3  150   3.038   2.446  11.613  0.4067  0.3514 -0.0058
   10MPD2    C4  151   2.907   2.479  11.630 -0.3636  0.7719 -0.0290
   10MPD2    C5  152   2.825   2.478  11.521 -0.4798 -0.0884 -0.0527
   10MPD2     H  153   3.196   2.399  11.471 -0.4423 -1.2857  0.6456
   10MPD2    H1  154   2.869   2.520  11.723 -0.1873  0.8675  0.0023
   10MPD2    H2  155   2.795   2.435  11.318 -0.7207 -0.0745  0.0199
   10MPD2    H3  156   2.719   2.501  11.529 -0.7201 -1.3348  0.3898
   10MPD2     N  157   3.113   2.450  11.730  0.4346  0.0716 -0.3155
   10MPD2    H5  158   3.063   2.443  11.818 -1.1296 -0.2184 -1.2318
   10MPD2    N1  159   3.068   2.388  11.258 -0.1587  0.1744  0.0573
   10MPD2    H7  160   3.167   2.368  11.265  0.4935  3.1086 -0.9105
   11TCq1    O1  161   0.123   2.851  13.744  0.5226  0.0229  0.6681
   11TCq1    C1  162   0.195   2.752  13.808  0.2635 -0.3656 -0.4756
   11TCq1    O2  163   0.169   2.636  13.791  0.1409 -0.5186  0.1824
   11TCq1    C2  164   0.191   2.813  13.939 -0.0108  0.1415 -0.3169
   11TCq1    C3  165   0.308   2.868  13.984  0.0781  0.6090 -0.2960
   11TCq1    C4  166   0.307   2.897  14.119  0.8849 -0.4504  0.0981
   11TCq1    C5  167   0.211   2.848  14.208 -0.3882 -0.5235  0.0581
   11TCq1    C6  168   0.102   2.777  14.157 -0.2896  0.5177 -0.3001
   11TCq1    C7  169   0.092   2.760  14.019  0.1959 -0.3226  0.7109
   11TCq1    C8  170   4.715   2.725  14.243  0.0144  0.4908  0.2924
   11TCq1    O4  171   4.701   2.782  14.348  0.3582 -0.4659  0.9485
   11TCq1    C9  172   0.409   2.979  14.184 -0.0197  0.4815  0.0468
   11TCq1    O5  173   0.414   2.971  14.308 -0.3891 -0.3318 -0.0793
   11TCq1    O6  174   0.484   3.045  14.107  0.2535  0.2311  0.7846
   11TCq1    H1  175   0.137   2.941  13.781 -2.6964  0.1901  1.4616
   11TCq1    H2  176   0.391   2.906  13.926  0.0447 -1.1183 -1.4671
   11TCq1    H3  177   0.209   2.876  14.313 -1.6781  1.8929 -0.6178
   11TCq1    H4  178   0.001   2.720  13.974  0.2643 -0.3677  0.6137
   12MPD2     C  179   4.437   2.652  14.312 -0.4679  0.4188  0.4094
   12MPD2    C1  180   4.522   2.578  14.230 -0.3900  0.4368  0.0375
   12MPD2    C2  181   4.472   2.462  14.181 -0.4724 -0.1180 -0.1131
   12MPD2    C3  182   4.351   2.417  14.216  0.3761  0.4925  0.3089
   12MPD2    C4  183   4.273   2.491  14.303 -0.1606  0.2008 -0.1397
   12MPD2    C5  184   4.311   2.609  14.354  0.3987  0.1599 -0.4060
   12MPD2     H  185   4.533   2.405  14.112  0.6526 -0.0493  0.8126
   12MPD2    H1  186   4.173   2.463  14.335 -0.6582  0.5752 -1.3565
   12MPD2    H2  187   4.485   2.738  14.358  0.1991 -0.3298  1.1090
   12MPD2    H3  188   4.256   2.665  14.429 -0.9115  1.6100 -2.4564
   12MPD2     N  189   4.308   2.298  14.159  0.0371 -0.4389  0.6568
   12MPD2    H5  190   4.372   2.253  14.095 -1.8112  0.7347 -2.0123
   12MPD2    N1  191   4.647   2.620  14.184 -0.4200 -0.3801 -0.1679
   12MPD2    H7  192   4.693   2.573  14.107  0.3465  1.5114 -0.8729
   13TCq1    O1  193   3.414   1.584  11.779  0.1135 -0.6360 -0.1574
   13TCq1    C1  194   3.454   1.481  11.702  1.0129 -0.2145  0.1427
   13TCq1    O2  195   3.518   1.387  11.742 -0.0958  0.4690  0.1124
   13TCq1    C2  196   3.463   1.530  11.564  0.2432 -0.2892  0.1503
   13TCq1    C3  197   3.561   1.477  11.485  0.2109 -0.2126 -0.0354
   13TCq1    C4  198   3.563   1.500  11.350 -0.7828 -0.3386  0.0156
   13TCq1    C5  199   3.470   1.589  11.297 -1.4467  0.6771  0.7961
   13TCq1    C6  200   3.381   1.653  11.383  0.1530  0.2098 -0.1122
   13TCq1    C7  201   3.376   1.628  11.517  0.0341 -0.5192  0.2312
   13TCq1    C8  202   3.274   1.743  11.327 -0.1315  0.1314 -0.7454
   13TCq1    O4  203   3.205   1.808  11.408  0.1311  0.6702  0.3310
   13TCq1    C9  204   3.665   1.435  11.271  0.0248 -0.3783  0.2162
   13TCq1    O5  205   3.686   1.498  11.162  0.5287 -0.6854 -0.2031
   13TCq1    O6  206   3.752   1.358  11.320 -0.1684 -0.0120 -0.0560
   13TCq1    H1  207   3.405   1.664  11.723  0.1548  0.4675  1.4186
   13TCq1    H2  208   3.627   1.398  11.521 -0.4633 -0.3046  1.0024
   13TCq1    H3  209   3.486   1.600  11.190 -1.4245 -1.9295  0.5347
   13TCq1    H4  210   3.289   1.658  11.575 -0.1191  1.2927 -0.9224
   14MPD2     C  211   3.170   1.778  10.977 -0.3894  0.5563 -0.1181
   14MPD2    C1  212   3.181   1.816  11.115  0.4335  0.2941 -0.2539
   14MPD2    C2  213   3.078   1.901  11.161 -0.4190  0.0286 -0.0737
   14MPD2    C3  214   2.980   1.959  11.082 -0.3571  0.3230 -0.0409
   14MPD2    C4  215   2.984   1.922  10.951 -1.1094 -0.7142 -0.1487
   14MPD2    C5  216   3.072   1.835  10.908 -0.9741  0.9625  0.2447
   14MPD2     H  217   3.063   1.907  11.268  2.3426  0.2892  0.3015
   14MPD2    H1  218   2.915   1.955  10.875 -0.5227 -1.7767 -1.1460
   14MPD2    H2  219   3.239   1.710  10.928 -2.1114 -0.3833 -1.2224
   14MPD2    H3  220   3.082   1.821  10.801 -0.7321 -1.2512  0.5703
   14MPD2     N  221   2.885   2.042  11.142 -0.2774  0.3471  0.0364
   14MPD2    H5  222   2.904   2.067  11.238  0.1924 -0.0846  0.0556
   14MPD2    N1  223   3.276   1.745  11.190 -0.0077 -0.1910 -0.2353
   14MPD2    H7  224   3.344   1.685  11.143 -1.0948  0.8190 -3.0785
   15TCq1    O1  225   1.432   2.143   2.980 -0.1753  0.3625  0.1360
   15TCq1    C1  226   1.317   2.115   2.917  0.0207  0.3799  0.2597
   15TCq1    O2  227   1.226   2.048   2.957 -0.1799 -0.0530  0.2576
   15TCq1    C2  228   1.340   2.150   2.778  0.5112  0.2206 -0.3936
   15TCq1    C3  229   1.452   2.110   2.725  0.4086 -0.0229  0.4485
   15TCq1    C4  230   1.453   2.096   2.586 -0.0449  0.3002  0.0878
   15TCq1    C5  231   1.341   2.114   2.512 -0.1089 -0.5792 -0.5173
   15TCq1    C6  232   1.227   2.140   2.579  0.5898  0.1836 -0.0047
   15TCq1    C7  233   1.228   2.164   2.708 -0.4117  0.1042 -0.1913
   15TCq1    C8  234   1.099   2.122   2.515  0.2468  0.2439  0.0662
   15TCq1    O4  235   0.996   2.156   2.578 -0.3094  0.1708 -0.4284
   15TCq1    C9  236   1.577   2.054   2.513 -0.5336  0.0451  0.1451
   15TCq1    O5  237   1.681   2.033   2.579  0.2737 -0.5504  0.0351
   15TCq1    O6  238   1.573   2.047   2.384  0.7768  0.4682  0.2207
   15TCq1    H1  239   1.489   2.212   2.939  0.7672  0.2040  1.1575
   15TCq1    H2  240   1.546   2.089   2.775  0.1854 -0.3002  0.7508
   15TCq1    H3  241   1.355   2.117   2.405  0.6328 -0.4097 -0.4153
   15TCq1    H4  242   1.136   2.163   2.764  0.3770 -1.7981  1.0711
   16MPD2     C  243   0.882   2.005   2.332 -0.6290 -0.7620 -0.2334
   16MPD2    C1  244   1.018   1.976   2.326 -0.1877  0.8501  0.4556
   16MPD2    C2  245   1.052   1.884   2.225 -0.8327 -0.0971 -0.5554
   16MPD2    C3  246   0.969   1.833   2.132  0.3415 -0.1129  0.3937
   16MPD2    C4  247   0.835   1.871   2.145  0.3945  0.3167 -0.4644
   16MPD2    C5  248   0.792   1.962   2.239  0.4694  0.1677  0.5112
   16MPD2     H  249   1.155   1.852   2.219 -1.3247 -1.8072  0.1183
   16MPD2    H1  250   0.766   1.839   2.068  0.1442 -0.0688 -0.0819
   16MPD2    H2  251   0.850   2.095   2.384 -1.1284 -1.1185  0.0708
   16MPD2    H3  252   0.686   1.985   2.229  0.3653 -0.9924 -1.1031
   16MPD2     N  253   1.022   1.747   2.030  0.1889 -0.2048 -0.2249
   16MPD2    H5  254   1.120   1.723   2.036  0.2167  0.1879  0.8461
   16MPD2    N1  255   1.114   2.033   2.404  0.0012  0.6969  0.5077
   16MPD2    H7  256   1.207   2.018   2.367  0.2715  0.1013  1.4439
   17TCq1    O1  257   2.395   1.935  10.923  0.5501  0.4082  0.1302
   17TCq1    C1  258   2.436   1.812  10.939 -0.0668 -0.6562  0.2838
   17TCq1    O2  259   2.367   1.723  10.987 -0.0923  0.1975  0.2656
   17TCq1    C2  260   2.581   1.798  10.908 -0.6568 -0.3934  0.5821
   17TCq1    C3  261   2.626   1.844  10.788  0.3032  0.5212 -0.5527
   17TCq1    C4  262   2.742   1.788  10.742  0.8196  0.2861 -0.3513
   17TCq1    C5  263   2.806   1.694  10.813  0.4922  0.0994 -0.3226
   17TCq1    C6  264   2.759   1.656  10.935 -0.0302  0.5576 -0.0903
   17TCq1    C7  265   2.649   1.709  10.986 -0.8091 -0.4584 -0.0225
   17TCq1    C8  266   2.835   1.573  11.027  0.2133  0.4692 -0.0744
   17TCq1    O4  267   2.824   1.587  11.148 -0.1980  0.5006  0.1831
   17TCq1    C9  268   2.812   1.846  10.623 -0.0448 -0.1901  0.2750
   17TCq1    O5  269   2.765   1.954  10.586  0.5046  0.0659  0.2158
   17TCq1    O6  270   2.925   1.796  10.588 -0.0087  0.4558  0.8765
   17TCq1    H1  271   2.462   1.990  10.876  0.2823  0.7524  0.1556
   17TCq1    H2  272   2.568   1.917  10.732  0.3279  1.2310  0.3401
   17TCq1    H3  273   2.894   1.652  10.765 -0.0207 -0.0984 -1.0806
   17TCq1    H4  274   2.615   1.651  11.071  1.3527  1.1329  1.9260
   18MPD2     C  275   3.086   1.442  11.136  0.1580 -0.1108  0.3581
   18MPD2    C1  276   3.046   1.445  11.002  0.1249  0.2138  0.1308
   18MPD2    C2  277   3.137   1.421  10.901 -0.1875 -1.3026  0.5482
   18MPD2    C3  278   3.258   1.368  10.926 -0.1384 -0.6371 -0.3293
   18MPD2    C4  279   3.296   1.358  11.060  0.2047  0.3193  0.0435
   18MPD2    C5  280   3.207   1.386  11.163  0.4863  0.0335  0.1293
   18MPD2     H  281   3.104   1.448  10.801  0.4346  0.7124  0.9004
   18MPD2    H1  282   3.399   1.335  11.082  0.3089  1.2869  0.5942
   18MPD2    H2  283   3.012   1.470  11.211 -0.8544 -0.7568 -0.3876
   18MPD2    H3  284   3.249   1.379  11.263 -2.1531  1.3986  1.3278
   18MPD2     N  285   3.357   1.353  10.825 -0.1376 -0.0024 -0.0590
   18MPD2    H5  286   3.451   1.328  10.855 -0.3962 -0.7393  0.1381
   18MPD2    N1  287   2.930   1.508  10.952  0.3940 -0.8793  0.4754
   18MPD2    H7  288   2.914   1.507  10.851  0.5803 -0.9823  0.4465
   19TMC2    C1  289   0.939   2.484  13.891 -0.1538  0.3414 -0.1727
   19TMC2    C2  290   0.941   2.533  13.760  0.3406 -0.2670 -0.1817
   19TMC2    C3  291   0.855   2.470  13.673 -0.6806  0.1401 -0.0322
   19TMC2    C4  292   0.875   2.372  13.933  0.5264  0.5114 -0.5496
   19TMC2    C5  293   0.804   2.310  13.834 -1.0525  0.1670 -0.2425
   19TMC2    C6  294   0.791   2.350  13.704  0.5917  0.2474 -0.4206
   19TMC2     C  295   1.046   2.536  13.976 -0.2148  0.1770 -0.4359
   19TMC2     O  296   1.137   2.597  13.916  0.1303  0.0610 -0.3546
   19TMC2     H  297   0.993   2.625  13.736  3.0061 -1.8314 -0.4378
   19TMC2    H1  298   0.883   2.329  14.032 -0.7176 -1.4164 -1.2804
   19TMC2    H2  299   0.744   2.284  13.632  0.5723  2.2193 -2.2171
   19TMC2    C7  300   0.704   2.214  13.883 -0.4355 -0.0384  0.2339
   19TMC2    C8  301   0.875   2.511  13.531  0.5346  0.0478  0.6953
   19TMC2    O1  302   0.721   2.165  13.992 -0.3756 -0.1515 -0.3126
   19TMC2    O2  303   0.967   2.580  13.489  0.7448 -0.4644  0.3463
   19TMC2    O5  304   0.780   2.450  13.450  0.0988 -0.5790 -0.9088
   19TMC2    H5  305   0.701   2.408  13.491 -0.3465  0.5022 -0.6527
   20MPD2     C  306   1.227   2.626  14.205 -0.9578 -0.7993 -0.0064
   20MPD2    C1  307   1.121   2.540  14.216 -0.5654  0.2556 -0.2724
   20MPD2    C2  308   1.097   2.487  14.342 -1.3989  0.1002  0.1662
   20MPD2    C3  309   1.177   2.524  14.452  0.3698 -0.4620  0.1836
   20MPD2    C4  310   1.282   2.612  14.434  0.0498  0.5549  0.1825
   20MPD2    C5  311   1.303   2.659  14.313 -0.2913 -0.0298 -0.4249
   20MPD2     H  312   1.030   2.402  14.344  0.5902 -1.5144 -1.5995
   20MPD2    H1  313   1.344   2.649  14.515  0.4488 -1.6626  0.8866
   20MPD2    H2  314   1.262   2.671  14.113 -1.5906 -1.6937 -0.6908
   20MPD2    H3  315   1.395   2.714  14.299  0.1743 -0.8000 -0.4325
   20MPD2     N  316   1.170   2.463  14.578 -0.3008 -0.0957 -0.2384
   20MPD2    H5  317   1.245   2.490  14.641  0.1237 -0.3540 -0.6287
   20MPD2    N1  318   1.029   2.501  14.109  0.2616 -0.2807  0.1875
   20MPD2    H7  319   0.951   2.446  14.144 -0.2781  0.5148  0.2335
   21MPD2     C  320   2.996   2.469  14.067 -0.2480 -0.0552 -0.4609
   21MPD2    C1  321   3.050   2.446  14.193  0.4914  0.9386 -0.3393
   21MPD2    C2  322   3.002   2.520  14.301  0.7076 -0.6570 -0.2125
   21MPD2    C3  323   2.927   2.634  14.288  0.1351  0.5455 -0.4492
   21MPD2    C4  324   2.879   2.652  14.157 -0.3198 -0.1434  0.0526
   21MPD2    C5  325   2.909   2.573  14.048  0.5069 -1.0001  0.6674
   21MPD2     H  326   3.045   2.486  14.395 -0.1258  0.7467  0.6751
   21MPD2    H1  327   2.802   2.725  14.135  1.1552  1.1070 -0.9410
   21MPD2    H2  328   3.021   2.406  13.982  1.1263 -1.0017  0.6387
   21MPD2    H3  329   2.880   2.595  13.946 -0.2530  1.9188  1.5089
   21MPD2     N  330   2.880   2.712  14.395  0.2731  0.4897  0.2283
   21MPD2    H5  331   2.824   2.793  14.373  1.0080  1.1486  0.7936
   21MPD2    N1  332   3.145   2.351  14.222 -0.0971 -0.1761 -0.0960
   21MPD2    H7  333   3.190   2.351  14.312 -1.3964  1.5185  0.5551
   22TCq2    C1  334   2.901   2.676  14.527  0.0762 -0.7589 -0.1258
   22TCq2    O2  335   2.932   2.564  14.566  0.6816 -0.0198  0.2955
   22TCq2    C2  336   2.886   2.785  14.625  0.0536 -0.8690 -0.2398
   22TCq2    C3  337   2.886   2.742  14.759  0.0137 -1.0631  0.4315
   22TCq2    C4  338   2.904   2.833  14.861  0.4955  0.8306  0.3417
   22TCq2    C5  339   2.934   2.958  14.830  0.4399  0.0132  0.3230
   22TCq2    C6  340   2.931   3.000  14.700  0.5700  0.3382 -0.9354
   22TCq2    C7  341   2.903   2.915  14.595  0.0656 -0.5848 -0.3543
   22TCq2    C8  342   2.947   3.139  14.675 -0.3834  0.3586  0.6292
   22TCq2    O4  343   2.986   3.216  14.761 -0.2606  0.8532  0.7203
   22TCq2    C9  344   2.886   2.805  15.000 -0.8253 -0.3566  0.4911
   22TCq2    O5  345   2.826   2.696  15.023 -0.6875 -0.0967  0.1558
   22TCq2    O6  346   2.894   2.902  15.081  0.0764 -0.4293  0.2099
   22TCq2    H2  347   2.862   2.637  14.775 -2.6426 -0.4347  0.4793
   22TCq2    H3  348   2.947   3.028  14.911  2.0428 -0.2188  0.2651
   22TCq2    H4  349   2.925   2.941  14.492 -0.4075 -2.1896 -0.8622
   23MPD2     C  350   0.321   3.586  14.758  0.4314  0.4135  0.8402
   23MPD2    C1  351   0.189   3.612  14.790  0.0268  0.1237 -0.2294
   23MPD2    C2  352   0.121   3.713  14.727 -0.1061  0.5021 -0.1365
   23MPD2    C3  353   0.178   3.782  14.620  0.3261  1.0281  0.3566
   23MPD2    C4  354   0.307   3.756  14.588 -0.1578  0.0693  0.8201
   23MPD2    C5  355   0.376   3.661  14.662 -0.9766  0.3266  0.2511
   23MPD2     H  356   0.022   3.726  14.770 -1.5140 -0.4194 -3.1184
   23MPD2    H1  357   0.359   3.817  14.515 -1.1150  0.0408  0.1175
   23MPD2    H2  358   0.382   3.510  14.805  2.8256  1.2634 -0.8941
   23MPD2    H3  359   0.481   3.641  14.643 -0.4014  1.3287  2.3245
   23MPD2     N  360   0.112   3.884  14.539 -0.3460  0.0112  0.3595
   23MPD2    H5  361   0.163   3.902  14.454  0.7666  2.6956  1.6033
   23MPD2    N1  362   0.121   3.543  14.892  0.1188  0.1599 -0.0628
   23MPD2    H7  363   0.023   3.565  14.911 -0.2381 -0.2622 -1.4343
   24TCq2    C1  364   4.699   3.918  14.561 -0.6766  0.2985  0.7949
   24TCq2    O2  365   4.614   3.871  14.635 -0.1094  0.0589  0.1566
   24TCq2    C2  366   4.660   4.011  14.456  0.7247  0.4578  0.2804
   24TCq2    C3  367   0.036   4.104  14.420 -0.8518  0.2536  0.0406
   24TCq2    C4  368   0.026   4.166  14.301 -0.2303 -0.4526 -0.2150
   24TCq2    C5  369   4.635   4.145  14.219  0.0517 -0.5476 -0.0846
   24TCq2    C6  370   4.536   4.061  14.257 -0.5657 -0.0518 -0.2362
   24TCq2    C7  371   4.552   3.988  14.377  0.8368 -0.2155 -0.4035
   24TCq2    C8  372   4.446   4.015  14.155  0.4749 -0.5606  0.1123
   24TCq2    O4  373   4.494   4.003  14.041  0.1175 -0.2157  0.9026
   24TCq2    C9  374   0.124   4.253  14.257  0.3811  0.7200  0.9425
   24TCq2    O5  375   0.109   4.318  14.149 -0.7679 -0.1031 -0.3926
   24TCq2    O6  376   0.234   4.249  14.311  0.0996 -0.2530 -0.1194
   24TCq2    H2  377   0.124   4.123  14.481  0.2918 -0.3251 -1.4194
   24TCq2    H3  378   4.641   4.190  14.121  0.5383  0.9424  0.6228
   24TCq2    H4  379   4.487   3.905  14.404  2.7398 -1.6027 -0.0756
   25TMC2    C1  380   3.537   1.075  11.421  0.4092 -0.6498 -0.2330
   25TMC2    C2  381   3.670   1.100  11.439 -0.1344 -0.6718 -0.4715
   25TMC2    C3  382   3.709   1.116  11.573  0.1991 -0.3637  0.3695
   25TMC2    C4  383   3.448   1.072  11.525  0.2607 -0.7645 -0.0865
   25TMC2    C5  384   3.497   1.081  11.658 -0.0625  1.1388  0.1118
   25TMC2    C6  385   3.628   1.105  11.682 -0.5244 -0.7527  0.7508
   25TMC2     C  386   3.488   1.068  11.283 -0.3965  0.7680 -0.9950
   25TMC2     O  387   3.577   1.078  11.203 -0.6014 -0.6340 -0.1875
   25TMC2     H  388   3.746   1.096  11.362  1.8307 -0.6519  1.4452
   25TMC2    H1  389   3.346   1.039  11.507 -0.2973  1.4975 -1.0243
   25TMC2    H2  390   3.663   1.125  11.783  0.1893 -1.3131  0.6167
   25TMC2    C7  391   3.413   1.043  11.770 -0.8030 -0.2208 -0.1439
   25TMC2    C8  392   3.842   1.154  11.598  0.3128 -0.4017  0.1627
   25TMC2    O1  393   3.449   1.084  11.879  0.0066 -0.0553  0.1509
   25TMC2    O2  394   3.909   1.130  11.699  0.1158  0.2435  0.3893
   25TMC2    O5  395   3.892   1.221  11.491  0.0234  0.1844  0.0266
   25TMC2    H5  396   3.824   1.253  11.427  1.5299 -0.0843 -1.7159
   26MPD2     C  397   3.172   1.003  10.886 -0.2065  0.0466  0.2902
   26MPD2    C1  398   3.100   0.980  11.000 -0.1159  0.5875 -0.0902
   26MPD2    C2  399   3.166   0.997  11.119  0.0214 -0.2138  0.5821
   26MPD2    C3  400   3.292   1.034  11.125 -0.0905  0.6984 -0.3027
   26MPD2    C4  401   3.371   1.045  11.014 -0.0814 -0.3594  0.2680
   26MPD2    C5  402   3.306   1.037  10.897 -0.0138  0.1248  0.1971
   26MPD2     H  403   3.113   0.987  11.214 -1.5342 -0.6892 -0.3326
   26MPD2    H1  404   3.475   1.076  11.015 -0.6797  1.7252 -1.1429
   26MPD2    H2  405   3.128   0.989  10.788  0.7850  2.1569 -0.4633
   26MPD2    H3  406   3.363   1.060  10.808  0.6291  0.3464  0.6689
   26MPD2     N  407   3.352   1.037  11.257 -0.6000  0.4002 -0.1155
   26MPD2    H5  408   3.286   1.021  11.332  0.6502  1.1881  1.1643
   26MPD2    N1  409   2.973   0.920  10.984  0.0780  0.1828 -0.1070
   26MPD2    H7  410   2.947   0.907  10.886 -1.9022 -0.1163  0.4514
   27TMC2    C1  411   1.990   3.166  11.911  0.2407 -0.1654 -0.4340
   27TMC2    C2  412   2.027   3.241  11.806 -0.2254 -0.2980  0.3728
   27TMC2    C3  413   2.149   3.309  11.819  0.0870  0.9567 -0.7785
   27TMC2    C4  414   2.057   3.160  12.024  0.2075 -0.1067  0.6564
   27TMC2    C5  415   2.173   3.235  12.038 -0.5095  0.6692  0.1107
   27TMC2    C6  416   2.219   3.311  11.937 -0.4525 -0.5648 -0.2753
   27TMC2     C  417   1.854   3.108  11.902 -0.0159  0.3921 -0.0456
   27TMC2     O  418   1.798   3.114  11.797  0.2316 -0.3232  0.0323
   27TMC2     H  419   1.967   3.223  11.718 -2.0045  0.9758  1.3315
   27TMC2    H1  420   2.048   3.082  12.098 -0.5692  1.8986  2.6915
   27TMC2    H2  421   2.314   3.360  11.951 -0.7571 -0.0745  0.0756
   27TMC2    C7  422   2.198   3.273  12.175  0.1242  0.2228  0.3797
   27TMC2    C8  423   2.197   3.392  11.710 -0.4781  0.0575  0.7060
   27TMC2    O1  424   2.150   3.192  12.253  0.3801  0.2473 -0.0827
   27TMC2    O2  425   2.313   3.438  11.696  0.3628  0.0540 -0.1231
   27TMC2    O5  426   2.094   3.422  11.629  0.0918 -0.1423  0.8299
   27TMC2    H5  427   2.005   3.382  11.640 -0.1978  0.3178  0.1770
   28MPD2     C  428   1.455   2.861  12.102  0.2368 -0.0657 -0.1323
   28MPD2    C1  429   1.541   2.892  12.203  0.1919  0.2628 -0.2789
   28MPD2    C2  430   1.654   2.962  12.176  0.1700 -0.2838  0.0603
   28MPD2    C3  431   1.684   2.999  12.047  0.4349 -0.5929  0.2185
   28MPD2    C4  432   1.591   2.980  11.951 -0.8530 -0.0283  0.1499
   28MPD2    C5  433   1.475   2.909  11.977  0.1634 -0.0026 -0.1063
   28MPD2     H  434   1.733   2.984  12.246 -0.0382 -1.3665  0.6318
   28MPD2    H1  435   1.598   3.012  11.847  0.1700 -2.5336 -0.5562
   28MPD2    H2  436   1.361   2.810  12.120 -0.1007 -0.2400 -2.4197
   28MPD2    H3  437   1.403   2.898  11.897 -0.3978  1.6736  0.1721
   28MPD2     N  438   1.806   3.066  12.023 -0.1033  0.5961 -0.2702
   28MPD2    H5  439   1.872   3.070  12.100 -0.2076 -0.2232 -0.1320
   28MPD2    N1  440   1.505   2.867  12.334  0.3466 -0.1459 -0.7875
   28MPD2    H7  441   1.422   2.812  12.354  0.1702 -0.0216 -1.1849
   29MPD2     C  442   1.716   0.658  14.604 -0.0636  0.1034 -0.2504
   29MPD2    C1  443   1.829   0.668  14.527 -0.2546  0.4154 -0.2726
   29MPD2    C2  444   1.910   0.780  14.538  0.4291  0.7284 -0.2699
   29MPD2    C3  445   1.858   0.892  14.606  0.1859 -0.3504 -0.7532
   29MPD2    C4  446   1.739   0.885  14.677  0.3118 -0.2996 -0.3919
   29MPD2    C5  447   1.677   0.765  14.675 -0.1980  0.7626 -0.3529
   29MPD2     H  448   2.008   0.790  14.493  0.1963 -0.9924 -1.1795
   29MPD2    H1  449   1.700   0.963  14.741  4.2593 -0.4244  2.1755
   29MPD2    H2  450   1.642   0.579  14.595  0.3064 -0.1179 -1.4293
   29MPD2    H3  451   1.581   0.755  14.724 -0.1419  1.7221 -0.0361
   29MPD2     N  452   1.917   1.018  14.608 -0.0390  0.2493 -0.4736
   29MPD2    H5  453   1.883   1.080  14.680  2.8251 -0.4413  1.4961
   29MPD2    N1  454   1.871   0.559  14.445  0.6839  0.5525  0.3556
   29MPD2    H7  455   1.946   0.570  14.377  0.7971  0.8506  0.5274
   30TCq2    C1  456   2.026   1.053  14.536  0.5007 -0.1541 -0.1750
   30TCq2    O2  457   2.082   1.001  14.437 -0.0949  0.3860 -0.0924
   30TCq2    C2  458   2.071   1.188  14.555 -0.5861 -0.1427 -0.5922
   30TCq2    C3  459   1.982   1.281  14.607 -0.2822  0.5058 -0.5322
   30TCq2    C4  460   2.035   1.405  14.648 -0.3466 -0.1000  0.7033
   30TCq2    C5  461   2.168   1.440  14.633  0.0207  0.0225 -0.0504
   30TCq2    C6  462   2.251   1.339  14.578  0.1493 -0.0742  0.2512
   30TCq2    C7  463   2.208   1.216  14.543  0.4747 -0.1685  0.4749
   30TCq2    C8  464   2.391   1.371  14.539  1.0205 -0.0040  0.7040
   30TCq2    O4  465   2.460   1.274  14.506 -0.1858  0.7602  0.4028
   30TCq2    C9  466   1.943   1.496  14.717 -0.1997  0.3555 -0.1496
   30TCq2    O5  467   1.996   1.593  14.773  0.0282  0.3536  0.0863
   30TCq2    O6  468   1.827   1.448  14.736  0.4370  0.3806  0.0134
   30TCq2    H2  469   1.875   1.265  14.613 -0.0818 -0.0660  1.5670
   30TCq2    H3  470   2.200   1.538  14.667 -1.2005 -0.2163  1.8548
   30TCq2    H4  471   2.275   1.148  14.491  0.8149 -1.0834  2.1408
   31MPD2     C  472   0.178   4.451  14.642  0.1229 -0.3995  0.1724
   31MPD2    C1  473   0.048   4.484  14.603  0.0830  0.4421  0.0967
   31MPD2    C2  474   4.668   4.399  14.642  0.8906 -0.7051 -0.8025
   31MPD2    C3  475   4.689   4.288  14.722 -0.2702  0.2777 -0.4389
   31MPD2    C4  476   0.104   4.258  14.755  0.3419 -0.2554 -0.2058
   31MPD2    C5  477   0.205   4.341  14.711  0.0054  0.0306 -0.4360
   31MPD2     H  478   4.567   4.410  14.602  0.1642  0.6319  1.4376
   31MPD2    H1  479   0.124   4.172  14.818  0.3977  0.5159  0.8230
   31MPD2    H2  480   0.257   4.520  14.615 -1.5010  0.9008 -1.3042
   31MPD2    H3  481   0.307   4.328  14.742 -0.1700  0.1385  0.1806
   31MPD2     N  482   4.589   4.204  14.770  0.1468 -0.2727  0.3305
   31MPD2    H5  483   4.611   4.134  14.840 -1.6880 -0.6626  0.5291
   31MPD2    N1  484   0.031   4.596  14.514 -0.2833 -0.7728 -0.3713
   31MPD2    H7  485   0.113   4.642  14.477 -0.7867  0.1604 -0.3051
   32TCq2    C1  486   4.454   4.224  14.732 -0.2208 -0.4465  0.0257
   32TCq2    O2  487   4.395   4.300  14.660 -0.5932  0.0146  0.2263
   32TCq2    C2  488   4.362   4.144  14.821  0.4876 -0.5849 -0.6423
   32TCq2    C3  489   4.234   4.121  14.789  0.8658  0.6097  0.9470
   32TCq2    C4  490   4.142   4.093  14.890 -0.0945  0.5323  0.1210
   32TCq2    C5  491   4.176   4.070  15.018 -0.9482 -0.0210 -0.2811
   32TCq2    C6  492   4.311   4.078  15.041 -0.4233  0.7750 -0.0440
   32TCq2    C7  493   4.406   4.118  14.947  0.1884 -0.2523  0.0618
   32TCq2    C8  494   4.360   4.072  15.178 -0.3808  0.6400  0.1399
   32TCq2    O4  495   4.480   4.048  15.198 -0.2673 -0.4846 -0.3395
   32TCq2    C9  496   4.004   4.078  14.852 -0.4189  0.1655  0.1367
   32TCq2    O5  497   3.969   4.109  14.737 -0.3494  0.7486  0.0928
   32TCq2    O6  498   3.923   4.065  14.943 -0.2441 -0.1238 -0.7515
   32TCq2    H2  499   4.193   4.148  14.692  4.1409  0.7360 -0.3763
   32TCq2    H3  500   4.100   4.050  15.093 -2.3863 -1.1272 -2.0319
   32TCq2    H4  501   4.506   4.139  14.982 -0.8145  2.6445  1.2096
   33MPD2     C  502   3.944   1.600  10.178 -0.0502  0.3783  0.0147
   33MPD2    C1  503   3.810   1.574  10.184  0.6392 -0.5883 -0.0849
   33MPD2    C2  504   3.723   1.608  10.080  0.1162 -0.3220  0.1496
   33MPD2    C3  505   3.771   1.657   9.962 -0.0805  0.4113  0.0222
   33MPD2    C4  506   3.909   1.689   9.959 -0.3248 -0.2254  0.1982
   33MPD2    C5  507   3.995   1.656  10.063  0.1928 -0.4952  0.6250
   33MPD2     H  508   3.618   1.583  10.085  0.1283 -0.6495 -1.3252
   33MPD2    H1  509   3.953   1.730   9.870 -0.6478 -0.6445 -0.1541
   33MPD2    H2  510   4.009   1.573  10.260  2.3153  0.5577 -1.7905
   33MPD2    H3  511   4.103   1.663  10.053  0.3181  0.4665  2.5628
   33MPD2     N  512   3.696   1.687   9.847  0.0898  0.1731  0.6842
   33MPD2    H5  513   3.740   1.728   9.765 -0.7466 -2.5844 -1.1241
   33MPD2    N1  514   3.765   1.512  10.303 -0.0298 -0.1552 -0.2837
   33MPD2    H7  515   3.829   1.473  10.372 -0.4458  2.9416  1.7874
   34TCq2    C1  516   3.557   1.694   9.844 -0.5703  0.1304  0.0360
   34TCq2    O2  517   3.476   1.693   9.933 -0.0216  0.4788 -0.3692
   34TCq2    C2  518   3.511   1.749   9.712 -0.4000 -0.1204 -0.0221
   34TCq2    C3  519   3.377   1.777   9.698 -0.1929  0.0631 -0.0173
   34TCq2    C4  520   3.333   1.836   9.588 -0.6070 -0.0883  0.3311
   34TCq2    C5  521   3.416   1.864   9.487 -0.7890  0.2175 -0.4889
   34TCq2    C6  522   3.546   1.831   9.494  0.7327  0.3813  0.0000
   34TCq2    C7  523   3.594   1.776   9.610 -0.3007 -0.8355 -0.1333
   34TCq2    C8  524   3.645   1.898   9.413  0.4402 -0.0460 -0.1443
   34TCq2    O4  525   3.763   1.881   9.439  0.8962  0.4091  0.6989
   34TCq2    C9  526   3.194   1.871   9.575 -0.2986  0.0819  0.2857
   34TCq2    O5  527   3.150   1.918   9.468  0.0950  0.0110  0.2074
   34TCq2    O6  528   3.126   1.881   9.681  0.2217 -0.3015 -0.2278
   34TCq2    H2  529   3.316   1.766   9.787 -0.2607  2.3356  0.2132
   34TCq2    H3  530   3.373   1.909   9.398 -1.4669  2.9954  1.2483
   34TCq2    H4  531   3.695   1.739   9.621  0.8195  2.1131 -0.2863
   35MPD2     C  532   1.242   3.351  11.870  0.0133 -0.1995 -0.3282
   35MPD2    C1  533   1.134   3.263  11.842  0.1769  0.3477 -0.8604
   35MPD2    C2  534   1.061   3.295  11.730  0.0014 -0.1289 -0.1546
   35MPD2    C3  535   1.101   3.401  11.644 -0.3463 -1.1050  0.5312
   35MPD2    C4  536   1.211   3.485  11.684  0.3617  0.0599  1.1727
   35MPD2    C5  537   1.287   3.452  11.788  0.2929 -0.7236 -0.5361
   35MPD2     H  538   0.977   3.232  11.707 -1.0695  1.6624 -1.1536
   35MPD2    H1  539   1.229   3.574  11.624 -0.0497 -0.3482  0.4431
   35MPD2    H2  540   1.306   3.329  11.954  1.0892 -0.6978 -1.2800
   35MPD2    H3  541   1.380   3.503  11.810  0.8853 -2.1231  0.1962
   35MPD2     N  542   1.008   3.439  11.541  0.0664 -0.7482  0.0062
   35MPD2    H5  543   0.921   3.388  11.555 -0.6050  0.6144  0.7799
   35MPD2    N1  544   1.095   3.154  11.922  0.4226  0.1309  0.2452
   35MPD2    H7  545   1.009   3.106  11.900  1.0075 -0.0917 -1.5658
   36TCq2    C1  546   1.010   3.545  11.456  0.6109 -0.2136 -0.2718
   36TCq2    O2  547   1.088   3.635  11.453 -0.6102 -0.2808 -0.1154
   36TCq2    C2  548   0.912   3.537  11.351 -0.0823  0.4498 -0.2423
   36TCq2    C3  549   0.895   3.639  11.262  0.1305 -0.4409 -0.0204
   36TCq2    C4  550   0.792   3.632  11.179  0.2339 -0.1730 -0.2272
   36TCq2    C5  551   0.711   3.524  11.166  0.4681 -0.9226  0.0309
   36TCq2    C6  552   0.737   3.421  11.247  0.1535 -0.3326 -0.3569
   36TCq2    C7  553   0.838   3.422  11.341  0.6380  0.5418  0.1734
   36TCq2    C8  554   0.650   3.306  11.242 -0.4314  0.1393 -0.4636
   36TCq2    O4  555   0.695   3.201  11.291 -0.2975 -0.1111  0.5910
   36TCq2    C9  556   0.760   3.749  11.100  0.2643  0.2992 -0.1135
   36TCq2    O5  557   0.865   3.791  11.036  0.2080  0.0687  0.0784
   36TCq2    O6  558   0.641   3.787  11.084  0.1492 -0.0386 -0.4119
   36TCq2    H2  559   0.928   3.740  11.285 -0.1758 -0.2839 -0.2655
   36TCq2    H3  560   0.635   3.533  11.089  0.8310  1.4063 -0.0623
   36TCq2    H4  561   0.840   3.339  11.410 -1.3821 -2.1463 -3.0151
   37TMC2    C1  562   2.973   3.190  11.912 -0.5396  0.3506 -0.4615
   37TMC2    C2  563   2.891   3.160  11.805 -0.1722  0.2730 -0.0420
   37TMC2    C3  564   2.944   3.127  11.681  0.5763 -0.5431 -0.4487
   37TMC2    C4  565   3.105   3.167  11.891 -0.1976 -0.4352 -0.5869
   37TMC2    C5  566   3.156   3.150  11.767  0.8122  0.3477 -0.7326
   37TMC2    C6  567   3.075   3.131  11.662 -0.9170  0.3787 -0.0842
   37TMC2     C  568   2.933   3.318  11.982 -0.8448 -0.0393  0.0408
   37TMC2     O  569   2.814   3.333  12.004 -0.4353  0.3363 -0.4368
   37TMC2     H  570   2.784   3.157  11.823 -0.2151  0.4465 -0.2706
   37TMC2    H1  571   3.175   3.185  11.972 -0.7696 -1.1040  0.0539
   37TMC2    H2  572   3.115   3.130  11.562 -1.9134 -1.2472 -0.4649
   37TMC2    C7  573   3.283   3.225  11.747  0.1012 -0.9358  0.4118
   37TMC2    C8  574   2.864   3.093  11.570  0.2822 -0.6898  0.2765
   37TMC2    O1  575   3.310   3.296  11.843 -0.5846  0.3101  0.2068
   37TMC2    O2  576   2.918   3.041  11.473  0.1678 -0.5966  0.0836
   37TMC2    O5  577   2.764   3.179  11.561 -0.1758  0.4769  0.0523
   37TMC2    H5  578   2.762   3.257  11.620  0.7048 -0.4639  1.3255
   38MPD2     C  579   3.061   3.700  12.286  0.3958 -1.0610  0.2616
   38MPD2    C1  580   3.175   3.647  12.229  0.2163  0.2839  0.2671
   38MPD2    C2  581   3.164   3.561  12.121  0.1615 -0.9545 -0.0845
   38MPD2    C3  582   3.036   3.511  12.094  1.4151  0.0698  0.0341
   38MPD2    C4  583   2.921   3.568  12.151  0.4859 -0.1779 -0.6401
   38MPD2    C5  584   2.933   3.676  12.238  0.0673 -0.2295  0.2563
   38MPD2     H  585   3.256   3.522  12.080  1.0869  0.0366  1.0571
   38MPD2    H1  586   2.820   3.532  12.136 -0.2381  0.8397  1.8634
   38MPD2    H2  587   3.071   3.775  12.363 -0.0677 -1.7701  1.0164
   38MPD2    H3  588   2.846   3.728  12.277 -0.5346 -0.5565 -0.6279
   38MPD2     N  589   3.041   3.394  12.018 -0.4442 -0.4280 -0.2206
   38MPD2    H5  590   3.131   3.356  11.991  0.3194  0.1307  1.5607
   38MPD2    N1  591   3.310   3.679  12.277  0.5079 -0.0529 -0.2403
   38MPD2    H7  592   3.390   3.637  12.229  0.5293 -0.8620  0.5041
   39MPD2     C  593   1.143   1.083   1.919 -0.4004 -0.0262  0.2874
   39MPD2    C1  594   1.024   1.138   1.952  0.9316  0.0305 -0.3295
   39MPD2    C2  595   0.919   1.110   1.874 -0.2641  0.0304  0.3559
   39MPD2    C3  596   0.930   1.041   1.749  0.2412 -0.0858 -0.0164
   39MPD2    C4  597   1.050   0.986   1.718 -0.8956  0.2243  0.1768
   39MPD2    C5  598   1.157   1.015   1.800 -0.3113 -0.2825  0.4670
   39MPD2     H  599   0.825   1.156   1.904 -1.1875 -0.1855 -2.2166
   39MPD2    H1  600   1.066   0.939   1.622 -2.2348  1.2268 -0.5340
   39MPD2    H2  601   1.220   1.081   1.995 -1.9469  1.7992  1.9074
   39MPD2    H3  602   1.258   0.982   1.782  0.6858  3.5030 -0.8369
   39MPD2     N  603   0.825   1.030   1.650  0.2506  0.0747 -0.1132
   39MPD2    H5  604   0.844   0.981   1.564 -3.5380 -0.2260 -0.7527
   39MPD2    N1  605   1.023   1.233   2.059 -1.1227 -0.4398 -0.0323
   39MPD2    H7  606   1.110   1.251   2.109 -1.2918  0.5673 -0.0993
   40TCq2    C1  607   0.915   1.313   2.096  0.2810  0.8207  0.3794
   40TCq2    O2  608   0.803   1.313   2.048  0.2500  0.0162 -0.1347
   40TCq2    C2  609   0.952   1.391   2.215 -0.5600 -0.3241  0.3144
   40TCq2    C3  610   0.847   1.467   2.266 -0.4844  0.1248 -0.1943
   40TCq2    C4  611   0.881   1.563   2.353 -0.6449 -0.1570 -0.4851
   40TCq2    C5  612   1.003   1.583   2.399  0.2511  0.8681  0.7417
   40TCq2    C6  613   1.105   1.514   2.345 -0.5314 -0.2854 -0.1796
   40TCq2    C7  614   1.085   1.414   2.252 -0.0340 -0.2868 -0.0529
   40TCq2    C8  615   1.243   1.548   2.393 -0.1405 -0.2225 -0.0296
   40TCq2    O4  616   1.240   1.592   2.509 -0.0643  0.2786  0.0641
   40TCq2    C9  617   0.770   1.637   2.412 -0.8429  0.0090  0.2497
   40TCq2    O5  618   0.787   1.701   2.522  0.4722  0.1520  0.3240
   40TCq2    O6  619   0.651   1.608   2.375 -0.1654  0.4946  0.1670
   40TCq2    H2  620   0.742   1.453   2.242 -0.7496 -0.3869  1.2687
   40TCq2    H3  621   1.014   1.666   2.469 -2.0202  2.4303 -0.7424
   40TCq2    H4  622   1.164   1.354   2.209  2.2766  0.4422  3.1244
   41TMC2    C1  623   4.432   3.160  13.694 -0.3416  0.4077 -0.0572
   41TMC2    C2  624   4.303   3.196  13.669  0.0415  0.2118  0.1437
   41TMC2    C3  625   4.264   3.239  13.551 -0.2330 -0.4311  0.7561
   41TMC2    C4  626   4.524   3.164  13.604  0.1516  0.1104  0.0998
   41TMC2    C5  627   4.491   3.217  13.482 -0.0208  0.0228  0.0745
   41TMC2    C6  628   4.360   3.253  13.457  0.2052 -0.0848 -0.2929
   41TMC2     C  629   4.458   3.111  13.824 -0.1525  0.0600  0.1883
   41TMC2     O  630   4.371   3.042  13.889  0.0640 -0.3351  0.3374
   41TMC2     H  631   4.232   3.187  13.750  0.3327  0.8794  0.4733
   41TMC2    H1  632   4.628   3.143  13.629 -0.1577 -1.8817 -0.2651
   41TMC2    H2  633   4.335   3.300  13.363  1.6197  1.9654  0.3655
   41TMC2    C7  634   4.588   3.285  13.400 -0.0742 -0.5583 -0.3794
   41TMC2    C8  635   4.123   3.274  13.522 -0.2173  0.6255 -0.3097
   41TMC2    O1  636   4.547   3.381  13.338 -0.4490 -0.2097 -0.7118
   41TMC2    O2  637   4.046   3.331  13.597  0.3587 -0.5600 -0.1124
   41TMC2    O5  638   4.096   3.207  13.413  0.1150 -0.1296 -0.5036
   41TMC2    H5  639   4.170   3.152  13.379 -0.1375 -0.7406 -0.0656
   42MPD2     C  640   4.569   3.058  14.097 -0.0788 -0.2372  0.1132
   42MPD2    C1  641   4.628   3.142  14.005 -0.0553 -0.7887  0.1620
   42MPD2    C2  642   0.025   3.209  14.043  0.1673 -0.4494  0.1745
   42MPD2    C3  643   0.080   3.201  14.168  0.2714 -0.1879  0.5004
   42MPD2    C4  644   0.013   3.128  14.265 -0.1644 -0.2276  0.2487
   42MPD2    C5  645   4.614   3.058  14.230 -0.3318 -0.0507  0.1960
   42MPD2     H  646   0.079   3.266  13.968  0.2615 -0.7292  0.0292
   42MPD2    H1  647   0.056   3.110  14.363 -0.5861  1.5648  0.7702
   42MPD2    H2  648   4.483   2.993  14.079  1.5699 -2.0001 -1.3702
   42MPD2    H3  649   4.557   3.000  14.302  0.0742  0.5354  0.9954
   42MPD2     N  650   0.199   3.261  14.215  0.4120  0.0463 -0.2194
   42MPD2    H5  651   0.232   3.233  14.307 -1.8877 -1.0104  0.2830
   42MPD2    N1  652   4.572   3.162  13.877  0.1622 -0.0753  0.4120
   42MPD2    H7  653   4.625   3.227  13.819 -0.0542 -1.3996 -1.2617
   43MPD2     C  654   1.369   2.138   0.788 -0.0607 -0.2396  0.2775
   43MPD2    C1  655   1.465   2.085   0.871 -0.4217 -0.5580  1.1683
   43MPD2    C2  656   1.474   2.126   1.001  1.0950  0.8511  0.2108
   43MPD2    C3  657   1.393   2.229   1.042  1.2990  0.1491  0.1893
   43MPD2    C4  658   1.283   2.267   0.961  0.3465 -0.0471  0.3654
   43MPD2    C5  659   1.275   2.219   0.837 -0.0004 -0.4355  0.5254
   43MPD2     H  660   1.548   2.085   1.068  1.4715  0.5951 -0.3620
   43MPD2    H1  661   1.208   2.341   0.986 -2.5188 -2.9972  0.5450
   43MPD2    H2  662   1.341   2.095   0.693 -0.2074 -1.0041  0.6638
   43MPD2    H3  663   1.199   2.268   0.776  0.8446  0.9129  0.5648
   43MPD2     N  664   1.397   2.296   1.162 -0.0074  0.3542  0.0902
   43MPD2    H5  665   1.322   2.361   1.184  0.0087  0.1751  0.6766
   43MPD2    N1  666   1.555   1.983   0.840  0.6019  0.1046 -0.3174
   43MPD2    H7  667   1.636   1.973   0.900 -0.6602 -0.0533  1.3592
   44TCq2    C1  668   1.707   2.387   1.666  0.5691  0.3243 -0.4562
   44TCq2    O2  669   1.809   2.339   1.625 -0.0283 -0.3456  0.1276
   44TCq2    C2  670   1.604   2.418   1.570 -0.6190 -0.1205 -0.9557
   44TCq2    C3  671   1.516   2.515   1.601 -0.6652  0.4082  0.5381
   44TCq2    C4  672   1.419   2.543   1.505  0.0697  0.2959 -0.0469
   44TCq2    C5  673   1.416   2.477   1.386 -0.1049  0.1953  0.8214
   44TCq2    C6  674   1.507   2.375   1.363  0.0613  0.4689  0.1650
   44TCq2    C7  675   1.612   2.349   1.455 -0.2902  0.1578  0.4804
   44TCq2    C8  676   1.500   2.276   1.253 -0.2326  0.6346  0.7749
   44TCq2    O4  677   1.606   2.217   1.237 -0.1058 -0.6900  0.5922
   44TCq2    C9  678   1.315   2.648   1.530 -0.3675 -0.3420  0.0761
   44TCq2    O5  679   1.237   2.680   1.432  0.5340  0.0208 -0.3530
   44TCq2    O6  680   1.342   2.723   1.627 -0.6133  0.6972 -0.2819
   44TCq2    H2  681   1.504   2.564   1.697  0.2794 -0.5674  1.1532
   44TCq2    H3  682   1.353   2.517   1.308 -0.7291 -0.4431  0.9975
   44TCq2    H4  683   1.676   2.261   1.457 -0.4845  0.0645  2.7492
   45TMC2    C1  684   2.401   3.827   9.941  0.1446  0.7667 -0.3688
   45TMC2    C2  685   2.487   3.855  10.044  0.3688  0.4245 -0.5989
   45TMC2    C3  686   2.451   3.956  10.129 -0.7438  0.2252  0.0297
   45TMC2    C4  687   2.279   3.892   9.928  0.1583  0.0196  0.1822
   45TMC2    C5  688   2.247   3.987  10.020  0.0940  0.7595 -0.0683
   45TMC2    C6  689   2.339   4.024  10.116  0.0014 -0.1281  0.4221
   45TMC2     C  690   2.446   3.715   9.861 -0.5807 -0.7057  0.9027
   45TMC2     O  691   2.557   3.669   9.885  0.0521  0.1028  0.0807
   45TMC2     H  692   2.575   3.797  10.069  0.0701  0.3825  0.3514
   45TMC2    H1  693   2.202   3.850   9.864 -1.0022  2.7198 -0.2103
   45TMC2    H2  694   2.313   4.100  10.189 -0.1558 -0.3724  0.6176
   45TMC2    C7  695   2.121   4.062   9.991  0.1843 -0.5297  0.5922
   45TMC2    C8  696   2.509   3.959  10.259 -0.4184 -0.4420  0.6058
   45TMC2    O1  697   2.062   4.037   9.887  0.0456  0.0021  0.6084
   45TMC2    O2  698   2.440   3.985  10.356  0.0108 -0.1492 -0.5046
   45TMC2    O5  699   2.634   3.971  10.244  0.1363  0.5280  0.7859
   45TMC2    H5  700   2.678   3.959  10.157 -0.9779 -0.1479  0.3180
   46MPD2     C  701   2.451   3.440   9.754 -0.7844  0.5011 -0.3677
   46MPD2    C1  702   2.358   3.536   9.714  0.7250  0.6303  0.3166
   46MPD2    C2  703   2.266   3.508   9.618  0.0191  0.5256  0.5108
   46MPD2    C3  704   2.264   3.380   9.560  0.2794 -0.6013  0.2485
   46MPD2    C4  705   2.357   3.280   9.598  0.0300 -0.2763 -0.2958
   46MPD2    C5  706   2.439   3.314   9.701  0.6327  0.0881 -0.5156
   46MPD2     H  707   2.199   3.588   9.588 -1.7741 -0.3097  2.3007
   46MPD2    H1  708   2.352   3.177   9.565  0.4851 -0.9906  1.8347
   46MPD2    H2  709   2.522   3.451   9.835  2.3415 -0.9061 -2.9625
   46MPD2    H3  710   2.500   3.233   9.737  0.5670 -0.5104 -1.7461
   46MPD2     N  711   2.178   3.368   9.446  0.3988 -0.2698 -0.1126
   46MPD2    H5  712   2.123   3.448   9.418 -1.8817 -1.0314  2.1776
   46MPD2    N1  713   2.347   3.662   9.779 -0.2938 -0.2563 -0.2032
   46MPD2    H7  714   2.260   3.713   9.766 -0.5184 -1.2296 -2.5446
   47TMC2    C1  715   4.475   3.767   8.327 -0.1563  0.6097 -0.5659
   47TMC2    C2  716   4.439   3.792   8.201  0.6702  0.6446 -0.8094
   47TMC2    C3  717   4.322   3.732   8.155 -0.5919 -1.1303  0.5255
   47TMC2    C4  718   4.378   3.733   8.419 -0.3886  0.3920  0.4515
   47TMC2    C5  719   4.258   3.696   8.377 -0.4391  0.0779 -0.3647
   47TMC2    C6  720   4.228   3.691   8.242  0.6938 -0.3404  0.1073
   47TMC2     C  721   4.609   3.792   8.370 -0.8642  0.1455 -0.5229
   47TMC2     O  722   4.670   3.884   8.318  0.1605  0.0223 -0.0929
   47TMC2     H  723   4.524   3.814   8.138  1.0211  0.2645 -0.4702
   47TMC2    H1  724   4.402   3.720   8.524 -0.4063 -0.8986  0.2928
   47TMC2    H2  725   4.136   3.650   8.204  0.6364  0.3661 -0.5034
   47TMC2    C7  726   4.175   3.619   8.465  0.0562 -0.4354 -0.7123
   47TMC2    C8  727   4.291   3.721   8.012  1.0342 -0.3113  0.1623
   47TMC2    O1  728   4.084   3.552   8.418 -0.3567 -0.0257 -0.2272
   47TMC2    O2  729   4.179   3.721   7.960 -0.3162 -0.4930 -0.5249
   47TMC2    O5  730   4.402   3.721   7.945 -0.4793  0.5002  0.0010
   47TMC2    H5  731   4.485   3.725   7.998 -0.0326  0.9069 -0.7296
   48MPD2     C  732   0.180   3.737   8.459  0.6570  0.5777  0.4786
   48MPD2    C1  733   0.067   3.677   8.511 -0.7819 -0.2102 -0.2683
   48MPD2    C2  734   0.090   3.562   8.597 -0.4416  0.5560  0.2583
   48MPD2    C3  735   0.216   3.535   8.646 -0.0708  0.1042 -0.0852
   48MPD2    C4  736   0.324   3.613   8.604 -0.6824  0.0943 -0.7100
   48MPD2    C5  737   0.304   3.711   8.507 -0.5463  0.2572 -0.3593
   48MPD2     H  738   0.006   3.500   8.624 -0.4936 -0.3020 -1.8494
   48MPD2    H1  739   0.428   3.593   8.627 -1.0501 -0.8929  0.0932
   48MPD2    H2  740   0.185   3.817   8.386 -0.1454 -0.8557 -1.1421
   48MPD2    H3  741   0.389   3.757   8.459  0.7541 -2.6473 -0.8721
   48MPD2     N  742   0.222   3.413   8.730  0.1681 -0.0852  0.3801
   48MPD2    H5  743   0.129   3.377   8.745 -0.0033  0.4738  0.6344
   48MPD2    N1  744   4.654   3.704   8.466  0.0064  0.3008 -0.1913
   48MPD2    H7  745   4.582   3.660   8.522  1.1066  0.2965  1.2412
   49MPD2     C  746   2.861   1.433  10.088 -0.0723 -0.5898  0.1714
   49MPD2    C1  747   2.723   1.452  10.053 -0.6640 -0.1949 -0.0621
   49MPD2    C2  748   2.630   1.380  10.120  0.1443 -0.0905 -0.2020
   49MPD2    C3  749   2.670   1.288  10.221 -0.2315 -0.3049  0.4115
   49MPD2    C4  750   2.810   1.263  10.242 -0.1309 -0.0678 -0.2165
   49MPD2    C5  751   2.897   1.328  10.163 -0.6869  0.1795 -0.0855
   49MPD2     H  752   2.524   1.389  10.100 -0.4403 -2.0345  2.0317
   49MPD2    H1  753   2.835   1.186  10.315  2.4640 -0.5724 -1.6361
   49MPD2    H2  754   2.942   1.491  10.046 -0.8695 -0.8594 -1.7165
   49MPD2    H3  755   3.003   1.309  10.171 -0.7057 -0.0172 -0.2988
   49MPD2     N  756   2.578   1.215  10.302  0.5827  0.1837 -0.0810
   49MPD2    H5  757   2.617   1.180  10.389  1.0539  1.3238  0.1705
   49MPD2    N1  758   2.665   1.520   9.947 -0.0445  0.1104  0.2270
   49MPD2    H7  759   2.563   1.514   9.949 -0.1028  0.7652 -1.1340
   50TCq2    C1  760   2.727   1.615   9.875  0.3033 -0.1289  0.4359
   50TCq2    O2  761   2.848   1.638   9.878  0.0737  0.0177 -0.5214
   50TCq2    C2  762   2.643   1.687   9.774 -0.4075  0.5280  0.5354
   50TCq2    C3  763   2.697   1.791   9.718 -0.4106 -0.5729  0.3266
   50TCq2    C4  764   2.616   1.873   9.643  0.0265 -0.2130  0.4967
   50TCq2    C5  765   2.479   1.847   9.634 -0.3409 -0.3407  0.9562
   50TCq2    C6  766   2.427   1.736   9.693  0.8361 -0.3943 -0.1020
   50TCq2    C7  767   2.513   1.646   9.758  0.0808 -0.3110 -0.1858
   50TCq2    C8  768   2.293   1.697   9.649  0.0788 -0.1384  0.3091
   50TCq2    O4  769   2.242   1.765   9.562 -0.0761  0.2063  0.2620
   50TCq2    C9  770   2.678   1.987   9.581  0.2849 -0.3372  0.0546
   50TCq2    O5  771   2.801   1.996   9.578  0.2240 -0.0394 -0.1797
   50TCq2    O6  772   2.602   2.073   9.537 -0.3016 -0.1517  0.2094
   50TCq2    H2  773   2.800   1.822   9.731 -0.4919  0.7692 -2.3640
   50TCq2    H3  774   2.424   1.913   9.567  3.1591  1.1584 -0.4069
   50TCq2    H4  775   2.487   1.543   9.779 -0.7812  0.1303  0.9451
   51MPD2     C  776   3.361   0.575   0.615 -0.6252  0.4158 -0.0114
   51MPD2    C1  777   3.276   0.477   0.662 -0.2863 -0.2186  0.4101
   51MPD2    C2  778   3.255   0.460   0.796 -0.0017  0.4666 -0.8255
   51MPD2    C3  779   3.307   0.550   0.888  0.6501  0.1163 -0.0571
   51MPD2    C4  780   3.376   0.663   0.841 -0.5531  0.4239  0.2602
   51MPD2    C5  781   3.401   0.670   0.705 -0.0067 -0.0589 -0.1203
   51MPD2     H  782   3.185   0.389   0.839 -2.3460  3.1346 -0.2971
   51MPD2    H1  783   3.416   0.747   0.898  1.4585 -0.3527  0.0029
   51MPD2    H2  784   3.388   0.588   0.511  1.5661 -0.5863  0.4151
   51MPD2    H3  785   3.457   0.757   0.674 -1.6229  0.8667 -0.4445
   51MPD2     N  786   3.288   0.555   1.030 -0.1361  0.6474  0.0791
   51MPD2    H5  787   3.323   0.639   1.075  0.4759  0.0941  0.6393
   51MPD2    N1  788   3.211   0.387   0.575  0.0068  0.3092  0.6671
   51MPD2    H7  789   3.163   0.313   0.626  0.1123  0.5655  1.1322
   52TCq2    C1  790   3.213   0.466   1.108  0.4795  0.1371  0.0265
   52TCq2    O2  791   3.173   0.352   1.086  0.2518  0.4636  0.3382
   52TCq2    C2  792   3.204   0.507   1.243  0.4504 -0.0911  0.4447
   52TCq2    C3  793   3.198   0.408   1.333 -0.0486 -0.0479 -0.5907
   52TCq2    C4  794   3.180   0.438   1.467  0.7211  0.3445  0.1092
   52TCq2    C5  795   3.158   0.567   1.501  0.2389 -0.3086  0.7210
   52TCq2    C6  796   3.160   0.665   1.402  0.2095  0.0528 -0.0037
   52TCq2    C7  797   3.186   0.639   1.276  0.0717 -0.0857  0.2337
   52TCq2    C8  798   3.167   0.801   1.441  0.2880 -0.3885 -0.0772
   52TCq2    O4  799   3.248   0.867   1.379  0.3597 -0.4550 -0.0251
   52TCq2    C9  800   3.186   0.331   1.568  0.6330 -0.1938 -0.0512
   52TCq2    O5  801   3.208   0.369   1.686  0.7556  0.1574  0.2218
   52TCq2    O6  802   3.236   0.219   1.534  0.7938 -0.5837  0.2773
   52TCq2    H2  803   3.218   0.303   1.312  0.1733 -0.0436 -0.4019
   52TCq2    H3  804   3.158   0.599   1.605  0.0116 -1.1825  0.9857
   52TCq2    H4  805   3.190   0.724   1.209 -0.6890 -0.4970 -0.3371
   53TMC2    C1  806   3.930   3.549  11.844  0.4025  0.2366  0.3338
   53TMC2    C2  807   4.063   3.557  11.866 -0.1471 -0.3110 -0.2928
   53TMC2    C3  808   4.107   3.649  11.960 -0.4879 -0.4471 -0.4280
   53TMC2    C4  809   3.838   3.637  11.893  0.1101  0.0340 -0.1817
   53TMC2    C5  810   3.890   3.721  12.000 -0.2756  0.4790 -0.1827
   53TMC2    C6  811   4.017   3.720  12.036  0.0699 -0.2321  0.0944
   53TMC2     C  812   3.895   3.463  11.735  0.1194  0.3130 -0.0067
   53TMC2     O  813   3.972   3.406  11.662 -0.1749 -0.2660  0.2363
   53TMC2     H  814   4.134   3.497  11.810  0.6359 -0.2811  0.6617
   53TMC2    H1  815   3.733   3.646  11.868  0.5645  0.4543 -1.9305
   53TMC2    H2  816   4.051   3.780  12.120  2.3139 -0.7373 -0.4569
   53TMC2    C7  817   3.793   3.809  12.061  0.3477 -0.0129 -0.4448
   53TMC2    C8  818   4.254   3.646  11.984 -0.0157 -0.0046 -0.8657
   53TMC2    O1  819   3.686   3.825  12.004  0.2269  0.2565  0.4804
   53TMC2    O2  820   4.328   3.552  11.969 -0.0987 -0.0882  0.5120
   53TMC2    O5  821   4.284   3.762  12.047  0.2250  0.5631 -0.2163
   53TMC2    H5  822   4.218   3.831  12.026 -0.4689  1.0727  3.6157
   54MPD2     C  823   3.727   3.305  11.528 -0.3899 -0.2279  0.4409
   54MPD2    C1  824   3.685   3.353  11.647 -0.4922  0.6014  0.2363
   54MPD2    C2  825   3.550   3.323  11.673 -0.3698  0.4019 -0.2196
   54MPD2    C3  826   3.474   3.235  11.597 -0.1027 -0.0256 -0.1801
   54MPD2    C4  827   3.532   3.172  11.487 -0.8086 -0.2465 -0.6639
   54MPD2    C5  828   3.660   3.201  11.456 -0.8275  0.3630  0.6387
   54MPD2     H  829   3.505   3.368  11.761  0.9586  2.1692 -0.4487
   54MPD2    H1  830   3.474   3.106  11.423  1.0589 -2.1594 -0.3776
   54MPD2    H2  831   3.829   3.325  11.495 -1.1056  1.7429 -0.5299
   54MPD2    H3  832   3.709   3.163  11.367 -0.6431  0.4386  0.7076
   54MPD2     N  833   3.345   3.191  11.634 -0.0187  0.3300  0.4326
   54MPD2    H5  834   3.302   3.125  11.572 -1.7514  3.1357 -1.3538
   54MPD2    N1  835   3.758   3.436  11.739 -0.0466 -0.0339  0.2257
   54MPD2    H7  836   3.717   3.474  11.824  2.5303 -1.9393  2.3732
   55MPD2     C  837   0.313   1.656  17.061  0.5511  0.2624 -1.0712
   55MPD2    C1  838   0.284   1.599  17.186  0.4434 -0.5244  0.2094
   55MPD2    C2  839   0.189   1.658  17.269 -0.1796 -0.7877  0.1554
   55MPD2    C3  840   0.127   1.775  17.235  0.0222 -0.0120  0.1559
   55MPD2    C4  841   0.165   1.837  17.116  0.1204 -0.6581  0.3396
   55MPD2    C5  842   0.261   1.781  17.041  0.0357 -0.3177  0.0153
   55MPD2     H  843   0.149   1.598  17.351 -2.1937  1.7150  1.0060
   55MPD2    H1  844   0.130   1.938  17.099 -1.7890 -1.3903 -0.0831
   55MPD2    H2  845   0.382   1.618  16.987  0.5048 -2.8396  0.4767
   55MPD2    H3  846   0.286   1.836  16.952 -1.2887 -1.2758 -0.9397
   55MPD2     N  847   0.028   1.819  17.322 -0.5741  0.3333  0.4947
   55MPD2    H5  848   0.016   1.765  17.407 -0.0842  1.1068  1.0569
   55MPD2    N1  849   0.355   1.475  17.212 -0.3912  0.0740 -0.0851
   55MPD2    H7  850   0.409   1.435  17.136 -0.1437  1.2600 -0.5334
   56TCq2    C1  851   0.359   1.418  17.339 -0.9922 -0.1389  0.1240
   56TCq2    O2  852   0.317   1.455  17.446 -0.4810  0.2886  0.2108
   56TCq2    C2  853   0.427   1.285  17.341 -0.0806 -0.2374  0.0714
   56TCq2    C3  854   0.450   1.203  17.232 -0.1163  0.2064  0.3427
   56TCq2    C4  855   0.517   1.090  17.251 -0.1791 -0.0423 -0.4816
   56TCq2    C5  856   0.546   1.040  17.370  0.2822 -0.8316 -0.5366
   56TCq2    C6  857   0.518   1.120  17.477 -0.3380  0.4672 -0.3339
   56TCq2    C7  858   0.462   1.243  17.465 -0.7761  0.5459  0.0682
   56TCq2    C8  859   0.549   1.067  17.613  0.5826  0.3837  0.5358
   56TCq2    O4  860   0.642   0.989  17.632  0.3955  1.0631  0.1579
   56TCq2    C9  861   0.543   0.999  17.144  0.1062  0.4164  0.3908
   56TCq2    O5  862   0.649   0.931  17.154 -0.0576 -0.3269  0.1243
   56TCq2    O6  863   0.453   0.993  17.055  0.6585 -0.0385  0.3882
   56TCq2    H2  864   0.415   1.228  17.133 -0.3550 -1.5350 -0.0080
   56TCq2    H3  865   0.599   0.946  17.385  1.4883  0.4918  3.5814
   56TCq2    H4  866   0.460   1.320  17.541 -2.7334  0.0538  0.5172
   57TMC2    C1  867   3.648   2.511  13.570  0.2495 -0.5597 -0.1527
   57TMC2    C2  868   3.734   2.502  13.671 -0.4924 -0.3807 -0.2191
   57TMC2    C3  869   3.835   2.412  13.666  0.4246 -0.1526 -0.1811
   57TMC2    C4  870   3.651   2.421  13.472 -0.7284 -0.1062 -0.2550
   57TMC2    C5  871   3.762   2.335  13.462  0.3253  0.4343  0.3092
   57TMC2    C6  872   3.857   2.332  13.558 -0.2872 -0.0836 -0.0053
   57TMC2     C  873   3.548   2.616  13.574 -0.4219 -0.4375 -0.0528
   57TMC2     O  874   3.469   2.612  13.481  0.0946  0.9101  0.1808
   57TMC2     H  875   3.739   2.574  13.752 -0.2086 -1.2303  0.5151
   57TMC2    H1  876   3.564   2.423  13.407  0.0030  1.4393 -1.1870
   57TMC2    H2  877   3.951   2.279  13.552  1.1787  3.0076 -3.8052
   57TMC2    C7  878   3.762   2.232  13.351  0.2605  0.4758 -0.7957
   57TMC2    C8  879   3.925   2.404  13.777 -0.3322 -0.9012  0.2736
   57TMC2    O1  880   3.661   2.247  13.282  0.4130 -0.0589 -0.1371
   57TMC2    O2  881   4.041   2.362  13.779  0.3703  0.3072 -0.1827
   57TMC2    O5  882   3.856   2.421  13.893 -0.1852  0.1195 -0.3695
   57TMC2    H5  883   3.762   2.448  13.890 -0.4389 -0.5706  1.1012
   58MPD2     C  884   3.233   2.976  13.756  0.3878 -0.5691 -0.0677
   58MPD2    C1  885   3.228   2.902  13.644  0.8252  0.5619  0.1526
   58MPD2    C2  886   3.334   2.813  13.620  0.1812 -0.1303 -0.4623
   58MPD2    C3  887   3.441   2.795  13.704  0.0294 -0.2434  0.1771
   58MPD2    C4  888   3.442   2.870  13.818  0.0144 -0.1236 -0.5564
   58MPD2    C5  889   3.347   2.962  13.837 -0.0138  0.1556 -0.2414
   58MPD2     H  890   3.326   2.762  13.525 -1.9660  2.2389 -1.5593
   58MPD2    H1  891   3.527   2.869  13.885 -0.0277 -0.9067 -0.5162
   58MPD2    H2  892   3.161   3.052  13.784  1.6219  0.8129 -0.6392
   58MPD2    H3  893   3.355   3.019  13.928  2.2996  0.8914 -0.9178
   58MPD2     N  894   3.541   2.698  13.688 -0.4012  0.1774  0.0153
   58MPD2    H5  895   3.607   2.677  13.762 -0.4082  0.9180  0.2260
   58MPD2    N1  896   3.124   2.891  13.547  0.5079 -0.2332 -0.1566
   58MPD2    H7  897   3.136   2.825  13.471  1.2538 -2.3416  1.7621
   59MPD2     C  898   1.440   2.550  13.133 -0.5037 -0.6090  0.1494
   59MPD2    C1  899   1.558   2.496  13.081 -0.1571  0.5069  0.4581
   59MPD2    C2  900   1.673   2.547  13.131 -0.4791 -0.8370 -0.1979
   59MPD2    C3  901   1.675   2.647  13.225 -0.1579  0.5561 -0.8007
   59MPD2    C4  902   1.562   2.706  13.264 -0.1171  0.4221  0.7105
   59MPD2    C5  903   1.445   2.655  13.218 -0.4802 -0.7463  0.7905
   59MPD2     H  904   1.766   2.504  13.098  0.7320  1.7861 -0.2125
   59MPD2    H1  905   1.554   2.795  13.326 -1.0298  0.1083  1.0451
   59MPD2    H2  906   1.347   2.503  13.102 -1.1558  0.2092  0.8450
   59MPD2    H3  907   1.349   2.694  13.250 -0.9136  0.5066 -2.0361
   59MPD2     N  908   1.794   2.696  13.285 -0.2914 -0.2897 -0.5625
   59MPD2    H5  909   1.780   2.782  13.337  0.2863 -0.3822 -0.2531
   59MPD2    N1  910   1.563   2.388  12.989 -0.2482  0.0643 -0.0254
   59MPD2    H7  911   1.657   2.366  12.956  0.3025 -0.3138  1.8089
   60TCq2    C1  912   1.457   2.352  12.917  0.3568 -0.0311 -0.3940
   60TCq2    O2  913   1.340   2.379  12.922 -0.5326  0.4440  0.0676
   60TCq2    C2  914   1.485   2.246  12.821  0.0834 -0.0334 -0.1640
   60TCq2    C3  915   1.600   2.170  12.830  0.2786  0.1365 -0.7278
   60TCq2    C4  916   1.632   2.092  12.719  0.3642  0.1814  0.1742
   60TCq2    C5  917   1.545   2.085  12.614 -0.4360  0.3608 -0.9817
   60TCq2    C6  918   1.434   2.166  12.614  0.7746  0.8468 -0.1330
   60TCq2    C7  919   1.393   2.238  12.717 -0.8693 -0.4485  0.5807
   60TCq2    C8  920   1.361   2.168  12.495 -0.1472 -0.5700  0.3304
   60TCq2    O4  921   1.359   2.063  12.427 -0.0219 -0.4091 -0.6415
   60TCq2    C9  922   1.758   2.021  12.713  0.1751 -0.3514 -0.0745
   60TCq2    O5  923   1.770   1.942  12.617 -0.1203  0.1058 -0.2250
   60TCq2    O6  924   1.856   2.057  12.787  0.5348  0.2327  0.2929
   60TCq2    H2  925   1.674   2.179  12.908  1.8716 -1.5649 -2.0594
   60TCq2    H3  926   1.568   2.022  12.530 -1.8961 -0.3077 -0.8777
   60TCq2    H4  927   1.308   2.304  12.707 -0.1638  0.5105  0.8675
   61MPD2     C  928   0.754   3.826  15.333  0.4833  0.2528  0.4403
   61MPD2    C1  929   0.829   3.939  15.340 -0.0338 -1.0437 -0.4314
   61MPD2    C2  930   0.926   3.960  15.242  0.3320 -0.5443 -0.0019
   61MPD2    C3  931   0.953   3.870  15.140  0.3677  1.7827 -0.4855
   61MPD2    C4  932   0.866   3.756  15.130 -0.5706  0.4207 -0.7497
   61MPD2    C5  933   0.776   3.742  15.227  0.2651  0.2239  0.3100
   61MPD2     H  934   0.990   4.048  15.242  0.5143 -0.7048  3.0284
   61MPD2    H1  935   0.875   3.686  15.048  0.0723 -1.4885  0.9738
   61MPD2    H2  936   0.678   3.798  15.405  2.1784  1.5396  2.7483
   61MPD2    H3  937   0.723   3.648  15.232  0.5875 -0.0359 -1.3759
   61MPD2     N  938   1.051   3.885  15.041 -0.7546 -0.0251 -0.1017
   61MPD2    H5  939   1.053   3.814  14.969 -0.9273  0.2180 -0.3446
   61MPD2    N1  940   0.806   4.034  15.440  0.0487  0.4034  0.4301
   61MPD2    H7  941   0.867   4.114  15.432 -0.1519  0.4434 -0.7788
   62TCq2    C1  942   0.721   4.025  15.549 -0.3064 -0.0716  0.2663
   62TCq2    O2  943   0.649   3.932  15.587  0.0218  0.1235  0.1091
   62TCq2    C2  944   0.723   4.152  15.620  0.3783 -0.3259  0.2426
   62TCq2    C3  945   0.755   4.133  15.753 -0.8233 -0.8024  0.0764
   62TCq2    C4  946   0.809   4.237  15.822  0.5019  0.2458 -0.0842
   62TCq2    C5  947   0.846   4.353  15.755 -0.6437 -0.1270  0.1759
   62TCq2    C6  948   0.827   4.361  15.618 -0.8699  0.3706  0.0003
   62TCq2    C7  949   0.765   4.262  15.548  0.2044  0.2346  0.0705
   62TCq2    C8  950   0.890   4.471  15.537  0.1896 -0.1526  0.0772
   62TCq2    O4  951   0.825   4.536  15.457 -1.0700  0.6285  0.3513
   62TCq2    C9  952   0.837   4.218  15.959  0.0320  0.5729  0.8776
   62TCq2    O5  953   0.892   4.317  16.017  0.5017 -0.1952  0.6087
   62TCq2    O6  954   0.833   4.102  16.002  0.3124 -0.2228  0.8240
   62TCq2    H2  955   0.738   4.038  15.802  0.3212 -0.7576  0.5561
   62TCq2    H3  956   0.897   4.425  15.818 -1.1909  0.3943  0.0278
   62TCq2    H4  957   0.740   4.278  15.444 -1.4930 -0.5207  0.3670
   63TMC2    C1  958   4.563   3.870   9.914  1.0089 -0.9038  0.1809
   63TMC2    C2  959   4.704   3.875   9.905 -0.4612  0.3592 -0.3012
   63TMC2    C3  960   0.033   3.876   9.778 -0.5399 -1.0386  0.2878
   63TMC2    C4  961   4.484   3.877   9.805  0.2625  0.7052 -0.7757
   63TMC2    C5  962   4.536   3.890   9.682  0.1661 -0.1931 -0.1148
   63TMC2    C6  963   4.675   3.892   9.667  0.4701 -0.3241 -0.0255
   63TMC2     C  964   4.508   3.819  10.044  0.1070  0.0607  0.2064
   63TMC2     O  965   4.595   3.775  10.117 -0.2976  0.0962 -0.0529
   63TMC2     H  966   0.057   3.843   9.981 -0.4959  2.8596  0.8152
   63TMC2    H1  967   4.376   3.875   9.814  0.3626 -3.3733 -0.3818
   63TMC2    H2  968   0.008   3.895   9.571  1.2041 -0.0735  0.3703
   63TMC2    C7  969   4.443   3.876   9.572  0.4561  0.2197 -0.7460
   63TMC2    C8  970   0.173   3.893   9.754 -0.5032  0.0507 -0.2456
   63TMC2    O1  971   4.328   3.859   9.601 -0.2243  0.5988 -0.4523
   63TMC2    O2  972   0.223   3.871   9.645  0.0796 -1.1275  0.4826
   63TMC2    O5  973   0.211   3.992   9.839 -0.0193 -0.2756 -0.0015
   63TMC2    H5  974   0.138   4.032   9.891  1.4515 -0.0746  1.9190
   64MPD2     C  975   4.131   3.689  10.357  0.4354  0.2432 -0.0597
   64MPD2    C1  976   4.266   3.659  10.359 -0.0828  0.2879  1.0605
   64MPD2    C2  977   4.348   3.716  10.266 -0.4821  0.0562 -0.6085
   64MPD2    C3  978   4.297   3.806  10.174  0.4070  0.1418 -0.3262
   64MPD2    C4  979   4.163   3.846  10.186  0.3996  0.8108  0.3715
   64MPD2    C5  980   4.080   3.783  10.273 -0.0344  0.2172 -0.3540
   64MPD2     H  981   4.453   3.690  10.268 -0.2845  1.2000  3.4161
   64MPD2    H1  982   4.117   3.909  10.111  1.2412  1.0167  0.0250
   64MPD2    H2  983   4.056   3.654  10.428  0.9893 -1.1003 -0.1313
   64MPD2    H3  984   3.973   3.801  10.274 -0.0970 -0.1193 -0.8200
   64MPD2     N  985   4.378   3.859  10.069  0.4013  0.4921 -0.5591
   64MPD2    H5  986   4.343   3.920   9.996 -1.8584 -0.7847 -0.5605
   64MPD2    N1  987   4.306   3.545  10.431 -0.1399  0.3212 -0.0556
   64MPD2    H7  988   4.403   3.523  10.411  0.2712  0.9730  1.2116
   65MPD2     C  989   1.440   3.349  15.955 -0.3217  0.1067  0.0547
   65MPD2    C1  990   1.543   3.304  15.873 -0.7996 -0.9682 -0.7197
   65MPD2    C2  991   1.526   3.187  15.803  0.2535  0.0878 -0.0204
   65MPD2    C3  992   1.406   3.117  15.792  0.1289  0.0189 -0.0891
   65MPD2    C4  993   1.306   3.158  15.879 -0.1430  0.0067 -0.4053
   65MPD2    C5  994   1.321   3.276  15.947 -0.4228 -0.4700 -0.0553
   65MPD2     H  995   1.614   3.164  15.744 -0.7128 -0.6466 -1.1673
   65MPD2    H1  996   1.217   3.099  15.898 -0.2015  0.2503  0.0880
   65MPD2    H2  997   1.442   3.444  16.007  1.1053 -0.7935  1.6562
   65MPD2    H3  998   1.236   3.303  16.008 -0.0879  1.0202 -0.2514
   65MPD2     N  999   1.381   3.012  15.705 -0.7342 -0.1721 -0.6332
   65MPD2    H5 1000   1.296   2.958  15.717 -1.6206  1.3832  0.0141
   65MPD2    N1 1001   1.664   3.373  15.861  0.4496  0.1457 -0.0830
   65MPD2    H7 1002   1.725   3.343  15.787  2.0592 -0.5240  1.5156
   66TCq2    C1 1003   1.695   3.492  15.923  0.2180 -1.0396 -0.4159
   66TCq2    O2 1004   1.629   3.562  15.994  0.3229  0.0557  0.3064
   66TCq2    C2 1005   1.798   3.559  15.847  0.0539 -0.3761 -0.1470
   66TCq2    C3 1006   1.847   3.474  15.750 -0.1623  0.5107 -0.4341
   66TCq2    C4 1007   1.862   3.526  15.622  0.3338  0.6078 -0.7092
   66TCq2    C5 1008   1.844   3.659  15.596 -0.6643 -0.3664  0.0964
   66TCq2    C6 1009   1.798   3.740  15.692  0.3057  0.0664  0.1873
   66TCq2    C7 1010   1.781   3.694  15.821  0.5992 -0.3313 -0.4301
   66TCq2    C8 1011   1.740   3.869  15.646 -0.3893  0.3979  0.4739
   66TCq2    O4 1012   1.759   3.900  15.529  0.6204  0.1009  0.7303
   66TCq2    C9 1013   1.871   3.429  15.521  0.2159  0.0643 -0.2477
   66TCq2    O5 1014   1.831   3.313  15.543 -0.1974  0.1518  0.0093
   66TCq2    O6 1015   1.889   3.472  15.403  0.3996 -0.3142  0.2044
   66TCq2    H2 1016   1.877   3.372  15.773  0.8972  1.0426  0.5756
   66TCq2    H3 1017   1.828   3.676  15.490  0.3784  0.0291  0.0110
   66TCq2    H4 1018   1.734   3.757  15.896  2.1147  0.7706 -0.4036
   67MPD2     C 1019   1.750   2.918  14.088  0.2424  0.1389 -0.0855
   67MPD2    C1 1020   1.680   2.945  14.196  0.3300 -0.0310  0.5457
   67MPD2    C2 1021   1.544   2.949  14.188  0.1005  0.0698 -0.5248
   67MPD2    C3 1022   1.473   2.929  14.073 -0.4957 -0.4819  1.0098
   67MPD2    C4 1023   1.551   2.883  13.965  0.4140  0.3472 -0.3967
   67MPD2    C5 1024   1.684   2.874  13.978  0.1659  0.2633 -0.2940
   67MPD2     H 1025   1.487   2.956  14.280 -1.0917 -3.6483 -0.9455
   67MPD2    H1 1026   1.502   2.836  13.880  0.5857 -0.1261 -0.2309
   67MPD2    H2 1027   1.857   2.933  14.087  0.0141  1.9494  1.9563
   67MPD2    H3 1028   1.749   2.852  13.895 -1.0343  2.9186 -1.9364
   67MPD2     N 1029   1.331   2.936  14.064  0.4022  0.3412 -0.0489
   67MPD2    H5 1030   1.291   2.897  13.979  1.7112  0.4056 -0.6866
   67MPD2    N1 1031   1.739   2.966  14.322 -0.5627 -0.4280  0.5461
   67MPD2    H7 1032   1.670   2.962  14.397  0.7648  1.0732  1.8439
   68TCq2    C1 1033   1.871   2.983  14.355 -0.2861  0.2244 -0.1478
   68TCq2    O2 1034   1.969   3.011  14.288  0.1484  0.7035  0.5099
   68TCq2    C2 1035   1.864   3.027  14.489  0.3021  0.1355 -0.1781
   68TCq2    C3 1036   1.761   3.102  14.534  0.1232 -0.4785 -0.5537
   68TCq2    C4 1037   1.782   3.177  14.650 -0.8750 -0.7354 -0.0064
   68TCq2    C5 1038   1.894   3.170  14.722  0.3191 -0.7864 -0.0189
   68TCq2    C6 1039   1.992   3.098  14.668 -0.8613 -0.0489  0.0009
   68TCq2    C7 1040   1.981   3.021  14.560  1.0054 -0.6176 -0.4803
   68TCq2    C8 1041   2.120   3.088  14.748  0.4349 -0.5089 -0.3841
   68TCq2    O4 1042   2.217   3.053  14.682  0.4773  0.2017  0.0178
   68TCq2    C9 1043   1.675   3.248  14.703  0.4433 -0.4098  0.5700
   68TCq2    O5 1044   1.584   3.279  14.629 -0.3382  0.6069 -0.0159
   68TCq2    O6 1045   1.676   3.274  14.823  0.4617  0.0662  0.3832
   68TCq2    H2 1046   1.664   3.113  14.487 -0.2912  1.7838  0.8399
   68TCq2    H3 1047   1.905   3.234  14.808 -0.3124  1.0991 -1.3428
   68TCq2    H4 1048   2.070   2.973  14.523  0.3089  0.1383 -3.1434
   69TMC2    C1 1049   3.925   4.698  12.542 -0.2963 -0.2252  0.1040
   69TMC2    C2 1050   3.839   0.013  12.444  0.2274 -0.0793  0.1438
   69TMC2    C3 1051   3.879   4.701  12.320 -0.2900  0.5951 -0.0947
   69TMC2    C4 1052   4.036   4.627  12.518  0.2511  0.5509 -0.0635
   69TMC2    C5 1053   4.077   4.603  12.393 -0.2202 -0.7189  0.2107
   69TMC2    C6 1054   3.993   4.633  12.291 -0.0222  0.1052  0.9764
   69TMC2     C 1055   3.876   4.691  12.677 -0.3478 -0.0492  0.1233
   69TMC2     O 1056   3.945   4.627  12.757  0.6350 -0.2212  0.0928
   69TMC2     H 1057   3.751   0.071  12.467 -0.0839 -0.3814 -0.2766
   69TMC2    H1 1058   4.090   4.589  12.604  0.7028 -0.1440 -0.6522
   69TMC2    H2 1059   4.000   4.590  12.192 -0.5861 -1.1620  1.4957
   69TMC2    C7 1060   4.158   4.481  12.363  0.2314  0.2467  0.6659
   69TMC2    C8 1061   3.804   0.044  12.216 -0.5357  0.5598 -0.6545
   69TMC2    O1 1062   4.177   4.450  12.245  0.1358  0.3179 -0.4843
   69TMC2    O2 1063   3.688   0.083  12.249  0.2977 -0.5811  0.5014
   69TMC2    O5 1064   3.881   0.096  12.124  0.2484  0.0138  0.8263
   69TMC2    H5 1065   3.978   0.082  12.133  0.7066  1.4700 -2.0461
   70MPD2     C 1066   3.544   0.064  12.812  0.0814 -0.8122  0.2362
   70MPD2    C1 1067   3.660   4.709  12.795  0.1774 -0.1214 -0.1216
   70MPD2    C2 1068   3.680   4.605  12.872  0.1696  0.3341  0.1200
   70MPD2    C3 1069   3.584   4.554  12.956  0.4630  0.1747 -0.6562
   70MPD2    C4 1070   3.465   4.622  12.979  0.2339 -0.9296 -0.6568
   70MPD2    C5 1071   3.440   0.017  12.902 -0.3387  0.1596 -0.1175
   70MPD2     H 1072   3.766   4.545  12.844 -1.2108 -2.3226  1.6297
   70MPD2    H1 1073   3.395   4.594  13.057 -1.0132 -1.4072 -1.9437
   70MPD2    H2 1074   3.527   0.146  12.744 -1.2143 -0.0093  1.5302
   70MPD2    H3 1075   3.348   0.073  12.913 -0.5242 -0.4955  1.6758
   70MPD2     N 1076   3.609   4.430  13.029 -0.1684 -0.1392 -0.1458
   70MPD2    H5 1077   3.530   4.393  13.082 -0.5104 -0.1813 -0.6821
   70MPD2    N1 1078   3.753   0.030  12.697  0.3200  0.1821 -0.6431
   70MPD2    H7 1079   3.725   0.110  12.641  0.4401 -0.9668 -2.3452
   71TMC2    C1 1080   1.756   0.957   1.540 -0.2245 -0.0794  0.2896
   71TMC2    C2 1081   1.889   0.939   1.539 -0.5833  0.1919  0.3430
   71TMC2    C3 1082   1.954   0.902   1.654 -0.4412 -0.4240 -0.7278
   71TMC2    C4 1083   1.682   0.952   1.651 -0.2533  0.2379  0.0238
   71TMC2    C5 1084   1.737   0.899   1.763  0.0448 -0.2106  0.3090
   71TMC2    C6 1085   1.873   0.881   1.769  0.7353 -0.1529  0.4536
   71TMC2     C 1086   1.684   0.973   1.414 -0.5169 -0.0315 -0.0064
   71TMC2     O 1087   1.571   1.027   1.411 -0.2009 -0.2220  0.1524
   71TMC2     H 1088   1.946   0.962   1.450  1.1808  1.8831  1.9045
   71TMC2    H1 1089   1.578   0.977   1.634 -0.1730 -0.1263 -1.0002
   71TMC2    H2 1090   1.921   0.825   1.849 -0.3048 -0.7186  0.6803
   71TMC2    C7 1091   1.660   0.877   1.883 -0.4578 -0.5335  0.4087
   71TMC2    C8 1092   2.079   0.833   1.633 -0.3058  0.4495 -0.2390
   71TMC2    O1 1093   1.715   0.858   1.990 -0.1307 -0.2431 -0.1621
   71TMC2    O2 1094   2.124   0.798   1.518  0.5191 -0.4965  0.1224
   71TMC2    O5 1095   2.139   0.811   1.745 -0.5919  0.0455  0.1413
   71TMC2    H5 1096   2.098   0.850   1.825 -0.5417 -1.9827  1.1601
   72MPD2     C 1097   1.617   0.802   0.938 -0.0412 -0.8558 -0.4058
   72MPD2    C1 1098   1.532   0.876   1.019 -0.0949  0.2633  0.2594
   72MPD2    C2 1099   1.571   0.894   1.149 -0.2240  0.0423 -0.0341
   72MPD2    C3 1100   1.696   0.857   1.190  0.3204  0.0238 -0.5088
   72MPD2    C4 1101   1.776   0.777   1.111  0.3712  0.1134  0.1866
   72MPD2    C5 1102   1.736   0.753   0.980  1.0730  0.2658 -0.6610
   72MPD2     H 1103   1.496   0.930   1.218 -0.4503  1.7294 -1.1564
   72MPD2    H1 1104   1.875   0.743   1.138  0.7549  0.3709 -0.9138
   72MPD2    H2 1105   1.595   0.800   0.832  0.8525 -1.9108 -0.5695
   72MPD2    H3 1106   1.811   0.711   0.913 -0.3730 -3.0207 -0.2314
   72MPD2     N 1107   1.738   0.880   1.326  0.8338  0.2998 -0.2100
   72MPD2    H5 1108   1.829   0.842   1.347  1.0801  1.7746  1.3906
   72MPD2    N1 1109   1.394   0.906   0.979 -0.0872  0.2036  0.6781
   72MPD2    H7 1110   1.334   0.951   1.047 -1.1740 -1.1023  0.5751
   73TMC2    C1 1111   0.981   1.888  14.099 -0.2428  0.4663  0.2592
   73TMC2    C2 1112   0.862   1.898  14.164 -0.6213 -0.2501  0.1415
   73TMC2    C3 1113   0.865   1.973  14.279  0.0617 -0.0254  0.0677
   73TMC2    C4 1114   1.107   1.928  14.149  0.1050  0.5090 -0.4232
   73TMC2    C5 1115   1.100   1.987  14.270  0.2835  0.9093 -0.6231
   73TMC2    C6 1116   0.985   2.016  14.332 -0.6469 -0.0892 -0.1683
   73TMC2     C 1117   0.984   1.874  13.952 -0.3079 -0.3121 -0.2694
   73TMC2     O 1118   1.089   1.896  13.891 -0.5390  0.2819 -0.7621
   73TMC2     H 1119   0.763   1.877  14.125 -0.2204  2.3572 -2.2944
   73TMC2    H1 1120   1.198   1.894  14.100  1.3799  2.5293  0.5514
   73TMC2    H2 1121   0.982   2.050  14.435 -2.7450 -0.3243 -0.1404
   73TMC2    C7 1122   1.194   2.100  14.265 -0.0337  0.0108  0.0032
   73TMC2    C8 1123   0.748   1.957  14.359  0.3323 -0.5748  0.3646
   73TMC2    O1 1124   1.208   2.171  14.367  0.6508  0.7672 -0.1743
   73TMC2    O2 1125   0.646   2.028  14.343  0.2901 -0.7837 -0.0684
   73TMC2    O5 1126   0.737   1.822  14.375 -0.8351 -0.4953 -0.1637
   73TMC2    H5 1127   0.826   1.781  14.382 -0.6488  0.2039  1.5254
   74MPD2     C 1128   0.784   2.031  13.507  0.0783 -0.2695 -0.6327
   74MPD2    C1 1129   0.905   2.060  13.568  0.4472 -0.6518 -0.1397
   74MPD2    C2 1130   0.919   2.014  13.697  0.2689  0.1517  0.0209
   74MPD2    C3 1131   0.834   1.929  13.762  0.0129  0.1152  0.0243
   74MPD2    C4 1132   0.716   1.906  13.701 -0.1851 -0.0639  0.5030
   74MPD2    C5 1133   0.696   1.956  13.573 -0.0158 -0.2751  0.0490
   74MPD2     H 1134   1.008   2.046  13.750  0.3631 -0.1408  0.0412
   74MPD2    H1 1135   0.637   1.848  13.746  1.7112 -2.2991  0.9261
   74MPD2    H2 1136   0.762   2.068  13.408  2.1397  0.1081 -0.9405
   74MPD2    H3 1137   0.601   1.950  13.521  0.1159 -1.8192 -0.0233
   74MPD2     N 1138   0.860   1.871  13.893 -0.0197 -0.2351  0.0202
   74MPD2    H5 1139   0.775   1.836  13.935  0.3229 -0.9153  0.1456
   74MPD2    N1 1140   1.012   2.126  13.503  0.1683 -0.3881 -0.4309
   74MPD2    H7 1141   1.005   2.140  13.403  1.9437 -1.9078 -0.7879
   75TCq2    C1 1142   1.253   2.997  14.160 -0.2248  0.1318 -0.9733
   75TCq2    O2 1143   1.291   3.065  14.250  0.2539  0.0247 -0.3063
   75TCq2    C2 1144   1.114   2.969  14.157  0.3786 -0.1257  0.1717
   75TCq2    C3 1145   1.038   2.994  14.270 -0.6232  0.5903  0.4664
   75TCq2    C4 1146   0.905   2.968  14.274  0.6772  0.5309  0.1492
   75TCq2    C5 1147   0.841   2.927  14.161  0.3618 -0.4148  0.8712
   75TCq2    C6 1148   0.919   2.905  14.046  0.1238 -0.5205  0.2884
   75TCq2    C7 1149   1.051   2.937  14.040  0.2018 -0.2907  0.4442
   75TCq2    C8 1150   0.855   2.847  13.929  0.3514 -0.3229 -0.5161
   75TCq2    O4 1151   0.907   2.861  13.818 -0.1138  0.2739 -0.0657
   75TCq2    C9 1152   0.831   2.986  14.392 -0.3591  0.2744  0.8644
   75TCq2    O5 1153   0.879   3.065  14.479 -0.4136  0.1471 -0.3982
   75TCq2    O6 1154   0.724   2.916  14.415  0.1040 -0.2651 -0.4059
   75TCq2    H2 1155   1.092   3.023  14.359  1.4648  1.4302 -1.0897
   75TCq2    H3 1156   0.733   2.925  14.172  0.3274  1.0175  0.7110
   75TCq2    H4 1157   1.100   2.942  13.944 -1.8836 -0.3110 -0.6151
   76MPD2     C 1158   0.315   3.558  12.088  0.6276  0.0228 -0.7177
   76MPD2    C1 1159   0.179   3.527  12.101 -0.0727  0.0372 -0.4249
   76MPD2    C2 1160   0.147   3.397  12.123  0.4447 -0.4195  0.3007
   76MPD2    C3 1161   0.250   3.303  12.133  0.0654  0.1373 -0.9396
   76MPD2    C4 1162   0.386   3.340  12.119 -0.8178 -0.2071 -0.1133
   76MPD2    C5 1163   0.410   3.473  12.116 -0.2574 -0.7326  0.2939
   76MPD2     H 1164   0.041   3.376  12.138  0.0523  1.5262  0.2440
   76MPD2    H1 1165   0.471   3.273  12.122 -0.1687  0.6835  1.4207
   76MPD2    H2 1166   0.334   3.663  12.071  2.8777 -0.2865 -0.0309
   76MPD2    H3 1167   0.513   3.506  12.119 -0.6135  0.4205 -0.0555
   76MPD2     N 1168   0.226   3.162  12.147  0.6367  0.3809 -0.0361
   76MPD2    H5 1169   0.306   3.101  12.154  2.1113  2.4316  1.1748
   76MPD2    N1 1170   0.082   3.634  12.104 -0.1912  0.0173 -0.6976
   76MPD2    H7 1171   4.707   3.609  12.136 -0.0930  1.8242  1.0126
   77TCq2    C1 1172   0.100   3.098  12.154 -0.9332  0.2808  1.0147
   77TCq2    O2 1173   4.710   3.142  12.120 -0.0435  0.3512  0.9828
   77TCq2    C2 1174   0.109   2.944  12.156  0.0545  0.0973 -0.2088
   77TCq2    C3 1175   0.003   2.870  12.105  0.3833 -0.2491 -0.2590
   77TCq2    C4 1176   0.020   2.738  12.106 -0.1443  0.0099 -0.5018
   77TCq2    C5 1177   0.127   2.672  12.160 -0.3979  0.2840  0.1801
   77TCq2    C6 1178   0.212   2.747  12.234  0.2761 -1.1781  0.1846
   77TCq2    C7 1179   0.208   2.882  12.228 -0.2891 -0.0170 -0.0918
   77TCq2    C8 1180   0.330   2.682  12.286 -0.0294  0.3397 -0.1291
   77TCq2    O4 1181   0.338   2.565  12.247 -0.2770  0.4245 -0.4254
   77TCq2    C9 1182   4.646   2.656  12.036  0.8843 -0.1669 -0.1638
   77TCq2    O5 1183   4.619   2.552  12.099 -0.0489  0.2371 -0.1726
   77TCq2    O6 1184   4.555   2.713  11.970  0.1811 -0.0202  0.1368
   77TCq2    H2 1185   4.632   2.915  12.061 -0.6896 -0.7573  1.3559
   77TCq2    H3 1186   0.117   2.564  12.161 -0.3201  0.2540 -2.3084
   77TCq2    H4 1187   0.292   2.946  12.253  1.9318 -3.2517  0.7481
   78MPD1     C 1188   1.573   2.764   2.938 -0.1910  0.1748  0.0053
   78MPD1    C1 1189   1.685   2.848   2.904 -0.5178 -0.1979  0.0931
   78MPD1    C2 1190   1.667   2.964   2.826  0.1438 -0.3492 -0.2994
   78MPD1    C3 1191   1.540   2.998   2.776  0.3091  0.3916 -0.0931
   78MPD1    C4 1192   1.433   2.920   2.817 -0.5630  0.0468 -0.2127
   78MPD1    C5 1193   1.449   2.807   2.895  0.1385  0.0271 -0.6964
   78MPD1     H 1194   1.741   3.042   2.812 -1.6704  1.2694 -0.9090
   78MPD1    H1 1195   1.332   2.950   2.792 -1.4192 -2.9066 -0.3145
   78MPD1    H2 1196   1.581   2.667   2.986 -2.6108 -0.3535 -0.6723
   78MPD1    H3 1197   1.359   2.757   2.927  0.6471 -0.3254  0.1785
   78MPD1     N 1198   1.523   3.106   2.687  0.3328  0.0522  0.1066
   78MPD1    H5 1199   1.431   3.149   2.685 -0.5559 -1.8904 -0.3616
   78MPD1    N1 1200   1.807   2.837   2.975  0.2329  0.2570  0.3404
   78MPD1    H6 1201   1.892   2.875   2.932  1.2920 -0.7120  1.5565
   78MPD1    H7 1202   1.832   2.741   2.999  1.1761 -0.0670 -1.9451
   79TCq2    C1 1203   1.619   3.163   2.605 -0.2322  0.4385  0.3680
   79TCq2    O2 1204   1.737   3.135   2.591 -0.5209  0.2434 -0.2061
   79TCq2    C2 1205   1.574   3.286   2.548 -0.0651 -0.6589 -0.0702
   79TCq2    C3 1206   1.485   3.364   2.615 -1.0663  0.2284 -0.5557
   79TCq2    C4 1207   1.466   3.489   2.567  0.5030 -0.0769  0.0803
   79TCq2    C5 1208   1.524   3.535   2.447 -0.1226  0.2910  1.2299
   79TCq2    C6 1209   1.611   3.449   2.381 -0.1520  0.1437 -0.5063
   79TCq2    C7 1210   1.642   3.330   2.440  0.3849  0.0924  0.4554
   79TCq2    C8 1211   1.685   3.485   2.265 -0.3576 -0.6728  0.0092
   79TCq2    O4 1212   1.709   3.602   2.249 -0.3662  0.1626  0.7775
   79TCq2    C9 1213   1.360   3.568   2.629 -0.1171 -0.3174 -0.1882
   79TCq2    O5 1214   1.284   3.505   2.710 -0.2010  0.1234 -0.0789
   79TCq2    O6 1215   1.344   3.688   2.598 -0.1949 -0.5487  0.1656
   79TCq2    H2 1216   1.433   3.336   2.706 -2.1364  2.5329 -0.4544
   79TCq2    H3 1217   1.500   3.631   2.402  1.6905 -0.2728 -0.9406
   79TCq2    H4 1218   1.710   3.262   2.390  0.5468  0.4538  0.1939
   80MPD2     C 1219   4.096   3.249  12.071 -0.0411  0.4702 -0.0258
   80MPD2    C1 1220   3.966   3.265  12.028 -0.4467 -0.5135 -0.7204
   80MPD2    C2 1221   3.888   3.347  12.103  0.3831  0.7311  0.0441
   80MPD2    C3 1222   3.945   3.414  12.209  0.2256  0.0955  0.0507
   80MPD2    C4 1223   4.070   3.395  12.249  0.1280  0.2980  0.6275
   80MPD2    C5 1224   4.145   3.313  12.175 -0.2395 -0.1740 -0.6038
   80MPD2     H 1225   3.782   3.342  12.082 -0.0596  2.4566  1.8299
   80MPD2    H1 1226   4.119   3.446  12.331  0.9188  0.7118 -0.1069
   80MPD2    H2 1227   4.170   3.191  12.017 -1.3886 -0.3599 -0.9758
   80MPD2    H3 1228   4.249   3.287  12.194 -0.3707 -0.6489 -0.5468
   80MPD2     N 1229   3.864   3.502  12.284  0.3329 -0.0853  0.1647
   80MPD2    H5 1230   3.912   3.542  12.364 -1.0998  1.5318  0.2053
   80MPD2    N1 1231   3.909   3.200  11.914 -0.0790  0.0002 -0.7303
   80MPD2    H7 1232   3.810   3.212  11.898  0.0261  0.3105 -1.1345
   81TCq2    C1 1233   3.980   3.114  11.838  0.3081  0.2496 -0.7344
   81TCq2    O2 1234   4.103   3.110  11.826 -0.4824 -0.2375 -0.3806
   81TCq2    C2 1235   3.887   3.049  11.743  0.0037 -0.3629  0.0677
   81TCq2    C3 1236   3.945   3.021  11.623  0.4148 -0.3335  0.0700
   81TCq2    C4 1237   3.873   2.948  11.536  0.2413  0.1882 -0.0920
   81TCq2    C5 1238   3.740   2.925  11.562  0.3126 -0.0073 -0.0904
   81TCq2    C6 1239   3.684   2.954  11.686  0.3086 -0.3901 -0.3283
   81TCq2    C7 1240   3.762   3.018  11.781 -0.0942 -0.4780 -0.2219
   81TCq2    C8 1241   3.550   2.897  11.716  0.1061  0.3282  0.7031
   81TCq2    O4 1242   3.513   2.816  11.635 -0.5827 -0.3176 -0.4771
   81TCq2    C9 1243   3.933   2.903  11.410 -0.4742  0.4689  0.3442
   81TCq2    O5 1244   3.850   2.863  11.326  0.0752  0.4990  0.5518
   81TCq2    O6 1245   4.060   2.900  11.398  0.3305 -0.1559 -0.7883
   81TCq2    H2 1246   4.042   3.060  11.593  0.2513  0.9982  1.2952
   81TCq2    H3 1247   3.680   2.880  11.483  2.8860  0.1549 -2.1550
   81TCq2    H4 1248   3.733   3.006  11.885 -1.3000 -1.2358 -0.6385
   82MPD2     C 1249   1.851   2.857  10.524  0.3135 -0.5817  0.2590
   82MPD2    C1 1250   1.844   2.759  10.433 -0.3050 -0.2442  0.3761
   82MPD2    C2 1251   1.944   2.666  10.421  0.0553  0.7144 -0.3733
   82MPD2    C3 1252   2.048   2.666  10.520  0.0514  0.0226 -0.4132
   82MPD2    C4 1253   2.053   2.761  10.617 -0.9358 -0.2546 -1.0007
   82MPD2    C5 1254   1.952   2.855  10.618 -0.1516 -0.3595  0.3440
   82MPD2     H 1255   1.940   2.590  10.344  0.0613  1.5869 -1.2323
   82MPD2    H1 1256   2.128   2.762  10.695 -2.5296 -0.6516  0.5522
   82MPD2    H2 1257   1.785   2.942  10.519 -0.5038 -1.2285  0.1555
   82MPD2    H3 1258   1.966   2.948  10.673  1.7792 -1.3272  1.5010
   82MPD2     N 1259   2.130   2.550  10.526 -0.6289 -0.0933  0.1682
   82MPD2    H5 1260   2.185   2.543  10.610  0.9945 -0.3772 -0.9173
   82MPD2    N1 1261   1.729   2.770  10.352 -0.1543 -0.2100  1.0549
   82MPD2    H7 1262   1.671   2.846  10.387  0.7344  0.5109  0.9391
   83TCq2    C1 1263   2.152   2.450  10.423  0.1943  0.3000  0.0354
   83TCq2    O2 1264   2.113   2.437  10.309 -0.6472 -0.5305 -0.0503
   83TCq2    C2 1265   2.196   2.331  10.485 -0.7790 -0.2220 -0.5909
   83TCq2    C3 1266   2.321   2.329  10.546 -0.2511 -0.1883 -0.3313
   83TCq2    C4 1267   2.342   2.239  10.648 -0.7475 -0.1964  0.5125
   83TCq2    C5 1268   2.259   2.128  10.656  0.8249 -0.7519  0.2932
   83TCq2    C6 1269   2.136   2.138  10.594 -0.0997 -0.2240  0.0824
   83TCq2    C7 1270   2.105   2.238  10.516  0.2145  0.4085 -0.7222
   83TCq2    C8 1271   2.037   2.044  10.639 -0.2930 -0.7000 -0.4041
   83TCq2    O4 1272   2.051   1.983  10.745 -0.5716 -0.2438 -0.6713
   83TCq2    C9 1273   2.478   2.228  10.709  0.1363  0.2250 -0.6189
   83TCq2    O5 1274   2.511   2.132  10.785 -0.3571 -0.2058  0.2438
   83TCq2    O6 1275   2.568   2.292  10.644 -0.4357 -1.1277 -0.1161
   83TCq2    H2 1276   2.392   2.404  10.514 -0.2375 -0.1327 -0.1732
   83TCq2    H3 1277   2.292   2.037  10.705  1.3903 -0.0630  1.1901
   83TCq2    H4 1278   2.002   2.250  10.483  0.5425  0.4961 -1.7246
   84TCq2    C1 1279   2.451   1.185  10.271  0.7822 -0.5679  0.6289
   84TCq2    O2 1280   2.394   1.202  10.168 -0.0825 -0.2535  0.0394
   84TCq2    C2 1281   2.385   1.104  10.374 -0.1379  0.4004 -0.3416
   84TCq2    C3 1282   2.271   1.047  10.330 -0.6276  0.1514  0.5524
   84TCq2    C4 1283   2.190   1.000  10.434  0.2547  0.1138  0.1652
   84TCq2    C5 1284   2.227   0.994  10.569 -0.0478  0.2534 -1.1951
   84TCq2    C6 1285   2.353   1.047  10.597  0.4838  0.0135  0.0255
   84TCq2    C7 1286   2.425   1.109  10.505  0.3128 -0.6993 -0.7745
   84TCq2    C8 1287   2.387   1.069  10.737  0.1449 -0.3870  0.0079
   84TCq2    O4 1288   2.461   1.166  10.759  0.1792  0.5244  0.2330
   84TCq2    C9 1289   2.068   0.926  10.395 -0.0628  1.0363  0.3610
   84TCq2    O5 1290   2.041   0.901  10.272 -0.1378 -0.4927  0.6878
   84TCq2    O6 1291   2.000   0.870  10.482 -0.6280  0.3455 -0.2833
   84TCq2    H2 1292   2.235   1.049  10.228 -0.1137 -1.1414  0.3513
   84TCq2    H3 1293   2.154   0.955  10.640  1.4430  0.6075  0.5207
   84TCq2    H4 1294   2.508   1.171  10.537  0.6263 -0.6612 -1.6602
   85MPD2     C 1295   3.417   4.477  15.862  0.8453 -0.3159 -0.0501
   85MPD2    C1 1296   3.529   4.426  15.921  0.5108  0.2872 -0.1146
   85MPD2    C2 1297   3.650   4.490  15.922  0.1113  0.2347  0.3014
   85MPD2    C3 1298   3.664   4.612  15.863  0.2346 -0.1278  0.3181
   85MPD2    C4 1299   3.551   4.672  15.812 -1.2726  0.5797  0.6061
   85MPD2    C5 1300   3.427   4.600  15.808  0.5096 -0.2179 -0.6490
   85MPD2     H 1301   3.733   4.438  15.968  0.8349  0.1778 -1.0599
   85MPD2    H1 1302   3.550   0.051  15.762  0.2818 -0.4300 -1.3143
   85MPD2    H2 1303   3.320   4.429  15.862  1.0000 -0.5921 -2.7401
   85MPD2    H3 1304   3.338   4.650  15.770 -0.1627 -1.4608 -0.7122
   85MPD2     N 1305   3.791   4.668  15.850  0.1207  0.4125  0.1290
   85MPD2    H5 1306   3.879   4.619  15.866 -0.4537 -0.9212 -0.7918
   85MPD2    N1 1307   3.523   4.294  15.962 -0.0851  0.3438 -0.1429
   85MPD2    H7 1308   3.609   4.241  15.970  0.4207  0.9536 -1.4201
   86TCq2    C1 1309   3.803   0.085  15.816 -0.0241 -0.4480  0.3870
   86TCq2    O2 1310   3.720   0.174  15.817  0.2406 -0.1447 -0.3119
   86TCq2    C2 1311   3.941   0.118  15.766  0.1837 -0.4743  0.6042
   86TCq2    C3 1312   3.959   0.245  15.717 -0.4163  0.4318 -0.7449
   86TCq2    C4 1313   4.053   0.265  15.624 -0.1941 -0.8505  0.0596
   86TCq2    C5 1314   4.132   0.161  15.577 -0.9532  0.0037 -1.3475
   86TCq2    C6 1315   4.122   0.042  15.640  0.0217  0.1346  0.7665
   86TCq2    C7 1316   4.029   0.009  15.738 -0.3609  0.3096  0.6646
   86TCq2    C8 1317   4.213   4.658  15.600 -0.9186 -0.1428  0.1125
   86TCq2    O4 1318   4.239   4.585  15.693  0.0407 -0.0232 -0.0663
   86TCq2    C9 1319   4.078   0.393  15.557 -0.6254  0.0340 -0.7312
   86TCq2    O5 1320   4.194   0.447  15.557  0.3303  0.7057 -0.6547
   86TCq2    O6 1321   3.983   0.431  15.484 -0.1309 -0.3921  0.7363
   86TCq2    H2 1322   3.892   0.329  15.732 -0.6851 -0.2686  1.9672
   86TCq2    H3 1323   4.205   0.197  15.505 -3.3909  4.2339 -1.7346
   86TCq2    H4 1324   4.039   4.636  15.796 -0.9838 -1.7045 -2.3749
   87MPD2     C 1325   1.540   3.695   1.945 -0.0704  0.7762 -0.4559
   87MPD2    C1 1326   1.515   3.658   1.815  0.7663  0.5624  0.0646
   87MPD2    C2 1327   1.487   3.756   1.720  0.2451  1.3292  0.0540
   87MPD2    C3 1328   1.468   3.886   1.752  0.6056  0.0966  0.3392
   87MPD2    C4 1329   1.509   3.928   1.881  0.2971  0.0980  0.0074
   87MPD2    C5 1330   1.549   3.827   1.965  0.1725 -0.4985  0.0392
   87MPD2     H 1331   1.474   3.734   1.615 -0.3567  2.5814 -0.1346
   87MPD2    H1 1332   1.502   4.030   1.916  2.2010  0.1912  0.1395
   87MPD2    H2 1333   1.559   3.631   2.031  1.0451  2.3530  0.4761
   87MPD2    H3 1334   1.584   3.856   2.064  0.4366  0.2827 -0.2842
   87MPD2     N 1335   1.426   3.988   1.660 -0.2716 -0.1131  0.1022
   87MPD2    H5 1336   1.441   4.085   1.685 -1.1467  0.0505 -0.0141
   87MPD2    N1 1337   1.502   3.524   1.790 -0.2882 -0.4720  0.2645
   87MPD2    H7 1338   1.516   3.458   1.865  0.1182 -0.6743  0.0103
   88TCq2    C1 1339   1.489   3.472   1.664  0.1576  0.1393 -0.0558
   88TCq2    O2 1340   1.536   3.523   1.560  0.4175 -0.4069  0.3204
   88TCq2    C2 1341   1.481   3.328   1.661 -0.1642  0.8780 -0.5153
   88TCq2    C3 1342   1.422   3.258   1.757 -0.3860  0.4709 -0.0826
   88TCq2    C4 1343   1.418   3.123   1.758 -0.4007 -0.1109  0.3789
   88TCq2    C5 1344   1.477   3.054   1.655 -0.6140  0.5142  0.0048
   88TCq2    C6 1345   1.551   3.129   1.565  0.0081 -0.0642 -0.2768
   88TCq2    C7 1346   1.552   3.265   1.568 -0.0148  1.1658  0.1949
   88TCq2    C8 1347   1.632   3.069   1.455 -0.4295  0.0781 -0.1712
   88TCq2    O4 1348   1.718   3.136   1.399 -0.2658  0.3669  0.2833
   88TCq2    C9 1349   1.370   3.065   1.885  0.3507 -0.0875  0.4830
   88TCq2    O5 1350   1.293   2.961   1.881  0.8411 -0.0119  0.5488
   88TCq2    O6 1351   1.386   3.135   1.987  0.3052 -0.1338  0.2567
   88TCq2    H2 1352   1.367   3.312   1.834  3.0078  1.4340  1.7030
   88TCq2    H3 1353   1.466   2.947   1.663  0.8089  0.2278 -1.8106
   88TCq2    H4 1354   1.631   3.321   1.519  2.1736 -0.9093  1.3367
   89MPD2     C 1355   1.516   1.548   2.490  0.8078  0.7424  0.0547
   89MPD2    C1 1356   1.484   1.529   2.358 -0.7134  0.1311  0.0824
   89MPD2    C2 1357   1.588   1.505   2.262  0.4319  0.2700  0.3275
   89MPD2    C3 1358   1.722   1.493   2.306  0.7402  0.1510 -0.5786
   89MPD2    C4 1359   1.753   1.515   2.442 -0.3013 -0.1469 -0.1949
   89MPD2    C5 1360   1.649   1.538   2.525  0.6466 -0.6620  0.1960
   89MPD2     H 1361   1.565   1.507   2.156 -0.2109 -0.1151  0.4604
   89MPD2    H1 1362   1.851   1.511   2.488 -0.7500  1.9950  0.9274
   89MPD2    H2 1363   1.453   1.577   2.573  1.0560  0.2242  0.4196
   89MPD2    H3 1364   1.663   1.568   2.628 -0.0987 -0.2220  0.1642
   89MPD2     N 1365   1.824   1.482   2.209  0.1683 -0.1514 -0.2781
   89MPD2    H5 1366   1.797   1.481   2.111  1.6569  0.2614 -0.6961
   89MPD2    N1 1367   1.351   1.532   2.309 -0.4144 -0.1137 -0.6944
   89MPD2    H7 1368   1.321   1.498   2.218 -0.3327 -0.7720 -0.4758
   90TCq2    C1 1369   1.962   1.448   2.237 -0.3062 -0.3280 -0.1539
   90TCq2    O2 1370   2.018   1.424   2.346 -0.9874 -0.2814  0.0323
   90TCq2    C2 1371   2.046   1.452   2.113  0.3697 -0.3794 -0.4948
   90TCq2    C3 1372   2.153   1.369   2.110  0.4247  0.6225  0.3662
   90TCq2    C4 1373   2.235   1.381   2.005  0.3817  0.1966 -0.9776
   90TCq2    C5 1374   2.201   1.469   1.901 -0.0344 -0.0821 -0.5300
   90TCq2    C6 1375   2.088   1.542   1.901  0.0911 -0.0850 -0.5550
   90TCq2    C7 1376   2.003   1.531   2.005 -0.7027  0.1688 -0.0160
   90TCq2    C8 1377   2.063   1.637   1.796  0.3689 -0.4932 -0.5616
   90TCq2    O4 1378   1.948   1.693   1.794 -0.3330  0.3198 -0.5864
   90TCq2    C9 1379   2.369   1.320   1.996 -0.1233  0.3573  0.8266
   90TCq2    O5 1380   2.460   1.397   1.948  0.3971  0.3173 -0.2800
   90TCq2    O6 1381   2.398   1.224   2.068 -0.1111  0.3643 -0.2076
   90TCq2    H2 1382   2.177   1.320   2.203 -0.5426  3.2287  1.9974
   90TCq2    H3 1383   2.271   1.460   1.819  0.6443 -0.2167  0.0648
   90TCq2    H4 1384   1.927   1.608   2.010 -0.9630 -0.0256 -0.8999
   91TMC2    C1 1385   3.832   1.093  16.668 -0.0731  0.0093  0.2040
   91TMC2    C2 1386   3.844   1.155  16.543  0.1056  0.0961  0.1239
   91TMC2    C3 1387   3.735   1.216  16.487  0.1455 -0.1554 -0.7251
   91TMC2    C4 1388   3.707   1.079  16.721  0.3313 -0.2181  0.1315
   91TMC2    C5 1389   3.601   1.125  16.653 -0.3133 -0.1994  0.1479
   91TMC2    C6 1390   3.605   1.198  16.535  0.3257 -0.7462 -0.2104
   91TMC2     C 1391   3.943   1.008  16.721  0.6095 -0.0104  0.1104
   91TMC2     O 1392   3.916   0.932  16.815 -0.8578  0.1775 -0.2491
   91TMC2     H 1393   3.943   1.172  16.501 -0.0941 -1.4037 -0.9226
   91TMC2    H1 1394   3.693   1.015  16.807 -0.5158 -0.5654 -0.2633
   91TMC2    H2 1395   3.510   1.227  16.491  0.6109  0.1473 -0.2543
   91TMC2    C7 1396   3.485   1.046  16.673 -0.5767  0.4143 -0.1232
   91TMC2    C8 1397   3.766   1.268  16.358 -1.0926 -0.7240  0.1490
   91TMC2    O1 1398   3.479   0.999  16.783  0.0800 -0.2169  0.1482
   91TMC2    O2 1399   3.850   1.220  16.286  0.5109 -0.1750 -0.5326
   91TMC2    O5 1400   3.656   1.342  16.319  0.2779  0.2622 -0.0981
   91TMC2    H5 1401   3.632   1.402  16.393  2.9383  2.3381 -0.9126
   92MPD2     C 1402   4.209   0.871  16.770  0.7850  0.1969 -0.0676
   92MPD2    C1 1403   4.182   0.957  16.666 -0.6316 -0.8492 -0.0028
   92MPD2    C2 1404   4.288   0.992  16.581 -0.0702  0.1785  0.3141
   92MPD2    C3 1405   4.409   0.939  16.605 -0.2372 -0.3526 -0.1607
   92MPD2    C4 1406   4.438   0.860  16.713 -0.2759 -0.1143  0.0602
   92MPD2    C5 1407   4.336   0.822  16.793  0.1104  0.8329  0.5909
   92MPD2     H 1408   4.276   1.062  16.500 -2.4088  0.3743  0.8192
   92MPD2    H1 1409   4.538   0.830  16.739 -0.9549 -1.0549  1.5903
   92MPD2    H2 1410   4.138   0.843  16.847  0.8122 -2.1026 -0.9053
   92MPD2    H3 1411   4.354   0.752  16.874  0.2870 -1.3755 -1.3462
   92MPD2     N 1412   4.513   0.985  16.519  0.0253  0.4367  0.6221
   92MPD2    H5 1413   4.482   1.057  16.454  1.9243 -0.1701 -0.9507
   92MPD2    N1 1414   4.059   1.032  16.649 -0.1209 -0.0178 -0.4728
   92MPD2    H7 1415   4.058   1.107  16.582 -0.4191  0.4629  0.0700
   93MPD2     C 1416   0.462   1.660  13.613 -0.5497 -0.2839  0.0439
   93MPD2    C1 1417   0.482   1.579  13.722  0.1521  0.1559  0.3942
   93MPD2    C2 1418   0.368   1.521  13.768  0.1132 -0.0576 -0.1703
   93MPD2    C3 1419   0.248   1.547  13.720  0.3844 -0.8624  0.4314
   93MPD2    C4 1420   0.225   1.639  13.621  0.1017  0.7486 -0.4498
   93MPD2    C5 1421   0.340   1.696  13.565 -0.3960 -0.6844 -0.2595
   93MPD2     H 1422   0.384   1.454  13.852 -1.1845  0.4182  0.4552
   93MPD2    H1 1423   0.133   1.672  13.575 -1.0588  1.5533  2.5100
   93MPD2    H2 1424   0.544   1.710  13.562  0.0444 -0.0634  1.2098
   93MPD2    H3 1425   0.328   1.765  13.482 -1.0704  0.0768  0.4653
   93MPD2     N 1426   0.132   1.467  13.760 -0.1099  0.3485 -0.4068
   93MPD2    H5 1427   0.042   1.491  13.720  0.1801  2.0444 -0.0796
   93MPD2    N1 1428   0.608   1.543  13.774  0.2252  0.7027  0.9218
   93MPD2    H7 1429   0.605   1.478  13.852 -1.5042 -0.2270  0.0674
   94TCq2    C1 1430   0.726   1.564  13.714 -0.5007 -0.4997  0.4126
   94TCq2    O2 1431   0.744   1.590  13.592  0.1386 -0.2576 -0.4142
   94TCq2    C2 1432   0.832   1.508  13.788 -0.0194  0.2010  0.4470
   94TCq2    C3 1433   0.826   1.519  13.930  0.0957  0.5256  0.4717
   94TCq2    C4 1434   0.939   1.530  14.009  0.7039  0.0210  0.1755
   94TCq2    C5 1435   1.062   1.511  13.942  0.4910  0.3552 -0.9292
   94TCq2    C6 1436   1.065   1.519  13.807  0.3578  0.6253 -0.3407
   94TCq2    C7 1437   0.952   1.522  13.731  0.1634 -0.4305  0.1282
   94TCq2    C8 1438   1.186   1.474  13.742  0.5371 -0.1761  0.1236
   94TCq2    O4 1439   1.288   1.482  13.807  0.5917  0.2092  0.0818
   94TCq2    C9 1440   0.934   1.539  14.150 -0.5981 -0.2509 -0.0230
   94TCq2    O5 1441   1.040   1.557  14.214 -0.8552 -0.1629 -0.0073
   94TCq2    O6 1442   0.820   1.516  14.208  0.1340  0.3942 -0.1238
   94TCq2    H2 1443   0.731   1.540  13.978  1.1044  2.1303  1.7883
   94TCq2    H3 1444   1.151   1.528  14.003 -0.3305 -1.0178  0.6342
   94TCq2    H4 1445   0.958   1.534  13.624  0.6247  0.6054  0.2683
   95TMC2    C1 1446   0.770   2.270  15.908  0.3641 -0.1075 -0.2630
   95TMC2    C2 1447   0.845   2.213  16.009 -1.2118  0.3340 -0.1788
   95TMC2    C3 1448   0.778   2.185  16.128  0.1588  0.2162 -0.6169
   95TMC2    C4 1449   0.635   2.307  15.929 -0.4913  0.4682  0.7352
   95TMC2    C5 1450   0.578   2.276  16.048 -0.5574 -1.0150  0.1079
   95TMC2    C6 1451   0.647   2.222  16.152  0.3187 -0.3336 -0.0456
   95TMC2     C 1452   0.832   2.315  15.789  0.1083  0.2864  0.0818
   95TMC2     O 1453   0.957   2.323  15.792 -0.3172 -0.0077  0.0442
   95TMC2     H 1454   0.944   2.170  15.994 -1.7510  0.0196 -2.7899
   95TMC2    H1 1455   0.586   2.379  15.865 -2.2520 -1.9624 -0.6265
   95TMC2    H2 1456   0.598   2.190  16.242 -0.9495 -0.3186 -0.7333
   95TMC2    C7 1457   0.446   2.338  16.074  0.5472 -0.0734 -0.5765
   95TMC2    C8 1458   0.858   2.184  16.245  0.4889  0.1002 -0.1205
   95TMC2    O1 1459   0.430   2.346  16.191  0.6604  0.1323 -0.3132
   95TMC2    O2 1460   0.946   2.100  16.262 -0.0530  0.1741  0.3271
   95TMC2    O5 1461   0.828   2.289  16.323  0.0647  0.5260 -0.2598
   95TMC2    H5 1462   0.750   2.339  16.290 -0.3925  0.9834  1.5307
   96MPD2     C 1463   0.823   2.505  15.319 -0.0280  0.3781  0.0892
   96MPD2    C1 1464   0.917   2.520  15.417 -0.7437  0.0205 -0.5944
   96MPD2    C2 1465   0.891   2.460  15.538  0.1193  0.3822 -0.7334
   96MPD2    C3 1466   0.777   2.389  15.563 -0.7350 -0.2142 -0.3856
   96MPD2    C4 1467   0.679   2.370  15.463 -0.5568 -0.0545 -0.1569
   96MPD2    C5 1468   0.712   2.429  15.337  0.8477  0.5542  0.2598
   96MPD2     H 1469   0.964   2.471  15.619  1.3234 -0.5685 -1.6845
   96MPD2    H1 1470   0.583   2.329  15.491  0.0912 -1.7221 -0.3880
   96MPD2    H2 1471   0.823   2.561  15.226 -2.0014  0.7443  0.3084
   96MPD2    H3 1472   0.634   2.430  15.261 -1.6333  0.9167  2.8293
   96MPD2     N 1473   0.747   2.332  15.682 -0.2176 -0.4208 -0.3222
   96MPD2    H5 1474   0.651   2.300  15.696  0.1491 -0.8661  1.2266
   96MPD2    N1 1475   1.028   2.607  15.399  0.3211 -0.5379  0.5169
   96MPD2    H7 1476   1.050   2.637  15.305  0.2530 -2.1047 -0.0007
   97MPD2     C 1477   2.713   0.236   0.720  0.4067  0.0248  0.1873
   97MPD2    C1 1478   2.784   0.345   0.758 -0.5527 -0.3210 -0.3888
   97MPD2    C2 1479   2.834   0.433   0.656 -0.1783  0.8998  0.5620
   97MPD2    C3 1480   2.805   0.406   0.522 -0.4734 -0.3486  0.4711
   97MPD2    C4 1481   2.737   0.293   0.497  0.3423 -0.3050 -0.3144
   97MPD2    C5 1482   2.689   0.200   0.592  0.3687  0.0306 -0.3991
   97MPD2     H 1483   2.898   0.513   0.690 -0.2273  1.3161 -0.3395
   97MPD2    H1 1484   2.703   0.278   0.395  0.1826  1.5500 -0.5301
   97MPD2    H2 1485   2.662   0.175   0.794  1.9952  1.4645  2.4425
   97MPD2    H3 1486   2.629   0.112   0.574 -1.1499  0.8414  0.6882
   97MPD2     N 1487   2.830   0.481   0.400  0.1218 -0.2476 -0.3200
   97MPD2    H5 1488   2.815   0.443   0.307 -0.3871 -0.7952 -0.0124
   97MPD2    N1 1489   2.814   0.366   0.897 -0.8654  0.2311 -0.1606
   97MPD2    H7 1490   2.770   0.300   0.960  3.2610 -1.8521  0.5339
   98TCq2    C1 1491   2.897   0.600   0.402 -0.0896  0.0521 -0.0628
   98TCq2    O2 1492   2.934   0.655   0.503  0.9868  0.2886 -0.2637
   98TCq2    C2 1493   2.880   0.671   0.278  0.3664 -0.2396  0.2887
   98TCq2    C3 1494   2.759   0.669   0.207 -0.3634  0.1956 -0.8408
   98TCq2    C4 1495   2.729   0.783   0.135 -0.0464  0.0832  0.3600
   98TCq2    C5 1496   2.806   0.894   0.130 -0.5157  1.0828  0.4273
   98TCq2    C6 1497   2.918   0.896   0.202  0.5030  0.4224  0.3330
   98TCq2    C7 1498   2.954   0.789   0.283  0.5150 -0.4408  0.3482
   98TCq2    C8 1499   2.991   1.026   0.231 -0.0887  0.1375  0.5136
   98TCq2    O4 1500   3.089   1.018   0.306 -0.3191  0.0642 -0.0678
   98TCq2    C9 1501   2.599   0.787   0.071  1.0964  0.6894 -0.7295
   98TCq2    O5 1502   2.558   0.902   0.040 -0.3391  0.4968  0.1572
   98TCq2    O6 1503   2.560   0.678   0.023 -0.6168  0.0492 -0.4536
   98TCq2    H2 1504   2.679   0.596   0.212 -1.3464  1.3313  0.1373
   98TCq2    H3 1505   2.784   0.970   0.057 -0.3606  1.6847  1.0074
   98TCq2    H4 1506   3.037   0.796   0.352  0.8635 -2.8875  0.1604
   99MPD2     C 1507   1.914   2.459   2.136  0.8002  0.4570  0.3449
   99MPD2    C1 1508   1.778   2.466   2.144 -0.2860 -0.0189 -0.6649
   99MPD2    C2 1509   1.702   2.438   2.029  0.1783 -0.7588 -0.7598
   99MPD2    C3 1510   1.760   2.424   1.904  0.0342 -0.7361 -0.0504
   99MPD2    C4 1511   1.902   2.425   1.896  0.4004 -0.2778  0.0426
   99MPD2    C5 1512   1.972   2.438   2.007 -0.0643  0.3367  0.2598
   99MPD2     H 1513   1.594   2.435   2.032  0.1564  1.5090  0.7380
   99MPD2    H1 1514   1.957   2.430   1.803  0.9403  0.0693  0.3781
   99MPD2    H2 1515   1.986   2.466   2.217  2.2286 -1.7048 -0.7283
   99MPD2    H3 1516   2.080   2.449   2.003  0.1909 -2.5147 -0.5275
   99MPD2     N 1517   1.673   2.416   1.795 -0.1730  0.3099  0.4014
   99MPD2    H5 1518   1.573   2.415   1.813 -0.2834  2.3599 -0.0488
   99MPD2    N1 1519   1.703   2.490   2.259 -0.7384  0.5853  0.2383
   99MPD2    H7 1520   1.604   2.473   2.244 -0.8572  1.3184  0.2041
  100TCq2    C1 1521   1.760   2.509   2.380  0.3542 -0.3050  0.7217
  100TCq2    O2 1522   1.879   2.524   2.409  0.2419  0.5709 -0.0500
  100TCq2    C2 1523   1.670   2.513   2.494  0.1814  0.1446 -0.5180
  100TCq2    C3 1524   1.721   2.473   2.618  0.7123 -0.0990  0.5488
  100TCq2    C4 1525   1.631   2.444   2.718  0.2468  0.7492  0.7014
  100TCq2    C5 1526   1.498   2.449   2.699 -0.6945 -0.1891  0.3787
  100TCq2    C6 1527   1.453   2.465   2.566 -0.2198 -0.9582  0.6293
  100TCq2    C7 1528   1.538   2.512   2.469  0.4726  0.0756 -0.3071
  100TCq2    C8 1529   1.307   2.466   2.548 -0.3732 -0.3616 -0.2002
  100TCq2    O4 1530   1.238   2.510   2.642  0.2885  0.3705 -0.6621
  100TCq2    C9 1531   1.686   2.381   2.842  0.5791 -0.6864 -0.7471
  100TCq2    O5 1532   1.608   2.310   2.913  0.3319 -0.3420 -0.0299
  100TCq2    O6 1533   1.812   2.357   2.849  0.2806  0.4220 -0.5780
  100TCq2    H2 1534   1.829   2.467   2.633  0.8842  0.8031 -0.3756
  100TCq2    H3 1535   1.426   2.405   2.767  0.3429 -1.2228  0.8138
  100TCq2    H4 1536   1.497   2.543   2.374 -5.1936  1.9289  2.7674
  101MPD2     C 1537   2.563   3.232  12.890  0.1091 -0.9319 -0.0457
  101MPD2    C1 1538   2.530   3.298  13.007  0.0101 -0.0591  0.0391
  101MPD2    C2 1539   2.464   3.223  13.104 -0.2760 -0.0686  0.8131
  101MPD2    C3 1540   2.432   3.088  13.081  0.1014  0.0963  0.1019
  101MPD2    C4 1541   2.471   3.025  12.966 -0.0446  0.4216 -0.0733
  101MPD2    C5 1542   2.536   3.104  12.871 -0.2101  0.8141 -0.8950
  101MPD2     H 1543   2.439   3.263  13.201  1.2867 -2.6867  2.2900
  101MPD2    H1 1544   2.465   2.922  12.932 -0.3534  0.4887 -0.2257
  101MPD2    H2 1545   2.614   3.291  12.814  2.5291 -2.7060  0.2096
  101MPD2    H3 1546   2.562   3.061  12.775  1.2484 -0.4390  0.0498
  101MPD2     N 1547   2.372   3.015  13.182  0.4108  0.2492  0.0532
  101MPD2    H5 1548   2.352   3.065  13.269 -2.3229 -0.4765 -0.1414
  101MPD2    N1 1549   2.545   3.439  13.006 -0.5627  0.2384 -0.1509
  101MPD2    H7 1550   2.542   3.482  12.914  0.4365  0.0967 -0.2511
  102TCq2    C1 1551   2.532   3.841  12.766  0.5683 -0.2008  0.6005
  102TCq2    O2 1552   2.636   3.791  12.731  0.0404 -0.0533 -0.3908
  102TCq2    C2 1553   2.479   3.803  12.892  0.1686 -0.3937 -0.2624
  102TCq2    C3 1554   2.354   3.838  12.930  0.3381 -0.1515 -0.0201
  102TCq2    C4 1555   2.301   3.786  13.051 -0.8447 -0.0026  0.3597
  102TCq2    C5 1556   2.380   3.701  13.123  0.2224  0.3711 -0.0159
  102TCq2    C6 1557   2.496   3.660  13.078 -0.8112  0.3006  0.4673
  102TCq2    C7 1558   2.549   3.707  12.964  1.2951 -0.2595  0.6294
  102TCq2    C8 1559   2.529   3.520  13.115  0.4219 -0.8718  0.3821
  102TCq2    O4 1560   2.509   3.481  13.229 -0.1234 -0.3131  0.4057
  102TCq2    C9 1561   2.161   3.801  13.072  0.6047 -0.3402 -0.2787
  102TCq2    O5 1562   2.095   3.872  12.989 -0.4146  0.0030 -0.5287
  102TCq2    O6 1563   2.116   3.704  13.136 -0.3350  0.5080  0.7741
  102TCq2    H2 1564   2.289   3.898  12.868 -0.1317  0.7429  1.3500
  102TCq2    H3 1565   2.330   3.648  13.204  2.2220  1.1681  1.7472
  102TCq2    H4 1566   2.646   3.668  12.935  0.8856 -1.9546  1.5222
  103TMC2    C1 1567   0.676   2.915  12.955 -0.2776 -0.5218 -1.0069
  103TMC2    C2 1568   0.789   2.987  12.963  0.0048  0.0059 -0.8190
  103TMC2    C3 1569   0.784   3.093  13.043  0.4884 -0.1166 -0.7076
  103TMC2    C4 1570   0.569   2.940  13.039  0.4933  0.4514 -0.5593
  103TMC2    C5 1571   0.578   3.039  13.132 -0.4308  0.1147  0.1652
  103TMC2    C6 1572   0.688   3.125  13.134 -0.5374  0.2570 -0.4265
  103TMC2     C 1573   0.639   2.891  12.820  0.4603 -0.1725 -0.0509
  103TMC2     O 1574   0.538   2.948  12.787  0.5168 -0.0775 -0.6685
  103TMC2     H 1575   0.861   2.965  12.886  1.0882 -2.0653  0.7790
  103TMC2    H1 1576   0.473   2.894  13.019  0.3738  0.2004  0.6302
  103TMC2    H2 1577   0.696   3.207  13.204  0.2381 -2.0108  2.1287
  103TMC2    C7 1578   0.464   3.076  13.214  0.0328 -1.0787 -0.0101
  103TMC2    C8 1579   0.905   3.158  13.056 -0.2079  0.4880 -0.6965
  103TMC2    O1 1580   0.385   2.983  13.229 -0.3532  0.2717 -0.3161
  103TMC2    O2 1581   1.013   3.101  13.040  0.6221  0.4810  0.2149
  103TMC2    O5 1582   0.884   3.289  13.056  0.6696  0.6678 -1.0223
  103TMC2    H5 1583   0.792   3.323  13.054 -0.0704 -1.3345 -0.8661
  104MPD2     C 1584   0.761   2.663  12.574 -0.3915  0.1892  0.5570
  104MPD2    C1 1585   0.679   2.757  12.622  0.3230 -0.0425  0.0803
  104MPD2    C2 1586   0.557   2.772  12.562  0.9422 -0.9807 -0.1656
  104MPD2    C3 1587   0.520   2.707  12.447  0.6097  0.4417  0.1755
  104MPD2    C4 1588   0.592   2.604  12.407  0.9683 -0.4955 -0.0039
  104MPD2    C5 1589   0.721   2.592  12.462 -0.0244 -0.7256 -0.9113
  104MPD2     H 1590   0.497   2.856  12.596  0.0302 -0.9970 -1.6845
  104MPD2    H1 1591   0.562   2.541  12.324 -0.4513  2.4962 -1.7285
  104MPD2    H2 1592   0.843   2.623  12.634 -0.1936 -2.3251 -1.4112
  104MPD2    H3 1593   0.788   2.515  12.424  1.7114  0.0945  0.4923
  104MPD2     N 1594   0.399   2.753  12.382  0.4785  0.0906  0.1505
  104MPD2    H5 1595   0.349   2.831  12.425 -0.0162  0.8601 -1.8449
  104MPD2    N1 1596   0.721   2.815  12.740  0.0774  0.1010  0.1036
  104MPD2    H7 1597   0.808   2.780  12.780  0.0134 -0.2256 -0.0391
  105MPD2     C 1598   2.512   2.810   0.117 -0.4748  0.1255  0.2103
  105MPD2    C1 1599   2.468   2.947   0.130 -0.0323 -0.2864 -0.0607
  105MPD2    C2 1600   2.380   2.981   0.235  0.4030 -0.5232 -0.0611
  105MPD2    C3 1601   2.332   2.881   0.314 -0.3847 -0.6032  0.0921
  105MPD2    C4 1602   2.375   2.750   0.296  0.4023  0.4444  0.6395
  105MPD2    C5 1603   2.477   2.720   0.211  0.0803 -0.2299  0.3667
  105MPD2     H 1604   2.348   3.083   0.254  1.3167 -0.5716  1.7758
  105MPD2    H1 1605   2.329   2.667   0.349 -1.7692  1.5363  0.4530
  105MPD2    H2 1606   2.563   2.778   0.027  0.4959 -0.7299  1.0639
  105MPD2    H3 1607   2.507   2.617   0.195 -1.9398 -0.4573 -2.0063
  105MPD2     N 1608   2.233   2.917   0.413 -0.1269  0.0069  0.0007
  105MPD2    H5 1609   2.202   3.012   0.397  1.6070  0.3595 -1.2015
  105MPD2    N1 1610   2.514   3.052   0.049  0.0730  0.5028  0.2985
  105MPD2    H7 1611   2.462   3.139   0.057 -1.6738 -0.4718 -0.4273
  106TCq2    C1 1612   2.174   2.838   0.509 -0.4911  0.4657 -0.1135
  106TCq2    O2 1613   2.186   2.717   0.526 -0.1327 -0.0787 -0.4221
  106TCq2    C2 1614   2.109   2.914   0.613 -0.5873 -0.5210  0.6669
  106TCq2    C3 1615   2.143   3.040   0.632  0.3035  0.5434 -0.2946
  106TCq2    C4 1616   2.094   3.100   0.746  0.0221 -0.6696  0.7313
  106TCq2    C5 1617   2.021   3.036   0.840  0.1132  1.0177 -0.7438
  106TCq2    C6 1618   1.988   2.903   0.820 -0.7791  0.3175 -0.3459
  106TCq2    C7 1619   2.032   2.847   0.702 -0.1725 -0.0071 -0.6510
  106TCq2    C8 1620   1.879   2.836   0.888  0.2118  0.2894 -0.0410
  106TCq2    O4 1621   1.824   2.746   0.830 -0.0223  0.1156 -0.0649
  106TCq2    C9 1622   2.122   3.240   0.756 -0.2633  0.2226  0.0673
  106TCq2    O5 1623   2.102   3.293   0.870 -0.4053  0.1886 -0.0998
  106TCq2    O6 1624   2.176   3.296   0.660 -0.0889  0.0230 -0.5773
  106TCq2    H2 1625   2.204   3.098   0.564 -0.8852  0.2860 -1.5802
  106TCq2    H3 1626   1.996   3.094   0.928  2.3377  0.1212  0.4833
  106TCq2    H4 1627   2.002   2.747   0.675  3.3166 -0.8495 -1.3768
  107TMC2    C1 1628   2.754   1.388  11.448 -0.7072  0.5919  0.3226
  107TMC2    C2 1629   2.879   1.368  11.489 -0.2198 -0.1830 -0.4026
  107TMC2    C3 1630   2.937   1.241  11.465 -0.2874  0.4936 -0.0193
  107TMC2    C4 1631   2.688   1.294  11.374  0.6015 -0.4566 -0.4231
  107TMC2    C5 1632   2.740   1.173  11.360  0.0639  0.0609 -0.1715
  107TMC2    C6 1633   2.864   1.139  11.412 -0.0471  0.3649 -0.0090
  107TMC2     C 1634   2.688   1.509  11.491  0.8520  0.6476  0.6343
  107TMC2     O 1635   2.743   1.578  11.572  0.1120 -0.5075  0.2849
  107TMC2     H 1636   2.927   1.454  11.534  0.9825 -1.3460  0.5192
  107TMC2    H1 1637   2.583   1.303  11.347  0.9135  2.1302 -0.7497
  107TMC2    H2 1638   2.897   1.036  11.417  0.1240  0.3595 -1.2862
  107TMC2    C7 1639   2.648   1.068  11.332 -0.5222 -0.2534  0.0133
  107TMC2    C8 1640   3.069   1.212  11.517  0.8090 -0.4670  0.5532
  107TMC2    O1 1641   2.632   0.973  11.404  0.5233  0.7561 -0.0921
  107TMC2    O2 1642   3.118   1.101  11.496 -0.1129 -0.2840  0.4693
  107TMC2    O5 1643   3.120   1.317  11.574 -0.4081  0.7150  0.2856
  107TMC2    H5 1644   3.049   1.379  11.600  0.0203  0.4593  2.0778
  108MPD2     C 1645   2.442   1.724  11.317  0.5260 -0.4328  0.5206
  108MPD2    C1 1646   2.523   1.683  11.421 -0.9320  0.1470  0.1663
  108MPD2    C2 1647   2.514   1.749  11.543 -0.6781 -0.5915 -0.5197
  108MPD2    C3 1648   2.431   1.857  11.554  0.2855  0.1477  0.0009
  108MPD2    C4 1649   2.372   1.912  11.442  0.1852 -0.0416 -0.3976
  108MPD2    C5 1650   2.370   1.842  11.327 -0.3808  0.5840 -0.2112
  108MPD2     H 1651   2.577   1.716  11.626 -0.5628 -0.1926 -0.4499
  108MPD2    H1 1652   2.322   2.008  11.440  0.5298  0.1724  1.0940
  108MPD2    H2 1653   2.443   1.662  11.228  0.0897 -0.1035  0.2892
  108MPD2    H3 1654   2.315   1.876  11.241 -1.4003 -1.4416 -0.3561
  108MPD2     N 1655   2.403   1.924  11.673  0.5181  0.1384  0.8523
  108MPD2    H5 1656   2.338   2.002  11.669 -1.5773 -1.6226  0.0690
  108MPD2    N1 1657   2.604   1.568  11.397  0.0306  0.4901 -0.4517
  108MPD2    H7 1658   2.595   1.518  11.310  0.6919 -0.5526  0.0719
  109MPD2     C 1659   2.182   4.248   2.213 -0.4219 -0.5531 -0.3397
  109MPD2    C1 1660   2.236   4.225   2.090  0.2226 -0.4634 -1.0205
  109MPD2    C2 1661   2.362   4.264   2.060 -0.6392 -0.0250  0.0376
  109MPD2    C3 1662   2.443   4.327   2.157 -0.2842 -0.8237 -0.5807
  109MPD2    C4 1663   2.388   4.351   2.283 -0.2142 -0.2511  0.3158
  109MPD2    C5 1664   2.255   4.322   2.303  0.3940 -0.6701 -0.2144
  109MPD2     H 1665   2.422   4.238   1.974 -0.6066  1.4384 -0.3869
  109MPD2    H1 1666   2.451   4.392   2.360 -0.3153  0.0356  0.2462
  109MPD2    H2 1667   2.084   4.214   2.243  0.4366 -1.1412  1.7780
  109MPD2    H3 1668   2.207   4.344   2.398  2.2488 -0.4450  0.6870
  109MPD2     N 1669   2.576   4.366   2.119  0.2300 -0.0921  0.4243
  109MPD2    H5 1670   2.591   4.394   2.022  3.5675  2.6934  1.7520
  109MPD2    N1 1671   2.156   4.162   1.993 -0.2216 -0.3987 -0.3503
  109MPD2    H7 1672   2.058   4.155   2.017 -0.0201  0.5428  0.7394
  110TCq2    C1 1673   2.682   4.410   2.193 -0.2635 -0.3395 -0.2207
  110TCq2    O2 1674   2.688   4.410   2.316 -1.1526  0.0193  0.0807
  110TCq2    C2 1675   2.799   4.459   2.108 -0.4434 -0.2036  0.6618
  110TCq2    C3 1676   2.931   4.436   2.152 -0.1148  0.4010  0.6545
  110TCq2    C4 1677   3.027   4.464   2.060 -0.6485  0.3740 -0.1889
  110TCq2    C5 1678   3.005   4.501   1.933 -0.3614  0.8016 -0.0701
  110TCq2    C6 1679   2.877   4.540   1.896 -0.6571  0.8135  0.0030
  110TCq2    C7 1680   2.771   4.513   1.982  0.8373 -0.9422 -0.0961
  110TCq2    C8 1681   2.852   4.617   1.775 -0.0649  0.1731 -0.0902
  110TCq2    O4 1682   2.952   4.675   1.730  0.2290 -0.3810  0.7844
  110TCq2    C9 1683   3.162   4.480   2.110 -0.3556  0.1338  0.2274
  110TCq2    O5 1684   3.182   4.421   2.220  0.1581  0.2154 -0.0262
  110TCq2    O6 1685   3.253   4.518   2.026  0.1472 -0.0913  0.5804
  110TCq2    H2 1686   2.947   4.405   2.255  1.8401  0.4172  0.3512
  110TCq2    H3 1687   3.077   4.532   1.857  1.5479  0.5865  1.6642
  110TCq2    H4 1688   2.671   4.545   1.958  1.4406 -0.1256 -1.5155
  111TMC2    C1 1689   2.410   4.358  11.431 -0.1031 -0.6323  0.6262
  111TMC2    C2 1690   2.416   4.324  11.298 -1.1054 -0.5369  0.1006
  111TMC2    C3 1691   2.542   4.307  11.253 -0.8689  0.4035  0.2981
  111TMC2    C4 1692   2.518   4.359  11.517 -0.0403 -0.0291 -0.2241
  111TMC2    C5 1693   2.640   4.341  11.465  0.2259 -0.0089 -1.0139
  111TMC2    C6 1694   2.655   4.315  11.332  0.5478 -0.2474  0.5624
  111TMC2     C 1695   2.286   4.421  11.483  0.4188  1.0297 -0.8832
  111TMC2     O 1696   2.215   4.456  11.392 -0.2177  0.9906 -0.1645
  111TMC2     H 1697   2.333   4.347  11.232 -1.3800 -1.4397  0.1277
  111TMC2    H1 1698   2.508   4.392  11.620 -0.0216 -0.1490 -0.1842
  111TMC2    H2 1699   2.748   4.305  11.277 -0.2458 -1.1537 -0.6111
  111TMC2    C7 1700   2.752   4.337  11.553  0.7194 -0.0746  0.1152
  111TMC2    C8 1701   2.554   4.311  11.105 -0.5993  0.5485 -0.1165
  111TMC2    O1 1702   2.721   4.357  11.669  0.1729  0.2958  0.3256
  111TMC2    O2 1703   2.628   4.386  11.041  0.6027 -0.2798  0.3115
  111TMC2    O5 1704   2.447   4.252  11.045 -0.2466 -0.4593 -0.1582
  111TMC2    H5 1705   2.404   4.199  11.116  3.2516 -0.5681  1.8881
  112MPD2     C 1706   1.872   4.435  11.799 -0.1574  0.6104  0.2270
  112MPD2    C1 1707   1.899   4.487  11.675 -0.0233 -0.1318 -0.2212
  112MPD2    C2 1708   2.015   4.460  11.602  0.3673  0.3143 -0.2984
  112MPD2    C3 1709   2.119   4.390  11.661  0.6533  0.2834 -0.2789
  112MPD2    C4 1710   2.092   4.339  11.784 -0.3543  0.2071 -0.0047
  112MPD2    C5 1711   1.968   4.351  11.850  0.4839 -0.3271  0.6624
  112MPD2     H 1712   2.027   4.502  11.503 -4.5720 -1.7827 -1.7360
  112MPD2    H1 1713   2.161   4.273  11.835 -1.8793  1.6595  3.9170
  112MPD2    H2 1714   1.784   4.448  11.860 -1.0984 -0.7424 -0.8486
  112MPD2    H3 1715   1.946   4.300  11.943 -0.6969 -2.3868 -0.7388
  112MPD2     N 1716   2.247   4.369  11.608 -0.3463 -0.0281 -1.0706
  112MPD2    H5 1717   2.319   4.329  11.667  0.3862 -1.3554 -2.8405
  112MPD2    N1 1718   1.818   4.584  11.614 -0.4732  0.1447 -0.6775
  112MPD2    H7 1719   1.846   4.635  11.531 -0.7439  0.1341 -0.7788
  113MPD2     C 1720   1.182   2.298   1.489 -0.6673 -1.0728  0.0123
  113MPD2    C1 1721   1.064   2.365   1.487  0.9651  0.5327  0.5266
  113MPD2    C2 1722   0.969   2.350   1.388 -0.5897 -0.0707 -0.2007
  113MPD2    C3 1723   0.982   2.250   1.296 -0.5444  0.0448 -0.0821
  113MPD2    C4 1724   1.097   2.172   1.301 -0.2481  0.1910 -0.3193
  113MPD2    C5 1725   1.194   2.197   1.393 -0.2355  0.2670 -0.5871
  113MPD2     H 1726   0.873   2.397   1.407  0.2627  1.2739  0.8225
  113MPD2    H1 1727   1.119   2.089   1.235  0.4038  0.3102 -0.2488
  113MPD2    H2 1728   1.256   2.318   1.566 -0.6301 -1.1938  0.0076
  113MPD2    H3 1729   1.288   2.146   1.375 -0.5022 -1.0069  1.6707
  113MPD2     N 1730   0.880   2.210   1.209 -0.2360 -0.0775 -0.2201
  113MPD2    H5 1731   0.884   2.117   1.167  0.3908 -0.3182  0.3855
  113MPD2    N1 1732   1.017   2.458   1.585  0.7063 -0.4021 -0.2876
  113MPD2    H7 1733   0.934   2.511   1.564  2.4564  2.3835 -0.1905
  114TCq2    C1 1734   0.760   2.285   1.197 -0.0223  0.2838 -0.9955
  114TCq2    O2 1735   0.729   2.395   1.233  0.1995  0.2828 -0.1474
  114TCq2    C2 1736   0.645   2.203   1.158 -0.4525 -0.2722 -0.4787
  114TCq2    C3 1737   0.532   2.237   1.233 -0.1766 -0.0320 -0.5906
  114TCq2    C4 1738   0.414   2.177   1.199  0.0061  0.0478  0.4187
  114TCq2    C5 1739   0.410   2.086   1.104 -0.8188  0.1299 -0.1135
  114TCq2    C6 1740   0.526   2.046   1.038  0.1719  0.0405 -0.8150
  114TCq2    C7 1741   0.647   2.102   1.066 -0.0782  0.4766 -0.0657
  114TCq2    C8 1742   0.535   1.915   0.972 -0.3550  0.1474  0.1515
  114TCq2    O4 1743   0.644   1.860   0.972 -0.8041 -0.4556 -0.1638
  114TCq2    C9 1744   0.294   2.228   1.260  0.6815 -0.1100  0.7123
  114TCq2    O5 1745   0.187   2.165   1.233  0.2532 -0.0948  0.1152
  114TCq2    O6 1746   0.307   2.331   1.333  0.2441  0.0450 -0.3420
  114TCq2    H2 1747   0.528   2.314   1.309  1.8043  1.1897 -1.7290
  114TCq2    H3 1748   0.307   2.064   1.077 -0.5551  1.2896 -2.0641
  114TCq2    H4 1749   0.735   2.067   1.012 -0.5383  0.2920 -0.6929
  115TMC2    C1 1750   1.497   0.013   0.295  1.0243 -0.5113  0.7756
  115TMC2    C2 1751   1.547   0.016   0.423  0.2003  0.1892 -0.1044
  115TMC2    C3 1752   1.595   0.127   0.476 -0.3605 -1.3413  0.1002
  115TMC2    C4 1753   1.503   0.123   0.217 -0.0347 -1.0015 -0.6197
  115TMC2    C5 1754   1.575   0.227   0.268 -0.0629 -0.2223  0.1131
  115TMC2    C6 1755   1.627   0.236   0.392 -0.3164  0.9603  0.0680
  115TMC2     C 1756   1.445   4.608   0.235 -0.7383 -1.3521 -0.0786
  115TMC2     O 1757   1.441   4.589   0.113 -0.4310 -0.4252  0.6990
  115TMC2     H 1758   1.526   4.653   0.493 -0.5492  0.7180  0.2853
  115TMC2    H1 1759   1.454   0.136   0.122 -1.7100  2.2184  0.6903
  115TMC2    H2 1760   1.690   0.309   0.440  1.7423 -0.6184 -0.2526
  115TMC2    C7 1761   1.597   0.338   0.177 -0.1531  0.5213 -0.9390
  115TMC2    C8 1762   1.642   0.127   0.608 -0.1723  0.0826 -0.1679
  115TMC2    O1 1763   1.561   0.333   0.058  0.2611 -0.1201 -0.2950
  115TMC2    O2 1764   1.648   0.021   0.674  0.3739  0.0203 -0.3771
  115TMC2    O5 1765   1.606   0.239   0.678 -0.3302  0.5425  0.3354
  115TMC2    H5 1766   1.617   0.318   0.621 -0.1812  0.7007  0.5822
  116MPD2     C 1767   1.251   4.134   0.294 -0.0255 -0.2922 -0.7083
  116MPD2    C1 1768   1.267   4.213   0.184  0.8066  0.5234 -0.0829
  116MPD2    C2 1769   1.314   4.345   0.189  0.3743 -0.3329  0.2817
  116MPD2    C3 1770   1.355   4.387   0.311  0.3054 -0.6748  0.2183
  116MPD2    C4 1771   1.355   4.305   0.421  0.1800  0.6007 -0.2504
  116MPD2    C5 1772   1.295   4.185   0.412  0.6476 -0.2724  1.3051
  116MPD2     H 1773   1.317   4.400   0.095  1.0172 -1.3567 -0.2915
  116MPD2    H1 1774   1.393   4.333   0.519  1.1442 -0.1100 -0.4197
  116MPD2    H2 1775   1.224   4.029   0.297  1.7229 -0.7802 -2.3221
  116MPD2    H3 1776   1.283   4.132   0.505 -0.8831  0.4263  1.4943
  116MPD2     N 1777   1.409   4.518   0.333 -0.4847  0.5175  0.5802
  116MPD2    H5 1778   1.406   4.542   0.432 -1.9109  2.3602  0.0649
  116MPD2    N1 1779   1.232   4.167   0.059  0.3650  0.1917  0.1574
  116MPD2    H7 1780   1.248   4.233  17.656  0.3160 -0.6689 -0.6037
  117TMC2    C1 1781   0.268   1.472  14.167  0.4363 -0.1013  0.6050
  117TMC2    C2 1782   0.354   1.419  14.262 -0.1465  0.0741 -0.8101
  117TMC2    C3 1783   0.470   1.486  14.281  0.6541 -0.2760 -0.1961
  117TMC2    C4 1784   0.294   1.580  14.097 -0.0705  0.0536 -0.0477
  117TMC2    C5 1785   0.425   1.628  14.111 -0.4598  0.2039 -0.1190
  117TMC2    C6 1786   0.518   1.582  14.204 -0.2337  0.6771 -0.0199
  117TMC2     C 1787   0.131   1.422  14.166 -0.2789  0.5733  0.0369
  117TMC2     O 1788   0.111   1.307  14.210  0.0095  0.0342 -0.6218
  117TMC2     H 1789   0.325   1.333  14.322 -0.7462  1.5640  1.0650
  117TMC2    H1 1790   0.230   1.611  14.015  0.9792  4.2545  0.7043
  117TMC2    H2 1791   0.603   1.644  14.230 -1.8623  2.1215  1.8204
  117TMC2    C7 1792   0.477   1.743  14.035  0.8665  0.6420 -0.2584
  117TMC2    C8 1793   0.526   1.473  14.416  0.1181 -0.2193 -0.4589
  117TMC2    O1 1794   0.596   1.756  14.004  0.1764 -0.0460 -1.0756
  117TMC2    O2 1795   0.477   1.413  14.509  0.2413 -0.3827 -0.2317
  117TMC2    O5 1796   0.657   1.519  14.414  0.2473  0.0548 -0.0794
  117TMC2    H5 1797   0.699   1.534  14.326  0.2586  0.0724 -0.0710
  118MPD2     C 1798   0.254   1.960  13.829  0.1363  0.8491 -0.1869
  118MPD2    C1 1799   0.368   1.932  13.910  0.0999 -0.2121 -1.1093
  118MPD2    C2 1800   0.479   2.017  13.901  0.6441 -0.2841 -0.0505
  118MPD2    C3 1801   0.480   2.116  13.813 -0.0785  1.1210 -0.7285
  118MPD2    C4 1802   0.379   2.134  13.721 -0.7234  0.3089 -0.0886
  118MPD2    C5 1803   0.263   2.062  13.735 -0.3402  0.8356  0.2180
  118MPD2     H 1804   0.567   1.983  13.954  1.2816 -1.3165 -1.7639
  118MPD2    H1 1805   0.384   2.213  13.647 -2.4560 -1.1942 -1.8054
  118MPD2    H2 1806   0.168   1.893  13.835 -0.9814  2.2976 -0.1767
  118MPD2    H3 1807   0.174   2.083  13.676 -0.1073 -0.7770 -0.7255
  118MPD2     N 1808   0.593   2.200  13.800 -0.2659  0.1995  0.0395
  118MPD2    H5 1809   0.595   2.257  13.717  0.3031  0.4933  0.2564
  118MPD2    N1 1810   0.368   1.819  13.994 -0.2325  0.0006 -0.0752
  118MPD2    H7 1811   0.277   1.788  14.027  1.0464 -2.4815  1.1310
  119MPD2     C 1812   3.032   2.609  12.973 -0.2890  0.8564 -0.3512
  119MPD2    C1 1813   2.915   2.615  13.035 -0.0081 -0.3848  0.2887
  119MPD2    C2 1814   2.818   2.512  13.029 -0.6374 -0.1942 -0.0453
  119MPD2    C3 1815   2.847   2.396  12.968 -0.4450 -0.3712 -0.7973
  119MPD2    C4 1816   2.966   2.381  12.902  0.5664  0.5230 -0.7139
  119MPD2    C5 1817   3.058   2.488  12.908  0.6912  0.0227 -0.0395
  119MPD2     H 1818   2.719   2.522  13.073  0.0836  2.3370  1.0026
  119MPD2    H1 1819   2.993   2.288  12.854  3.1471  1.0203 -0.2290
  119MPD2    H2 1820   3.104   2.689  12.960  1.5604 -0.7156  0.0556
  119MPD2    H3 1821   3.150   2.491  12.850 -0.0263  2.1835 -1.0915
  119MPD2     N 1822   2.758   2.283  12.960  0.4817 -0.6412  0.3182
  119MPD2    H5 1823   2.780   2.207  12.898  0.6339  0.6126 -1.1675
  119MPD2    N1 1824   2.892   2.722  13.124 -0.1834  0.0738  0.0299
  119MPD2    H7 1825   2.971   2.783  13.142 -1.1210  0.8008  1.7476
  120TCq2    C1 1826   2.655   2.263  13.049  0.5310  0.2696  0.1424
  120TCq2    O2 1827   2.649   2.304  13.163  0.5348 -0.7196 -0.1116
  120TCq2    C2 1828   2.570   2.152  13.012 -0.0730 -0.4312  0.4663
  120TCq2    C3 1829   2.533   2.134  12.881  0.3826 -0.1281 -0.4318
  120TCq2    C4 1830   2.434   2.049  12.854 -0.1371 -0.0750 -0.2775
  120TCq2    C5 1831   2.360   1.983  12.951  0.5330  0.4725  0.2133
  120TCq2    C6 1832   2.392   2.006  13.080  0.2962 -0.2803 -0.0873
  120TCq2    C7 1833   2.498   2.093  13.110  0.0649 -0.3368 -0.6530
  120TCq2    C8 1834   2.290   1.985  13.180 -0.1387  0.3628 -0.3238
  120TCq2    O4 1835   2.183   1.944  13.139 -0.3387  0.2806 -0.1364
  120TCq2    C9 1836   2.395   2.039  12.717  0.2165  0.4114 -0.2529
  120TCq2    O5 1837   2.265   2.035  12.704  0.8968 -0.4418  0.2309
  120TCq2    O6 1838   2.472   2.076  12.630 -0.0773 -0.9286 -0.1466
  120TCq2    H2 1839   2.584   2.183  12.799  2.7783 -0.3788  0.9095
  120TCq2    H3 1840   2.280   1.918  12.919  1.8996 -1.1786  0.1514
  120TCq2    H4 1841   2.517   2.123  13.212 -0.4084  1.1306 -0.9922
  121TMC2    C1 1842   4.643   4.289  13.818 -0.0624  0.0789 -0.0678
  121TMC2    C2 1843   4.641   4.381  13.917 -0.4475 -0.0928  0.4732
  121TMC2    C3 1844   4.525   4.396  13.989 -0.2074 -0.3171  0.9170
  121TMC2    C4 1845   4.533   4.209  13.810 -0.1214 -0.0538  0.7693
  121TMC2    C5 1846   4.416   4.224  13.878  0.2277 -0.0917  0.4403
  121TMC2    C6 1847   4.409   4.313  13.984  0.2267  0.0279 -0.0817
  121TMC2     C 1848   0.012   4.296  13.709 -0.4845 -0.5480 -1.0186
  121TMC2     O 1849   0.040   4.412  13.680  0.1194  0.2534  0.4804
  121TMC2     H 1850   4.713   4.461  13.920  1.6290 -1.9235 -0.7787
  121TMC2    H1 1851   4.526   4.144  13.724  0.9975 -0.8948  1.3219
  121TMC2    H2 1852   4.317   4.327  14.039  1.1950 -0.6895  1.7028
  121TMC2    C7 1853   4.297   4.192  13.803  0.3078  0.2734  0.9290
  121TMC2    C8 1854   4.513   4.494  14.092  0.4155 -0.2368 -0.3648
  121TMC2    O1 1855   4.283   4.077  13.760 -0.2393 -0.8391  0.0318
  121TMC2    O2 1856   4.401   4.518  14.137  0.0472  0.0458 -0.1444
  121TMC2    O5 1857   4.626   4.492  14.167  0.0885 -0.1515 -0.0505
  121TMC2    H5 1858   4.702   4.438  14.136 -0.3588 -1.7182  1.6092
  122MPD2     C 1859   0.233   4.037  13.578 -0.1323  0.4592  0.5718
  122MPD2    C1 1860   0.167   4.157  13.584  0.3601 -0.0478  0.0224
  122MPD2    C2 1861   0.200   4.258  13.496  0.6100  0.2115 -1.1352
  122MPD2    C3 1862   0.284   4.230  13.388  0.3345 -0.0236  0.6462
  122MPD2    C4 1863   0.369   4.122  13.398  0.2196 -0.1082 -0.4585
  122MPD2    C5 1864   0.333   4.023  13.485 -0.6355  0.0506 -0.1127
  122MPD2     H 1865   0.154   4.356  13.493  1.7977  0.8487  2.2500
  122MPD2    H1 1866   0.428   4.088  13.313 -2.6632  1.2923 -3.0435
  122MPD2    H2 1867   0.208   3.952  13.641  2.2211 -0.9927 -0.4539
  122MPD2    H3 1868   0.373   3.923  13.489 -0.8797 -0.0279  0.3711
  122MPD2     N 1869   0.299   4.302  13.265 -0.0437 -0.2402  0.1186
  122MPD2    H5 1870   0.380   4.274  13.211 -0.2511 -1.5861  0.5063
  122MPD2    N1 1871   0.066   4.174  13.681 -0.2269  0.0494 -0.3046
  122MPD2    H7 1872   0.044   4.101  13.749  2.4425  0.2445  0.7721
  123MPD2     C 1873   1.587   2.562   8.490 -0.3913  0.2204 -0.0514
  123MPD2    C1 1874   1.704   2.491   8.492 -0.4212 -0.0441 -0.2472
  123MPD2    C2 1875   1.819   2.550   8.442 -0.7507 -0.5548  0.0338
  123MPD2    C3 1876   1.820   2.680   8.397  0.4746 -0.5685  0.6923
  123MPD2    C4 1877   1.703   2.748   8.401  0.5586 -0.1578  0.6846
  123MPD2    C5 1878   1.585   2.690   8.452  0.2798  0.3131  0.3014
  123MPD2     H 1879   1.915   2.501   8.445 -0.7407 -0.4663  1.3546
  123MPD2    H1 1880   1.707   2.853   8.375  1.9944  0.0033  1.5252
  123MPD2    H2 1881   1.497   2.510   8.520  0.6323 -1.3938  0.2001
  123MPD2    H3 1882   1.493   2.747   8.444 -0.6526 -1.4201 -1.2159
  123MPD2     N 1883   1.944   2.727   8.341 -0.2725  0.0478  0.3255
  123MPD2    H5 1884   2.029   2.673   8.352  0.3821  0.6560 -1.7848
  123MPD2    N1 1885   1.701   2.359   8.537 -0.3041  0.2916  0.5334
  123MPD2    H7 1886   1.619   2.332   8.590 -0.5239 -2.5990 -1.2567
  124TCq2    C1 1887   1.964   2.847   8.274  0.3681 -0.7038 -0.6239
  124TCq2    O2 1888   1.879   2.924   8.232  0.0119  0.6922 -0.4865
  124TCq2    C2 1889   2.101   2.864   8.228 -0.6344 -0.6262  0.2683
  124TCq2    C3 1890   2.118   2.961   8.132  0.1492 -0.6680 -0.0453
  124TCq2    C4 1891   2.244   2.999   8.100 -0.4878  0.0939  0.4144
  124TCq2    C5 1892   2.356   2.946   8.152 -0.7988 -0.1488  0.1574
  124TCq2    C6 1893   2.335   2.856   8.259 -0.4129  0.4098  0.5485
  124TCq2    C7 1894   2.210   2.814   8.291  0.2511  0.6344  0.5023
  124TCq2    C8 1895   2.448   2.795   8.326  0.3099 -0.9788 -0.0328
  124TCq2    O4 1896   2.423   2.685   8.377  0.4852  0.6848 -0.1894
  124TCq2    C9 1897   2.262   3.092   7.986  0.3515 -0.5396 -0.0060
  124TCq2    O5 1898   2.374   3.148   7.981 -0.0031 -0.0802  0.2123
  124TCq2    O6 1899   2.170   3.115   7.908  0.1214 -0.1516 -0.2432
  124TCq2    H2 1900   2.031   3.003   8.082 -0.0174 -1.5654 -0.5067
  124TCq2    H3 1901   2.456   2.976   8.122 -0.6917  0.1319  0.7876
  124TCq2    H4 1902   2.190   2.755   8.379 -2.3231 -0.2396 -0.6718
  125TMC2    C1 1903   3.610   3.005   8.939  0.5361  0.1410  0.1421
  125TMC2    C2 1904   3.564   2.983   8.816  0.0399  0.1601  0.0892
  125TMC2    C3 1905   3.593   3.077   8.725 -0.7239 -0.4343 -0.3489
  125TMC2    C4 1906   3.699   3.102   8.963 -0.0873  0.2521 -0.7992
  125TMC2    C5 1907   3.727   3.197   8.870  0.1403 -0.5400  0.1036
  125TMC2    C6 1908   3.683   3.184   8.742  0.6765  0.2620 -0.0744
  125TMC2     C 1909   3.562   2.915   9.043  0.0441 -0.2030 -0.8157
  125TMC2     O 1910   3.488   2.825   9.010 -0.2867  0.4306  0.3814
  125TMC2     H 1911   3.488   2.907   8.800  1.0151 -0.8902  0.4762
  125TMC2    H1 1912   3.752   3.109   9.057 -3.4729 -0.7805  1.1816
  125TMC2    H2 1913   3.703   3.250   8.658  0.9648  2.0812  1.4156
  125TMC2    C7 1914   3.821   3.296   8.904 -0.2314  0.8675 -0.4213
  125TMC2    C8 1915   3.546   3.057   8.592 -0.1833 -0.9012  0.3581
  125TMC2    O1 1916   3.834   3.321   9.024  0.1636  0.2021  0.0683
  125TMC2    O2 1917   3.539   3.167   8.533 -0.1785  0.1607 -0.0443
  125TMC2    O5 1918   3.595   2.938   8.551 -0.1016 -0.1256  0.6029
  125TMC2    H5 1919   3.597   2.866   8.617 -0.0058  1.3334  2.2170
  126MPD1     C 1920   3.513   2.748   9.525 -0.5995 -0.2772 -0.0663
  126MPD1    C1 1921   3.649   2.779   9.497  0.1056  0.5274 -0.5655
  126MPD1    C2 1922   3.680   2.855   9.383  0.0410 -0.1156 -0.7014
  126MPD1    C3 1923   3.580   2.865   9.290 -0.2241  0.9071  0.1979
  126MPD1    C4 1924   3.452   2.822   9.306 -0.1282 -0.0106 -0.0069
  126MPD1    C5 1925   3.416   2.762   9.427 -0.1201  0.4919  0.0143
  126MPD1     H 1926   3.772   2.906   9.355  0.0345  1.1831  1.6481
  126MPD1    H1 1927   3.372   2.831   9.232  0.6548  0.0353 -0.8505
  126MPD1    H2 1928   3.483   2.707   9.621 -3.0180  1.7283  0.0281
  126MPD1    H3 1929   3.313   2.740   9.455 -1.2008  2.3145 -2.5999
  126MPD1     N 1930   3.619   2.935   9.170 -0.1616 -0.0185 -0.0853
  126MPD1    H5 1931   3.689   3.008   9.181 -0.5004  0.5205 -1.4634
  126MPD1    N1 1932   3.739   2.781   9.604 -0.0859  0.6108 -0.1803
  126MPD1    H6 1933   3.836   2.791   9.578  0.5100 -0.0863  1.7365
  126MPD1    H7 1934   3.734   2.709   9.676 -1.1844  0.9879  0.1368
  127MPD2     C 1935   4.559   2.539   8.689 -0.3461  0.3393 -0.6702
  127MPD2    C1 1936   4.587   2.544   8.822 -0.2089 -0.2680 -0.4574
  127MPD2    C2 1937   4.671   2.645   8.877  0.0593  0.0934  0.2931
  127MPD2    C3 1938   0.005   2.735   8.795  0.4401  0.3323  0.4559
  127MPD2    C4 1939   4.686   2.738   8.660  1.3397 -0.1619  0.3841
  127MPD2    C5 1940   4.604   2.645   8.611 -0.6061 -0.2478  1.0241
  127MPD2     H 1941   4.684   2.649   8.985 -0.5453  1.6005  0.3055
  127MPD2    H1 1942   0.004   2.814   8.591  2.1946 -0.4160  0.5465
  127MPD2    H2 1943   4.498   2.458   8.653 -0.9436  0.6163 -0.2707
  127MPD2    H3 1944   4.585   2.644   8.505 -0.5948  1.2475  1.0079
  127MPD2     N 1945   0.089   2.834   8.849 -0.0732 -0.2519 -0.1652
  127MPD2    H5 1946   0.092   2.853   8.949 -1.0363 -0.4039 -0.1107
  127MPD2    N1 1947   4.530   2.439   8.896  0.0287  0.4686  0.0042
  127MPD2    H7 1948   4.457   2.385   8.850 -1.3337  1.0884  1.4620
  128TCq2    C1 1949   4.558   2.409   9.023  0.2409 -0.1556  0.4966
  128TCq2    O2 1950   4.655   2.448   9.089  0.8482  0.3587 -0.1736
  128TCq2    C2 1951   4.468   2.308   9.078  0.1237  0.8644  0.3930
  128TCq2    C3 1952   4.520   2.226   9.177  0.0888 -0.4456  0.3491
  128TCq2    C4 1953   4.432   2.139   9.233  0.1723  0.3937 -0.0739
  128TCq2    C5 1954   4.300   2.127   9.188  0.0157 -0.1852 -0.2738
  128TCq2    C6 1955   4.253   2.210   9.086 -0.4578  0.1048  0.0567
  128TCq2    C7 1956   4.334   2.308   9.032 -0.2669  0.4097  0.6420
  128TCq2    C8 1957   4.111   2.216   9.048  0.3264 -0.4394 -0.2392
  128TCq2    O4 1958   4.081   2.316   8.985 -0.6373 -0.1866  0.0104
  128TCq2    C9 1959   4.464   2.052   9.353  0.2752  0.1572  0.2704
  128TCq2    O5 1960   4.545   2.100   9.432  0.3868 -0.4456 -0.6920
  128TCq2    O6 1961   4.380   1.969   9.399  0.0167 -0.0864  0.2764
  128TCq2    H2 1962   4.620   2.237   9.218 -0.0111 -2.4713  1.1451
  128TCq2    H3 1963   4.244   2.047   9.236 -0.7838 -0.4754 -1.6952
  128TCq2    H4 1964   4.304   2.394   8.973  2.6326  2.7674  2.5910
  129MPD2     C 1965   2.662   4.517   0.823 -0.4727 -1.2012  0.1201
  129MPD2    C1 1966   2.772   4.577   0.881 -0.2243  0.2556  0.1681
  129MPD2    C2 1967   2.869   4.633   0.801  0.2535  0.0444  0.4490
  129MPD2    C3 1968   2.851   4.647   0.666 -0.1469 -0.4316  0.3543
  129MPD2    C4 1969   2.731   4.598   0.611 -0.2664 -0.6032  0.4387
  129MPD2    C5 1970   2.635   4.534   0.689 -0.1103 -0.4154 -0.7233
  129MPD2     H 1971   2.963   4.669   0.843 -1.2183  2.4260  1.7394
  129MPD2    H1 1972   2.713   4.595   0.504 -0.2345 -0.5607  0.4322
  129MPD2    H2 1973   2.581   4.470   0.879 -3.7669  2.4687 -1.5099
  129MPD2    H3 1974   2.548   4.496   0.635 -0.2590 -1.1933  0.0569
  129MPD2     N 1975   2.951   4.703   0.585  0.0395 -0.0144  0.4765
  129MPD2    H5 1976   3.035   0.024   0.627  0.2669 -1.4701  1.3461
  129MPD2    N1 1977   2.818   4.548   1.008  0.0025 -0.4335 -0.4046
  129MPD2    H7 1978   2.912   4.575   1.035 -0.9844 -0.3696  3.0004
  130TCq2    C1 1979   2.736   4.492   1.112  0.4904 -0.0173  0.0016
  130TCq2    O2 1980   2.624   4.442   1.113  0.1584  0.4928 -0.3292
  130TCq2    C2 1981   2.805   4.497   1.238  0.4842 -0.7342 -0.7022
  130TCq2    C3 1982   2.917   4.576   1.255 -0.5113  0.0345  0.4766
  130TCq2    C4 1983   2.991   4.563   1.361 -0.1521  0.2158  0.8071
  130TCq2    C5 1984   2.970   4.460   1.454  0.4731  0.0014 -0.0568
  130TCq2    C6 1985   2.868   4.373   1.427  0.0288  0.0606 -0.9180
  130TCq2    C7 1986   2.783   4.391   1.323  0.2147  0.2197  1.0281
  130TCq2    C8 1987   2.814   4.281   1.532 -1.1408 -0.4505  0.6303
  130TCq2    O4 1988   2.703   4.232   1.513 -0.2481 -0.0327  0.4421
  130TCq2    C9 1989   3.096   4.662   1.397 -0.1751  0.1073 -0.2367
  130TCq2    O5 1990   3.161   4.643   1.507  0.7294  0.6985 -0.2320
  130TCq2    O6 1991   3.155   4.707   1.300 -0.0860  0.0647  0.4235
  130TCq2    H2 1992   2.930   4.675   1.212 -0.0551 -0.1409  0.2051
  130TCq2    H3 1993   3.019   4.462   1.551 -1.4002 -1.3402  0.9078
  130TCq2    H4 1994   2.687   4.339   1.319  0.6283 -0.5300  0.8172
  131MPD2     C 1995   2.243   1.824   9.132 -0.8770  0.0503 -0.7128
  131MPD2    C1 1996   2.289   1.888   9.020 -0.1964 -0.0203  0.1372
  131MPD2    C2 1997   2.191   1.914   8.920  0.2369  0.5074  0.3814
  131MPD2    C3 1998   2.061   1.864   8.940 -0.5307 -0.6169  0.3497
  131MPD2    C4 1999   2.020   1.790   9.046 -0.5661  0.1922 -0.0930
  131MPD2    C5 2000   2.111   1.783   9.145 -0.1276  0.1958  0.2743
  131MPD2     H 2001   2.212   1.965   8.827 -1.8043  1.1731  0.2877
  131MPD2    H1 2002   1.919   1.756   9.066 -1.1538  1.7521 -0.4114
  131MPD2    H2 2003   2.302   1.801   9.220  1.0598  0.6744 -1.8629
  131MPD2    H3 2004   2.066   1.737   9.233 -0.7451 -0.5846 -0.4523
  131MPD2     N 2005   1.968   1.903   8.841  0.1232 -0.5477 -0.0672
  131MPD2    H5 2006   2.008   1.959   8.767 -0.4448 -0.0088  0.0356
  131MPD2    N1 2007   2.424   1.930   9.014 -0.0323 -0.2643  0.1734
  131MPD2    H7 2008   2.477   1.906   9.097  0.0077  0.6687  0.4252
  132TCq2    C1 2009   2.855   2.317   8.905  0.0161 -0.1079  0.1345
  132TCq2    O2 2010   2.779   2.388   8.841  0.2627 -0.0230 -0.2857
  132TCq2    C2 2011   2.799   2.193   8.958 -0.3168 -0.3239  0.3246
  132TCq2    C3 2012   2.856   2.136   9.065  0.1669 -0.1019  0.4700
  132TCq2    C4 2013   2.792   2.016   9.111 -0.4888 -0.2944  0.4097
  132TCq2    C5 2014   2.685   1.963   9.052  0.6688 -0.7697  0.8825
  132TCq2    C6 2015   2.629   2.028   8.941 -0.7827 -0.0383  0.2535
  132TCq2    C7 2016   2.682   2.143   8.894 -0.1878  0.0645 -0.4891
  132TCq2    C8 2017   2.489   2.004   8.916 -0.3658  0.0864 -0.2474
  132TCq2    O4 2018   2.441   2.060   8.824  0.5459 -0.0221 -0.2956
  132TCq2    C9 2019   2.845   1.946   9.226 -0.8013 -0.3050  0.2120
  132TCq2    O5 2020   2.949   1.992   9.277 -0.1389  0.2228 -0.8066
  132TCq2    O6 2021   2.784   1.852   9.284  0.1329  0.6129 -0.2126
  132TCq2    H2 2022   2.937   2.172   9.127 -0.6437  0.4177  1.2261
  132TCq2    H3 2023   2.654   1.862   9.074  0.8156 -1.1334 -0.5512
  132TCq2    H4 2024   2.620   2.200   8.826 -2.4570 -0.7395  0.9106
  133MPD2     C 2025   1.867   4.117   9.379 -0.1005  0.1966  0.0324
  133MPD2    C1 2026   1.969   4.032   9.429  0.2151 -0.5273  0.7607
  133MPD2    C2 2027   1.979   3.899   9.396 -0.7761 -0.2027 -0.1634
  133MPD2    C3 2028   1.880   3.840   9.317 -0.5844 -0.7640 -0.3902
  133MPD2    C4 2029   1.779   3.925   9.258  0.4068  0.0684  0.1183
  133MPD2    C5 2030   1.770   4.055   9.293 -0.5931  0.1201  0.1094
  133MPD2     H 2031   2.061   3.834   9.426 -0.4668  0.9287  1.4311
  133MPD2    H1 2032   1.705   3.882   9.191  1.3843 -0.7644 -0.4288
  133MPD2    H2 2033   1.860   4.223   9.403  1.0268  0.2379  0.1741
  133MPD2    H3 2034   1.691   4.112   9.244  0.2889  2.0620  0.9637
  133MPD2     N 2035   1.887   3.713   9.262 -0.8434 -0.0314 -0.0121
  133MPD2    H5 2036   1.835   3.685   9.178 -1.3683  0.9520 -0.0091
  133MPD2    N1 2037   2.070   4.099   9.498  0.1195 -0.9777  0.1262
  133MPD2    H7 2038   2.068   4.201   9.494 -1.1713 -0.9490  1.4179
  134TCq2    C1 2039   2.181   4.040   9.556  0.3848 -0.7421 -0.2779
  134TCq2    O2 2040   2.233   3.930   9.539  0.0236 -0.4869  0.2315
  134TCq2    C2 2041   2.263   4.134   9.634  0.3721  0.1405 -0.0079
  134TCq2    C3 2042   2.382   4.100   9.686 -0.1496 -0.5439  0.6987
  134TCq2    C4 2043   2.445   4.184   9.776  0.2237 -0.1727  0.6158
  134TCq2    C5 2044   2.378   4.289   9.838 -0.4275  0.1426  0.0636
  134TCq2    C6 2045   2.251   4.313   9.790 -0.3662  0.1207  0.5830
  134TCq2    C7 2046   2.195   4.249   9.683  0.8770  0.2557 -0.0901
  134TCq2    C8 2047   2.216   4.447   9.798  0.3712  0.6487 -0.7228
  134TCq2    O4 2048   2.164   4.490   9.700 -0.1376  0.4127 -0.7867
  134TCq2    C9 2049   2.583   4.166   9.811  0.7026 -0.6776 -0.0018
  134TCq2    O5 2050   2.655   4.083   9.752  0.0798  0.2979  0.8450
  134TCq2    O6 2051   2.615   4.218   9.924  0.0682  0.6989 -0.0375
  134TCq2    H2 2052   2.440   4.018   9.645  0.6843  1.1768 -1.5567
  134TCq2    H3 2053   2.431   4.347   9.913  0.8516 -0.0373 -0.6938
  134TCq2    H4 2054   2.090   4.263   9.660  1.3996  2.2230 -1.2849
  135MPD2     C 2055   3.320   3.318   8.859 -0.2082 -0.1381 -0.3440
  135MPD2    C1 2056   3.420   3.365   8.939  0.3674  0.6524  0.4908
  135MPD2    C2 2057   3.507   3.461   8.898 -0.2770 -1.0322  0.9122
  135MPD2    C3 2058   3.501   3.512   8.767  0.1463  0.7131 -0.3459
  135MPD2    C4 2059   3.413   3.454   8.682  0.1550 -0.3477  0.9114
  135MPD2    C5 2060   3.316   3.370   8.728 -0.3322 -0.0741 -0.2999
  135MPD2     H 2061   3.571   3.500   8.976 -2.2868  0.5367  1.7659
  135MPD2    H1 2062   3.427   3.478   8.578 -0.3829  0.1788  0.9617
  135MPD2    H2 2063   3.248   3.241   8.881  0.4696 -0.1895  1.7596
  135MPD2    H3 2064   3.249   3.320   8.659  0.2408 -1.7091  0.3386
  135MPD2     N 2065   3.604   3.595   8.718  0.2528  0.6805 -0.8425
  135MPD2    H5 2066   3.621   3.594   8.618  0.2840  0.0461 -0.8348
  135MPD2    N1 2067   3.455   3.309   9.070  0.3215 -0.9859 -0.2038
  135MPD2    H7 2068   3.531   3.356   9.118  0.8568 -0.9727 -1.0624
  136TCq2    C1 2069   3.379   3.224   9.142 -0.4464  0.1800  0.1152
  136TCq2    O2 2070   3.263   3.182   9.127 -0.1336  0.3838 -0.2442
  136TCq2    C2 2071   3.427   3.216   9.276 -0.1312 -0.0118 -0.0894
  136TCq2    C3 2072   3.558   3.251   9.306  0.4030  0.9217 -0.3233
  136TCq2    C4 2073   3.586   3.240   9.444 -0.1690  0.3034  0.3267
  136TCq2    C5 2074   3.496   3.195   9.537 -0.2389 -0.3907  0.2022
  136TCq2    C6 2075   3.370   3.170   9.498 -0.0190  0.2336 -0.6256
  136TCq2    C7 2076   3.329   3.192   9.367  0.5644  0.2480 -0.7870
  136TCq2    C8 2077   3.279   3.103   9.584 -0.1831 -0.5343 -0.3674
  136TCq2    O4 2078   3.159   3.120   9.582 -0.2399 -0.2646  1.0732
  136TCq2    C9 2079   3.712   3.273   9.492 -0.7468  0.5289 -0.4457
  136TCq2    O5 2080   3.795   3.305   9.411 -0.0219 -0.2088 -0.1153
  136TCq2    O6 2081   3.742   3.216   9.603 -0.1135  0.3606 -0.0913
  136TCq2    H2 2082   3.634   3.284   9.235 -0.6138  0.3935 -1.6675
  136TCq2    H3 2083   3.530   3.194   9.640  0.2770  3.8031  0.0647
  136TCq2    H4 2084   3.228   3.157   9.351  0.5182  1.4548 -3.0947
  137MPD2     C 2085   4.670   3.592   9.386  0.8890  0.3540 -0.2255
  137MPD2    C1 2086   4.544   3.536   9.377  0.4410 -0.2086 -0.5377
  137MPD2    C2 2087   4.473   3.515   9.493 -0.2898  0.4337 -0.4206
  137MPD2    C3 2088   4.539   3.535   9.615 -0.2495 -0.0644 -0.3063
  137MPD2    C4 2089   4.667   3.583   9.626 -0.6307  0.4327  0.1327
  137MPD2    C5 2090   0.018   3.622   9.507  0.1788 -0.2851 -0.8910
  137MPD2     H 2091   4.380   3.458   9.487 -0.1916  0.1720  0.5738
  137MPD2    H1 2092   4.716   3.601   9.721 -3.0558 -0.1137  1.4828
  137MPD2    H2 2093   4.717   3.615   9.291 -0.4812  0.6738 -0.8251
  137MPD2    H3 2094   0.120   3.660   9.507  0.3750 -0.8118 -0.8345
  137MPD2     N 2095   4.463   3.499   9.732 -0.0140 -0.4657  0.6161
  137MPD2    H5 2096   4.366   3.476   9.718  0.1120 -0.8615  0.3893
  137MPD2    N1 2097   4.498   3.504   9.251  0.3091  0.5700  0.5041
  137MPD2    H7 2098   4.561   3.519   9.173 -0.0174 -2.2694 -0.3238
  138TCq2    C1 2099   4.381   3.431   9.223  0.5267  0.2351  0.6722
  138TCq2    O2 2100   4.307   3.367   9.296 -0.3845 -0.0136 -0.2597
  138TCq2    C2 2101   4.365   3.416   9.081 -0.2218  0.2908  1.3472
  138TCq2    C3 2102   4.432   3.504   9.002 -0.2852  0.0445 -0.1808
  138TCq2    C4 2103   4.415   3.489   8.868 -0.0257  0.2496 -0.2122
  138TCq2    C5 2104   4.339   3.389   8.826  0.6460 -0.3957 -0.1939
  138TCq2    C6 2105   4.266   3.305   8.904 -0.5241 -0.0018 -0.5205
  138TCq2    C7 2106   4.280   3.317   9.039 -0.0527  0.6992  0.3229
  138TCq2    C8 2107   4.196   3.199   8.839  0.1348  0.1211 -0.1443
  138TCq2    O4 2108   4.211   3.187   8.717 -0.1173 -0.1089  0.5470
  138TCq2    C9 2109   4.481   3.587   8.776 -0.2278 -0.2209 -0.9415
  138TCq2    O5 2110   4.549   3.687   8.822 -0.3112 -0.4837 -0.3298
  138TCq2    O6 2111   4.485   3.550   8.655  0.0686 -0.2296 -0.5908
  138TCq2    H2 2112   4.490   3.587   9.041  1.0896 -0.5438 -0.9924
  138TCq2    H3 2113   4.345   3.382   8.718 -1.6939 -0.1606 -0.3371
  138TCq2    H4 2114   4.231   3.250   9.108  0.5453 -0.3896 -0.3066
  139TMC2    C1 2115   4.239   2.127  12.990  0.1478 -0.1028  0.0700
  139TMC2    C2 2116   4.200   2.164  12.866  0.6905 -0.0114  0.1532
  139TMC2    C3 2117   4.100   2.251  12.855 -0.8532 -0.0417  0.3472
  139TMC2    C4 2118   4.197   2.195  13.097 -0.5965  0.6474  0.4662
  139TMC2    C5 2119   4.105   2.294  13.085 -0.7071 -0.3255  0.2964
  139TMC2    C6 2120   4.057   2.326  12.961  0.0667  0.4645  0.2394
  139TMC2     C 2121   4.374   2.070  12.985  0.3950 -0.2390 -0.9368
  139TMC2     O 2122   4.406   2.015  12.876  0.2051  0.4116 -0.1905
  139TMC2     H 2123   4.243   2.118  12.777 -0.6062 -1.3357  0.2183
  139TMC2    H1 2124   4.235   2.182  13.198  0.9820  2.5639  0.1290
  139TMC2    H2 2125   3.978   2.400  12.956 -0.4764 -0.0369  1.6454
  139TMC2    C7 2126   4.063   2.378  13.193  0.4595  0.9084 -0.3529
  139TMC2    C8 2127   4.078   2.306  12.722  0.4360 -0.5103  0.3125
  139TMC2    O1 2128   3.964   2.443  13.177 -0.5958 -0.4115 -0.2344
  139TMC2    O2 2129   4.046   2.223  12.635  0.3184  0.2903  0.2231
  139TMC2    O5 2130   4.186   2.382  12.704 -0.2978  0.4022  0.0080
  139TMC2    H5 2131   4.230   2.411  12.787 -1.3253  1.9230  0.0312
  140MPD2     C 2132   4.665   2.095  13.212 -0.8525 -0.2406 -0.4123
  140MPD2    C1 2133   4.584   2.046  13.105 -0.0148 -0.4310 -0.4893
  140MPD2    C2 2134   4.653   1.959  13.016 -0.4305  0.6183 -0.2745
  140MPD2    C3 2135   0.068   1.922  13.036 -0.2715  0.1250 -0.3824
  140MPD2    C4 2136   0.133   1.975  13.143 -0.2446 -0.3445  0.7379
  140MPD2    C5 2137   0.074   2.058  13.232 -0.2648 -0.1846 -0.5990
  140MPD2     H 2138   4.594   1.910  12.939  0.5019 -0.4518 -0.3090
  140MPD2    H1 2139   0.237   1.950  13.162  0.0337  0.2448 -0.0441
  140MPD2    H2 2140   4.630   2.166  13.285  3.5646  1.1003  0.4350
  140MPD2    H3 2141   0.132   2.113  13.306 -0.1681 -1.0258 -0.0442
  140MPD2     N 2142   0.128   1.834  12.940  0.0765  0.5845 -0.1681
  140MPD2    H5 2143   0.081   1.832  12.850  0.3095 -2.0222 -0.2339
  140MPD2    N1 2144   4.455   2.102  13.089  0.0785  0.4848  0.3653
  140MPD2    H7 2145   4.421   2.158  13.167  0.2902  0.5958  0.3764
  141TCq2    C1 2146   0.286   3.351  14.152 -0.7014  0.7448 -0.1977
  141TCq2    O2 2147   0.287   3.400  14.039 -0.1868 -0.6260 -0.0261
  141TCq2    C2 2148   0.406   3.375  14.238  0.3112 -0.2436  0.3619
  141TCq2    C3 2149   0.430   3.302  14.352  0.4266 -0.0625  0.6324
  141TCq2    C4 2150   0.531   3.335  14.447  0.8798 -1.1946  0.0492
  141TCq2    C5 2151   0.600   3.448  14.425 -0.0301  0.0030  0.3073
  141TCq2    C6 2152   0.577   3.521  14.310 -0.4390 -1.4348  0.2280
  141TCq2    C7 2153   0.478   3.487  14.220  0.9375  0.0539  0.4779
  141TCq2    C8 2154   0.683   3.616  14.257  0.1712  0.4387 -0.7052
  141TCq2    O4 2155   0.681   3.642  14.135  0.2867 -0.5886 -0.3922
  141TCq2    C9 2156   0.560   3.245  14.546 -0.8960  0.3244  0.1859
  141TCq2    O5 2157   0.661   3.268  14.618  0.2641 -0.0425 -0.0444
  141TCq2    O6 2158   0.476   3.151  14.572 -0.1483 -0.0678  0.2533
  141TCq2    H2 2159   0.392   3.201  14.365 -0.0533  0.0205 -0.1718
  141TCq2    H3 2160   0.679   3.471  14.496 -0.1539 -1.9484  1.0564
  141TCq2    H4 2161   0.467   3.538  14.124  1.3251  1.2525  1.0644
  142MPD2     C 2162   2.689   1.617   8.958  0.0555 -0.0931 -0.0488
  142MPD2    C1 2163   2.604   1.656   8.857  0.3879 -0.4476  0.2462
  142MPD2    C2 2164   2.649   1.738   8.754 -0.1697  0.2755  0.5442
  142MPD2    C3 2165   2.782   1.774   8.753  0.1265 -0.4413  0.5471
  142MPD2    C4 2166   2.866   1.722   8.850  0.1622 -0.4629 -0.1725
  142MPD2    C5 2167   2.825   1.646   8.942 -0.8338  0.0136 -0.1946
  142MPD2     H 2168   2.571   1.785   8.694  0.4044 -0.5730 -0.8753
  142MPD2    H1 2169   2.971   1.746   8.855 -0.1627  0.8498  0.2885
  142MPD2    H2 2170   2.655   1.554   9.040  0.8091  0.1408  0.4451
  142MPD2    H3 2171   2.890   1.617   9.023 -1.4929  0.0858  0.3626
  142MPD2     N 2172   2.839   1.875   8.671 -0.4794 -0.3432 -0.3115
  142MPD2    H5 2173   2.936   1.897   8.692 -0.9424  1.9663 -0.5951
  142MPD2    N1 2174   2.472   1.617   8.870 -0.0160 -0.3198 -0.3437
  142MPD2    H7 2175   2.461   1.546   8.942 -3.9096  0.2673 -0.3724
  143TCq2    C1 2176   2.781   1.964   8.588 -0.3766  0.1371 -0.3596
  143TCq2    O2 2177   2.663   1.978   8.556  0.2284  0.2114 -0.1864
  143TCq2    C2 2178   2.875   2.075   8.562 -0.5049  0.2002  0.3469
  143TCq2    C3 2179   3.008   2.072   8.599 -0.2477  0.6315  0.3645
  143TCq2    C4 2180   3.080   2.194   8.602  0.2937 -0.3811 -0.1827
  143TCq2    C5 2181   3.022   2.313   8.579  0.3663  0.0945  0.1079
  143TCq2    C6 2182   2.888   2.313   8.545  0.0106  0.1229 -0.2415
  143TCq2    C7 2183   2.816   2.200   8.553  0.3232 -0.0644  0.4156
  143TCq2    C8 2184   2.819   2.443   8.528  1.2335 -0.2453 -0.4040
  143TCq2    O4 2185   2.698   2.432   8.540 -0.3992 -0.1267  0.5311
  143TCq2    C9 2186   3.222   2.186   8.628 -0.5741 -0.2431  0.9227
  143TCq2    O5 2187   3.287   2.292   8.627 -0.2849 -0.0083  0.0662
  143TCq2    O6 2188   3.262   2.067   8.659 -0.6628  0.7316  0.7385
  143TCq2    H2 2189   3.062   1.980   8.618 -1.8212 -0.5863 -1.0904
  143TCq2    H3 2190   3.080   2.405   8.579  0.7349 -0.1368 -1.2522
  143TCq2    H4 2191   2.710   2.202   8.531  0.6419 -0.5914 -1.1427
  144MPD2     C 2192   0.786   1.590   0.862  0.3043 -0.6019 -0.3853
  144MPD2    C1 2193   0.862   1.501   0.777  0.1235  0.0062  1.1489
  144MPD2    C2 2194   0.969   1.437   0.829 -0.3728 -0.8535  0.0697
  144MPD2    C3 2195   1.014   1.454   0.962  0.9196 -0.1333  0.7259
  144MPD2    C4 2196   0.936   1.535   1.040  0.1194 -0.4583 -0.2409
  144MPD2    C5 2197   0.825   1.593   0.991 -0.7611  0.8157  0.0619
  144MPD2     H 2198   1.028   1.373   0.764  1.8253  1.6080 -0.3540
  144MPD2    H1 2199   0.949   1.546   1.147  0.2774 -0.5029 -0.2559
  144MPD2    H2 2200   0.704   1.653   0.833  0.6226  0.8120  1.8496
  144MPD2    H3 2201   0.759   1.640   1.063 -0.5476  3.4489 -1.4221
  144MPD2     N 2202   1.128   1.390   1.020  0.1529 -0.6794  0.6202
  144MPD2    H5 2203   1.148   1.413   1.117  0.0366 -0.3064  0.5545
  144MPD2    N1 2204   0.829   1.480   0.638 -0.5822 -0.0798 -0.1430
  144MPD2    H7 2205   0.883   1.409   0.590  3.7358  2.0078  1.5556
  145TCq2    C1 2206   1.220   1.328   0.945  1.0248  0.1551 -0.2437
  145TCq2    O2 2207   1.233   1.298   0.826  0.2366 -0.3892  0.3879
  145TCq2    C2 2208   1.335   1.294   1.029 -0.0030  0.6244  0.2165
  145TCq2    C3 2209   1.451   1.245   0.966 -0.1298 -0.1031  0.8363
  145TCq2    C4 2210   1.570   1.242   1.023  0.0189  0.2503  0.3129
  145TCq2    C5 2211   1.582   1.292   1.152 -0.1741 -0.3417  0.2703
  145TCq2    C6 2212   1.475   1.352   1.212  0.0732 -0.4786 -0.5127
  145TCq2    C7 2213   1.352   1.350   1.152 -0.0735  0.5129  0.0525
  145TCq2    C8 2214   1.503   1.433   1.339  0.3349 -0.1805  0.0726
  145TCq2    O4 2215   1.620   1.441   1.378  0.5180  0.1265 -0.2796
  145TCq2    C9 2216   1.690   1.206   0.944 -0.3754 -0.1676 -0.2866
  145TCq2    O5 2217   1.680   1.171   0.821 -0.3026 -0.1357  0.2713
  145TCq2    O6 2218   1.794   1.252   0.997 -0.3186  0.9485 -0.1472
  145TCq2    H2 2219   1.450   1.211   0.863 -2.2741  3.7407 -0.4079
  145TCq2    H3 2220   1.683   1.303   1.190  0.9811 -3.6331 -1.7934
  145TCq2    H4 2221   1.269   1.367   1.219 -1.0201 -0.5120 -0.8699
  146TMC2    C1 2222   2.484   4.692  12.197 -0.2006  0.3767  0.1980
  146TMC2    C2 2223   2.445   4.673  12.068  0.2454  0.0700  0.2490
  146TMC2    C3 2224   2.521   0.014  11.969  0.0178  0.7973 -0.3642
  146TMC2    C4 2225   2.595   0.052  12.236  0.0253 -0.7812  0.3729
  146TMC2    C5 2226   2.665   0.105  12.128  0.3160  0.0858  0.1316
  146TMC2    C6 2227   2.622   0.101  12.001 -1.1631  0.1357  0.1537
  146TMC2     C 2228   2.410   4.614  12.299 -0.4341  0.3782  0.1958
  146TMC2     O 2229   2.313   4.560  12.247  0.7801  0.1131 -0.7632
  146TMC2     H 2230   2.358   4.616  12.039 -0.6955  0.2044  2.8514
  146TMC2    H1 2231   2.602   0.088  12.338 -1.6828  0.6630 -0.0207
  146TMC2    H2 2232   2.680   0.153  11.925 -1.0988  0.2765  0.2991
  146TMC2    C7 2233   2.796   0.169  12.156  0.0353 -0.4564 -0.1178
  146TMC2    C8 2234   2.487   4.693  11.836 -0.0572  0.5346 -0.3720
  146TMC2    O1 2235   2.856   0.229  12.069 -0.0632 -0.0144  0.5183
  146TMC2    O2 2236   2.387   4.638  11.794 -0.6522 -0.4679 -0.1996
  146TMC2    O5 2237   2.606   4.706  11.763  0.2970 -0.3100  0.5400
  146TMC2    H5 2238   2.685   4.697  11.821  2.0193  1.6904 -1.5374
  147MPD2     C 2239   3.221   0.238  12.398  0.2159 -0.0819  0.3838
  147MPD2    C1 2240   3.162   0.131  12.455  0.4103 -0.5597  0.1680
  147MPD2    C2 2241   3.032   0.103  12.422  0.2855  0.3728 -0.1237
  147MPD2    C3 2242   2.966   0.181  12.327 -0.2743 -0.3365 -0.0030
  147MPD2    C4 2243   3.029   0.292  12.276  0.4733 -0.4169 -0.3180
  147MPD2    C5 2244   3.155   0.318  12.311  0.0051  0.3936 -0.8567
  147MPD2     H 2245   2.974   0.018  12.456  0.9568  0.0183  0.1163
  147MPD2    H1 2246   2.972   0.366  12.220  0.4643 -0.1983 -0.0198
  147MPD2    H2 2247   3.327   0.258  12.412 -0.0515 -2.1404  5.2632
  147MPD2    H3 2248   3.198   0.409  12.270  2.3347 -0.8521 -1.1692
  147MPD2     N 2249   2.835   0.147  12.287  0.5297  0.1682  0.2233
  147MPD2    H5 2250   2.783   0.080  12.342 -0.7985  1.8584  1.0218
  147MPD2    N1 2251   3.236   0.044  12.536  0.1000 -0.3917 -0.2825
  147MPD2    H7 2252   3.337   0.041  12.527  0.1682 -1.9432  1.0490
  148MPD2     C 2253   1.613   3.208   9.920 -0.0971  0.0425 -0.2729
  148MPD2    C1 2254   1.701   3.116   9.975 -0.2637  0.1108  0.1703
  148MPD2    C2 2255   1.724   2.999   9.914 -0.0103  0.8304  0.0483
  148MPD2    C3 2256   1.654   2.960   9.801 -0.1947 -0.1378 -0.6244
  148MPD2    C4 2257   1.578   3.054   9.741 -0.8375 -0.0895  0.5345
  148MPD2    C5 2258   1.555   3.170   9.801 -0.0168 -0.7148 -0.4544
  148MPD2     H 2259   1.798   2.934   9.959 -1.3729  1.5310  3.3002
  148MPD2    H1 2260   1.525   3.027   9.650  0.5141 -0.8209 -0.0430
  148MPD2    H2 2261   1.589   3.308   9.954 -2.5134 -0.6258 -0.0118
  148MPD2    H3 2262   1.496   3.246   9.750 -0.5547  0.2852  1.6788
  148MPD2     N 2263   1.669   2.833   9.736  0.1623  0.1248 -0.7018
  148MPD2    H5 2264   1.640   2.821   9.640 -0.6057 -1.8177 -0.2215
  148MPD2    N1 2265   1.764   3.134  10.100 -0.2910 -0.4362 -0.6756
  148MPD2    H7 2266   1.847   3.078  10.117  0.6204  1.5590  1.5745
  149TCq2    C1 2267   1.740   3.238  10.183  0.4495  0.3565  0.3798
  149TCq2    O2 2268   1.652   3.324  10.176 -0.0287  0.0924  0.4412
  149TCq2    C2 2269   1.832   3.243  10.297 -0.0843  0.0196 -1.0793
  149TCq2    C3 2270   1.843   3.365  10.361  0.2696  0.2453 -0.2727
  149TCq2    C4 2271   1.938   3.383  10.450  0.3594 -0.2515 -0.9417
  149TCq2    C5 2272   2.049   3.307  10.446  0.3219  0.5091  0.1706
  149TCq2    C6 2273   2.036   3.192  10.375 -0.2139 -0.1021  0.0432
  149TCq2    C7 2274   1.926   3.150  10.303 -1.0007 -0.4981 -0.2555
  149TCq2    C8 2275   2.148   3.098  10.365  0.2095 -0.2920 -0.6778
  149TCq2    O4 2276   2.172   3.052  10.254  0.3670 -0.0490 -0.5102
  149TCq2    C9 2277   1.945   3.518  10.511  0.3722  0.0489 -0.2038
  149TCq2    O5 2278   2.058   3.557  10.560 -0.3359 -0.6533 -0.3469
  149TCq2    O6 2279   1.842   3.582  10.544 -0.3119 -0.1817  0.4262
  149TCq2    H2 2280   1.763   3.437  10.351 -0.3137 -0.0044  2.5095
  149TCq2    H3 2281   2.135   3.329  10.509  0.8241 -1.0791  0.0505
  149TCq2    H4 2282   1.917   3.054  10.254  1.1279 -0.9983  0.3512
  150MPD2     C 2283   3.869   2.642  11.800 -0.9645  0.2147 -0.2511
  150MPD2    C1 2284   3.799   2.665  11.915 -0.0723  1.0867 -0.5532
  150MPD2    C2 2285   3.853   2.747  12.015  0.6374 -0.1385 -0.4295
  150MPD2    C3 2286   3.973   2.800  11.986  0.4487  0.3337 -0.1987
  150MPD2    C4 2287   4.051   2.772  11.876 -0.0267  0.4659 -0.2772
  150MPD2    C5 2288   3.993   2.694  11.781 -0.3659  0.4005  0.1263
  150MPD2     H 2289   3.792   2.778  12.099 -0.6909  0.5376 -1.6542
  150MPD2    H1 2290   4.145   2.821  11.858 -1.3808  2.9859 -0.4914
  150MPD2    H2 2291   3.833   2.586  11.714  1.0615  2.2365 -2.4455
  150MPD2    H3 2292   4.049   2.667  11.693 -2.0598 -1.6296 -0.3346
  150MPD2     N 2293   4.039   2.873  12.082 -0.1634  0.4477 -0.3983
  150MPD2    H5 2294   3.981   2.905  12.159  2.3020 -3.2271  2.9754
  150MPD2    N1 2295   3.666   2.602  11.930  0.4794  0.1658 -0.9285
  150MPD2    H7 2296   3.633   2.567  11.841 -0.0615  0.7563 -0.9630
  151TCq2    C1 2297   4.175   2.860  12.106 -0.3703  0.3583 -0.2606
  151TCq2    O2 2298   4.266   2.812  12.046  0.4903 -0.3703  0.0854
  151TCq2    C2 2299   4.212   2.940  12.225 -0.2892  0.2316  0.3318
  151TCq2    C3 2300   4.122   3.004  12.303  0.1511 -0.6880 -0.0105
  151TCq2    C4 2301   4.160   3.063  12.418 -0.1196 -0.3149 -0.2270
  151TCq2    C5 2302   4.291   3.066  12.452  0.4852  0.3466 -0.2951
  151TCq2    C6 2303   4.375   2.989  12.378 -0.2246  0.3001  0.0967
  151TCq2    C7 2304   4.346   2.933  12.257  0.4738 -0.1765 -0.5567
  151TCq2    C8 2305   4.513   3.015  12.418 -0.0507  0.3982 -0.2961
  151TCq2    O4 2306   4.552   3.127  12.445 -0.2767  0.7524 -0.1605
  151TCq2    C9 2307   4.059   3.125  12.507 -0.1993  0.7102  0.2766
  151TCq2    O5 2308   4.099   3.179  12.614 -0.3195 -0.0099 -0.4870
  151TCq2    O6 2309   3.933   3.126  12.484  0.2906  0.8019  0.2249
  151TCq2    H2 2310   4.016   3.017  12.288  0.2116  0.1348  0.2798
  151TCq2    H3 2311   4.327   3.118  12.540  2.8493 -1.8870  0.0324
  151TCq2    H4 2312   4.426   2.889  12.199  0.5063  0.0681 -0.6981
  152MPD2     C 2313   3.785   2.382  12.466 -0.5343 -0.9188  0.2463
  152MPD2    C1 2314   3.792   2.507  12.530  0.5261  0.1426 -0.0423
  152MPD2    C2 2315   3.675   2.565  12.571 -0.0625 -0.4619 -0.1331
  152MPD2    C3 2316   3.551   2.508  12.557  0.6349  0.0689 -0.1827
  152MPD2    C4 2317   3.546   2.386  12.500  0.4121  0.1387  0.0247
  152MPD2    C5 2318   3.659   2.321  12.454 -0.0066 -0.8299  0.0070
  152MPD2     H 2319   3.675   2.664  12.616  1.4911 -0.3761 -0.3288
  152MPD2    H1 2320   3.453   2.333  12.484 -0.7345  2.7585 -1.9076
  152MPD2    H2 2321   3.869   2.328  12.424  0.7354  1.6070 -0.4531
  152MPD2    H3 2322   3.637   2.222  12.415 -0.4053 -1.2472  1.2942
  152MPD2     N 2323   3.435   2.583  12.588 -0.4817 -0.0244  0.3792
  152MPD2    H5 2324   3.442   2.682  12.612  0.4025  0.1166 -0.4660
  152MPD2    N1 2325   3.920   2.562  12.537  0.0618 -0.4159  0.1627
  152MPD2    H7 2326   3.991   2.495  12.511  1.6908  1.0672  0.7861
  153TCq2    C1 2327   3.957   2.678  12.599 -0.0418  0.3963 -0.3111
  153TCq2    O2 2328   3.887   2.758  12.664 -0.0304 -0.1107 -0.4541
  153TCq2    C2 2329   4.096   2.700  12.593 -0.1446 -1.1825 -0.3567
  153TCq2    C3 2330   4.165   2.656  12.480  0.0383  0.4679  0.4401
  153TCq2    C4 2331   4.296   2.677  12.471 -0.2819  0.0987  0.0538
  153TCq2    C5 2332   4.357   2.726  12.576 -0.7015  0.2583 -0.3248
  153TCq2    C6 2333   4.291   2.792  12.674  0.2078  0.9175 -0.0780
  153TCq2    C7 2334   4.158   2.784  12.683 -0.1659 -0.2488 -0.1411
  153TCq2    C8 2335   4.362   2.864  12.782 -0.0725 -0.1978  0.1857
  153TCq2    O4 2336   4.293   2.941  12.843  0.6145  0.3301 -0.3610
  153TCq2    C9 2337   4.358   2.627  12.359 -0.2684 -0.1500  0.5096
  153TCq2    O5 2338   4.484   2.650  12.353 -0.3417 -0.5742 -0.3354
  153TCq2    O6 2339   4.288   2.586  12.267 -0.3256  0.3235 -0.2172
  153TCq2    H2 2340   4.108   2.612  12.398  1.8889 -1.6786  0.3035
  153TCq2    H3 2341   4.464   2.725  12.565 -0.3579 -1.0519  3.2791
  153TCq2    H4 2342   4.106   2.831  12.765  1.6616  1.0785  0.2564
  154MPD2     C 2343   1.332   2.828   0.307  0.6619 -0.4915  0.1284
  154MPD2    C1 2344   1.418   2.918   0.365 -0.4788 -0.3850  0.1084
  154MPD2    C2 2345   1.385   2.970   0.490  0.0837  0.3170  0.5141
  154MPD2    C3 2346   1.280   2.928   0.564  0.1943 -0.8264 -0.2469
  154MPD2    C4 2347   1.207   2.829   0.510 -0.1426 -0.1876 -0.1857
  154MPD2    C5 2348   1.232   2.772   0.388  0.1751  0.2563 -0.1798
  154MPD2     H 2349   1.452   3.044   0.534  1.5504  0.1671 -1.4541
  154MPD2    H1 2350   1.125   2.785   0.567  0.6740  0.9689  1.8901
  154MPD2    H2 2351   1.349   2.777   0.213 -0.6753  2.6929 -1.8256
  154MPD2    H3 2352   1.168   2.699   0.340  0.1785 -0.1262  0.3991
  154MPD2     N 2353   1.248   2.995   0.687  0.9626 -0.7288  0.5995
  154MPD2    H5 2354   1.296   3.084   0.696  3.3560 -2.0744  1.1202
  154MPD2    N1 2355   1.527   2.953   0.292  0.0786 -0.0935 -0.5296
  154MPD2    H7 2356   1.537   2.893   0.211  1.3314 -0.5866 -0.0032
  155TCq2    C1 2357   1.607   3.062   0.313 -0.7694 -0.5862  0.2988
  155TCq2    O2 2358   1.583   3.158   0.389 -0.1303  0.3296 -0.4070
  155TCq2    C2 2359   1.716   3.079   0.217  0.4421 -0.9142  0.5851
  155TCq2    C3 2360   1.807   3.172   0.259 -1.2836  0.1590 -0.3595
  155TCq2    C4 2361   1.941   3.148   0.245 -1.0096 -0.0594  0.5672
  155TCq2    C5 2362   1.979   3.034   0.190  0.3765 -0.2198  0.4501
  155TCq2    C6 2363   1.889   2.939   0.142  0.6156  0.8819  0.1772
  155TCq2    C7 2364   1.757   2.965   0.149  0.4083 -0.1308 -0.0193
  155TCq2    C8 2365   1.936   2.831   0.065  0.4627  0.0458  0.7231
  155TCq2    O4 2366   1.864   2.730   0.078  0.4280  0.1048 -0.0411
  155TCq2    C9 2367   2.034   3.222   0.321  0.2077  0.6368  0.8658
  155TCq2    O5 2368   2.155   3.187   0.332  0.2129 -0.7037  0.5717
  155TCq2    O6 2369   1.997   3.333   0.371  0.6018  0.4999 -0.2031
  155TCq2    H2 2370   1.767   3.261   0.306 -0.8309 -0.5973  1.4535
  155TCq2    H3 2371   2.086   3.019   0.179  0.4006  0.2479  0.0443
  155TCq2    H4 2372   1.682   2.899   0.106  1.3608 -1.2085 -0.0328
  156MPD2     C 2373   4.143   0.229  11.738 -0.6202 -0.2885  0.2478
  156MPD2    C1 2374   4.042   0.312  11.777  0.1100 -0.3539 -0.2097
  156MPD2    C2 2375   4.068   0.418  11.868 -0.0094  0.1321 -0.5630
  156MPD2    C3 2376   4.198   0.445  11.898 -1.0387 -0.0753  0.0728
  156MPD2    C4 2377   4.302   0.364  11.854 -0.1490 -0.0403  0.3894
  156MPD2    C5 2378   4.273   0.250  11.775 -0.4813 -0.2642 -0.3693
  156MPD2     H 2379   3.991   0.493  11.885  0.9972  0.6028  1.9753
  156MPD2    H1 2380   4.405   0.385  11.878 -1.0530  2.2722  2.3662
  156MPD2    H2 2381   4.101   0.150  11.677 -0.2384  0.5446 -1.0799
  156MPD2    H3 2382   4.346   0.191  11.720  1.1524  1.9707 -0.6031
  156MPD2     N 2383   4.217   0.558  11.978  0.2556  0.4334 -0.6520
  156MPD2    H5 2384   4.136   0.611  12.010  1.9379  2.0013  0.9887
  156MPD2    N1 2385   3.910   0.278  11.747  0.4280 -0.0640 -0.1685
  156MPD2    H7 2386   3.893   0.222  11.665 -0.0638 -1.4224  0.8572
  157TCq2    C1 2387   3.794   0.321  11.804  0.5468 -0.2912  0.0452
  157TCq2    O2 2388   3.770   0.351  11.919 -0.7254 -0.7099  0.4801
  157TCq2    C2 2389   3.686   0.316  11.717  0.4096 -0.3954  0.2387
  157TCq2    C3 2390   3.573   0.258  11.757  0.1081  0.1279  0.2971
  157TCq2    C4 2391   3.473   0.254  11.661 -0.7653 -0.1549 -0.6657
  157TCq2    C5 2392   3.482   0.316  11.540  0.2906 -0.1769 -0.2263
  157TCq2    C6 2393   3.603   0.377  11.508 -0.7319 -0.2447  0.1235
  157TCq2    C7 2394   3.707   0.374  11.598 -0.3692  0.4997  0.0819
  157TCq2    C8 2395   3.609   0.461  11.393  0.2097  0.2929 -0.0766
  157TCq2    O4 2396   3.718   0.486  11.348  0.1821  0.4585 -0.1351
  157TCq2    C9 2397   3.355   0.179  11.690 -0.0936 -0.2014  0.5502
  157TCq2    O5 2398   3.263   0.176  11.596  0.2385 -0.0839  0.0523
  157TCq2    O6 2399   3.356   0.116  11.795 -0.1817  0.0714  0.2987
  157TCq2    H2 2400   3.565   0.210  11.854 -0.3677 -1.4569 -0.5456
  157TCq2    H3 2401   3.402   0.312  11.467  0.9461 -2.4142 -0.8378
  157TCq2    H4 2402   3.803   0.416  11.569 -0.7617  0.1438 -1.7659
  158TMC2    C1 2403   4.340   3.934  13.154 -0.8632 -0.1493  0.2045
  158TMC2    C2 2404   4.362   4.055  13.086  0.4303  0.0069  0.4309
  158TMC2    C3 2405   4.243   4.125  13.061  0.2008  1.2212 -0.2999
  158TMC2    C4 2406   4.222   3.888  13.193  0.4413 -0.3331  0.3666
  158TMC2    C5 2407   4.113   3.954  13.150 -0.5962  0.6944 -0.2993
  158TMC2    C6 2408   4.121   4.072  13.082 -0.5645 -0.5446 -0.3152
  158TMC2     C 2409   4.468   3.874  13.203 -0.8506  0.1603  0.3077
  158TMC2     O 2410   4.570   3.880  13.136  0.3150 -0.2484 -0.2291
  158TMC2     H 2411   4.463   4.087  13.063  0.9814  0.2786  3.1989
  158TMC2    H1 2412   4.227   3.793  13.246  0.5892  0.7403  2.2491
  158TMC2    H2 2413   4.029   4.127  13.065 -1.0468 -1.0103  0.7859
  158TMC2    C7 2414   3.984   3.900  13.186 -0.3179  0.0106  0.4933
  158TMC2    C8 2415   4.242   4.237  12.969  0.3434 -0.3410 -0.2216
  158TMC2    O1 2416   3.893   3.980  13.171  0.0871 -0.1831  0.0768
  158TMC2    O2 2417   4.141   4.292  12.932 -0.3969  0.1512 -0.1644
  158TMC2    O5 2418   4.368   4.293  12.966  0.0053 -0.1220 -0.0884
  158TMC2    H5 2419   4.440   4.229  12.981  0.3273  0.5191  1.0935
  159MPD2     C 2420   0.040   3.716  13.601  0.4921 -1.0005  0.8700
  159MPD2    C1 2421   4.623   3.720  13.641  0.1872  0.1812 -0.4047
  159MPD2    C2 2422   4.527   3.759  13.549  0.1564  0.4856 -0.3679
  159MPD2    C3 2423   4.553   3.785  13.417 -0.7826  0.0252 -1.1574
  159MPD2    C4 2424   4.690   3.765  13.375  0.2504  0.7480  0.4988
  159MPD2    C5 2425   0.067   3.733  13.467 -0.5724  0.0867 -0.1142
  159MPD2     H 2426   4.429   3.778  13.590 -0.3307 -0.8917 -0.8784
  159MPD2    H1 2427   0.009   3.780  13.274 -1.0041  1.0658  0.0954
  159MPD2    H2 2428   0.122   3.701  13.670  1.5681 -1.9713 -0.6349
  159MPD2    H3 2429   0.171   3.729  13.436 -1.2351 -1.7364 -2.1035
  159MPD2     N 2430   4.454   3.833  13.336  0.4012 -0.5727 -0.5882
  159MPD2    H5 2431   4.366   3.833  13.387  1.9223 -0.5155  2.0366
  159MPD2    N1 2432   4.589   3.681  13.775  0.4245  0.2040  0.2122
  159MPD2    H7 2433   4.667   3.655  13.834 -0.2843 -0.5146  0.8304
  160TMC2    C1 2434   4.501   1.976   1.332  0.2278 -0.3956  0.1006
  160TMC2    C2 2435   4.611   1.898   1.373 -0.5850  0.0414  0.1474
  160TMC2    C3 2436   4.717   1.905   1.288 -0.2321  0.8766 -0.5013
  160TMC2    C4 2437   4.493   2.040   1.212  0.4029 -0.1969  0.9672
  160TMC2    C5 2438   4.612   2.038   1.137 -0.2297  0.3992  0.4673
  160TMC2    C6 2439   0.003   1.965   1.169  0.6878  0.6530  0.4895
  160TMC2     C 2440   4.387   1.951   1.415  0.4426 -0.1142  0.0051
  160TMC2     O 2441   4.402   1.867   1.506  0.3180  0.4383  0.8062
  160TMC2     H 2442   4.616   1.846   1.468  0.4287 -0.0448  0.0433
  160TMC2    H1 2443   4.410   2.099   1.175 -0.2163 -0.7759  1.4183
  160TMC2    H2 2444   0.092   1.960   1.107 -0.5104  3.6850 -1.5125
  160TMC2    C7 2445   4.613   2.124   1.022  0.4712  0.3598  0.1550
  160TMC2    C8 2446   0.126   1.843   1.344  0.5333 -0.1906  0.4483
  160TMC2    O1 2447   4.519   2.135   0.941  0.6133 -0.0508 -0.5853
  160TMC2    O2 2448   0.132   1.729   1.387  0.4465 -0.3166 -0.0965
  160TMC2    O5 2449   0.236   1.913   1.294 -0.7435 -0.0993 -0.1073
  160TMC2    H5 2450   0.220   2.008   1.275  1.2288  0.0775 -0.9428
  161MPD2     C 2451   4.117   1.858   1.483  0.3286  1.1873 -0.8941
  161MPD2    C1 2452   4.141   1.981   1.422 -0.4456 -0.2678  0.8572
  161MPD2    C2 2453   4.037   2.076   1.412 -0.7459 -0.2838  0.0552
  161MPD2    C3 2454   3.908   2.041   1.453 -0.5471  0.1961 -0.8519
  161MPD2    C4 2455   3.889   1.915   1.504  0.0791  0.3830 -0.3016
  161MPD2    C5 2456   3.993   1.828   1.523 -0.9720 -0.8489 -0.5395
  161MPD2     H 2457   4.052   2.170   1.361 -1.0819 -1.6866 -2.6430
  161MPD2    H1 2458   3.793   1.873   1.531 -0.1934  2.1265  1.4051
  161MPD2    H2 2459   4.193   1.782   1.497 -0.5095  0.4716 -0.2037
  161MPD2    H3 2460   3.979   1.727   1.559  1.2379 -0.1392  2.2747
  161MPD2     N 2461   3.799   2.126   1.437 -0.1188 -0.4035 -0.1943
  161MPD2    H5 2462   3.702   2.095   1.437 -0.7284  1.5782  1.9292
  161MPD2    N1 2463   4.269   2.009   1.372 -0.1378 -0.7100 -0.4704
  161MPD2    H7 2464   4.275   2.087   1.308 -1.8642  0.8613  1.2706
  162TMC2    C1 2465   1.994   3.701   0.904  0.3916 -0.6630 -0.0949
  162TMC2    C2 2466   1.885   3.782   0.926 -0.2561  0.2899  0.0243
  162TMC2    C3 2467   1.822   3.758   1.045  0.3197 -0.3953 -0.0370
  162TMC2    C4 2468   2.054   3.622   1.002 -0.3869  0.2258 -0.7921
  162TMC2    C5 2469   2.001   3.634   1.124 -0.8721  0.0591 -0.7593
  162TMC2    C6 2470   1.884   3.700   1.152 -0.4613 -0.4314  1.0935
  162TMC2     C 2471   2.080   3.738   0.795 -0.0486 -0.2632 -0.2781
  162TMC2     O 2472   2.181   3.665   0.776 -0.2204  0.3246  0.1460
  162TMC2     H 2473   1.827   3.823   0.844  3.3432  1.5356 -1.8711
  162TMC2    H1 2474   2.146   3.568   0.986 -0.1276  0.1256  1.1108
  162TMC2    H2 2475   1.836   3.688   1.249  1.1729 -0.3925  1.9120
  162TMC2    C7 2476   2.053   3.537   1.224 -0.0524 -0.0912 -0.3667
  162TMC2    C8 2477   1.692   3.818   1.068 -0.6135  0.0353  0.4256
  162TMC2    O1 2478   2.102   3.437   1.176  0.3134 -0.4552 -0.0419
  162TMC2    O2 2479   1.672   3.908   1.146  0.4927  0.1156 -0.4196
  162TMC2    O5 2480   1.628   3.810   0.946 -0.5278 -0.4883  0.2919
  162TMC2    H5 2481   1.647   3.729   0.895  1.3260 -0.1525  0.4808
  163MPD2     C 2482   2.297   4.134   0.523 -0.2516  0.2588 -0.6464
  163MPD2    C1 2483   2.336   4.004   0.535 -0.5953  0.4881  1.0104
  163MPD2    C2 2484   2.259   3.913   0.609  0.4630  0.2899 -0.2883
  163MPD2    C3 2485   2.141   3.955   0.676 -0.5991 -0.2568  0.0004
  163MPD2    C4 2486   2.107   4.090   0.651  0.0129 -0.6649 -0.0936
  163MPD2    C5 2487   2.186   4.180   0.583 -0.8459  0.7180  0.4791
  163MPD2     H 2488   2.296   3.813   0.629  2.5066  0.8557 -1.2141
  163MPD2    H1 2489   2.013   4.132   0.685 -1.1105 -3.1527 -0.1254
  163MPD2    H2 2490   2.364   4.206   0.476 -0.9270  0.8820 -0.6587
  163MPD2    H3 2491   2.157   4.283   0.564 -1.2799  0.2897 -1.2432
  163MPD2     N 2492   2.055   3.871   0.753  0.0759 -0.5053  0.4215
  163MPD2    H5 2493   1.978   3.922   0.796 -0.0498  1.6543 -2.3606
  163MPD2    N1 2494   2.468   3.977   0.495 -0.5049  0.0039  0.8448
  163MPD2    H7 2495   2.524   4.040   0.438  0.3716 -1.3009  0.2702
  164TCq2    C1 2496   2.419   4.709  11.187 -0.2868 -0.0450  0.5242
  164TCq2    O2 2497   2.389   4.696  11.306  0.2361 -0.1414 -0.0659
  164TCq2    C2 2498   2.337   4.643  11.082 -0.0270  0.0820 -0.0758
  164TCq2    C3 2499   2.382   4.635  10.954  0.1307 -0.6486 -0.2311
  164TCq2    C4 2500   2.301   4.570  10.863  0.8934 -0.2578  0.5680
  164TCq2    C5 2501   2.182   4.514  10.894 -0.2056 -0.3221 -0.0780
  164TCq2    C6 2502   2.145   4.517  11.027  0.4918 -0.1501  0.1768
  164TCq2    C7 2503   2.212   4.592  11.119 -0.8646 -0.3331 -0.1256
  164TCq2    C8 2504   2.051   4.404  11.049  0.5870 -1.2224 -0.6201
  164TCq2    O4 2505   1.999   4.360  10.948  0.3998 -0.4969 -0.2349
  164TCq2    C9 2506   2.340   4.555  10.727 -0.2782 -0.1249 -0.4154
  164TCq2    O5 2507   2.273   4.493  10.640 -0.0255 -0.0540 -0.3024
  164TCq2    O6 2508   2.432   4.638  10.695  0.2457 -0.1194  0.2439
  164TCq2    H2 2509   2.483   4.664  10.927  1.0965 -1.1731  2.8719
  164TCq2    H3 2510   2.138   4.451  10.817 -1.6349  0.0492  0.4246
  164TCq2    H4 2511   2.186   4.597  11.224 -2.1600 -2.1990 -0.3464
  165MPD2     C 2512   2.991   0.952   1.732  0.0047  0.1830 -0.8090
  165MPD2    C1 2513   3.078   0.946   1.623 -0.0887 -0.4440 -0.0470
  165MPD2    C2 2514   3.142   1.063   1.583  0.5066  0.6422  0.0396
  165MPD2    C3 2515   3.118   1.178   1.660  0.2332  0.3523  0.6942
  165MPD2    C4 2516   3.033   1.182   1.770  0.1551  0.1002 -0.1696
  165MPD2    C5 2517   2.964   1.067   1.799  0.4449  0.1907  0.2409
  165MPD2     H 2518   3.207   1.066   1.496 -1.4293 -0.4746 -1.4440
  165MPD2    H1 2519   3.017   1.265   1.837  0.9646  2.8078 -3.3371
  165MPD2    H2 2520   2.928   0.867   1.758 -1.2378  0.9727 -1.2500
  165MPD2    H3 2521   2.900   1.062   1.886 -0.4903  1.5865 -0.3577
  165MPD2     N 2522   3.181   1.298   1.621  0.0425  0.4234  0.4534
  165MPD2    H5 2523   3.148   1.377   1.676 -2.3479 -0.6221  0.5178
  165MPD2    N1 2524   3.088   0.825   1.554 -0.1958  0.1339  0.1078
  165MPD2    H7 2525   3.033   0.748   1.591  0.6127 -0.5123 -0.0597
  166TCq2    C1 2526   3.286   1.307   1.530  0.3105  0.1182 -0.4276
  166TCq2    O2 2527   3.366   1.216   1.510  0.4892 -0.2105 -0.3318
  166TCq2    C2 2528   3.310   1.446   1.482 -0.5264  0.2755  0.3252
  166TCq2    C3 2529   3.210   1.543   1.484 -0.3806  0.6124  0.0487
  166TCq2    C4 2530   3.238   1.677   1.453  0.4645 -0.1441  0.0153
  166TCq2    C5 2531   3.368   1.711   1.416 -0.4805  0.6065 -0.2687
  166TCq2    C6 2532   3.470   1.608   1.413  0.5360  0.0947 -0.2926
  166TCq2    C7 2533   3.441   1.479   1.453 -0.3926 -1.0266  0.0345
  166TCq2    C8 2534   3.606   1.624   1.358  0.4178 -0.2119  0.3345
  166TCq2    O4 2535   3.682   1.533   1.362  0.5807 -0.0958 -0.3878
  166TCq2    C9 2536   3.138   1.782   1.453 -0.5479  0.0398  0.3466
  166TCq2    O5 2537   3.029   1.759   1.509  0.0809  0.4743  0.3636
  166TCq2    O6 2538   3.166   1.894   1.412  0.3424  0.1540  0.3465
  166TCq2    H2 2539   3.114   1.524   1.530 -0.1759 -2.5835 -0.8070
  166TCq2    H3 2540   3.395   1.811   1.384  0.1363  0.3476 -0.5645
  166TCq2    H4 2541   3.517   1.402   1.452  1.1647  0.5406 -1.6862
  167TMC2    C1 2542   2.102   3.387  12.909  0.5047 -0.0053  0.0712
  167TMC2    C2 2543   2.130   3.430  13.033  0.3201 -0.2705  0.1530
  167TMC2    C3 2544   2.128   3.333  13.132  0.1330  0.1201 -0.1848
  167TMC2    C4 2545   2.047   3.270  12.883 -0.2008  0.3567 -0.1692
  167TMC2    C5 2546   2.019   3.188  12.990 -0.1366  0.6134  0.0621
  167TMC2    C6 2547   2.072   3.208  13.117  0.1076 -0.4932 -0.6121
  167TMC2     C 2548   2.165   3.465  12.801  0.5658 -0.0153  0.0593
  167TMC2     O 2549   2.215   3.565  12.838  0.0589  0.5323 -0.0231
  167TMC2     H 2550   2.180   3.526  13.043 -0.0438  0.0980 -1.5985
  167TMC2    H1 2551   2.001   3.247  12.788 -0.7440  1.1201 -0.0951
  167TMC2    H2 2552   2.055   3.141  13.200  1.1470 -1.5086 -1.2207
  167TMC2    C7 2553   1.952   3.058  12.971  0.7914 -0.3503 -0.3358
  167TMC2    C8 2554   2.181   3.374  13.259 -0.0084  0.6527 -0.3020
  167TMC2    O1 2555   1.936   2.999  13.076 -0.0181 -0.3124  0.5585
  167TMC2    O2 2556   2.206   3.294  13.349 -0.1836 -0.2664  0.0299
  167TMC2    O5 2557   2.134   3.495  13.284  0.2892  0.0122 -0.3413
  167TMC2    H5 2558   2.114   3.556  13.210 -0.8819  1.8007  1.4682
  168MPD2     C 2559   2.304   3.585  12.571  0.3189  0.0806  0.3779
  168MPD2    C1 2560   2.239   3.462  12.562 -0.5961 -0.5104 -0.2121
  168MPD2    C2 2561   2.244   3.390  12.445 -0.7847  1.0353 -0.6769
  168MPD2    C3 2562   2.294   3.447  12.323 -0.0892  0.4557 -0.1758
  168MPD2    C4 2563   2.348   3.569  12.329 -0.2261 -0.1719 -0.5429
  168MPD2    C5 2564   2.366   3.630  12.453  0.0234  0.5135 -0.2310
  168MPD2     H 2565   2.182   3.301  12.445  1.3471 -0.4587 -3.4927
  168MPD2    H1 2566   2.389   3.609  12.237  0.0897 -1.2164 -0.8634
  168MPD2    H2 2567   2.315   3.648  12.659  0.3349 -1.8148  1.7324
  168MPD2    H3 2568   2.406   3.730  12.443 -1.2608  1.4276  3.8536
  168MPD2     N 2569   2.275   3.387  12.201 -0.0094  0.6957 -0.3613
  168MPD2    H5 2570   2.305   3.435  12.117 -0.8979  0.5231 -0.7768
  168MPD2    N1 2571   2.184   3.399  12.678  0.4818 -0.3977  0.2658
  168MPD2    H7 2572   2.157   3.303  12.661  0.7183 -0.3934 -0.1273
  169MPD1     C 2573   4.278   2.030   8.026  0.3282 -0.0633  0.3402
  169MPD1    C1 2574   4.349   1.926   8.088 -0.7544  0.2562 -0.2794
  169MPD1    C2 2575   4.436   1.961   8.186 -0.1075  0.7358 -0.3614
  169MPD1    C3 2576   4.456   2.096   8.220  0.0159  0.1992 -0.3096
  169MPD1    C4 2577   4.390   2.192   8.152  0.2536 -0.0917 -0.3622
  169MPD1    C5 2578   4.310   2.160   8.053 -0.1421 -0.3026  0.3629
  169MPD1     H 2579   4.474   1.883   8.251 -2.2246 -1.3065 -1.5811
  169MPD1    H1 2580   4.396   2.298   8.177 -0.7941 -0.2716  0.6305
  169MPD1    H2 2581   4.195   2.013   7.958  0.9369 -0.2734 -0.3483
  169MPD1    H3 2582   4.267   2.242   7.998  0.9506  0.1435  0.1706
  169MPD1     N 2583   4.548   2.120   8.327  0.1759 -0.2107 -0.2840
  169MPD1    H5 2584   4.585   2.041   8.380  0.9026 -0.9752 -1.9195
  169MPD1    N1 2585   4.308   1.793   8.073 -0.4465  0.2896  0.7570
  169MPD1    H6 2586   4.283   1.778   7.976  0.1603 -0.7477  0.7599
  169MPD1    H7 2587   4.376   1.722   8.101 -0.0800 -0.2482 -1.5247
  170MPD1     C 2588   2.772   0.318  13.340 -0.4873  0.5961  0.0254
  170MPD1    C1 2589   2.872   0.265  13.417 -0.4486 -0.1853 -0.5220
  170MPD1    C2 2590   2.962   0.347  13.482  1.3229 -0.3489 -0.6909
  170MPD1    C3 2591   2.951   0.480  13.474 -0.7025 -0.0451 -0.3397
  170MPD1    C4 2592   2.847   0.536  13.396 -0.2796 -0.1960  0.1920
  170MPD1    C5 2593   2.758   0.456  13.336  0.4394 -0.4360 -0.0157
  170MPD1     H 2594   3.044   0.305  13.539  1.1092 -0.7834 -0.7037
  170MPD1    H1 2595   2.844   0.642  13.374 -1.5253  0.0233  1.4881
  170MPD1    H2 2596   2.712   0.258  13.274 -1.1944  0.8195  0.4614
  170MPD1    H3 2597   2.685   0.500  13.269 -0.9649 -3.4302 -0.4601
  170MPD1     N 2598   3.051   0.560  13.535 -0.8909 -0.7319 -0.6624
  170MPD1    H5 2599   3.106   0.506  13.601  0.6153  0.2684 -1.0973
  170MPD1    N1 2600   2.896   0.127  13.405  0.2387 -0.1513  0.1904
  170MPD1    H6 2601   2.935   0.100  13.495 -0.7243 -1.6433  0.1579
  170MPD1    H7 2602   2.802   0.089  13.394  0.1104  0.4031 -0.6452
  171MPD1     C 2603   1.963   2.378  15.278 -0.0929 -0.0945 -0.1343
  171MPD1    C1 2604   2.091   2.324  15.272  0.2333  0.3377  1.0062
  171MPD1    C2 2605   2.136   2.244  15.377 -0.3166  0.6868  0.2760
  171MPD1    C3 2606   2.061   2.226  15.491  0.8585  0.5738  0.2097
  171MPD1    C4 2607   1.947   2.301  15.500  0.3120  0.0113  0.2487
  171MPD1    C5 2608   1.891   2.363  15.395 -0.4466  0.1197 -0.2151
  171MPD1     H 2609   2.227   2.192  15.350 -0.5765  1.0001 -1.1934
  171MPD1    H1 2610   1.889   2.295  15.592 -0.5092 -0.6280 -0.3187
  171MPD1    H2 2611   1.920   2.421  15.188  1.1481  1.5871  0.0736
  171MPD1    H3 2612   1.795   2.412  15.385 -0.0147  1.0322  0.1489
  171MPD1     N 2613   2.090   2.134  15.592  0.2753 -0.1864  0.1993
  171MPD1    H5 2614   2.049   2.151  15.683 -1.2314 -2.2166 -0.0922
  171MPD1    N1 2615   2.162   2.331  15.149 -0.0691 -0.4260 -0.3297
  171MPD1    H6 2616   2.261   2.314  15.165  0.5789  3.4404 -0.2805
  171MPD1    H7 2617   2.157   2.426  15.111 -3.0168  0.0422  1.2527
  172MPD1     C 2618   1.677   1.863   1.414 -0.8866  0.3778  0.1576
  172MPD1    C1 2619   1.709   1.827   1.285 -0.5211 -0.6290  0.6114
  172MPD1    C2 2620   1.613   1.783   1.202  0.2693  0.0883 -0.4983
  172MPD1    C3 2621   1.479   1.806   1.237  0.3440 -0.1754 -0.1605
  172MPD1    C4 2622   1.445   1.868   1.356 -0.6105  0.4844  0.0134
  172MPD1    C5 2623   1.550   1.893   1.445  0.0172  0.1093  0.1556
  172MPD1     H 2624   1.639   1.745   1.104  1.7968  0.2641 -0.1564
  172MPD1    H1 2625   1.342   1.883   1.387 -1.1463  0.3622 -1.7165
  172MPD1    H2 2626   1.755   1.879   1.487  2.2257  1.1913 -3.3345
  172MPD1    H3 2627   1.519   1.935   1.541 -1.1959  1.2929 -0.7502
  172MPD1     N 2628   1.374   1.792   1.140 -0.2904 -0.2645 -0.2935
  172MPD1    H5 2629   1.289   1.836   1.174 -0.7970 -1.5981  0.1691
  172MPD1    N1 2630   1.845   1.801   1.263 -0.2723  0.3040 -0.0297
  172MPD1    H6 2631   1.896   1.883   1.294  0.9513 -0.9729  1.3297
  172MPD1    H7 2632   1.865   1.791   1.163  1.1658 -1.0495  0.3994
  173MPD1     C 2633   2.453   0.347  14.004  0.0371  0.2293  0.2063
  173MPD1    C1 2634   2.362   0.441  14.064  0.2153  0.0586  0.7375
  173MPD1    C2 2635   2.423   0.537  14.145  0.2636  0.6171 -0.2863
  173MPD1    C3 2636   2.554   0.519  14.194 -0.2672  0.1420 -0.0601
  173MPD1    C4 2637   2.631   0.416  14.140  0.0911  0.0978  0.2853
  173MPD1    C5 2638   2.573   0.324  14.061  0.4636  0.4122 -0.5900
  173MPD1     H 2639   2.361   0.612  14.194 -0.7843  0.1642 -0.9095
  173MPD1    H1 2640   2.730   0.396  14.179  0.1255 -2.6324 -1.2089
  173MPD1    H2 2641   2.416   0.267  13.941 -1.4840  0.5429  0.7037
  173MPD1    H3 2642   2.634   0.243  14.022  1.2104  1.0699 -0.7981
  173MPD1     N 2643   2.604   0.614  14.285 -0.3890 -0.8294 -0.0848
  173MPD1    H5 2644   2.535   0.682  14.317  0.0202 -1.4080  2.0149
  173MPD1    N1 2645   2.229   0.463  14.018 -0.5098  0.5734  0.5980
  173MPD1    H6 2646   2.175   0.511  14.090 -0.5673 -1.6851  2.0682
  173MPD1    H7 2647   2.184   0.373  14.002 -2.5939  1.6594  0.2983
  174MPD1     C 2648   3.467   0.710  14.813 -0.3653  0.2038  0.6676
  174MPD1    C1 2649   3.360   0.723  14.902 -0.4018 -0.3174  0.2230
  174MPD1    C2 2650   3.239   0.764  14.849 -0.2629  0.4047 -0.1305
  174MPD1    C3 2651   3.218   0.775  14.716  0.7339  0.1979  0.5024
  174MPD1    C4 2652   3.322   0.766  14.626 -0.1873 -0.3289 -1.0706
  174MPD1    C5 2653   3.448   0.734  14.681  0.0687  0.1360 -0.1197
  174MPD1     H 2654   3.164   0.783  14.925  1.4005  0.2977  1.5383
  174MPD1    H1 2655   3.304   0.783  14.521  1.0493 -0.9749 -1.3850
  174MPD1    H2 2656   3.568   0.689  14.847 -1.3082 -2.4622  1.8468
  174MPD1    H3 2657   3.537   0.721  14.620 -0.0590 -1.4901  0.0444
  174MPD1     N 2658   3.090   0.786  14.662 -0.3927  0.2005 -0.7078
  174MPD1    H5 2659   3.087   0.799  14.561  0.8897  2.5162 -0.4477
  174MPD1    N1 2660   3.380   0.706  15.040  0.4296 -0.2800 -0.6043
  174MPD1    H6 2661   3.297   0.668  15.084  0.5859 -0.9635 -0.9039
  174MPD1    H7 2662   3.466   0.656  15.064  0.4820 -0.1148 -0.4481
  175MPD1     C 2663   0.679   1.962  15.783  0.0131 -0.2707  0.0784
  175MPD1    C1 2664   0.585   1.972  15.886  0.3785 -0.9312  0.1850
  175MPD1    C2 2665   0.619   1.914  16.009  0.4780  0.1705 -0.2852
  175MPD1    C3 2666   0.740   1.847  16.023 -0.4343  0.3311 -0.5862
  175MPD1    C4 2667   0.833   1.857  15.922 -0.3891 -0.5593 -0.2565
  175MPD1    C5 2668   0.800   1.900  15.800 -0.1369 -0.1750 -0.6858
  175MPD1     H 2669   0.541   1.906  16.084  0.8775 -0.6231  0.0487
  175MPD1    H1 2670   0.934   1.820  15.936 -0.8502 -0.5314  3.3031
  175MPD1    H2 2671   0.661   1.996  15.681  2.6524  2.9618  0.6906
  175MPD1    H3 2672   0.875   1.901  15.722 -1.3084 -0.4866 -1.7952
  175MPD1     N 2673   0.793   1.787  16.142  0.1900  0.2303 -0.3800
  175MPD1    H5 2674   0.881   1.737  16.135  1.3657  1.6517  4.1237
  175MPD1    N1 2675   0.452   2.006  15.852 -0.2867  1.1230 -0.6069
  175MPD1    H6 2676   0.403   2.038  15.935  0.2323  2.6809 -0.9020
  175MPD1    H7 2677   0.434   2.069  15.774  1.9376 -0.2659 -2.2443
  176MPD1     C 2678   1.922   3.683  17.465 -0.1217 -1.0644 -0.1309
  176MPD1    C1 2679   1.859   3.799  17.506  0.0470  0.0182 -0.2720
  176MPD1    C2 2680   1.921   3.917  17.496  0.8146  0.0740  0.0382
  176MPD1    C3 2681   2.055   3.926  17.451 -0.5556  0.4159  0.6620
  176MPD1    C4 2682   2.115   3.809  17.413 -1.0440 -0.5020  0.0379
  176MPD1    C5 2683   2.054   3.689  17.429 -1.2407 -0.4011 -0.0360
  176MPD1     H 2684   1.871   4.007  17.531  1.0658  0.8564 -1.6328
  176MPD1    H1 2685   2.219   3.801  17.382 -0.6141  0.3282  1.2609
  176MPD1    H2 2686   1.872   3.586  17.468  0.9768 -1.6518 -1.0715
  176MPD1    H3 2687   2.106   3.597  17.403 -0.3955  0.1400 -0.2659
  176MPD1     N 2688   2.106   4.058  17.432 -0.3426 -0.4293 -0.3587
  176MPD1    H5 2689   2.043   4.136  17.452 -1.1012 -0.9542 -0.7184
  176MPD1    N1 2690   1.724   3.786  17.540 -0.2464 -0.2524 -0.4953
  176MPD1    H6 2691   1.708   3.692  17.576  0.9839  0.9107  3.0790
  176MPD1    H7 2692   1.704   3.856  17.611 -0.8011 -0.5615 -0.3475
  177MPD1     C 2693   0.383   2.891   9.660 -0.5960 -0.2216  0.0951
  177MPD1    C1 2694   0.269   2.855   9.594 -0.0835  0.4242 -0.0743
  177MPD1    C2 2695   0.252   2.892   9.458 -0.5158  0.7305  0.0482
  177MPD1    C3 2696   0.340   2.981   9.391 -0.2849  0.2399  0.7016
  177MPD1    C4 2697   0.452   3.012   9.462  0.7423  0.2807  0.3093
  177MPD1    C5 2698   0.475   2.971   9.593 -0.2236 -0.0575 -0.5354
  177MPD1     H 2699   0.166   2.870   9.396 -2.4895 -0.3854  3.2291
  177MPD1    H1 2700   0.532   3.071   9.419 -1.4163  4.0173  1.4690
  177MPD1    H2 2701   0.409   2.859   9.760  0.4170 -2.4864 -0.8948
  177MPD1    H3 2702   0.570   2.993   9.640 -0.7602  0.3248  0.3574
  177MPD1     N 2703   0.323   3.009   9.259  0.2112 -0.1684 -0.2330
  177MPD1    H5 2704   0.237   2.978   9.215 -0.3850 -1.7468  2.0169
  177MPD1    N1 2705   0.168   2.801   9.672  0.1703  0.3118 -0.7449
  177MPD1    H6 2706   0.098   2.756   9.614 -0.6364 -0.3965  0.7930
  177MPD1    H7 2707   0.196   2.722   9.729 -1.7259  0.5012  0.4571
  178MPD1     C 2708   2.690   0.358  17.496  0.2456 -0.2622  0.1347
  178MPD1    C1 2709   2.799   0.442  17.503 -0.6051 -0.0996  0.4777
  178MPD1    C2 2710   2.922   0.416  17.448  0.1133  0.4553 -0.0004
  178MPD1    C3 2711   2.945   0.289  17.400  0.3290  0.4832 -0.0312
  178MPD1    C4 2712   2.844   0.191  17.400  0.1446  0.3836  0.3857
  178MPD1    C5 2713   2.719   0.229  17.447  0.3161  0.8114 -0.3603
  178MPD1     H 2714   2.998   0.493  17.448  0.1143  0.4593  1.9448
  178MPD1    H1 2715   2.869   0.086  17.393  0.7553  0.6443 -1.2750
  178MPD1    H2 2716   2.589   0.371  17.534  0.5041 -0.5681  0.9187
  178MPD1    H3 2717   2.645   0.151  17.436 -2.0197  2.5573  3.1611
  178MPD1     N 2718   3.071   0.238  17.345  0.5023 -0.0870 -0.2502
  178MPD1    H5 2719   3.066   0.155  17.287 -3.2922 -0.1843  0.2394
  178MPD1    N1 2720   2.776   0.574  17.552 -0.2901  0.2534  0.3111
  178MPD1    H6 2721   2.847   0.608  17.616 -0.1726 -0.3162  0.4846
  178MPD1    H7 2722   2.691   0.599  17.602  0.4493  0.2269  1.5757
  179MPD1     C 2723   2.530   3.539  16.294  0.3740  0.0265  0.0050
  179MPD1    C1 2724   2.469   3.479  16.183  0.3240 -0.7063  0.1619
  179MPD1    C2 2725   2.512   3.361  16.127 -0.8863  0.5684 -0.5507
  179MPD1    C3 2726   2.612   3.288  16.198 -0.4098  0.0510  0.5639
  179MPD1    C4 2727   2.666   3.340  16.314  0.2579 -0.0711 -0.4162
  179MPD1    C5 2728   2.625   3.467  16.364  1.2861  0.2111  0.6652
  179MPD1     H 2729   2.460   3.310  16.046 -0.1629 -1.2477  0.1311
  179MPD1    H1 2730   2.739   3.284  16.372  0.0634 -0.4411 -0.5273
  179MPD1    H2 2731   2.496   3.635  16.331 -0.0183  0.1143 -0.5818
  179MPD1    H3 2732   2.667   3.514  16.452  0.2677  1.6672  0.3855
  179MPD1     N 2733   2.659   3.158  16.160 -0.2412 -0.6966 -0.2996
  179MPD1    H5 2734   2.731   3.112  16.216 -0.6295 -0.8023  0.1139
  179MPD1    N1 2735   2.387   3.565  16.110  0.1355 -0.6075 -0.0379
  179MPD1    H6 2736   2.337   3.625  16.175  0.5805  2.1208 -2.1919
  179MPD1    H7 2737   2.331   3.517  16.040 -1.9928  2.1085 -0.2181
  180MPD1     C 2738   2.315   3.812  15.197 -0.4430 -0.9046 -0.3524
  180MPD1    C1 2739   2.441   3.841  15.164  0.1792  1.0297  0.4746
  180MPD1    C2 2740   2.482   3.853  15.028  0.0793 -1.4638  0.0842
  180MPD1    C3 2741   2.391   3.851  14.927 -0.1063 -0.0471 -0.8387
  180MPD1    C4 2742   2.264   3.813  14.962 -0.3147 -0.5447 -0.0128
  180MPD1    C5 2743   2.230   3.794  15.093 -0.2789  0.4885 -0.1799
  180MPD1     H 2744   2.582   3.893  15.019 -0.9182  1.0534  0.2765
  180MPD1    H1 2745   2.179   3.791  14.898  0.2452 -1.0347 -0.5938
  180MPD1    H2 2746   2.281   3.787  15.296 -1.7520  1.3240 -0.2273
  180MPD1    H3 2747   2.132   3.753  15.113  0.7735 -0.8228  2.2964
  180MPD1     N 2748   2.434   3.874  14.793 -0.0241  0.0891 -0.0926
  180MPD1    H5 2749   2.535   3.877  14.785 -0.0779  1.3509 -0.2325
  180MPD1    N1 2750   2.530   3.889  15.261 -0.5569 -0.3413 -0.1765
  180MPD1    H6 2751   2.629   3.877  15.241 -0.8556 -0.6418 -1.4703
  180MPD1    H7 2752   2.504   3.864  15.356 -0.6903 -0.2713 -0.1939
  181MPD1     C 2753   3.041   1.119   9.113  0.0661 -0.2090  0.0428
  181MPD1    C1 2754   3.095   1.240   9.155  0.1349  0.2998 -0.4172
  181MPD1    C2 2755   3.199   1.241   9.251  0.5909  0.9582 -0.2290
  181MPD1    C3 2756   3.250   1.124   9.299 -0.4046  0.3499  0.4805
  181MPD1    C4 2757   3.201   1.004   9.254  0.3317  0.7607  0.5087
  181MPD1    C5 2758   3.101   1.009   9.165 -0.5034  0.2777  0.0899
  181MPD1     H 2759   3.234   1.340   9.280 -1.3039  2.6538 -3.6831
  181MPD1    H1 2760   3.244   0.911   9.288 -1.2562 -0.0643  0.2248
  181MPD1    H2 2761   2.961   1.112   9.040 -0.2852 -0.2210  0.4304
  181MPD1    H3 2762   3.065   0.915   9.126  1.0094 -0.7391  1.1601
  181MPD1     N 2763   3.355   1.116   9.391  0.0942 -0.1393  0.3496
  181MPD1    H5 2764   3.409   1.030   9.394 -1.1150 -0.9591 -1.6881
  181MPD1    N1 2765   3.043   1.362   9.115  0.4334  0.0289 -0.0436
  181MPD1    H6 2766   3.013   1.364   9.017  0.4970 -1.6571 -0.0867
  181MPD1    H7 2767   3.112   1.436   9.125  0.4815  0.1097 -0.9452
  182MPD1     C 2768   0.814   0.273   0.875  0.1563  0.8473  0.7062
  182MPD1    C1 2769   0.816   0.288   0.736 -0.7329 -0.2638  0.4099
  182MPD1    C2 2770   0.731   0.379   0.674  0.7094  0.3158 -0.1951
  182MPD1    C3 2771   0.642   0.449   0.747  0.4932  0.3623 -0.5983
  182MPD1    C4 2772   0.638   0.429   0.884  0.9575 -0.1900 -0.2884
  182MPD1    C5 2773   0.725   0.347   0.947 -0.0938  0.7382 -0.1111
  182MPD1     H 2774   0.731   0.406   0.569  2.5897  1.0152 -0.0155
  182MPD1    H1 2775   0.559   0.476   0.941  0.3843 -1.3265 -0.1537
  182MPD1    H2 2776   0.868   0.189   0.919  0.2718  0.3036 -0.4775
  182MPD1    H3 2777   0.710   0.320   1.050 -1.2791 -0.4921 -0.6060
  182MPD1     N 2778   0.539   0.538   0.689 -0.1765 -0.0099  1.1810
  182MPD1    H5 2779   0.455   0.550   0.744 -2.0570 -0.1258 -1.6589
  182MPD1    N1 2780   0.889   0.198   0.658 -0.3881 -0.6238  0.2003
  182MPD1    H6 2781   0.885   0.232   0.562  0.0955  0.1907  0.4720
  182MPD1    H7 2782   0.982   0.165   0.682  1.1308  2.3964 -1.5377
  183MPD1     C 2783   0.704   0.693   9.446 -0.3970 -0.5217  0.2230
  183MPD1    C1 2784   0.658   0.563   9.467 -0.1265  0.5851 -0.0791
  183MPD1    C2 2785   0.544   0.547   9.553 -0.3248 -0.1447  0.5933
  183MPD1    C3 2786   0.482   0.653   9.624  0.3938  0.0984  0.6857
  183MPD1    C4 2787   0.537   0.778   9.603 -0.7231 -0.8048 -0.4251
  183MPD1    C5 2788   0.644   0.793   9.514  0.8423  0.5583 -0.0826
  183MPD1     H 2789   0.510   0.445   9.568  2.2338 -0.9374  1.0203
  183MPD1    H1 2790   0.490   0.867   9.642  0.2394 -0.4507 -0.0956
  183MPD1    H2 2791   0.777   0.719   9.370 -1.2808 -0.7492 -0.7032
  183MPD1    H3 2792   0.672   0.896   9.496 -0.1854  1.3974  2.9739
  183MPD1     N 2793   0.370   0.618   9.708 -0.1839  0.6516  0.3609
  183MPD1    H5 2794   0.341   0.521   9.707  1.0011  0.2696  1.8827
  183MPD1    N1 2795   0.708   0.449   9.394 -0.3221 -0.2142  0.2190
  183MPD1    H6 2796   0.794   0.484   9.353 -0.4932  0.4149  0.3864
  183MPD1    H7 2797   0.722   0.377   9.465 -0.0629 -0.1885  0.1948
  184MPD1     C 2798   4.255   2.881   9.994  0.0284  0.3485 -0.7787
  184MPD1    C1 2799   4.217   2.961   9.892 -0.2770 -0.2905 -0.0377
  184MPD1    C2 2800   4.306   3.041   9.825  0.2686  0.3069  0.0778
  184MPD1    C3 2801   4.443   3.025   9.838  0.0945  0.0642  0.0699
  184MPD1    C4 2802   4.484   2.934   9.937  0.1383 -0.5895 -0.4199
  184MPD1    C5 2803   4.391   2.867  10.014 -0.2671  0.0450  0.0589
  184MPD1     H 2804   4.268   3.125   9.768 -0.0912  1.0501  1.4031
  184MPD1    H1 2805   4.590   2.918   9.956  0.0954  0.9204  1.0511
  184MPD1    H2 2806   4.187   2.820  10.053 -1.5663  0.7263 -2.2241
  184MPD1    H3 2807   4.423   2.811  10.101  1.8303 -0.8842 -1.3321
  184MPD1     N 2808   4.543   3.087   9.760  0.1622  0.0304 -0.6924
  184MPD1    H5 2809   4.637   3.080   9.799  0.6506 -0.2282 -1.9105
  184MPD1    N1 2810   4.078   2.976   9.867 -0.0974 -0.0421  0.6105
  184MPD1    H6 2811   4.016   2.899   9.892  0.9357 -1.1914 -0.3637
  184MPD1    H7 2812   4.055   3.007   9.773  1.8824 -2.7660 -0.7722
  185MPD1     C 2813   4.549   3.083   8.798 -0.8981 -0.4292  0.3885
  185MPD1    C1 2814   4.620   3.200   8.823 -0.1581 -0.1691  0.2838
  185MPD1    C2 2815   4.644   3.230   8.955 -0.4763 -0.1111  0.6068
  185MPD1    C3 2816   4.617   3.145   9.055 -0.2811  0.0936  1.4232
  185MPD1    C4 2817   4.545   3.032   9.029 -0.3199 -0.6948  0.3268
  185MPD1    C5 2818   4.519   2.995   8.895 -0.3679  0.7942  0.1177
  185MPD1     H 2819   4.697   3.322   8.976 -0.4472  0.0440 -0.1276
  185MPD1    H1 2820   4.527   2.953   9.101 -0.3767  0.6654  1.8254
  185MPD1    H2 2821   4.531   3.057   8.694 -0.3282 -0.4142  0.2873
  185MPD1    H3 2822   4.481   2.895   8.878 -0.3783  1.0128 -1.1508
  185MPD1     N 2823   4.655   3.164   9.190  0.3762  0.0154  0.4367
  185MPD1    H5 2824   4.611   3.099   9.254  0.5358  0.1497  0.6833
  185MPD1    N1 2825   4.665   3.287   8.714 -0.0839  0.0242  0.1905
  185MPD1    H6 2826   4.663   3.243   8.622 -0.2888  0.3962  0.0155
  185MPD1    H7 2827   4.600   3.365   8.716 -0.6561 -0.4319 -0.5506
  186MPD1     C 2828   2.651   3.242  15.652 -0.1791 -0.3011  0.3923
  186MPD1    C1 2829   2.752   3.148  15.655  0.6686 -0.3705  0.8640
  186MPD1    C2 2830   2.856   3.164  15.751 -0.6425  0.2759 -0.0008
  186MPD1    C3 2831   2.858   3.267  15.838  0.3765  0.4846  0.1865
  186MPD1    C4 2832   2.764   3.364  15.823  0.3422  0.5036 -0.3157
  186MPD1    C5 2833   2.658   3.350  15.737  0.0523  0.7431  0.0783
  186MPD1     H 2834   2.932   3.087  15.749 -2.8532 -1.8709 -1.4131
  186MPD1    H1 2835   2.759   3.441  15.899 -1.9146  0.5026 -0.4829
  186MPD1    H2 2836   2.569   3.236  15.582  0.6297 -0.1972 -0.5617
  186MPD1    H3 2837   2.579   3.424  15.738 -1.1678 -0.5328 -0.5621
  186MPD1     N 2838   2.958   3.276  15.941  0.5974  0.5752  0.2245
  186MPD1    H5 2839   2.966   3.363  15.993 -1.9627  1.6949 -1.2449
  186MPD1    N1 2840   2.741   3.029  15.582  0.4972 -0.0767 -0.0125
  186MPD1    H6 2841   2.701   3.044  15.490  1.1559 -1.1902 -0.4624
  186MPD1    H7 2842   2.832   2.987  15.566  0.6537  0.5444 -0.7456
  187MPD1     C 2843   2.408   0.379   0.466 -0.2372 -0.1538  0.4751
  187MPD1    C1 2844   2.309   0.323   0.394  0.5282 -0.0957  0.3239
  187MPD1    C2 2845   2.282   0.364   0.266  0.1233  0.3920 -0.4297
  187MPD1    C3 2846   2.367   0.459   0.211 -0.4284  0.4559  0.2403
  187MPD1    C4 2847   2.441   0.537   0.293 -0.5126  0.4775 -0.8460
  187MPD1    C5 2848   2.466   0.489   0.421  0.2699 -0.0372 -0.4438
  187MPD1     H 2849   2.211   0.314   0.200 -1.0200  0.6358  0.6048
  187MPD1    H1 2850   2.490   0.629   0.260  0.0893  0.0266 -1.2204
  187MPD1    H2 2851   2.448   0.342   0.560 -1.6726 -0.6755  0.8702
  187MPD1    H3 2852   2.542   0.531   0.486 -2.9877  4.0244  0.7531
  187MPD1     N 2853   2.375   0.490   0.077 -0.1676  0.5969 -0.1366
  187MPD1    H5 2854   2.439   0.565   0.052  0.5811  0.4013  1.2336
  187MPD1    N1 2855   2.243   0.203   0.437  0.0156  0.0340  0.6726
  187MPD1    H6 2856   2.233   0.201   0.538 -1.4464  0.5185  0.5392
  187MPD1    H7 2857   2.154   0.185   0.391 -0.1254  1.0698  0.5472
  188MPD1     C 2858   1.551   0.185  10.381  0.6825 -0.7268 -0.2199
  188MPD1    C1 2859   1.598   0.113  10.493 -0.1622  0.0220 -0.2721
  188MPD1    C2 2860   1.597   4.688  10.482  0.5128 -0.4407  0.0527
  188MPD1    C3 2861   1.563   4.628  10.358  0.7357 -0.3093  0.5980
  188MPD1    C4 2862   1.538   4.706  10.244 -0.2012 -0.1081  0.0119
  188MPD1    C5 2863   1.517   0.119  10.265 -0.1133  0.2642 -0.5016
  188MPD1     H 2864   1.629   4.628  10.566  0.1992 -0.8249 -0.0992
  188MPD1    H1 2865   1.511   4.671  10.145  2.1423 -1.5156 -0.1174
  188MPD1    H2 2866   1.518   0.288  10.392 -0.6097 -1.0461 -1.1488
  188MPD1    H3 2867   1.469   0.177  10.186  0.8531  0.6645 -0.8005
  188MPD1     N 2868   1.569   4.491  10.329  0.1512  0.0053 -0.1884
  188MPD1    H5 2869   1.554   4.478  10.230  0.1892 -0.4805 -0.1329
  188MPD1    N1 2870   1.610   0.167  10.626  0.3561 -0.0948 -0.0465
  188MPD1    H6 2871   1.635   0.266  10.626  1.5835 -0.3980 -0.4758
  188MPD1    H7 2872   1.681   0.119  10.681 -1.0997 -1.3809  0.7012
  189MPD1     C 2873   4.023   1.084   0.823  0.0854  0.3389  0.6257
  189MPD1    C1 2874   3.886   1.100   0.857  0.2695 -0.1826  0.9962
  189MPD1    C2 2875   3.805   1.176   0.772  0.2661 -0.0725  0.5521
  189MPD1    C3 2876   3.861   1.228   0.655 -0.0042  0.3958  0.1386
  189MPD1    C4 2877   3.989   1.203   0.618  0.5390 -0.0882  0.2625
  189MPD1    C5 2878   4.075   1.140   0.703 -0.9672  0.3136 -0.0405
  189MPD1     H 2879   3.705   1.184   0.813  0.5520  2.5786  0.7185
  189MPD1    H1 2880   4.042   1.233   0.528  0.0166 -0.3156 -0.1282
  189MPD1    H2 2881   4.092   1.034   0.890  0.5318 -1.9052 -1.4687
  189MPD1    H3 2882   4.174   1.120   0.665 -0.6091  2.2044 -0.0962
  189MPD1     N 2883   3.781   1.305   0.573 -0.2434  0.5147  1.1883
  189MPD1    H5 2884   3.683   1.304   0.599 -1.3957  0.2028 -3.1422
  189MPD1    N1 2885   3.840   1.027   0.971 -0.3660 -0.2983  0.4484
  189MPD1    H6 2886   3.915   1.009   1.037  0.6082  1.3664 -0.2197
  189MPD1    H7 2887   3.764   1.065   1.026 -0.9777  0.0746 -0.6434
  190MPD1     C 2888   3.022   0.135  15.405  0.6009 -0.1636 -0.1344
  190MPD1    C1 2889   2.941   0.025  15.403 -0.5390 -0.1666 -0.3254
  190MPD1    C2 2890   3.008   4.622  15.417 -0.5766 -0.8311 -0.3682
  190MPD1    C3 2891   3.146   4.607  15.421 -0.1074  0.1727  0.3823
  190MPD1    C4 2892   3.218   0.006  15.406  0.2572  0.0040  0.4049
  190MPD1    C5 2893   3.155   0.127  15.388  0.6380  1.0050 -0.2039
  190MPD1     H 2894   2.955   4.530  15.439 -0.8234 -0.6140 -0.0561
  190MPD1    H1 2895   3.325   4.717  15.423  0.0820 -2.5407  0.5341
  190MPD1    H2 2896   2.978   0.234  15.396  1.0347  0.1856  1.5337
  190MPD1    H3 2897   3.208   0.222  15.388 -0.1454  1.4409 -0.6658
  190MPD1     N 2898   3.200   4.483  15.466  0.2710 -1.0180 -0.0517
  190MPD1    H5 2899   3.138   4.403  15.464  0.7692 -1.4091  0.2898
  190MPD1    N1 2900   2.798   0.039  15.417 -0.1220 -0.2967  0.1618
  190MPD1    H6 2901   2.761   0.092  15.338  2.7887  1.5668  0.0518
  190MPD1    H7 2902   2.740   4.673  15.417 -3.1307  1.7709  1.2652
  191MPD1     C 2903   2.286   1.222  13.107  0.5760  0.0327 -0.0418
  191MPD1    C1 2904   2.403   1.286  13.068  0.6652  0.4038 -0.0563
  191MPD1    C2 2905   2.412   1.318  12.933  0.3587  0.8197  0.5768
  191MPD1    C3 2906   2.312   1.293  12.842  0.3379 -0.1830  0.0739
  191MPD1    C4 2907   2.192   1.251  12.891 -0.0312 -0.1543  1.1363
  191MPD1    C5 2908   2.183   1.208  13.023 -0.4993 -0.8570  0.1277
  191MPD1     H 2909   2.505   1.360  12.895  1.3019 -0.7575  1.1331
  191MPD1    H1 2910   2.114   1.222  12.822  0.1636 -0.7405  1.1579
  191MPD1    H2 2911   2.278   1.188  13.210 -0.6217  0.2993 -0.0434
  191MPD1    H3 2912   2.095   1.156  13.059 -1.3153  0.0277 -0.5788
  191MPD1     N 2913   2.332   1.329  12.707  0.2877  0.4314 -0.3882
  191MPD1    H5 2914   2.431   1.343  12.686  0.3363  1.4721  0.5552
  191MPD1    N1 2915   2.514   1.295  13.157 -0.6170  0.2675  0.2598
  191MPD1    H6 2916   2.551   1.390  13.151 -0.3762  0.1084 -0.8214
  191MPD1    H7 2917   2.500   1.282  13.257 -0.6111 -2.5784 -0.0986
  192MPD1     C 2918   2.000   1.675  11.714 -0.3892  0.3911  0.3272
  192MPD1    C1 2919   1.928   1.669  11.832  1.2740 -0.5592  0.2310
  192MPD1    C2 2920   1.994   1.622  11.944  0.1289 -0.4395 -0.5952
  192MPD1    C3 2921   2.128   1.593  11.943  0.1024  0.1447 -0.2162
  192MPD1    C4 2922   2.198   1.614  11.826  0.6846 -0.2960  0.3924
  192MPD1    C5 2923   2.135   1.647  11.714  0.0208  0.0157  0.0767
  192MPD1     H 2924   1.925   1.603  12.026 -0.9078 -0.9865 -1.5850
  192MPD1    H1 2925   2.305   1.597  11.831  0.7312 -0.3021 -0.6445
  192MPD1    H2 2926   1.949   1.691  11.620  3.6080 -1.9563 -2.2564
  192MPD1    H3 2927   2.187   1.658  11.619  0.9230  1.7148  0.7713
  192MPD1     N 2928   2.191   1.543  12.052  0.3502 -0.3701  0.2855
  192MPD1    H5 2929   2.290   1.530  12.034  0.4169 -0.8980  1.0132
  192MPD1    N1 2930   1.787   1.662  11.823  0.1581  0.0520  0.5672
  192MPD1    H6 2931   1.755   1.721  11.747  0.2440 -2.6568 -1.5822
  192MPD1    H7 2932   1.746   1.698  11.909 -0.6714 -1.1831  0.6852
  193MPD1     C 2933   1.365   2.287  16.644 -0.0584 -0.2829 -0.4404
  193MPD1    C1 2934   1.435   2.172  16.638 -0.2901  0.2131 -0.7667
  193MPD1    C2 2935   1.574   2.177  16.650  0.3030  0.2860 -0.6822
  193MPD1    C3 2936   1.641   2.295  16.672  0.2512  0.0465 -0.0428
  193MPD1    C4 2937   1.568   2.411  16.684 -0.1132  0.5960  0.2050
  193MPD1    C5 2938   1.434   2.409  16.662  0.3973  0.9795 -0.8664
  193MPD1     H 2939   1.624   2.083  16.629 -1.0376 -0.4344 -0.6070
  193MPD1    H1 2940   1.607   2.509  16.707 -1.7972  1.3832 -0.2098
  193MPD1    H2 2941   1.257   2.287  16.650 -0.0693  0.9977 -0.8512
  193MPD1    H3 2942   1.368   2.496  16.661  0.6163  1.1638  0.0873
  193MPD1     N 2943   1.782   2.305  16.673 -0.3267  0.6247  0.4294
  193MPD1    H5 2944   1.814   2.398  16.700 -2.1210  1.5907 -0.7650
  193MPD1    N1 2945   1.361   2.055  16.644 -0.4421 -0.0398  0.0383
  193MPD1    H6 2946   1.275   2.061  16.589 -1.1361  1.9313  1.3277
  193MPD1    H7 2947   1.417   1.979  16.606 -0.5116 -0.9055  1.6772
  194MPD1     C 2948   4.527   4.106  16.279 -0.3908  0.7249 -0.3709
  194MPD1    C1 2949   4.604   4.178  16.364  0.4002  0.1925 -0.1339
  194MPD1    C2 2950   4.681   4.106  16.454  0.0884 -0.4045 -0.5749
  194MPD1    C3 2951   4.699   3.972  16.445 -0.2762  0.2665 -0.5359
  194MPD1    C4 2952   4.626   3.898  16.357 -0.6380 -1.1910 -0.2673
  194MPD1    C5 2953   4.540   3.968  16.271 -0.2918 -0.5576 -0.2701
  194MPD1     H 2954   0.029   4.163  16.518  0.1629 -2.9341  1.5907
  194MPD1    H1 2955   4.640   3.792  16.336  1.6637 -0.2114 -3.6673
  194MPD1    H2 2956   4.460   4.160  16.213 -1.5995  0.3474  0.5297
  194MPD1    H3 2957   4.483   3.918  16.193  1.0669 -0.6819 -1.1932
  194MPD1     N 2958   0.079   3.904  16.527  0.6441 -0.4539  0.4373
  194MPD1    H5 2959   0.114   3.813  16.500  0.3068 -1.1089  2.1978
  194MPD1    N1 2960   4.596   4.314  16.384 -0.8200  0.5440 -0.3220
  194MPD1    H6 2961   4.574   4.377  16.307  0.8391  2.4082  0.7005
  194MPD1    H7 2962   4.675   4.349  16.439 -0.3772  2.0430 -1.9220
  195MPD1     C 2963   1.895   1.335  17.300 -0.0889 -0.2757 -0.0732
  195MPD1    C1 2964   1.859   1.333  17.431 -0.7801  0.2137  0.1626
  195MPD1    C2 2965   1.877   1.211  17.500  0.1990  0.0048  0.4511
  195MPD1    C3 2966   1.958   1.112  17.453 -0.4433  0.3045 -0.3761
  195MPD1    C4 2967   2.018   1.130  17.333  0.1104 -0.5820 -0.1127
  195MPD1    C5 2968   1.992   1.247  17.266  0.6773 -0.4346 -0.0210
  195MPD1     H 2969   1.835   1.193  17.598 -2.2962  0.4641 -0.5416
  195MPD1    H1 2970   2.076   1.055  17.280  1.4350  1.6278 -1.8347
  195MPD1    H2 2971   1.880   1.418  17.232 -0.1155 -0.2936 -0.0892
  195MPD1    H3 2972   2.035   1.253  17.166 -1.7514 -0.8104 -1.0998
  195MPD1     N 2973   1.977   0.988  17.512  0.4840  0.4130 -1.5318
  195MPD1    H5 2974   2.026   0.919  17.456 -0.7706 -1.6792 -0.0703
  195MPD1    N1 2975   1.774   1.429  17.480  0.0603 -0.1264  0.1044
  195MPD1    H6 2976   1.778   1.425  17.582 -0.0648 -1.6822  0.0597
  195MPD1    H7 2977   1.794   1.519  17.438  1.8843  0.4572  2.2035
  196MPD1     C 2978   1.049   1.032   0.093 -0.5501 -0.3309  0.6933
  196MPD1    C1 2979   1.093   1.132   0.176 -0.2329  0.1710  0.0355
  196MPD1    C2 2980   1.081   1.118   0.311  0.6625  0.5210  0.1720
  196MPD1    C3 2981   1.033   1.002   0.369  0.4307  0.1037  0.4056
  196MPD1    C4 2982   0.999   0.895   0.288  0.4298  1.1231  0.2486
  196MPD1    C5 2983   1.001   0.917   0.152 -0.0432  0.4463 -0.1371
  196MPD1     H 2984   1.094   1.209   0.368  2.5947 -0.7157  1.7236
  196MPD1    H1 2985   0.963   0.804   0.333  0.8459  1.1556  0.6542
  196MPD1    H2 2986   1.064   1.029  17.659  1.1593 -2.1673  1.0044
  196MPD1    H3 2987   0.973   0.835   0.087  1.7272 -0.0577 -0.2367
  196MPD1     N 2988   1.005   0.989   0.506 -0.2296  0.7923 -0.2531
  196MPD1    H5 2989   0.987   0.894   0.535 -2.7575  1.0681 -0.9168
  196MPD1    N1 2990   1.166   1.240   0.124  0.3001  0.4061 -0.7623
  196MPD1    H6 2991   1.153   1.320   0.185 -0.9509 -0.2630 -0.1623
  196MPD1    H7 2992   1.130   1.270   0.033  0.9528  1.6093 -0.6179
  197MPD1     C 2993   0.816   2.053   0.080 -0.0967 -0.2714 -0.4442
  197MPD1    C1 2994   0.871   2.166   0.129  0.8386  0.8079  0.1259
  197MPD1    C2 2995   0.880   2.273   0.042 -0.9028 -0.4238 -0.2485
  197MPD1    C3 2996   0.857   2.251  17.583  0.2208  0.7219  0.4864
  197MPD1    C4 2997   0.787   2.140  17.532 -0.6980 -0.2114  0.0218
  197MPD1    C5 2998   0.775   2.037  17.624 -0.2457 -0.3574  0.4343
  197MPD1     H 2999   0.918   2.370   0.071  2.2240 -2.0573  1.1586
  197MPD1    H1 3000   0.743   2.137  17.434  0.1388  0.0875 -0.3634
  197MPD1    H2 3001   0.806   1.965   0.143 -1.5640  1.2371  1.4275
  197MPD1    H3 3002   0.726   1.942  17.606  0.3270 -0.6058  0.2168
  197MPD1     N 3003   0.870   2.359  17.485 -0.5800 -0.0175  0.5618
  197MPD1    H5 3004   0.832   2.331  17.396 -1.0249  1.6844  0.2236
  197MPD1    N1 3005   0.886   2.180   0.270  0.2714 -0.1837  0.6530
  197MPD1    H6 3006   0.956   2.251   0.290 -1.2064  1.3893  0.2064
  197MPD1    H7 3007   0.913   2.093   0.315  1.1239 -0.2294  0.0502
  198MPD1     C 3008   2.481   0.552  15.488 -0.2952 -0.5282  0.1196
  198MPD1    C1 3009   2.607   0.543  15.439 -0.0350  0.3623  0.1089
  198MPD1    C2 3010   2.713   0.533  15.532  0.8709  0.6112 -0.6163
  198MPD1    C3 3011   2.691   0.509  15.665 -0.3569  0.0172  0.2300
  198MPD1    C4 3012   2.560   0.515  15.707 -0.0712 -0.8076  0.7485
  198MPD1    C5 3013   2.459   0.530  15.618 -0.0676  0.4166 -0.1171
  198MPD1     H 3014   2.809   0.537  15.483  1.0161  0.0573 -0.3749
  198MPD1    H1 3015   2.535   0.485  15.808 -2.1171 -0.3385  0.3870
  198MPD1    H2 3016   2.394   0.579  15.428  0.0702 -0.6652 -0.4673
  198MPD1    H3 3017   2.356   0.538  15.650 -0.1575  2.4635 -0.9140
  198MPD1     N 3018   2.800   0.494  15.753 -0.1423  0.6181  0.3228
  198MPD1    H5 3019   2.884   0.520  15.702  0.7197 -3.7272 -0.4222
  198MPD1    N1 3020   2.634   0.568  15.303 -0.0228 -0.3064 -0.6101
  198MPD1    H6 3021   2.554   0.545  15.244  0.2832  1.4968 -1.7194
  198MPD1    H7 3022   2.723   0.534  15.267 -0.1522  0.3075 -1.5097
  199MPD1     C 3023   4.142   0.946   8.992  0.2794  0.0085 -0.3499
  199MPD1    C1 3024   4.026   0.976   8.926 -1.0965  0.0660 -0.0089
  199MPD1    C2 3025   3.994   1.110   8.926  0.0048  0.5560 -0.2027
  199MPD1    C3 3026   4.059   1.207   9.006 -0.4508 -0.4484  0.6194
  199MPD1    C4 3027   4.170   1.178   9.081 -0.3140 -0.2370  0.5139
  199MPD1    C5 3028   4.205   1.045   9.073 -0.2957 -0.6512  0.2685
  199MPD1     H 3029   3.904   1.124   8.866  0.3033 -2.2242 -1.2874
  199MPD1    H1 3030   4.219   1.249   9.146 -1.4061  0.7094  0.3210
  199MPD1    H2 3031   4.186   0.847   9.000  1.8894  0.7859  0.3379
  199MPD1    H3 3032   4.294   1.021   9.129  0.2065 -0.4596 -0.4441
  199MPD1     N 3033   4.024   1.344   9.005  0.1770 -0.3284  0.0850
  199MPD1    H5 3034   4.058   1.407   9.078  3.4788 -1.7298 -0.2701
  199MPD1    N1 3035   3.955   0.881   8.851 -0.3562 -0.3890 -0.0178
  199MPD1    H6 3036   3.856   0.891   8.830 -0.7543 -2.2600  0.9497
  199MPD1    H7 3037   3.979   0.787   8.881  1.0619 -0.6832 -2.0826
  200MPD1     C 3038   4.211   1.617  15.530  0.0550 -0.3525  0.1823
  200MPD1    C1 3039   4.139   1.515  15.470 -0.3415  0.1307 -0.2783
  200MPD1    C2 3040   4.081   1.532  15.347 -0.0159  0.7428 -0.6986
  200MPD1    C3 3041   4.107   1.654  15.280 -0.1016 -0.0921  0.6967
  200MPD1    C4 3042   4.185   1.752  15.336  0.0971  0.0487 -0.2943
  200MPD1    C5 3043   4.241   1.726  15.461 -0.0726  0.5556 -0.5104
  200MPD1     H 3044   4.012   1.460  15.304 -1.0167  0.2018  1.8539
  200MPD1    H1 3045   4.190   1.850  15.291 -1.1540  2.3694  4.6932
  200MPD1    H2 3046   4.240   1.612  15.635  0.3448  2.4272  0.2510
  200MPD1    H3 3047   4.295   1.805  15.512 -0.2908 -1.0293  2.1880
  200MPD1     N 3048   4.048   1.660  15.148 -0.0183  0.2713  0.4416
  200MPD1    H5 3049   3.996   1.579  15.116  1.0921 -0.6032  0.8527
  200MPD1    N1 3050   4.104   1.409  15.551 -0.3080 -0.3512  0.1063
  200MPD1    H6 3051   4.079   1.323  15.503  1.1054  0.3265 -1.8521
  200MPD1    H7 3052   4.154   1.401  15.639 -0.6341 -0.0340  0.3192
  201MPD1     C 3053   1.867   0.575  12.424  0.1024  0.1731 -0.0658
  201MPD1    C1 3054   1.872   0.441  12.392  0.1518 -0.0536 -0.3717
  201MPD1    C2 3055   1.882   0.348  12.497  0.0703  0.3690 -0.7582
  201MPD1    C3 3056   1.896   0.392  12.630  0.2453 -0.3726  0.3520
  201MPD1    C4 3057   1.917   0.527  12.654  0.1685  0.2707 -0.2415
  201MPD1    C5 3058   1.893   0.616  12.553  0.2717  0.3015 -0.2264
  201MPD1     H 3059   1.870   0.242  12.478  1.1175 -0.0148  0.7487
  201MPD1    H1 3060   1.946   0.570  12.749 -3.2038  0.5374  0.6832
  201MPD1    H2 3061   1.853   0.651  12.349  1.0356  2.4765  2.0775
  201MPD1    H3 3062   1.888   0.720  12.583 -0.1859  0.2520 -0.1408
  201MPD1     N 3063   1.891   0.290  12.729 -0.0227 -0.5440  0.4649
  201MPD1    H5 3064   1.873   0.200  12.687 -1.3397 -0.0503 -0.0374
  201MPD1    N1 3065   1.845   0.396  12.259  0.3856  0.3271  0.1346
  201MPD1    H6 3066   1.869   0.461  12.184 -2.2015  2.4645  1.1916
  201MPD1    H7 3067   1.867   0.297  12.244 -0.5558  0.2052 -0.4757
  202MPD1     C 3068   0.738   4.600   8.839 -0.9841 -0.8818  0.0639
  202MPD1    C1 3069   0.636   4.672   8.901  0.2068 -0.1568 -0.3391
  202MPD1    C2 3070   0.590   4.618   9.020  0.0415  0.9594  0.5213
  202MPD1    C3 3071   0.630   4.497   9.072  0.3133 -0.3919 -0.3910
  202MPD1    C4 3072   0.714   4.422   8.999  0.9966  0.4129 -0.0303
  202MPD1    C5 3073   0.768   4.473   8.885 -0.4215  0.7326 -0.2769
  202MPD1     H 3074   0.534   4.678   9.090 -0.3203  0.5253  0.6094
  202MPD1    H1 3075   0.747   4.325   9.034 -0.1099  0.1618  0.3239
  202MPD1    H2 3076   0.798   4.635   8.755 -0.6328 -0.1603  0.6154
  202MPD1    H3 3077   0.831   4.411   8.821 -2.7211 -3.0281  1.1318
  202MPD1     N 3078   0.567   4.430   9.189  0.1710  0.7110  0.1340
  202MPD1    H5 3079   0.602   4.338   9.213  3.2713  1.3373 -1.8748
  202MPD1    N1 3080   0.632   0.101   8.892  0.2720 -0.6788 -0.1688
  202MPD1    H6 3081   0.555   0.153   8.933 -0.6541 -0.7808 -1.7477
  202MPD1    H7 3082   0.642   0.122   8.793 -0.0063  1.0013  0.1621
  203MPD1     C 3083   4.635   1.299  12.569  0.0478 -0.6166  0.3272
  203MPD1    C1 3084   4.610   1.201  12.664  0.0019  0.3131 -0.2804
  203MPD1    C2 3085   4.592   1.070  12.620 -0.2889 -0.2179 -0.0545
  203MPD1    C3 3086   4.618   1.029  12.494  0.3805 -0.1011  0.4596
  203MPD1    C4 3087   4.647   1.128  12.397 -1.3008  0.5556  0.9972
  203MPD1    C5 3088   4.660   1.257  12.438  0.0866  0.4764  0.5026
  203MPD1     H 3089   4.563   0.997  12.694 -1.8949  1.0251  0.5314
  203MPD1    H1 3090   4.664   1.097  12.294  4.9094  1.9991  1.6276
  203MPD1    H2 3091   4.645   1.406  12.589  2.3486 -0.3678 -2.2000
  203MPD1    H3 3092   4.677   1.330  12.360  1.6485  0.4314  0.8091
  203MPD1     N 3093   4.610   0.893  12.470 -0.0364  0.5751 -0.0077
  203MPD1    H5 3094   4.608   0.835  12.553  2.3443 -1.3812 -1.3186
  203MPD1    N1 3095   4.563   1.245  12.793 -0.8166  0.6335 -0.2755
  203MPD1    H6 3096   4.613   1.329  12.823 -0.6408  0.4803 -0.1434
  203MPD1    H7 3097   4.573   1.175  12.867  0.6934  1.7022  0.5212
  204MPD1     C 3098   0.732   3.340   0.104  0.1592  0.9498  0.2422
  204MPD1    C1 3099   0.705   3.423  17.669 -0.1643 -0.8313  0.0030
  204MPD1    C2 3100   0.613   3.376  17.575 -0.3826 -0.3405 -0.0874
  204MPD1    C3 3101   0.562   3.245  17.585 -1.1215 -0.0509  0.1409
  204MPD1    C4 3102   0.597   3.164   0.019  0.3023 -0.4211 -0.1420
  204MPD1    C5 3103   0.680   3.217   0.113  0.0209 -0.3715  0.3471
  204MPD1     H 3104   0.589   3.437  17.488  0.2095  1.2958  0.8973
  204MPD1    H1 3105   0.559   3.063   0.034 -0.3708 -0.2664 -0.7996
  204MPD1    H2 3106   0.799   3.371   0.183 -0.1991  1.6466  0.2687
  204MPD1    H3 3107   0.714   3.154   0.194  1.0924 -0.0934  0.1073
  204MPD1     N 3108   0.485   3.188  17.486 -0.2263  0.3957  0.1683
  204MPD1    H5 3109   0.482   3.244  17.402 -0.3238  0.9452  0.5377
  204MPD1    N1 3110   0.757   3.554  17.660  0.1520  0.5780  0.0389
  204MPD1    H6 3111   0.745   3.583  17.564  2.9223 -0.8137 -0.7263
  204MPD1    H7 3112   0.857   3.547   0.005  0.1449  1.3633  0.3766
  205MPD1     C 3113   4.421   2.330  16.131 -0.0956  0.3769  0.2523
  205MPD1    C1 3114   4.377   2.208  16.184 -0.3475  0.5102 -0.6013
  205MPD1    C2 3115   4.408   2.183  16.319 -0.1710  0.1165 -0.5761
  205MPD1    C3 3116   4.450   2.285  16.403 -0.2242  1.0290 -0.8239
  205MPD1    C4 3117   4.496   2.400  16.344 -0.8985  0.4730 -0.4339
  205MPD1    C5 3118   4.481   2.422  16.211 -0.0073  0.7710  0.1861
  205MPD1     H 3119   4.365   2.091  16.356  1.3518 -0.3966 -0.0843
  205MPD1    H1 3120   4.556   2.473  16.397  0.5026  0.6736 -2.3173
  205MPD1    H2 3121   4.422   2.358  16.026  0.3692 -0.6306 -0.0098
  205MPD1    H3 3122   4.520   2.509  16.160  2.2464 -1.0340 -1.1845
  205MPD1     N 3123   4.449   2.282  16.549  0.2539 -0.1772  0.4739
  205MPD1    H5 3124   4.504   2.352  16.599  0.4387  0.6662 -0.9079
  205MPD1    N1 3125   4.327   2.107  16.099 -0.0131 -0.0093 -0.1183
  205MPD1    H6 3126   4.289   2.026  16.147 -0.0049  1.1194  1.7896
  205MPD1    H7 3127   4.259   2.137  16.029  1.0542 -0.9629 -1.5713
  206MPD1     C 3128   0.390   3.939  16.353  0.1695 -0.5162  0.3372
  206MPD1    C1 3129   0.408   3.806  16.314  0.0359  0.1916  0.4693
  206MPD1    C2 3130   0.307   3.755  16.233  0.2702 -0.4672 -0.0071
  206MPD1    C3 3131   0.213   3.839  16.173  0.1738 -0.2954 -0.4871
  206MPD1    C4 3132   0.215   3.970  16.202  0.4436 -0.0189 -0.5814
  206MPD1    C5 3133   0.295   4.015  16.300 -0.0569 -0.3020  0.5668
  206MPD1     H 3134   0.319   3.650  16.209  1.3351  0.0619 -1.7273
  206MPD1    H1 3135   0.147   4.037  16.151  0.1460 -0.6765 -1.0483
  206MPD1    H2 3136   0.461   3.985  16.420 -2.1138  1.6621  1.2727
  206MPD1    H3 3137   0.279   4.119  16.323 -0.8767  0.0272 -1.4746
  206MPD1     N 3138   0.110   3.788  16.083  0.3464  0.1033 -0.1171
  206MPD1    H5 3139   0.055   3.857  16.032 -0.1131  0.4487  0.8482
  206MPD1    N1 3140   0.497   3.723  16.380  0.1031 -0.3206 -0.5379
  206MPD1    H6 3141   0.525   3.646  16.320  0.5747 -0.6215  0.0684
  206MPD1    H7 3142   0.582   3.767  16.413  0.7408  0.1897 -2.8513
  207MPD1     C 3143   1.448   1.562   8.508  0.4757 -0.6016 -0.5901
  207MPD1    C1 3144   1.560   1.566   8.432 -0.0061 -0.2611 -0.2530
  207MPD1    C2 3145   1.679   1.538   8.502  0.0504 -0.5517  0.0922
  207MPD1    C3 3146   1.690   1.529   8.644  0.3921  0.0168 -0.4146
  207MPD1    C4 3147   1.573   1.536   8.710 -0.2497  0.8611 -0.0363
  207MPD1    C5 3148   1.455   1.543   8.643 -0.1065  0.5957 -0.1260
  207MPD1     H 3149   1.767   1.523   8.439 -0.7920  0.9686 -1.4343
  207MPD1    H1 3150   1.577   1.527   8.818 -1.2036 -0.9751 -0.1467
  207MPD1    H2 3151   1.354   1.582   8.459  0.3200  0.0246 -0.0432
  207MPD1    H3 3152   1.361   1.533   8.695  0.4350  1.7324  1.0981
  207MPD1     N 3153   1.805   1.499   8.720 -0.3999 -0.3389  0.1002
  207MPD1    H5 3154   1.799   1.487   8.821 -4.2633  0.8557  0.0002
  207MPD1    N1 3155   1.548   1.575   8.288 -0.3169  0.3730  1.1226
  207MPD1    H6 3156   1.463   1.627   8.264 -0.6903 -0.6268  0.3108
  207MPD1    H7 3157   1.624   1.615   8.234 -1.1794  0.6007  0.0862
  208MPD1     C 3158   0.374   1.008  16.567  0.0031 -0.0494 -0.2916
  208MPD1    C1 3159   0.308   0.909  16.633  0.7312 -0.4664  0.2507
  208MPD1    C2 3160   0.232   0.940  16.745 -0.1949  0.7543 -0.0101
  208MPD1    C3 3161   0.239   1.063  16.795 -0.1417 -0.0084 -0.2883
  208MPD1    C4 3162   0.299   1.160  16.717  0.1909 -0.2697  0.0415
  208MPD1    C5 3163   0.357   1.138  16.596  0.3865  0.1388 -0.2463
  208MPD1     H 3164   0.183   0.870  16.812 -0.7550  0.8042 -0.3632
  208MPD1    H1 3165   0.286   1.267  16.726 -0.0202 -0.4800  2.2392
  208MPD1    H2 3166   0.446   0.982  16.491  1.9352 -3.0119  2.5475
  208MPD1    H3 3167   0.410   1.216  16.541  0.5097  0.5567  0.4650
  208MPD1     N 3168   0.172   1.092  16.912  0.4453  0.4093  0.2252
  208MPD1    H5 3169   0.118   1.013  16.945  1.9442  0.1609  2.0645
  208MPD1    N1 3170   0.345   0.774  16.618  0.5890 -0.4819  0.6046
  208MPD1    H6 3171   0.272   0.713  16.653  0.1008  0.7728  1.7858
  208MPD1    H7 3172   0.383   0.742  16.529 -1.7050 -1.8740  0.1384
  209MPD1     C 3173   2.082   0.021   9.481 -0.0556 -0.3383 -0.3510
  209MPD1    C1 3174   2.211   0.044   9.511  0.0425  0.2549 -0.4019
  209MPD1    C2 3175   2.266   0.170   9.517  0.1248 -1.0569 -0.1954
  209MPD1    C3 3176   2.181   0.281   9.512  0.2518 -0.3423  0.0921
  209MPD1    C4 3177   2.041   0.250   9.490  0.8688  0.2513  0.0251
  209MPD1    C5 3178   1.996   0.124   9.472 -0.1098 -0.9218  0.0482
  209MPD1     H 3179   2.374   0.177   9.527  0.0199  0.0664  0.0749
  209MPD1    H1 3180   1.959   0.319   9.474  0.9249  1.2146  3.9548
  209MPD1    H2 3181   2.035   4.642   9.472 -2.7038  0.9832 -0.6763
  209MPD1    H3 3182   1.889   0.108   9.461 -0.5553  0.0014  3.2055
  209MPD1     N 3183   2.239   0.405   9.533  0.2239  0.3240  0.3852
  209MPD1    H5 3184   2.337   0.411   9.562  0.0150 -1.2148  1.3980
  209MPD1    N1 3185   2.291   4.646   9.493 -0.1712  0.8684  0.2337
  209MPD1    H6 3186   2.380   4.655   9.541 -0.9201 -1.6221  2.1112
  209MPD1    H7 3187   2.243   4.571   9.543  0.9261  0.5370  0.7991
  210MPD1     C 3188   3.083   0.945   9.549 -0.5059 -0.4580 -0.4942
  210MPD1    C1 3189   3.040   0.818   9.597  0.1836  0.2613 -0.1207
  210MPD1    C2 3190   2.905   0.782   9.586  0.0681 -0.3698  0.3331
  210MPD1    C3 3191   2.812   0.871   9.537  0.1992  0.4347  0.1087
  210MPD1    C4 3192   2.853   0.991   9.499 -0.3095 -0.2331 -0.5705
  210MPD1    C5 3193   2.983   1.020   9.486  0.6590  0.0930 -1.5337
  210MPD1     H 3194   2.874   0.680   9.607 -3.5981  0.6307 -0.2113
  210MPD1    H1 3195   2.786   1.066   9.458 -0.8096  1.4510  3.3304
  210MPD1    H2 3196   3.187   0.977   9.548 -1.2000  1.8448  0.9878
  210MPD1    H3 3197   2.998   1.113   9.434  1.8529  1.4614  1.2675
  210MPD1     N 3198   2.677   0.842   9.519 -0.3921 -0.7148 -0.5347
  210MPD1    H5 3199   2.623   0.921   9.484  0.8019  0.7410  0.8764
  210MPD1    N1 3200   3.127   0.720   9.652 -0.4296 -0.2238  0.6541
  210MPD1    H6 3201   3.208   0.768   9.692  0.3651 -0.8325 -0.2042
  210MPD1    H7 3202   3.082   0.664   9.723 -0.5709  1.6396  2.0484
  211MPD1     C 3203   0.569   0.455  16.238  0.2156  0.2774 -0.7518
  211MPD1    C1 3204   0.482   0.448  16.344 -0.2196  0.2439  0.0818
  211MPD1    C2 3205   0.386   0.555  16.359 -0.7515 -0.1204 -0.7155
  211MPD1    C3 3206   0.399   0.663  16.273 -0.3655  0.4534 -0.4626
  211MPD1    C4 3207   0.491   0.667  16.172 -0.3965  0.7485  0.3325
  211MPD1    C5 3208   0.573   0.558  16.151 -0.5095  0.8732 -0.2490
  211MPD1     H 3209   0.321   0.558  16.445 -0.4211 -0.7754 -0.4419
  211MPD1    H1 3210   0.507   0.753  16.107 -0.7043  0.8790  0.4280
  211MPD1    H2 3211   0.638   0.374  16.219  0.7009  0.2640  1.0628
  211MPD1    H3 3212   0.659   0.565  16.085  0.7676 -0.4686  1.2559
  211MPD1     N 3213   0.296   0.763  16.283  0.2375 -0.2489 -0.4846
  211MPD1    H5 3214   0.221   0.749  16.350 -0.5178 -1.3829 -1.5532
  211MPD1    N1 3215   0.475   0.329  16.424 -0.4454 -0.1766 -0.5434
  211MPD1    H6 3216   0.569   0.295  16.440 -0.1091  2.0084  2.1905
  211MPD1    H7 3217   0.438   0.360  16.514 -2.1431  2.4727 -2.1350
  212MPD1     C 3218   4.143   3.919  16.322 -0.2205 -0.3150 -0.2374
  212MPD1    C1 3219   4.042   4.006  16.350 -0.0353  0.0975 -0.2635
  212MPD1    C2 3220   3.934   3.956  16.428 -0.1398 -0.6473  0.4208
  212MPD1    C3 3221   3.945   3.835  16.494 -0.0495  0.2032 -0.2697
  212MPD1    C4 3222   4.055   3.756  16.468  0.6748 -0.3118  0.3033
  212MPD1    C5 3223   4.138   3.789  16.366  1.0398  0.8254 -0.1655
  212MPD1     H 3224   3.852   4.026  16.439 -0.1079 -0.1402 -2.6091
  212MPD1    H1 3225   4.080   3.661  16.514  0.0363 -0.1327  1.0202
  212MPD1    H2 3226   4.228   3.959  16.267 -0.3942 -1.4527 -1.3186
  212MPD1    H3 3227   4.218   3.720  16.343  1.0118  2.4173 -5.0483
  212MPD1     N 3228   3.847   3.780  16.587  0.3770  0.0931  0.9968
  212MPD1    H5 3229   3.855   3.681  16.610  0.1245  0.0986  1.1098
  212MPD1    N1 3230   4.033   4.128  16.279 -0.0252 -0.0228  0.7946
  212MPD1    H6 3231   4.126   4.171  16.272  0.8914 -2.2499 -0.5375
  212MPD1    H7 3232   3.975   4.195  16.328 -0.9059  1.8676 -2.8323
  213MPD1     C 3233   1.970   1.017  15.479  0.2431  0.1317  0.2263
  213MPD1    C1 3234   1.966   1.026  15.340 -0.1438 -0.9493 -0.0558
  213MPD1    C2 3235   1.917   0.907  15.281  0.1128 -0.1258  0.0384
  213MPD1    C3 3236   1.853   0.804  15.346 -0.5465 -0.1036 -0.1999
  213MPD1    C4 3237   1.846   0.813  15.486 -0.5186 -0.6925  0.0586
  213MPD1    C5 3238   1.909   0.914  15.551  0.1057  0.0065 -0.1816
  213MPD1     H 3239   1.920   0.901  15.173 -1.0090  0.4370 -0.0221
  213MPD1    H1 3240   1.807   0.727  15.540  0.4882 -2.2383 -1.6351
  213MPD1    H2 3241   2.031   1.090  15.531  0.3993 -0.9014  1.4810
  213MPD1    H3 3242   1.913   0.910  15.659 -0.2708 -0.6151 -0.1916
  213MPD1     N 3243   1.815   0.689  15.272 -0.2461  0.2438  0.0490
  213MPD1    H5 3244   1.847   0.680  15.175 -1.7961 -1.0129 -0.3347
  213MPD1    N1 3245   2.065   1.098  15.276 -0.2786 -0.2384 -0.2227
  213MPD1    H6 3246   2.052   1.127  15.179 -1.6382  0.4786  0.1765
  213MPD1    H7 3247   2.089   1.190  15.314 -0.3201  0.1531 -1.1264
  214MPD1     C 3248   1.513   4.326  15.219  0.8270  0.1910  0.0191
  214MPD1    C1 3249   1.437   4.440  15.253 -0.3845 -0.0552 -0.3937
  214MPD1    C2 3250   1.487   4.573  15.247  0.4388  0.3434  0.7832
  214MPD1    C3 3251   1.620   4.594  15.207 -0.3916  0.5408  0.9857
  214MPD1    C4 3252   1.686   4.485  15.169 -0.0139  0.5533  0.0131
  214MPD1    C5 3253   1.640   4.357  15.175 -0.5486 -0.0019 -0.1403
  214MPD1     H 3254   1.427   4.659  15.271 -0.3378 -0.2226  0.8712
  214MPD1    H1 3255   1.782   4.495  15.119 -0.3065  1.4465 -0.3727
  214MPD1    H2 3256   1.481   4.223  15.210 -1.5953  1.1846 -2.5210
  214MPD1    H3 3257   1.704   4.278  15.136  0.5302 -0.4259  2.4700
  214MPD1     N 3258   1.685   4.715  15.195 -0.0907 -0.1733 -0.1496
  214MPD1    H5 3259   1.779   4.716  15.157 -0.8129 -0.4116 -1.9194
  214MPD1    N1 3260   1.299   4.439  15.281 -0.7641 -0.1410  0.5091
  214MPD1    H6 3261   1.286   4.349  15.326  1.0132  0.1032  1.5023
  214MPD1    H7 3262   1.276   4.506  15.354 -2.1430  2.7043 -2.4844
  215MPD1     C 3263   1.234   1.122  10.745 -0.6126 -0.4906 -1.2188
  215MPD1    C1 3264   1.328   1.080  10.657  0.8871  0.1167  0.3373
  215MPD1    C2 3265   1.462   1.084  10.700 -0.4932  0.9608 -0.0078
  215MPD1    C3 3266   1.495   1.119  10.828  0.1950 -0.1100 -0.6661
  215MPD1    C4 3267   1.394   1.151  10.920  0.7596  0.1313  0.2821
  215MPD1    C5 3268   1.264   1.150  10.876 -0.1790 -0.3253 -0.1061
  215MPD1     H 3269   1.553   1.074  10.642 -0.4598 -1.0034  0.3719
  215MPD1    H1 3270   1.406   1.167  11.027  1.3628 -1.2264  0.4075
  215MPD1    H2 3271   1.128   1.113  10.726 -1.0877 -0.4135  1.3593
  215MPD1    H3 3272   1.183   1.167  10.947  1.6123  1.3140  1.5752
  215MPD1     N 3273   1.634   1.123  10.855  0.3354  0.1550  0.2198
  215MPD1    H5 3274   1.706   1.125  10.783  0.9252  0.9543  0.8331
  215MPD1    N1 3275   1.309   1.075  10.522 -0.5901 -0.5106 -0.5551
  215MPD1    H6 3276   1.369   1.009  10.473 -1.1498 -0.7853 -0.8724
  215MPD1    H7 3277   1.210   1.066  10.499 -0.2347 -0.1459 -2.2443
  216MPD1     C 3278   4.641   3.291  16.346 -0.2376 -0.2905  0.2127
  216MPD1    C1 3279   4.511   3.244  16.357  0.9482  0.3001  0.5730
  216MPD1    C2 3280   4.466   3.198  16.480 -0.4136  0.7831  0.4388
  216MPD1    C3 3281   4.561   3.175  16.578  0.0763  0.4897 -0.3444
  216MPD1    C4 3282   4.684   3.230  16.566 -0.1821 -0.0196 -0.1778
  216MPD1    C5 3283   0.012   3.284  16.450  0.5585 -0.3793 -0.2041
  216MPD1     H 3284   4.365   3.163  16.493  0.8187 -2.9396 -0.1339
  216MPD1    H1 3285   0.035   3.233  16.650 -1.4507  1.3970  0.8165
  216MPD1    H2 3286   4.670   3.344  16.255 -0.6442 -0.3244  0.0627
  216MPD1    H3 3287   0.114   3.321  16.446  0.1951  0.5706 -0.5260
  216MPD1     N 3288   4.509   3.107  16.688 -0.1268 -0.1388  0.5506
  216MPD1    H5 3289   4.415   3.068  16.685 -0.8405  1.4639  1.8082
  216MPD1    N1 3290   4.425   3.275  16.254  0.0377 -0.2715  0.0075
  216MPD1    H6 3291   4.344   3.215  16.249 -0.2122  0.3354 -3.3691
  216MPD1    H7 3292   4.479   3.264  16.168 -1.6222  1.6481 -1.2831
  217MPD1     C 3293   3.708   3.737   7.892 -0.0484 -0.7703  0.6545
  217MPD1    C1 3294   3.836   3.761   7.932  0.5072  0.7574  0.7994
  217MPD1    C2 3295   3.860   3.776   8.068  0.0118 -0.0978  0.3048
  217MPD1    C3 3296   3.763   3.768   8.167  0.2913  0.0146 -0.1179
  217MPD1    C4 3297   3.637   3.735   8.123 -0.0391 -0.8595  0.5822
  217MPD1    C5 3298   3.612   3.719   7.984  0.7042 -1.3825 -0.3330
  217MPD1     H 3299   3.964   3.799   8.089 -0.0039  0.0955  0.1660
  217MPD1    H1 3300   3.543   3.721   8.176 -0.0854 -0.1205  0.6918
  217MPD1    H2 3301   3.685   3.748   7.787  0.3623 -1.9645  0.4480
  217MPD1    H3 3302   3.520   3.669   7.955  0.2878 -2.0049  2.1267
  217MPD1     N 3303   3.779   3.781   8.308 -0.2618  0.0911 -0.2547
  217MPD1    H5 3304   3.701   3.755   8.368  0.4421  1.2811  1.1898
  217MPD1    N1 3305   3.940   3.794   7.838 -0.0876 -0.0314  1.0255
  217MPD1    H6 3306   4.023   3.772   7.892  0.6158  3.2987  1.3086
  217MPD1    H7 3307   3.928   3.735   7.756  3.6787 -0.7233  0.9890
  218MPD1     C 3308   1.363   0.633  12.578 -0.0843 -0.3138  0.2244
  218MPD1    C1 3309   1.492   0.631  12.614  0.0100  0.2929  0.1638
  218MPD1    C2 3310   1.542   0.720  12.710 -0.0103  0.0703 -0.2851
  218MPD1    C3 3311   1.450   0.803  12.775 -0.0903 -0.3014 -0.3224
  218MPD1    C4 3312   1.319   0.806  12.735  0.8436 -0.5103  0.2335
  218MPD1    C5 3313   1.277   0.721  12.639 -1.4629  0.3493 -0.0693
  218MPD1     H 3314   1.645   0.728  12.744  0.0529 -0.4384 -0.3520
  218MPD1    H1 3315   1.245   0.871  12.779 -0.4467 -1.0006 -1.2144
  218MPD1    H2 3316   1.319   0.563  12.507  0.4249  0.0398 -0.4334
  218MPD1    H3 3317   1.171   0.728  12.616 -1.1272  0.8147 -1.4704
  218MPD1     N 3318   1.497   0.887  12.879 -0.3928  0.2181  0.4741
  218MPD1    H5 3319   1.591   0.868  12.912  0.2256  1.5576 -0.4982
  218MPD1    N1 3320   1.570   0.525  12.568 -1.1777  0.0211  1.0987
  218MPD1    H6 3321   1.668   0.549  12.578 -1.2947  1.0872 -0.2643
  218MPD1    H7 3322   1.558   0.507  12.468  2.3847 -0.8636  0.8375
  219MPD1     C 3323   1.356   1.775  13.345 -0.3673 -0.4712  0.0694
  219MPD1    C1 3324   1.431   1.695  13.429  0.0477 -0.2069 -0.1813
  219MPD1    C2 3325   1.460   1.561  13.398  0.7306  0.3303 -0.1929
  219MPD1    C3 3326   1.419   1.505  13.270 -0.0178  0.2518 -0.1528
  219MPD1    C4 3327   1.347   1.591  13.185  0.2654  0.0595 -0.2042
  219MPD1    C5 3328   1.312   1.725  13.225 -0.9166 -0.5013  0.9502
  219MPD1     H 3329   1.501   1.500  13.477  1.1603  0.1086 -0.5827
  219MPD1    H1 3330   1.312   1.562  13.087 -0.2750 -3.8842  1.1543
  219MPD1    H2 3331   1.337   1.876  13.381  2.5253  0.0394  0.1686
  219MPD1    H3 3332   1.249   1.788  13.163 -0.9817 -1.6578 -0.1515
  219MPD1     N 3333   1.451   1.372  13.237  0.1164  0.1654 -0.3301
  219MPD1    H5 3334   1.395   1.328  13.165  0.1522 -1.2354  0.4976
  219MPD1    N1 3335   1.502   1.755  13.533 -0.4560  0.0275 -0.3309
  219MPD1    H6 3336   1.519   1.684  13.604 -2.2958  1.5935  1.7074
  219MPD1    H7 3337   1.448   1.825  13.584  0.0985 -0.4819  0.9553
  220MPD1     C 3338   1.782   1.939   9.282  0.3543  0.9772  0.1626
  220MPD1    C1 3339   1.678   1.847   9.285  0.1139  0.9069  0.3522
  220MPD1    C2 3340   1.659   1.771   9.401  0.1054 -0.8681 -0.6657
  220MPD1    C3 3341   1.737   1.779   9.514 -0.0722 -0.1493 -0.0669
  220MPD1    C4 3342   1.859   1.847   9.495 -0.0928  0.1699 -0.6039
  220MPD1    C5 3343   1.874   1.929   9.391 -0.7357 -0.2010 -0.7962
  220MPD1     H 3344   1.563   1.721   9.411  0.6158 -1.9763 -1.3568
  220MPD1    H1 3345   1.935   1.851   9.572 -0.0883 -1.0318 -0.5479
  220MPD1    H2 3346   1.816   1.994   9.195  1.1660  2.5940  1.5061
  220MPD1    H3 3347   1.965   1.987   9.381 -1.1826  0.5030 -0.8086
  220MPD1     N 3348   1.708   1.692   9.624 -0.0051  0.1100 -0.0757
  220MPD1    H5 3349   1.625   1.633   9.624  0.2226 -0.2210  0.6265
  220MPD1    N1 3350   1.576   1.861   9.188 -0.2757  0.7034 -0.1152
  220MPD1    H6 3351   1.620   1.883   9.099 -0.9179  1.9745 -0.1168
  220MPD1    H7 3352   1.526   1.774   9.176  0.0237  0.6462 -0.8993
  221MPD1     C 3353   3.954   0.543  17.013 -0.4987 -0.8570  0.3559
  221MPD1    C1 3354   4.081   0.558  17.068 -0.4594 -0.0786  0.0856
  221MPD1    C2 3355   4.195   0.541  16.993 -0.5223  0.0841 -0.3778
  221MPD1    C3 3356   4.189   0.499  16.859 -0.8064 -0.5113 -0.3585
  221MPD1    C4 3357   4.061   0.476  16.807  0.1804 -0.3970  0.0852
  221MPD1    C5 3358   3.951   0.503  16.884 -0.1096 -0.0529  0.0413
  221MPD1     H 3359   4.290   0.555  17.044 -0.7987 -2.2664  0.8102
  221MPD1    H1 3360   4.045   0.440  16.706  0.6573 -2.2154  0.6700
  221MPD1    H2 3361   3.866   0.562  17.075 -1.6673 -2.7844 -0.7030
  221MPD1    H3 3362   3.849   0.486  16.852  0.4420 -1.8856 -0.7230
  221MPD1     N 3363   4.296   0.466  16.774 -0.0249  0.0753  0.0107
  221MPD1    H5 3364   4.272   0.438  16.679 -1.5107  0.5931  0.2324
  221MPD1    N1 3365   4.093   0.604  17.204  0.3302  0.0157 -0.2597
  221MPD1    H6 3366   4.182   0.582  17.250  1.0684 -0.2090 -1.8009
  221MPD1    H7 3367   4.014   0.608  17.268  1.7012 -1.2796  1.5120
  222MPD1     C 3368   0.064   3.687   0.284  0.2465 -0.1117  0.4675
  222MPD1    C1 3369   0.114   3.813   0.271 -0.3773 -0.4038 -0.1896
  222MPD1    C2 3370   0.086   3.878   0.146  0.2949  0.9468  0.4124
  222MPD1    C3 3371   0.033   3.811   0.031 -0.0180  0.3178  0.2684
  222MPD1    C4 3372   4.706   3.684   0.055  0.1734  0.3569 -0.1024
  222MPD1    C5 3373   4.709   3.635   0.182 -0.4102  0.0071 -0.1411
  222MPD1     H 3374   0.112   3.983   0.142  1.5596  0.6646  1.1148
  222MPD1    H1 3375   4.653   3.629  17.651 -1.4846 -0.1543  1.3797
  222MPD1    H2 3376   0.076   3.626   0.372  0.1958 -0.5855  0.1485
  222MPD1    H3 3377   4.680   3.530   0.179 -1.4261  0.3072 -0.9326
  222MPD1     N 3378   0.011   3.864  17.575  0.2520 -0.4393 -0.6530
  222MPD1    H5 3379   4.688   3.804  17.504 -2.5805 -0.5254  1.0383
  222MPD1    N1 3380   0.174   3.882   0.375 -0.1690  0.2953 -0.2523
  222MPD1    H6 3381   0.219   3.827   0.448  0.0537  1.5749  0.5767
  222MPD1    H7 3382   0.230   3.959   0.338  0.4082 -1.2898 -2.6689
  223MPD1     C 3383   4.593   3.571  16.667  0.0177  0.8508  0.2549
  223MPD1    C1 3384   4.509   3.679  16.671 -0.2286 -0.3842 -0.3704
  223MPD1    C2 3385   4.507   3.760  16.782 -0.8214 -0.3317  0.1933
  223MPD1    C3 3386   4.607   3.745  16.870  0.8736 -0.1808  0.1902
  223MPD1    C4 3387   4.707   3.646  16.857  0.8185 -0.3088 -0.2878
  223MPD1    C5 3388   4.681   3.550  16.762  0.2187  0.1342 -0.1868
  223MPD1     H 3389   4.427   3.830  16.802 -1.5667 -1.4127  0.9695
  223MPD1    H1 3390   0.082   3.634  16.913 -0.0561  0.5116  1.3250
  223MPD1    H2 3391   4.577   3.496  16.590 -1.7346 -0.4989  1.9456
  223MPD1    H3 3392   0.033   3.471  16.737  1.7107  1.2403  0.5036
  223MPD1     N 3393   4.612   3.835  16.983  0.0837  0.7104 -0.5708
  223MPD1    H5 3394   4.545   3.912  16.987 -1.0072 -0.2242 -0.8462
  223MPD1    N1 3395   4.396   3.691  16.585  0.2041  0.1561  0.5094
  223MPD1    H6 3396   4.378   3.790  16.568  1.5069  0.1754 -0.8307
  223MPD1    H7 3397   4.431   3.653  16.497  0.4778 -0.4308  0.8728
  224MPD1     C 3398   0.233   1.088   9.423  0.2260  0.7663  0.1464
  224MPD1    C1 3399   0.270   0.959   9.415 -0.2971 -0.0714  0.0770
  224MPD1    C2 3400   0.179   0.861   9.454  0.6769 -0.2095 -0.2714
  224MPD1    C3 3401   0.052   0.895   9.499 -0.3786 -0.6342 -0.0098
  224MPD1    C4 3402   0.010   1.027   9.495  0.2288  0.5140  0.2053
  224MPD1    C5 3403   0.104   1.124   9.457 -0.1507 -0.3904 -0.3793
  224MPD1     H 3404   0.202   0.755   9.455  0.1809 -0.2998  1.0015
  224MPD1    H1 3405   4.628   1.054   9.528 -0.5508 -0.7138 -1.1635
  224MPD1    H2 3406   0.301   1.166   9.393  0.3156  0.8833  0.6601
  224MPD1    H3 3407   0.074   1.228   9.453 -3.5511 -1.3877 -0.5374
  224MPD1     N 3408   4.676   0.796   9.547 -0.2506  0.1464 -0.1340
  224MPD1    H5 3409   4.585   0.828   9.580 -0.5360  1.8403 -2.5575
  224MPD1    N1 3410   0.394   0.931   9.354  0.3475 -0.1393  0.4514
  224MPD1    H6 3411   0.465   1.004   9.362 -0.4151  0.5647  0.8399
  224MPD1    H7 3412   0.435   0.841   9.378  0.4388  0.3892  2.3132
  225MPD1     C 3413   1.550   2.477  12.267  0.2282 -0.2639 -0.0213
  225MPD1    C1 3414   1.586   2.348  12.251 -0.4481 -0.1524 -0.5505
  225MPD1    C2 3415   1.511   2.265  12.169 -0.5157 -0.6805 -0.7824
  225MPD1    C3 3416   1.405   2.322  12.092  0.0857 -0.4865 -0.1167
  225MPD1    C4 3417   1.373   2.459  12.097 -0.6497  0.4268 -0.2011
  225MPD1    C5 3418   1.446   2.530  12.190 -0.2186  0.3556  0.1863
  225MPD1     H 3419   1.531   2.158  12.170  1.9319 -0.2263 -0.1153
  225MPD1    H1 3420   1.289   2.499  12.041 -2.5605 -0.0856  2.2503
  225MPD1    H2 3421   1.604   2.545  12.332 -0.8327 -0.8449  1.4629
  225MPD1    H3 3422   1.422   2.635  12.199  0.4322  0.7832 -3.3720
  225MPD1     N 3423   1.310   2.248  12.013  0.3643 -0.2900 -0.9528
  225MPD1    H5 3424   1.251   2.306  11.954  1.1673  0.3673 -1.1065
  225MPD1    N1 3425   1.707   2.301  12.302  0.5630 -0.4966 -0.4608
  225MPD1    H6 3426   1.739   2.357  12.381 -0.4994 -0.4145 -0.0987
  225MPD1    H7 3427   1.719   2.202  12.321  0.3210 -0.8344 -2.0445
  226MPD1     C 3428   3.350   1.258   8.941  0.4473 -0.3721  0.1950
  226MPD1    C1 3429   3.364   1.122   8.954 -0.6074  0.9111  0.2905
  226MPD1    C2 3430   3.466   1.078   9.032  0.4910 -0.4904 -0.7646
  226MPD1    C3 3431   3.540   1.158   9.114 -0.0624 -0.0739  0.8942
  226MPD1    C4 3432   3.516   1.289   9.111  0.4058  0.0587 -0.2324
  226MPD1    C5 3433   3.419   1.344   9.024  0.1209  1.0266 -0.4159
  226MPD1     H 3434   3.479   0.971   9.028 -0.0768 -0.5816 -0.1264
  226MPD1    H1 3435   3.566   1.352   9.183  2.2406  0.4384 -1.8441
  226MPD1    H2 3436   3.277   1.301   8.873 -2.5730 -1.7441  2.5834
  226MPD1    H3 3437   3.391   1.448   9.019  2.5880  1.7639  0.8120
  226MPD1     N 3438   3.651   1.096   9.178  0.0926 -0.1192 -0.3561
  226MPD1    H5 3439   3.656   0.995   9.184 -3.8328 -0.3934 -1.6250
  226MPD1    N1 3440   3.287   1.034   8.875  0.2792  0.5170 -0.2025
  226MPD1    H6 3441   3.189   1.058   8.861  0.2138 -0.3869 -1.3322
  226MPD1    H7 3442   3.290   0.940   8.915  0.2558  0.6803  0.1825
  227MPD1     C 3443   4.251   0.303   9.187 -1.4857  0.5099  0.4666
  227MPD1    C1 3444   4.339   0.408   9.194  0.0132 -0.6655  0.6726
  227MPD1    C2 3445   4.289   0.534   9.219 -0.8523 -0.1239  0.2068
  227MPD1    C3 3446   4.156   0.555   9.246 -0.0145 -0.5040  0.1355
  227MPD1    C4 3447   4.066   0.451   9.234 -0.2019  0.4264  0.1377
  227MPD1    C5 3448   4.115   0.322   9.207 -0.7991  1.0753 -0.6881
  227MPD1     H 3449   4.357   0.617   9.229 -2.0335  0.9096 -0.3233
  227MPD1    H1 3450   3.961   0.459   9.259 -0.1501 -2.4147  1.2177
  227MPD1    H2 3451   4.275   0.202   9.157 -0.4163  0.7044  0.6521
  227MPD1    H3 3452   4.046   0.241   9.191  0.5868 -0.5368  1.5497
  227MPD1     N 3453   4.120   0.690   9.274  0.2642  0.2417 -0.3084
  227MPD1    H5 3454   4.194   0.758   9.286  1.4231 -0.7503 -1.8429
  227MPD1    N1 3455   4.475   0.380   9.166  0.0008  0.0303 -0.5913
  227MPD1    H6 3456   4.527   0.461   9.133  1.2374 -0.9180 -0.9555
  227MPD1    H7 3457   4.493   0.301   9.105  0.7645  1.1134 -1.7811
  228MPD1     C 3458   3.843   4.316  12.149 -0.5953 -0.1713  0.5294
  228MPD1    C1 3459   3.727   4.383  12.126 -0.2183  0.1765  0.8288
  228MPD1    C2 3460   3.647   4.429  12.228  0.4416 -0.2079 -0.2683
  228MPD1    C3 3461   3.685   4.414  12.355  0.2554 -0.2954 -0.3680
  228MPD1    C4 3462   3.810   4.355  12.376  0.3418  0.4797 -0.2420
  228MPD1    C5 3463   3.891   4.306  12.275  0.2673  0.1089 -0.6935
  228MPD1     H 3464   3.551   4.476  12.209  0.9086  0.2107 -1.6547
  228MPD1    H1 3465   3.852   4.347  12.475  2.5589  0.4242 -1.1820
  228MPD1    H2 3466   3.901   4.282  12.064  0.1205  0.8991  0.5909
  228MPD1    H3 3467   3.987   4.263  12.301 -0.7626 -1.2359  0.8851
  228MPD1     N 3468   3.591   4.438  12.460  0.2776  0.3094  0.5044
  228MPD1    H5 3469   3.499   4.466  12.430 -0.1086 -1.5419 -0.0452
  228MPD1    N1 3470   3.693   4.395  11.990 -0.0133 -0.0416  0.0960
  228MPD1    H6 3471   3.593   4.386  11.973 -0.3350  1.0119  1.4577
  228MPD1    H7 3472   3.739   4.327  11.929  0.4781  0.2123  0.1868
  229MPD1     C 3473   3.223   3.337  14.398  0.0336 -0.1976 -0.4652
  229MPD1    C1 3474   3.166   3.239  14.326  0.5649  0.9388 -0.0317
  229MPD1    C2 3475   3.190   3.104  14.375  0.3874 -0.0638 -0.1653
  229MPD1    C3 3476   3.259   3.081  14.487 -0.1001  0.7915  0.1166
  229MPD1    C4 3477   3.310   3.182  14.559  0.0350  0.4883 -0.5857
  229MPD1    C5 3478   3.282   3.307  14.521 -0.5077  0.2637  0.8243
  229MPD1     H 3479   3.146   3.019  14.323 -1.2208 -1.1608  3.0101
  229MPD1    H1 3480   3.361   3.173  14.654  2.7756 -0.0458 -2.1185
  229MPD1    H2 3481   3.198   3.439  14.371 -2.3197 -0.0011  2.4314
  229MPD1    H3 3482   3.333   3.384  14.577  0.0214 -0.7953  1.7953
  229MPD1     N 3483   3.262   2.958  14.557 -0.1275  0.2315 -0.4382
  229MPD1    H5 3484   3.309   2.955  14.647  0.3315 -0.5439 -0.7028
  229MPD1    N1 3485   3.102   3.258  14.202  0.3416 -0.5177 -0.2195
  229MPD1    H6 3486   3.036   3.183  14.182 -0.1435  0.1692 -1.2180
  229MPD1    H7 3487   3.057   3.349  14.197 -0.2309 -0.6913  2.0256
  230MPD1     C 3488   3.340   2.550  15.457 -0.7046  0.3977  0.7853
  230MPD1    C1 3489   3.381   2.448  15.382 -0.3873  0.6113  0.0094
  230MPD1    C2 3490   3.359   2.454  15.243  0.2908 -0.4054  0.0801
  230MPD1    C3 3491   3.290   2.555  15.187 -0.0655  0.0922 -0.3096
  230MPD1    C4 3492   3.238   2.652  15.270 -0.3778  0.4691 -0.2951
  230MPD1    C5 3493   3.268   2.656  15.408  0.4575  0.0055 -0.3284
  230MPD1     H 3494   3.395   2.371  15.184  0.7420 -0.7366  0.8143
  230MPD1    H1 3495   3.175   2.731  15.234 -2.4061  0.2760  2.8097
  230MPD1    H2 3496   3.361   2.550  15.564  0.8112 -0.5633  0.4792
  230MPD1    H3 3497   3.233   2.742  15.464  2.9290 -0.1206  1.3739
  230MPD1     N 3498   3.280   2.559  15.044 -0.1879  0.4889  0.0277
  230MPD1    H5 3499   3.347   2.506  14.988 -1.3650 -2.3803  1.3803
  230MPD1    N1 3500   3.433   2.334  15.442  0.0550  0.0260 -0.1211
  230MPD1    H6 3501   3.475   2.357  15.532  0.3746 -2.1142  0.2703
  230MPD1    H7 3502   3.500   2.285  15.383  0.6917  0.5698  0.1424
  231MPD1     C 3503   1.003   0.262  14.605  0.4794  0.0069  0.3737
  231MPD1    C1 3504   1.054   0.144  14.657 -0.4013  0.1816 -0.6821
  231MPD1    C2 3505   1.185   0.154  14.706 -0.0801  0.7371 -0.1956
  231MPD1    C3 3506   1.255   0.277  14.702  0.8872  0.1992 -1.3591
  231MPD1    C4 3507   1.193   0.393  14.663  0.2729  0.0530 -0.5642
  231MPD1    C5 3508   1.068   0.382  14.617  0.2088 -0.3353 -0.6592
  231MPD1     H 3509   1.239   0.070  14.749 -3.9034 -1.3638  0.4521
  231MPD1    H1 3510   1.239   0.491  14.667 -0.4087  0.3598 -0.1011
  231MPD1    H2 3511   0.904   0.263  14.560  0.2243 -0.6370  0.9142
  231MPD1    H3 3512   1.025   0.471  14.572 -0.4761 -1.3909 -2.1080
  231MPD1     N 3513   1.383   0.278  14.745  0.5589 -0.0268  0.4902
  231MPD1    H5 3514   1.423   0.190  14.773  0.1504 -0.2104  0.4960
  231MPD1    N1 3515   0.984   0.022  14.636  0.0468 -0.0919 -0.3338
  231MPD1    H6 3516   0.887   0.053  14.626 -0.3912 -1.1416  0.7314
  231MPD1    H7 3517   1.011   4.683  14.716 -0.3791 -0.9080 -0.7714
  232MPD1     C 3518   3.598   2.946   0.407 -0.5745  0.2647 -0.8897
  232MPD1    C1 3519   3.586   2.809   0.416  0.0260  0.5080 -0.4361
  232MPD1    C2 3520   3.459   2.752   0.421 -0.6415 -0.6128  0.5927
  232MPD1    C3 3521   3.349   2.833   0.405 -0.6963  0.3817 -0.1762
  232MPD1    C4 3522   3.365   2.967   0.398 -0.3714  1.1797  0.2630
  232MPD1    C5 3523   3.488   3.024   0.394 -0.2452 -0.2741  0.4808
  232MPD1     H 3524   3.447   2.645   0.428 -0.4159 -0.7462 -1.0941
  232MPD1    H1 3525   3.282   3.030   0.369 -0.2632  1.4217  0.4866
  232MPD1    H2 3526   3.692   3.000   0.403 -0.9715  1.1156  1.3986
  232MPD1    H3 3527   3.486   3.132   0.389  1.6462 -0.2334  0.6762
  232MPD1     N 3528   3.216   2.768   0.384 -0.2121 -0.0780  0.0281
  232MPD1    H5 3529   3.215   2.667   0.375 -0.3246 -0.0261 -0.5372
  232MPD1    N1 3530   3.700   2.729   0.445 -0.0850  0.3157 -0.6538
  232MPD1    H6 3531   3.684   2.635   0.409 -0.9944 -0.0618  0.7190
  232MPD1    H7 3532   3.789   2.768   0.415  0.3645  0.3421  0.6803
  233MPD1     C 3533   3.890   0.820   1.756  0.2292  0.4860  0.4761
  233MPD1    C1 3534   3.901   0.911   1.656  0.6986  0.7640  0.3604
  233MPD1    C2 3535   4.025   0.934   1.598 -0.2542  0.5261  0.1848
  233MPD1    C3 3536   4.132   0.859   1.638  0.8067 -0.4199  0.0975
  233MPD1    C4 3537   4.123   0.756   1.731  0.0879 -0.6057  0.0065
  233MPD1    C5 3538   4.000   0.735   1.783 -0.9923 -0.5886  0.4331
  233MPD1     H 3539   4.040   1.011   1.522 -1.9144  0.6180 -0.0551
  233MPD1    H1 3540   4.214   0.702   1.755  0.0205 -0.4831  0.5572
  233MPD1    H2 3541   3.798   0.812   1.813 -0.5799  1.0771 -0.7549
  233MPD1    H3 3542   3.997   0.662   1.863 -1.8811  0.3116  1.2156
  233MPD1     N 3543   4.259   0.884   1.593  0.4886 -0.4034  0.0911
  233MPD1    H5 3544   4.329   0.820   1.628 -0.0513 -1.5670 -0.9681
  233MPD1    N1 3545   3.796   0.999   1.641  0.5874 -0.1884 -0.2765
  233MPD1    H6 3546   3.787   1.023   1.542 -0.1674 -2.9953 -0.8806
  233MPD1    H7 3547   3.707   0.961   1.673  1.7401 -1.3134  1.5894
  234MPD1     C 3548   0.444   4.029   9.132 -0.4905 -0.0786 -0.4692
  234MPD1    C1 3549   0.407   4.146   9.070  0.2972  0.9529 -0.4749
  234MPD1    C2 3550   0.299   4.222   9.120  0.1979  0.0719  0.2553
  234MPD1    C3 3551   0.229   4.166   9.231  0.2711  0.3173 -0.3364
  234MPD1    C4 3552   0.271   4.055   9.293 -0.3586 -0.1282 -0.4293
  234MPD1    C5 3553   0.376   3.985   9.244  0.0182 -0.3030 -0.8396
  234MPD1     H 3554   0.263   4.314   9.078 -1.0412 -0.3260  0.4400
  234MPD1    H1 3555   0.222   4.011   9.379  0.6311 -2.3642 -1.0000
  234MPD1    H2 3556   0.536   3.980   9.102  0.0404 -0.3833  1.7041
  234MPD1    H3 3557   0.410   3.897   9.297  2.0431 -0.1551 -1.8534
  234MPD1     N 3558   0.103   4.228   9.275 -0.2298  0.4212  0.0581
  234MPD1    H5 3559   0.086   4.319   9.234  0.6552  0.4363 -0.2665
  234MPD1    N1 3560   0.477   4.199   8.967 -0.1048  0.0704 -0.2704
  234MPD1    H6 3561   0.485   4.300   8.966  1.1712 -0.0105  0.6924
  234MPD1    H7 3562   0.556   4.151   8.926 -0.9923  0.4181 -2.3639
  235MPD1     C 3563   0.996   1.699   8.600  0.1789 -0.2210 -0.1136
  235MPD1    C1 3564   1.048   1.706   8.727 -0.4040  0.0503 -0.0650
  235MPD1    C2 3565   1.175   1.763   8.731 -0.1981 -0.3338 -0.6380
  235MPD1    C3 3566   1.244   1.815   8.624  0.0262 -0.6056 -0.2478
  235MPD1    C4 3567   1.188   1.803   8.499 -0.0085 -0.2644  0.5830
  235MPD1    C5 3568   1.061   1.746   8.489 -0.1327 -0.9789 -0.5182
  235MPD1     H 3569   1.227   1.780   8.824 -3.2636 -0.0602  1.0217
  235MPD1    H1 3570   1.232   1.855   8.413  0.1531  0.1480  0.9141
  235MPD1    H2 3571   0.897   1.661   8.579  0.8265 -1.6497 -0.5730
  235MPD1    H3 3572   1.014   1.748   8.391 -1.6185 -0.6698  0.1929
  235MPD1     N 3573   1.368   1.885   8.651 -0.3634 -0.2788 -0.7723
  235MPD1    H5 3574   1.402   1.897   8.746  0.6351 -2.9797 -0.7792
  235MPD1    N1 3575   0.986   1.636   8.825 -0.0377 -0.3192  1.1581
  235MPD1    H6 3576   0.990   1.668   8.922  1.0431 -2.9599  1.9996
  235MPD1    H7 3577   0.888   1.624   8.797  0.5192 -0.5223 -0.7203
  236MPD1     C 3578   1.993   2.233   8.987 -0.7159 -0.0845  0.0680
  236MPD1    C1 3579   1.899   2.332   9.000 -0.4206  0.2923  0.3933
  236MPD1    C2 3580   1.859   2.374   9.128  0.5993 -0.0472  0.0690
  236MPD1    C3 3581   1.920   2.331   9.243 -0.3554 -0.5089  0.0158
  236MPD1    C4 3582   2.024   2.243   9.227 -0.3511  0.0027 -0.1466
  236MPD1    C5 3583   2.053   2.191   9.102  0.0115  0.5935  0.1279
  236MPD1     H 3584   1.775   2.442   9.141 -1.0018 -2.1282  0.7331
  236MPD1    H1 3585   2.083   2.206   9.310 -1.5262 -3.5239 -0.8821
  236MPD1    H2 3586   2.015   2.183   8.894 -1.9392  2.5453 -1.6354
  236MPD1    H3 3587   2.123   2.110   9.089  0.2527  0.6137  1.3710
  236MPD1     N 3588   1.867   2.367   9.364 -0.0094  0.0722  0.1943
  236MPD1    H5 3589   1.907   2.328   9.449 -0.2503  0.9426  0.7191
  236MPD1    N1 3590   1.825   2.375   8.885 -0.1992  0.1575  0.0481
  236MPD1    H6 3591   1.810   2.476   8.894  1.5851  0.1227  3.6558
  236MPD1    H7 3592   1.883   2.359   8.803  0.7702 -0.8652  0.9274
  237MPD1     C 3593   1.636   1.260  14.271 -0.5633  0.8126  0.2113
  237MPD1    C1 3594   1.646   1.156  14.360 -0.6230 -0.1499  0.0754
  237MPD1    C2 3595   1.591   1.169  14.488 -0.1601 -0.6138 -0.2809
  237MPD1    C3 3596   1.520   1.287  14.519  0.5745 -0.1083 -0.8988
  237MPD1    C4 3597   1.511   1.387  14.431  0.5735 -0.1124  0.3421
  237MPD1    C5 3598   1.566   1.375  14.309  0.3281 -0.9954 -1.0355
  237MPD1     H 3599   1.605   1.084  14.554 -0.2674  0.1703  0.7589
  237MPD1    H1 3600   1.446   1.471  14.450 -1.8952 -1.2599 -3.0706
  237MPD1    H2 3601   1.684   1.262  14.174  0.1261  2.1480  0.5756
  237MPD1    H3 3602   1.566   1.463  14.246  0.3564 -0.1893  0.0752
  237MPD1     N 3603   1.455   1.305  14.642  0.3384 -0.2783 -0.1405
  237MPD1    H5 3604   1.412   1.396  14.657  0.0094 -0.4495 -0.0459
  237MPD1    N1 3605   1.701   1.036  14.318  0.1234  0.1695  0.1497
  237MPD1    H6 3606   1.757   0.986  14.386 -0.0681  0.9578  0.8776
  237MPD1    H7 3607   1.757   1.040  14.233  2.1303  0.3343  1.4899
  238MPD1     C 3608   3.665   0.534  15.164 -0.4485 -0.5609 -0.5612
  238MPD1    C1 3609   3.556   0.507  15.251  0.5576 -0.4858  0.3742
  238MPD1    C2 3610   3.449   0.436  15.198  0.6928 -0.5219  0.6725
  238MPD1    C3 3611   3.464   0.354  15.090  0.9005 -0.0034 -0.1166
  238MPD1    C4 3612   3.587   0.367  15.021 -0.4021 -0.3357 -0.2742
  238MPD1    C5 3613   3.679   0.462  15.051 -0.3548 -0.3460 -0.8706
  238MPD1     H 3614   3.362   0.417  15.260  0.8174  3.2098  2.0053
  238MPD1    H1 3615   3.603   0.312  14.929 -0.1081 -1.8074  0.6556
  238MPD1    H2 3616   3.745   0.602  15.192 -2.0072  1.1661 -0.3661
  238MPD1    H3 3617   3.764   0.481  14.987 -0.3562 -0.6373 -0.9597
  238MPD1     N 3618   3.372   0.257  15.038  0.0066 -0.5747 -0.1390
  238MPD1    H5 3619   3.407   0.196  14.966  0.6420 -0.9916  0.5262
  238MPD1    N1 3620   3.539   0.589  15.363 -0.5101 -0.5808  0.6227
  238MPD1    H6 3621   3.631   0.613  15.399 -1.4712 -0.8938  3.3399
  238MPD1    H7 3622   3.480   0.551  15.437 -0.0143  0.6374  1.6593
  239MPD1     C 3623   3.884   0.847  15.113  1.2059 -0.0763 -0.4282
  239MPD1    C1 3624   3.785   0.939  15.119 -0.2107 -0.3926 -0.0801
  239MPD1    C2 3625   3.717   0.971  14.998  0.8535  0.7792  0.0682
  239MPD1    C3 3626   3.757   0.915  14.867 -0.1002  0.5800 -0.0550
  239MPD1    C4 3627   3.855   0.817  14.869 -0.1822 -0.2241 -0.3979
  239MPD1    C5 3628   3.917   0.789  14.995 -0.2182 -0.3516  0.4229
  239MPD1     H 3629   3.643   1.050  15.006 -0.3164 -0.4496  1.2454
  239MPD1    H1 3630   3.887   0.764  14.779  0.7685  0.2181 -0.3111
  239MPD1    H2 3631   3.937   0.830  15.206 -0.1432  1.3256  0.5890
  239MPD1    H3 3632   4.000   0.720  14.993 -0.9903 -1.2562 -1.0413
  239MPD1     N 3633   3.707   0.951  14.743 -0.2269 -0.4439 -0.1664
  239MPD1    H5 3634   3.755   0.909  14.664 -1.9156 -2.4440 -0.1154
  239MPD1    N1 3635   3.760   1.025  15.230  0.2177 -0.3887 -0.6560
  239MPD1    H6 3636   3.773   0.977  15.319 -1.0075 -1.0106 -0.8139
  239MPD1    H7 3637   3.663   1.057  15.225  0.2769  0.0328  1.0827
  240MPD1     C 3638   3.536   0.151  14.296 -0.3113 -0.4360  0.7044
  240MPD1    C1 3639   3.461   0.249  14.235 -0.6887  0.0896 -0.1171
  240MPD1    C2 3640   3.358   0.306  14.305 -0.5646  1.3752  0.0958
  240MPD1    C3 3641   3.338   0.281  14.443  0.6953 -0.1197  0.0439
  240MPD1    C4 3642   3.420   0.194  14.507  0.0410  0.5006  0.6087
  240MPD1    C5 3643   3.522   0.139  14.434 -0.1686  0.1927  0.4335
  240MPD1     H 3644   3.294   0.376  14.252 -2.7736 -0.2832  0.5796
  240MPD1    H1 3645   3.411   0.163  14.610  1.1372 -2.2879 -0.1152
  240MPD1    H2 3646   3.611   0.094  14.244 -0.2467  0.8991 -0.6590
  240MPD1    H3 3647   3.572   0.059  14.488 -1.9853  1.3704  3.8808
  240MPD1     N 3648   3.230   0.349  14.504 -0.6726  0.4286  0.3875
  240MPD1    H5 3649   3.157   0.380  14.441  1.8400 -1.4865 -3.4229
  240MPD1    N1 3650   3.472   0.261  14.099  0.8069  0.3248  0.1924
  240MPD1    H6 3651   3.481   0.361  14.084 -0.1520  0.4589  0.5180
  240MPD1    H7 3652   3.564   0.225  14.071 -0.1045 -0.7512 -1.4388
  241MPD1     C 3653   3.070   0.715  15.432 -0.3167  0.3402  0.3894
  241MPD1    C1 3654   3.058   0.578  15.409  0.0279 -0.1920  0.1357
  241MPD1    C2 3655   3.002   0.536  15.281 -0.4197 -0.2139 -0.3489
  241MPD1    C3 3656   2.977   0.631  15.186 -0.4930 -1.0986 -0.8740
  241MPD1    C4 3657   3.011   0.760  15.208  0.4258 -0.5452  0.2741
  241MPD1    C5 3658   3.050   0.802  15.334 -0.4149 -0.3056  0.4446
  241MPD1     H 3659   2.980   0.432  15.258  3.3056 -1.3304  1.1922
  241MPD1    H1 3660   2.994   0.838  15.134  0.5639 -0.9762 -0.2190
  241MPD1    H2 3661   3.088   0.751  15.532 -1.0438 -1.1410  1.0496
  241MPD1    H3 3662   3.070   0.907  15.352  0.6350 -0.4226 -0.0709
  241MPD1     N 3663   2.954   0.592  15.051  0.0860  0.5633  0.2758
  241MPD1    H5 3664   2.956   0.664  14.980 -1.2723  0.1797 -0.1466
  241MPD1    N1 3665   3.071   0.489  15.515 -0.1919 -0.2375 -0.5025
  241MPD1    H6 3666   3.072   0.391  15.490 -2.9784 -0.0104 -1.4614
  241MPD1    H7 3667   3.150   0.515  15.574 -0.8475  0.9727 -0.1656
  242MPD1     C 3668   2.676   4.027  15.763 -0.0093  0.5280  0.5032
  242MPD1    C1 3669   2.559   3.957  15.785  0.1060  0.7758  0.1633
  242MPD1    C2 3670   2.536   3.847  15.699 -0.2370  0.6477  0.0245
  242MPD1    C3 3671   2.621   3.824  15.590  0.0812 -0.1735 -0.6447
  242MPD1    C4 3672   2.719   3.915  15.559 -0.1731  0.3095  0.3057
  242MPD1    C5 3673   2.743   4.019  15.643 -0.6372 -0.1561  0.1241
  242MPD1     H 3674   2.446   3.790  15.718 -1.4654  1.8811 -2.1577
  242MPD1    H1 3675   2.794   3.894  15.484 -1.3983  0.2287 -0.8909
  242MPD1    H2 3676   2.709   4.110  15.824 -0.8185  0.3472  1.1833
  242MPD1    H3 3677   2.813   4.099  15.623  0.0840 -1.1330 -1.2523
  242MPD1     N 3678   2.613   3.711  15.511 -0.0905 -0.2115  0.8521
  242MPD1    H5 3679   2.681   3.706  15.435 -1.3303 -0.9257 -0.2182
  242MPD1    N1 3680   2.484   3.977  15.901 -0.1202  0.7186 -0.0484
  242MPD1    H6 3681   2.393   3.942  15.873 -0.1299  0.6649  0.0495
  242MPD1    H7 3682   2.484   4.068  15.947  1.9045 -0.0318  1.4280
  243MPD1     C 3683   0.250   2.479   0.260  0.1968 -0.4836 -0.6569
  243MPD1    C1 3684   0.205   2.588   0.197  0.0294 -0.8729  0.3604
  243MPD1    C2 3685   0.093   2.576   0.111  0.3808 -0.1663  0.6952
  243MPD1    C3 3686   0.028   2.452   0.096 -0.2397 -0.6891 -0.8239
  243MPD1    C4 3687   0.072   2.352   0.181  0.2504 -0.6279  0.3943
  243MPD1    C5 3688   0.185   2.359   0.260  0.6698  0.4026 -0.6986
  243MPD1     H 3689   0.072   2.664   0.051 -0.9986 -2.2505 -1.8642
  243MPD1    H1 3690   0.021   2.257   0.185 -0.6405 -0.1257  1.0944
  243MPD1    H2 3691   0.335   2.486   0.326  0.0811  0.0999 -0.5624
  243MPD1    H3 3692   0.220   2.278   0.323  0.0820  2.3890  2.1665
  243MPD1     N 3693   4.628   2.446   0.015  0.5187  0.2187  0.5758
  243MPD1    H5 3694   4.592   2.530  17.644  2.4006  0.2165 -0.9440
  243MPD1    N1 3695   0.292   2.695   0.204 -0.2065 -0.2468  0.4204
  243MPD1    H6 3696   0.236   2.777   0.226 -0.7521 -0.6963  0.7246
  243MPD1    H7 3697   0.366   2.684   0.273 -0.2896 -0.4821  0.4703
  244MPD1     C 3698   3.649   2.286   0.302 -0.8286 -0.4487 -0.1055
  244MPD1    C1 3699   3.767   2.250   0.358  0.2563 -0.4431  0.0434
  244MPD1    C2 3700   3.891   2.285   0.296 -0.1857 -0.1531 -0.5419
  244MPD1    C3 3701   3.898   2.348   0.169 -0.3040  0.2438  0.7846
  244MPD1    C4 3702   3.777   2.390   0.111  0.2474  0.1252 -0.2073
  244MPD1    C5 3703   3.659   2.356   0.177 -0.0142  0.2226  0.7205
  244MPD1     H 3704   3.981   2.259   0.351 -1.6481 -0.4472  1.7072
  244MPD1    H1 3705   3.759   2.458   0.028 -0.9297 -1.4457 -1.2255
  244MPD1    H2 3706   3.557   2.276   0.359 -0.3611 -0.8086  0.5750
  244MPD1    H3 3707   3.563   2.388   0.137 -0.1991 -0.2925  0.7479
  244MPD1     N 3708   4.022   2.356   0.102  0.2934  0.3794  0.2539
  244MPD1    H5 3709   4.102   2.318   0.151  0.3952  0.9143  0.4958
  244MPD1    N1 3710   3.775   2.214   0.490  0.5578 -0.1211  0.2841
  244MPD1    H6 3711   3.860   2.161   0.510  0.8380  0.2225 -0.0071
  244MPD1    H7 3712   3.690   2.167   0.519  0.7126  0.1827  1.2208
  245MPD1     C 3713   0.552   3.240  13.582  0.6855  0.0526  0.4762
  245MPD1    C1 3714   0.638   3.177  13.675 -0.1474 -0.5767 -0.1624
  245MPD1    C2 3715   0.768   3.220  13.682 -0.9113 -0.3102  0.3154
  245MPD1    C3 3716   0.821   3.327  13.610  0.6083  0.3925  0.5965
  245MPD1    C4 3717   0.736   3.394  13.525 -0.7212  0.0559  1.0449
  245MPD1    C5 3718   0.603   3.356  13.519  0.1621  0.4192  0.7506
  245MPD1     H 3719   0.840   3.165  13.741  0.8111  0.5587 -0.9679
  245MPD1    H1 3720   0.759   3.481  13.465 -1.0467 -0.3159  0.3756
  245MPD1    H2 3721   0.444   3.229  13.581  0.6957  0.0463 -0.4651
  245MPD1    H3 3722   0.529   3.414  13.464 -1.4337  0.2371  2.7210
  245MPD1     N 3723   0.959   3.356  13.618  0.1612 -0.6146  0.0560
  245MPD1    H5 3724   1.017   3.304  13.683  1.2482  0.2871 -0.1935
  245MPD1    N1 3725   0.586   3.061  13.738 -0.1788  0.3882  0.3806
  245MPD1    H6 3726   0.656   3.032  13.807 -0.2221  2.3476  1.2580
  245MPD1    H7 3727   0.504   3.089  13.791 -0.1117  1.2860  0.0093
  246MPD1     C 3728   2.227   0.188  10.038 -0.3706  0.2084 -0.1713
  246MPD1    C1 3729   2.283   0.094  10.119  0.3087  0.0252  0.9181
  246MPD1    C2 3730   2.289   4.678  10.076  0.1139  0.0985 -1.1185
  246MPD1    C3 3731   2.238   4.644   9.954  0.0455  0.8525 -0.0741
  246MPD1    C4 3732   2.192   0.021   9.867  0.5663 -0.4969 -0.3045
  246MPD1    C5 3733   2.186   0.153   9.912 -0.5185 -0.0062  1.1480
  246MPD1     H 3734   2.334   4.612  10.149  1.1388  1.4527 -0.5148
  246MPD1    H1 3735   2.152   4.709   9.771  0.1765  0.0956 -0.3263
  246MPD1    H2 3736   2.216   0.290  10.073  1.5515  0.2794  0.2635
  246MPD1    H3 3737   2.136   0.225   9.848  1.6321  1.2732  0.8931
  246MPD1     N 3738   2.257   4.509   9.911  0.7522 -0.4161 -0.2480
  246MPD1    H5 3739   2.309   4.446   9.971 -0.4167 -0.5544  0.6139
  246MPD1    N1 3740   2.331   0.118  10.244 -0.1087  0.9386  0.9018
  246MPD1    H6 3741   2.367   0.213  10.257 -0.4566  0.8551  2.4376
  246MPD1    H7 3742   2.406   0.053  10.267  0.4674  0.8609 -1.2033
  247MPD1     C 3743   0.027   2.630  15.988  0.1110 -0.1326 -0.8264
  247MPD1    C1 3744   0.106   2.595  16.098 -0.2841 -0.3158  0.2700
  247MPD1    C2 3745   0.218   2.520  16.098 -0.2568 -0.1295 -0.4447
  247MPD1    C3 3746   0.256   2.460  15.985  0.3321  0.6449 -0.4999
  247MPD1    C4 3747   0.182   2.490  15.873  0.8311  0.3829 -0.3382
  247MPD1    C5 3748   0.073   2.568  15.872  0.1643 -0.2621  0.1177
  247MPD1     H 3749   0.281   2.518  16.186 -1.8718  1.4228  0.7423
  247MPD1    H1 3750   0.210   2.437  15.782 -0.0551 -0.7215  0.0285
  247MPD1    H2 3751   4.650   2.683  15.993  1.2443  1.8972 -0.8628
  247MPD1    H3 3752   0.022   2.594  15.779 -1.0396 -0.6151  0.6777
  247MPD1     N 3753   0.363   2.371  15.969  0.5362  0.0865  0.0462
  247MPD1    H5 3754   0.373   2.327  15.879  1.4682 -0.7801  0.5701
  247MPD1    N1 3755   0.083   2.656  16.221  0.2393 -0.5980 -0.2912
  247MPD1    H6 3756   4.701   2.664  16.239  0.5480 -0.5067  1.3693
  247MPD1    H7 3757   0.135   2.618  16.299  1.5264  0.3150 -0.6971
  248MPD1     C 3758   2.299   2.575  17.472  0.3489  0.1116  0.1477
  248MPD1    C1 3759   2.356   2.693  17.512  0.3954 -0.1830  0.8469
  248MPD1    C2 3760   2.266   2.786  17.558 -0.3059  0.3747 -0.1137
  248MPD1    C3 3761   2.142   2.751  17.609 -0.0536  0.6680  0.6651
  248MPD1    C4 3762   2.102   2.620  17.580 -0.6945 -0.2007  0.4823
  248MPD1    C5 3763   2.172   2.538  17.499 -0.2169  0.6202 -0.4427
  248MPD1     H 3764   2.288   2.891  17.572 -1.7455  0.4630  1.5693
  248MPD1    H1 3765   2.004   2.592  17.616 -1.1132 -0.5603 -0.9165
  248MPD1    H2 3766   2.361   2.510  17.413 -0.8136 -0.9788  0.1198
  248MPD1    H3 3767   2.132   2.441  17.471  1.5431 -0.0706 -0.5062
  248MPD1     N 3768   2.060   2.843  17.672 -0.7762  0.6451  0.0608
  248MPD1    H5 3769   2.092   2.940  17.672  0.3559  0.2659  1.1532
  248MPD1    N1 3770   2.482   2.724  17.465 -0.4917  0.6950  0.1577
  248MPD1    H6 3771   2.548   2.648  17.449 -1.0119 -0.1543  2.1495
  248MPD1    H7 3772   2.525   2.793  17.527  1.9422  0.3768 -1.1831
  249MPD1     C 3773   1.912   1.341   9.626  0.1028 -0.4151  0.6474
  249MPD1    C1 3774   1.999   1.303   9.723 -0.5757 -0.5138 -1.0748
  249MPD1    C2 3775   2.109   1.380   9.742  0.1926  0.4754  0.5832
  249MPD1    C3 3776   2.136   1.500   9.672 -0.4018  0.1468  0.2222
  249MPD1    C4 3777   2.048   1.534   9.568  0.0417 -0.4007 -0.0289
  249MPD1    C5 3778   1.934   1.454   9.552  0.5841  0.6200  0.2772
  249MPD1     H 3779   2.176   1.360   9.824  0.7788 -0.5707 -0.1470
  249MPD1    H1 3780   2.073   1.614   9.500  0.0246  0.4297  0.9507
  249MPD1    H2 3781   1.819   1.288   9.613 -1.1025  1.8261  0.1750
  249MPD1    H3 3782   1.868   1.470   9.468 -0.1562 -1.0168  0.5610
  249MPD1     N 3783   2.258   1.574   9.700  0.0104  0.2832  0.1316
  249MPD1    H5 3784   2.322   1.538   9.770  0.1184 -0.0993 -0.1687
  249MPD1    N1 3785   1.965   1.203   9.816 -0.4173 -0.2058 -0.2290
  249MPD1    H6 3786   1.918   1.125   9.769 -1.2884  0.2692 -0.1434
  249MPD1    H7 3787   2.044   1.178   9.875  1.5393  1.4760 -2.1556
  250MPD2     C 3788   4.315   1.301  13.641  0.4472 -0.0440  0.2208
  250MPD2    C1 3789   4.356   1.260  13.520  0.6387 -0.0503  0.2431
  250MPD2    C2 3790   4.332   1.130  13.489  0.2580 -0.3037  0.3393
  250MPD2    C3 3791   4.260   1.048  13.570 -0.4370  0.0118 -0.4052
  250MPD2    C4 3792   4.241   1.084  13.704  0.5485  0.8052 -1.0934
  250MPD2    C5 3793   4.265   1.217  13.733 -0.1143  0.4746 -0.0665
  250MPD2     H 3794   4.377   1.088  13.400  2.2327  1.3222  0.5666
  250MPD2    H1 3795   4.205   1.011  13.776 -2.3072  2.1040 -1.2015
  250MPD2    H2 3796   4.330   1.404  13.671 -1.0889 -0.3649  2.1357
  250MPD2    H3 3797   4.251   1.255  13.833 -1.6910  0.5221 -0.3011
  250MPD2     N 3798   4.220   0.916  13.531 -0.2003  0.6178  0.6268
  250MPD2    H5 3799   4.196   0.865  13.616 -1.1006 -1.1523 -0.6872
  250MPD2    N1 3800   4.412   1.350  13.429  0.1473 -0.2312 -0.6692
  250MPD2    H7 3801   4.415   1.447  13.457 -0.0297 -0.0862 -1.1691
  251TMC3    C1 3802   4.418   1.447  13.221  0.4019  0.6217 -0.1450
  251TMC3    C2 3803   4.339   1.549  13.274  0.5697 -0.2248  0.3766
  251TMC3    C3 3804   4.310   1.655  13.196  0.1791  0.1300 -0.7236
  251TMC3    C4 3805   4.461   1.449  13.089  0.2707  0.3306 -0.6991
  251TMC3    C5 3806   4.435   1.558  13.012  0.4437 -0.1193  0.2852
  251TMC3    C6 3807   4.359   1.661  13.069 -0.8289 -0.1913  0.1493
  251TMC3     C 3808   4.427   1.328  13.295  0.3264  0.3918  0.5289
  251TMC3     O 3809   4.431   1.224  13.234 -0.1031 -0.5418 -0.2070
  251TMC3     H 3810   4.303   1.553  13.376  1.5419 -0.4388  0.7293
  251TMC3    H1 3811   4.511   1.361  13.051 -0.1723 -0.0565 -0.3841
  251TMC3    H2 3812   4.343   1.751  13.011  0.1305  1.0206  1.7414
  251TMC3    C7 3813   4.517   1.582  12.900  0.0177  0.2625  0.3977
  251TMC3    C8 3814   4.208   1.749  13.236  1.0674 -0.1172  0.2289
  251TMC3    O1 3815   4.619   1.517  12.882 -1.3028 -0.5161  0.3183
  251TMC3    O2 3816   4.214   1.791  13.352  0.6035 -0.3823 -0.2001
  252TMC3    C1 3817   4.652   2.238   8.497 -0.6949 -0.0974 -0.4411
  252TMC3    C2 3818   0.028   2.335   8.517  0.0580  0.4122  0.6039
  252TMC3    C3 3819   0.103   2.328   8.628  0.0503 -0.2320  0.1238
  252TMC3    C4 3820   4.618   2.150   8.592  0.1817  0.3105  0.0498
  252TMC3    C5 3821   4.690   2.153   8.708 -0.0317  0.1701  0.0392
  252TMC3    C6 3822   0.080   2.238   8.729  0.0363 -0.4041  0.7715
  252TMC3     C 3823   4.586   2.241   8.366  0.3362  0.4361 -0.1114
  252TMC3     O 3824   4.568   2.350   8.315 -0.4603 -0.1066 -0.1276
  252TMC3     H 3825   0.038   2.402   8.433  0.2270 -0.9158 -0.4346
  252TMC3    H1 3826   4.549   2.067   8.582 -1.6527  1.7051  1.1360
  252TMC3    H2 3827   0.148   2.229   8.813  1.1827 -0.7558 -0.1895
  252TMC3    C7 3828   4.658   2.055   8.803 -0.2449  0.6401 -0.5564
  252TMC3    C8 3829   0.187   2.443   8.640 -0.4492  0.0834 -0.2854
  252TMC3    O1 3830   0.039   1.995   8.840 -0.5349 -0.2075  0.5015
  252TMC3    O2 3831   0.223   2.511   8.545  0.4578 -0.3428  0.1133
  253MPD2     C 3832   1.074   1.571  15.560  0.5057 -0.4851 -0.5012
  253MPD2    C1 3833   0.947   1.587  15.519  0.1962 -0.3844 -0.2979
  253MPD2    C2 3834   0.839   1.582  15.610  0.6057  0.6446  0.1738
  253MPD2    C3 3835   0.858   1.556  15.744  0.3393  0.4344 -0.1417
  253MPD2    C4 3836   0.989   1.542  15.781  0.2982  0.1460  0.2346
  253MPD2    C5 3837   1.101   1.549  15.694 -0.6911 -0.6805  0.4148
  253MPD2     H 3838   0.737   1.600  15.579  0.8652  2.4121  0.3395
  253MPD2    H1 3839   1.016   1.512  15.882  2.8210  2.7241  0.3576
  253MPD2    H2 3840   1.151   1.574  15.484 -0.4786 -0.9207 -1.5067
  253MPD2    H3 3841   1.201   1.554  15.735 -1.2989  0.5217  1.7643
  253MPD2     N 3842   0.752   1.554  15.837 -0.0508 -0.1060 -0.6293
  253MPD2    H5 3843   0.770   1.538  15.935  0.2595  1.7828 -0.3829
  253MPD2    N1 3844   0.913   1.601  15.380  0.6375  0.5788  0.0945
  253MPD2    H7 3845   0.814   1.600  15.357  0.9475 -3.6018 -1.0039
  254TMC3    C1 3846   0.531   1.562  15.916 -0.8551  0.0961 -0.6119
  254TMC3    C2 3847   0.449   1.665  15.958 -0.5643 -0.1861  0.7824
  254TMC3    C3 3848   0.385   1.649  16.077  0.6596 -0.6159 -0.4359
  254TMC3    C4 3849   0.542   1.449  15.983 -0.4200 -0.3507  0.4593
  254TMC3    C5 3850   0.484   1.440  16.105 -0.4571  0.0617 -0.3442
  254TMC3    C6 3851   0.404   1.542  16.158 -0.4171 -0.6380 -0.0641
  254TMC3     C 3852   0.623   1.585  15.805 -0.2897 -0.0730  0.0029
  254TMC3     O 3853   0.564   1.626  15.704 -0.6777  0.1806  0.1636
  254TMC3     H 3854   0.440   1.754  15.897 -0.4063 -0.4770  0.3357
  254TMC3    H1 3855   0.602   1.370  15.939 -0.7902 -0.2607 -0.2120
  254TMC3    H2 3856   0.364   1.538  16.259  1.1664  1.7376  0.6716
  254TMC3    C7 3857   0.539   1.341  16.197 -0.1208 -0.3233  0.0055
  254TMC3    C8 3858   0.313   1.756  16.138  0.1731  0.1554  0.2663
  254TMC3    O1 3859   0.504   1.351  16.314  0.0328  0.2977 -0.1298
  254TMC3    O2 3860   0.305   1.756  16.261 -0.5734  0.4728 -0.2967
  255MPD2     C 3861   4.240   2.759  10.383 -0.2325  0.2024  0.2742
  255MPD2    C1 3862   4.135   2.816  10.330  0.1573  0.1244  0.6903
  255MPD2    C2 3863   4.148   2.944  10.283  0.1875 -0.2588 -0.3010
  255MPD2    C3 3864   4.262   3.018  10.306  0.0650 -0.2774  0.4794
  255MPD2    C4 3865   4.363   2.972  10.392 -0.2472  0.1499  0.3774
  255MPD2    C5 3866   4.343   2.838  10.422 -0.6318 -0.2432  0.1913
  255MPD2     H 3867   4.072   2.996  10.226  0.0759  0.0454  0.1244
  255MPD2    H1 3868   4.463   3.006  10.414 -0.0377  0.4458 -1.0315
  255MPD2    H2 3869   4.238   2.656  10.415 -1.8757  0.2961  0.4605
  255MPD2    H3 3870   4.427   2.785  10.466  0.0451  0.4435 -0.2655
  255MPD2     N 3871   4.271   3.139  10.243 -0.2126 -0.0432  0.1346
  255MPD2    H5 3872   4.208   3.149  10.163  0.0750  1.6432  0.1238
  255MPD2    N1 3873   4.022   2.740  10.304  1.2759 -0.0788  1.0743
  255MPD2    H7 3874   4.025   2.642  10.332 -2.6754  0.1393  2.2887
  256TMC3    C1 3875   3.804   2.694  10.225  0.3595 -0.1169 -0.0995
  256TMC3    C2 3876   3.673   2.743  10.230 -0.3455  0.7985  0.0731
  256TMC3    C3 3877   3.581   2.643  10.210 -0.1005 -0.5367  0.4009
  256TMC3    C4 3878   3.836   2.566  10.193 -0.3036 -1.0329  0.0244
  256TMC3    C5 3879   3.737   2.471  10.167 -0.2198 -0.4644  0.0369
  256TMC3    C6 3880   3.609   2.515  10.185 -0.9175  0.9796  0.2025
  256TMC3     C 3881   3.903   2.791  10.257  0.1123  0.1971  0.2689
  256TMC3     O 3882   3.864   2.906  10.251 -0.0543  0.0179 -0.1149
  256TMC3     H 3883   3.641   2.842  10.262 -0.6883 -0.0491  2.4151
  256TMC3    H1 3884   3.939   2.532  10.187 -0.8545 -2.7965  0.5506
  256TMC3    H2 3885   3.528   2.445  10.168  0.0878 -0.0722 -0.2521
  256TMC3    C7 3886   3.759   2.394  10.040 -0.1308  0.3387  0.5933
  256TMC3    C8 3887   3.455   2.684  10.154  0.0892 -0.1299  0.1191
  256TMC3    O1 3888   3.657   2.379   9.970 -0.0750  0.1090 -0.4747
  256TMC3    O2 3889   3.365   2.599  10.158 -0.2036 -0.4368 -0.1546
  257MPD2     C 3890   3.308   1.514  13.440  0.6602  0.1893 -0.5033
  257MPD2    C1 3891   3.297   1.424  13.335 -0.0387 -0.4447 -0.3473
  257MPD2    C2 3892   3.312   1.290  13.361  0.1353  0.1044 -0.2247
  257MPD2    C3 3893   3.328   1.257  13.495  0.3187 -0.2472  0.9422
  257MPD2    C4 3894   3.323   1.343  13.602 -0.2963 -0.2437 -0.2135
  257MPD2    C5 3895   3.324   1.475  13.572 -0.3831  0.0388 -0.4193
  257MPD2     H 3896   3.301   1.207  13.292  1.1606 -0.6951  0.5663
  257MPD2    H1 3897   3.320   1.318  13.707 -0.9862  0.5132 -0.0543
  257MPD2    H2 3898   3.301   1.618  13.412 -0.1535 -0.0413 -1.1687
  257MPD2    H3 3899   3.339   1.542  13.656  0.4235  1.0574 -1.3643
  257MPD2     N 3900   3.331   1.115  13.520  0.0943 -0.0298  0.6351
  257MPD2    H5 3901   3.342   1.056  13.438  0.0791  0.1955  0.4707
  257MPD2    N1 3902   3.273   1.476  13.205  0.2346  0.7546  0.2420
  257MPD2    H7 3903   3.265   1.577  13.190 -1.6565  0.5113 -0.3496
  258TMC3    C1 3904   3.333   0.919  13.653  0.4200 -0.0385  0.1989
  258TMC3    C2 3905   3.247   0.859  13.564  0.3083  0.1425  0.5860
  258TMC3    C3 3906   3.183   0.748  13.604 -0.2993 -0.2166 -0.3167
  258TMC3    C4 3907   3.361   0.861  13.771  0.1235  0.1620 -0.6990
  258TMC3    C5 3908   3.292   0.747  13.810  0.2276 -0.4647 -0.2571
  258TMC3    C6 3909   3.197   0.687  13.725  0.0220  0.5160  0.5538
  258TMC3     C 3910   3.378   1.059  13.639 -0.9345  0.6210  0.2333
  258TMC3     O 3911   3.416   1.115  13.741  0.0769 -0.2819  0.4503
  258TMC3     H 3912   3.224   0.900  13.466 -2.7642 -3.6762 -0.2733
  258TMC3    H1 3913   3.433   0.904  13.839  0.3980 -0.3689 -0.6504
  258TMC3    H2 3914   3.126   0.616  13.769  0.5006 -0.3820 -0.1287
  258TMC3    C7 3915   3.307   0.691  13.939 -0.3688  1.6413  0.3677
  258TMC3    C8 3916   3.075   0.692  13.515 -0.0460 -0.1715 -0.6726
  258TMC3    O1 3917   3.229   0.606  13.973  0.8394  0.0164  0.0105
  258TMC3    O2 3918   3.019   0.769  13.442 -0.1244 -0.2636 -0.8339
  259MPD2     C 3919   2.400   2.997   1.953  0.0825 -0.3321 -0.4188
  259MPD2    C1 3920   2.287   2.930   1.920 -0.0954  0.5086  0.2162
  259MPD2    C2 3921   2.252   2.902   1.787  0.2451  0.2237  0.3345
  259MPD2    C3 3922   2.337   2.958   1.687  0.3161 -0.1710  0.0914
  259MPD2    C4 3923   2.451   3.030   1.725  0.4655 -0.5364  0.4343
  259MPD2    C5 3924   2.477   3.046   1.858 -0.3500  0.0207 -0.4690
  259MPD2     H 3925   2.160   2.852   1.758 -0.5224  2.0065 -0.2706
  259MPD2    H1 3926   2.519   3.070   1.651  0.7410 -0.9357  0.4748
  259MPD2    H2 3927   2.426   3.018   2.056  1.0168 -1.6208 -0.4012
  259MPD2    H3 3928   2.571   3.095   1.883  1.3138 -3.8890  0.9144
  259MPD2     N 3929   2.314   2.939   1.546 -0.0962 -0.0522  0.4770
  259MPD2    H5 3930   2.358   2.995   1.474  0.4260 -1.7620 -0.5189
  259MPD2    N1 3931   2.212   2.885   2.035  0.3937 -0.5506  0.0554
  259MPD2    H7 3932   2.239   2.927   2.124 -0.4843  1.2860 -0.5363
  260TMC3    C1 3933   2.224   2.826   1.352 -0.0085  0.5683  0.5456
  260TMC3    C2 3934   2.296   2.908   1.273  0.5024 -0.5472  0.1162
  260TMC3    C3 3935   2.310   2.867   1.144 -0.6264  0.4225 -0.2514
  260TMC3    C4 3936   2.177   2.706   1.309  0.1999 -0.4997 -0.6438
  260TMC3    C5 3937   2.182   2.682   1.177  0.2786 -0.0251  0.6224
  260TMC3    C6 3938   2.252   2.758   1.093  0.0616  0.6953  0.3558
  260TMC3     C 3939   2.234   2.834   1.503 -0.2712 -0.5016  0.4145
  260TMC3     O 3940   2.187   2.738   1.567  0.0645  0.2791  0.3306
  260TMC3     H 3941   2.314   3.014   1.292  0.6812 -0.2656 -1.6647
  260TMC3    H1 3942   2.109   2.647   1.370 -1.3216  1.2391 -0.6250
  260TMC3    H2 3943   2.260   2.736   0.988  1.9148  0.7229  0.4994
  260TMC3    C7 3944   2.137   2.557   1.123  0.1952 -0.8375 -0.1474
  260TMC3    C8 3945   2.361   2.966   1.051  0.3962  0.3436 -0.0216
  260TMC3    O1 3946   2.218   2.495   1.061  0.6753  0.2098 -0.4503
  260TMC3    O2 3947   2.346   3.085   1.082 -0.0027  0.0314  0.4378
  261MPD2     C 3948   3.905   1.485  13.063  1.1392  0.0312  0.2095
  261MPD2    C1 3949   3.950   1.382  12.975 -0.6535  0.8077  0.7829
  261MPD2    C2 3950   3.916   1.391  12.843  0.3146 -1.0264  0.0189
  261MPD2    C3 3951   3.835   1.497  12.796  0.1437 -0.3620 -0.0954
  261MPD2    C4 3952   3.774   1.584  12.889  0.5098  0.1363 -0.1746
  261MPD2    C5 3953   3.816   1.578  13.020  0.3094 -0.0638 -0.2593
  261MPD2     H 3954   3.941   1.307  12.778  1.8157 -0.9061  0.4416
  261MPD2    H1 3955   3.704   1.664  12.868  1.5609  1.3752  1.0778
  261MPD2    H2 3956   3.947   1.506  13.161  0.7827 -1.8980  0.7730
  261MPD2    H3 3957   3.773   1.656  13.082 -0.8309  0.7148 -2.0511
  261MPD2     N 3958   3.797   1.509  12.659  0.5750  0.3061  0.2442
  261MPD2    H5 3959   3.721   1.570  12.632  0.0486 -0.4343  0.0409
  261MPD2    N1 3960   4.027   1.270  13.009 -0.6495  0.3656  0.0216
  261MPD2    H7 3961   4.052   1.198  12.942  1.6577  0.9363  0.2637
  262TMC3    C1 3962   3.822   1.498  12.419  0.3765 -0.2878 -0.3509
  262TMC3    C2 3963   3.734   1.608  12.416  0.6970  0.6317  0.1349
  262TMC3    C3 3964   3.746   1.701  12.321  0.2791  0.0449 -0.1422
  262TMC3    C4 3965   3.905   1.468  12.310 -0.6540 -0.8822  0.2218
  262TMC3    C5 3966   3.913   1.567  12.216  0.1022  0.5146  0.1027
  262TMC3    C6 3967   3.845   1.689  12.229  0.5391 -0.1651  0.3413
  262TMC3     C 3968   3.871   1.456  12.555  1.1758  0.0570  0.2332
  262TMC3     O 3969   3.976   1.391  12.553 -0.5971 -0.4192  0.6505
  262TMC3     H 3970   3.660   1.623  12.494  1.1260  0.1445  0.6338
  262TMC3    H1 3971   3.963   1.377  12.310 -1.6476 -1.5078 -2.1049
  262TMC3    H2 3972   3.877   1.765  12.159  0.6540 -0.6095 -0.0945
  262TMC3    C7 3973   3.942   1.529  12.086  0.5277  0.1740  0.6852
  262TMC3    C8 3974   3.666   1.818  12.305  0.4686 -0.1324 -0.1061
  262TMC3    O1 3975   4.026   1.438  12.071  0.8433  0.2422  0.0054
  262TMC3    O2 3976   3.709   1.909  12.241 -0.5656 -0.2262 -0.2340
  263MPD2     C 3977   4.593   0.179  10.905  0.7620 -0.0654 -0.1202
  263MPD2    C1 3978   4.668   0.261  10.983  0.6109 -0.0987  0.2358
  263MPD2    C2 3979   4.706   0.382  10.932 -0.4182 -0.9985  0.8467
  263MPD2    C3 3980   4.686   0.415  10.800  0.0804  0.0845  0.3543
  263MPD2    C4 3981   4.622   0.324  10.717 -0.0538 -0.1256  0.0412
  263MPD2    C5 3982   4.575   0.202  10.770  0.3142 -0.1195  0.5871
  263MPD2     H 3983   0.038   0.455  10.995 -1.6310  0.7063 -0.1956
  263MPD2    H1 3984   4.586   0.343  10.617  0.9843  0.3602 -0.2395
  263MPD2    H2 3985   4.552   0.087  10.946  1.5865 -1.5937 -2.7185
  263MPD2    H3 3986   4.527   0.129  10.706  0.2410 -2.4884  3.3258
  263MPD2     N 3987   0.026   0.539  10.758 -0.3833  0.0522 -0.0910
  263MPD2    H5 3988   0.074   0.607  10.816 -0.5609 -0.9907  1.2796
  263MPD2    N1 3989   4.695   0.222  11.118 -0.0210  0.3523 -0.5221
  263MPD2    H7 3990   4.670   0.131  11.155 -0.2685  1.2529  1.5390
  264TMC3    C1 3991   0.128   0.699  10.620 -0.8232 -0.0278 -0.5450
  264TMC3    C2 3992   0.099   0.796  10.716 -0.3361  0.6497 -0.7834
  264TMC3    C3 3993   0.132   0.927  10.692 -0.2171  0.4521  0.0237
  264TMC3    C4 3994   0.202   0.723  10.513  0.0935 -0.3998  0.3633
  264TMC3    C5 3995   0.235   0.853  10.486  0.9627  0.5866 -0.3682
  264TMC3    C6 3996   0.204   0.950  10.581 -0.2502  0.0273  0.0627
  264TMC3     C 3997   0.061   0.570  10.627 -0.0857 -0.3426  0.1257
  264TMC3     O 3998   0.037   0.508  10.523 -0.0222  0.0891 -0.1946
  264TMC3     H 3999   0.030   0.766  10.794  4.6369 -0.4012  3.2118
  264TMC3    H1 4000   0.245   0.647  10.449 -3.4158 -2.1598  0.1132
  264TMC3    H2 4001   0.244   1.046  10.551  0.6319 -0.2973  0.1993
  264TMC3    C7 4002   0.300   0.883  10.358  0.1982 -0.2176  0.3168
  264TMC3    C8 4003   0.146   1.018  10.796  0.1830 -0.2327 -0.1842
  264TMC3    O1 4004   0.352   0.789  10.303 -0.7176 -0.1183 -0.1800
  264TMC3    O2 4005   0.160   1.137  10.762  0.1675 -0.4622  0.4494
  265MPD2     C 4006   2.252   1.297  15.693 -0.3905  0.0447  0.1343
  265MPD2    C1 4007   2.299   1.394  15.605  0.1385  0.4889 -0.5499
  265MPD2    C2 4008   2.347   1.362  15.478  0.5832 -0.2464 -0.0516
  265MPD2    C3 4009   2.344   1.231  15.442 -1.1228  0.2622  0.1415
  265MPD2    C4 4010   2.297   1.131  15.527  0.5375  0.0919  0.1793
  265MPD2    C5 4011   2.255   1.169  15.655  0.3900  0.0985 -0.4905
  265MPD2     H 4012   2.389   1.438  15.414 -0.3221 -0.6472 -1.1192
  265MPD2    H1 4013   2.286   1.028  15.496  1.1259 -0.2305  1.0386
  265MPD2    H2 4014   2.224   1.313  15.797  1.4674  0.0031  0.6433
  265MPD2    H3 4015   2.217   1.089  15.718 -1.3888  2.3929  1.3064
  265MPD2     N 4016   2.388   1.181  15.316 -1.1648 -0.1272 -0.1119
  265MPD2    H5 4017   2.370   1.082  15.300 -0.9367 -0.1664 -0.1152
  265MPD2    N1 4018   2.288   1.532  15.635 -0.0155 -0.1412 -0.6081
  265MPD2    H7 4019   2.309   1.600  15.563 -0.1460 -1.8207 -2.2296
  266TMC3    C1 4020   2.233   1.728  15.772  0.4151 -0.4145 -0.1679
  266TMC3    C2 4021   2.216   1.775  15.897 -0.1836 -0.7753 -0.2736
  266TMC3    C3 4022   2.183   1.905  15.917 -0.4266 -0.4220  0.1806
  266TMC3    C4 4023   2.231   1.808  15.666  0.8136  0.4943  0.4622
  266TMC3    C5 4024   2.186   1.938  15.689  0.4445 -0.2462 -0.2302
  266TMC3    C6 4025   2.158   1.981  15.812  0.1655  0.4012  0.6006
  266TMC3     C 4026   2.253   1.579  15.765  0.4789 -0.2329 -0.3483
  266TMC3     O 4027   2.210   1.520  15.866 -0.1893 -0.4682 -0.1829
  266TMC3     H 4028   2.213   1.714  15.987 -1.4907 -1.4126 -0.7440
  266TMC3    H1 4029   2.241   1.774  15.564  1.0190 -1.7720  1.2453
  266TMC3    H2 4030   2.118   2.081  15.828 -2.1190 -0.5414  0.7500
  266TMC3    C7 4031   2.157   2.015  15.563  0.0403  0.0373  0.1536
  266TMC3    C8 4032   2.114   1.948  16.037 -0.0777  0.4422 -0.0081
  266TMC3    O1 4033   2.194   1.970  15.455  0.1151  0.0236  0.2107
  266TMC3    O2 4034   2.052   1.864  16.098  0.4680 -0.6720 -0.0361
  267MPD2     C 4035   4.591   2.867   0.087  0.2581  0.5939  0.4560
  267MPD2    C1 4036   4.660   2.950   0.001  0.1078  0.1029 -0.4138
  267MPD2    C2 4037   4.615   2.949  17.541  0.2141  0.1648 -0.3897
  267MPD2    C3 4038   4.520   2.863  17.491  0.0477 -0.0201  0.4329
  267MPD2    C4 4039   4.456   2.780  17.580 -0.3773  0.4629 -0.6192
  267MPD2    C5 4040   4.496   2.777   0.037  0.4575 -0.2433 -0.3857
  267MPD2     H 4041   4.660   3.021  17.474  0.5647 -0.8229 -1.2076
  267MPD2    H1 4042   4.372   2.714  17.561 -0.7571  1.0663 -1.0010
  267MPD2    H2 4043   4.614   2.862   0.193  1.5638  0.7637  0.1786
  267MPD2    H3 4044   4.438   2.721   0.109 -0.0219 -1.7930 -1.9767
  267MPD2     N 4045   4.476   2.858  17.354 -0.0369 -0.6958 -0.0175
  267MPD2    H5 4046   4.427   2.776  17.319 -1.5791 -0.2683  1.1587
  267MPD2    N1 4047   0.029   3.044   0.062 -0.8567  0.3772  0.5597
  267MPD2    H7 4048   0.038   3.044   0.163  0.0970  0.2344  0.4817
  268TMC3    C1 4049   0.163   3.237   0.086  0.0357 -0.8671  0.7416
  268TMC3    C2 4050   0.181   3.363   0.037  0.2153 -0.9392  0.0509
  268TMC3    C3 4051   0.287   3.426   0.092  0.6079  0.6294  0.6265
  268TMC3    C4 4052   0.254   3.175   0.174 -0.3912  0.2033 -0.0551
  268TMC3    C5 4053   0.351   3.245   0.233 -0.4715 -0.4417  0.2771
  268TMC3    C6 4054   0.373   3.375   0.182 -0.2205  0.0009 -0.4695
  268TMC3     C 4055   0.094   3.145  17.672  0.1227  0.0507  0.3318
  268TMC3     O 4056   0.085   3.174  17.556  0.2038  0.2628  0.3948
  268TMC3     H 4057   0.124   3.404  17.628  0.0552 -4.1638 -1.4698
  268TMC3    H1 4058   0.243   3.071   0.202 -1.7758  0.7132  1.3243
  268TMC3    H2 4059   0.468   3.424   0.202 -1.5904  2.5906 -0.3759
  268TMC3    C7 4060   0.431   3.184   0.340 -0.2278  0.3462 -0.6677
  268TMC3    C8 4061   0.327   3.552   0.033 -0.4440  0.6775 -0.2702
  268TMC3    O1 4062   0.414   3.067   0.373 -0.0886  0.4119 -0.5251
  268TMC3    O2 4063   0.389   3.619   0.111 -0.2773  0.1382  0.8301
  269MPD2     C 4064   0.211   1.661  15.722  0.0150 -0.4113 -0.2598
  269MPD2    C1 4065   0.077   1.664  15.748  0.5166  0.5777  0.2268
  269MPD2    C2 4066   0.018   1.789  15.719  0.1925  0.0051  0.1702
  269MPD2    C3 4067   0.087   1.894  15.667 -0.1028  0.4830  0.2490
  269MPD2    C4 4068   0.220   1.877  15.628  0.4248 -0.1410 -0.1798
  269MPD2    C5 4069   0.276   1.756  15.653  0.4698 -0.0766  0.2105
  269MPD2     H 4070   4.632   1.800  15.748 -0.1464 -1.9219 -0.2775
  269MPD2    H1 4071   0.284   1.948  15.577  0.6523 -0.4868 -0.3724
  269MPD2    H2 4072   0.257   1.566  15.744  0.7709  0.6809  2.8818
  269MPD2    H3 4073   0.381   1.745  15.626  0.6732  2.9748 -0.3058
  269MPD2     N 4074   0.014   2.012  15.645  0.4093 -0.0423  0.5148
  269MPD2    H5 4075   4.631   2.000  15.654  0.3131  0.2129 -0.2936
  269MPD2    N1 4076   0.018   1.548  15.799 -0.2566 -0.6668  0.4278
  269MPD2    H7 4077   0.081   1.476  15.834  0.6253 -0.1017  0.0012
  270TMC3    C1 4078   4.567   1.379  15.813 -1.2589  0.0237 -0.0720
  270TMC3    C2 4079   4.456   1.332  15.747 -0.1383  0.0592 -0.4485
  270TMC3    C3 4080   4.404   1.203  15.786  0.7845  0.0327 -1.2409
  270TMC3    C4 4081   4.641   1.296  15.893 -0.2344 -0.3599  0.5976
  270TMC3    C5 4082   4.590   1.174  15.927  0.0735 -0.0884 -0.3943
  270TMC3    C6 4083   4.471   1.122  15.871  0.2341  0.2055  1.0897
  270TMC3     C 4084   4.604   1.518  15.780 -0.4391 -0.0245  0.0931
  270TMC3     O 4085   4.516   1.595  15.728 -0.4579  0.4684 -0.0048
  270TMC3     H 4086   4.397   1.397  15.684 -2.3940 -1.8791 -0.3480
  270TMC3    H1 4087   0.015   1.331  15.940 -0.4377 -0.5306  1.1209
  270TMC3    H2 4088   4.421   1.029  15.898 -1.4249  1.3339  1.9078
  270TMC3    C7 4089   4.688   1.082  15.976 -0.6712 -0.1976 -0.0738
  270TMC3    C8 4090   4.319   1.143  15.684 -1.1979 -0.8927 -0.1876
  270TMC3    O1 4091   0.089   1.114  15.969 -0.5237 -0.0452 -0.5254
  270TMC3    O2 4092   4.222   1.076  15.723  0.1246  0.4905 -0.0278
  271MPD2     C 4093   3.730   1.431  13.922  0.0218  0.0531  0.4578
  271MPD2    C1 4094   3.687   1.364  14.032  0.1616 -0.2014  0.2374
  271MPD2    C2 4095   3.556   1.367  14.070  0.4563 -0.2140  0.1552
  271MPD2    C3 4096   3.465   1.452  14.002 -0.7763 -0.3991 -0.2031
  271MPD2    C4 4097   3.516   1.541  13.905  0.9003  0.7205 -0.0033
  271MPD2    C5 4098   3.640   1.523  13.861  0.0732  0.2133  0.3098
  271MPD2     H 4099   3.524   1.310  14.157 -3.0857  1.4328 -0.0776
  271MPD2    H1 4100   3.449   1.613  13.859 -0.5680 -0.1438  0.7981
  271MPD2    H2 4101   3.822   1.417  13.866 -1.2433 -0.3023 -1.5072
  271MPD2    H3 4102   3.685   1.582  13.782 -0.0280  1.7328  1.3829
  271MPD2     N 4103   3.334   1.476  14.043 -0.5229 -0.1268  0.6195
  271MPD2    H5 4104   3.290   1.554  13.995  0.7971 -0.0424 -0.4373
  271MPD2    N1 4105   3.774   1.296  14.123  0.1372 -0.6352  0.2904
  271MPD2    H7 4106   3.728   1.242  14.195  0.3294 -0.6970  0.3678
  272TMC3    C1 4107   3.968   1.217  14.220 -0.1598 -0.1075 -0.4396
  272TMC3    C2 4108   4.090   1.166  14.199  0.4223  0.3386 -0.2963
  272TMC3    C3 4109   4.165   1.123  14.306  0.1530 -0.1780  0.6524
  272TMC3    C4 4110   3.924   1.239  14.348  0.4557  0.2601  0.0166
  272TMC3    C5 4111   3.998   1.191  14.454 -0.2876 -0.2205  0.0010
  272TMC3    C6 4112   4.116   1.131  14.439  0.4397 -0.0367  0.1464
  272TMC3     C 4113   3.908   1.284  14.109  0.1200  0.8379  0.0976
  272TMC3     O 4114   3.981   1.309  14.008  0.1499  0.1073 -0.6304
  272TMC3     H 4115   4.126   1.148  14.098 -1.4213 -1.2512 -0.6765
  272TMC3    H1 4116   3.839   1.304  14.365  0.8160  0.3571  1.4428
  272TMC3    H2 4117   4.149   1.071  14.523 -0.5661  1.0565  1.3143
  272TMC3    C7 4118   3.953   1.221  14.587  0.3302  0.5804  0.0548
  272TMC3    C8 4119   4.291   1.066  14.276  0.1358 -0.3176  0.7289
  272TMC3    O1 4120   3.834   1.242  14.604  0.4498  0.3276  1.1704
  272TMC3    O2 4121   4.321   1.056  14.159  0.6488  0.1553 -0.2902
  273MPD2     C 4122   0.056   4.282  11.850 -0.2493  0.1732  0.4755
  273MPD2    C1 4123   0.165   4.199  11.856 -0.6513  0.2997  0.0288
  273MPD2    C2 4124   0.160   4.082  11.786  0.3563  0.0302 -0.6165
  273MPD2    C3 4125   0.049   4.060  11.702  0.1218 -0.2961  0.0071
  273MPD2    C4 4126   4.663   4.154  11.691  1.0853 -0.3681  0.1127
  273MPD2    C5 4127   4.659   4.264  11.768 -0.3784  0.5899 -0.1266
  273MPD2     H 4128   0.237   4.006  11.799  1.0693  0.9772  0.6385
  273MPD2    H1 4129   4.585   4.138  11.617  2.6840  0.3203 -1.7179
  273MPD2    H2 4130   0.056   4.369  11.914  1.4632 -1.0341  2.1175
  273MPD2    H3 4131   4.579   4.337  11.777 -0.5482  0.3733  0.1091
  273MPD2     N 4132   0.049   3.961  11.603  1.0829 -0.3099 -0.3311
  273MPD2    H5 4133   4.687   3.948  11.541 -0.2162  3.0599  0.6309
  273MPD2    N1 4134   0.274   4.239  11.933  0.1576  0.8094 -0.4243
  273MPD2    H7 4135   0.288   4.333  11.968  2.5390  1.7434 -3.8302
  274TMC3    C1 4136   0.167   3.869  11.427  0.0812 -0.2049  0.3576
  274TMC3    C2 4137   0.053   3.878  11.354  0.2337  0.0796  0.3917
  274TMC3    C3 4138   0.062   3.907  11.225 -0.6385 -0.5130 -0.0676
  274TMC3    C4 4139   0.288   3.901  11.370  0.2754  0.0179 -0.4158
  274TMC3    C5 4140   0.293   3.947  11.246  0.1760  0.1062 -0.0172
  274TMC3    C6 4141   0.180   3.941  11.167 -0.3289  0.2290 -0.3771
  274TMC3     C 4142   0.160   3.889  11.567  0.3280  0.0083  0.4779
  274TMC3     O 4143   0.252   3.858  11.637  0.6035  0.3805 -0.7316
  274TMC3     H 4144   4.680   3.839  11.397  1.5421 -1.4959  1.7289
  274TMC3    H1 4145   0.358   3.940  11.442 -0.1922 -2.4264  1.3558
  274TMC3    H2 4146   0.187   3.977  11.065 -0.1078  0.2679 -0.3478
  274TMC3    C7 4147   0.327   4.085  11.257 -0.2830 -0.9476  0.0607
  274TMC3    C8 4148   4.664   3.918  11.131 -0.0322  0.0977 -0.1242
  274TMC3    O1 4149   0.289   4.141  11.356  0.1325 -0.8105  0.0845
  274TMC3    O2 4150   4.680   3.974  11.022 -0.0548  0.2651 -0.5384
  275MPD2     C 4151   0.336   2.589  14.427  0.0808  0.1293  0.2716
  275MPD2    C1 4152   0.273   2.559  14.545  0.5467  0.2958 -0.0861
  275MPD2    C2 4153   0.153   2.496  14.543  0.0174  0.4335 -0.3525
  275MPD2    C3 4154   0.102   2.449  14.428  0.6555  0.0109 -0.4273
  275MPD2    C4 4155   0.172   2.466  14.309  0.3727  0.1586 -0.1204
  275MPD2    C5 4156   0.294   2.527  14.312 -0.1679 -0.0920  0.0511
  275MPD2     H 4157   0.100   2.481  14.636 -0.3975 -1.1796 -0.8456
  275MPD2    H1 4158   0.135   2.429  14.214  1.3854 -4.3531  1.2124
  275MPD2    H2 4159   0.434   2.635  14.423 -0.5676  1.6590  2.1023
  275MPD2    H3 4160   0.351   2.540  14.221  0.2166 -0.4410  0.2434
  275MPD2     N 4161   4.698   2.366  14.429  0.1284  0.5240  0.7436
  275MPD2    H5 4162   4.668   2.324  14.342  0.3408  0.6551  0.6073
  275MPD2    N1 4163   0.336   2.584  14.668  0.0287  0.2782  0.2050
  275MPD2    H7 4164   0.292   2.536  14.746  3.1238 -2.7037  0.0829
  276TMC3    C1 4165   0.465   2.696  14.830 -0.7053  0.7621  0.2743
  276TMC3    C2 4166   0.420   2.597  14.917  0.1025 -0.3506  0.1030
  276TMC3    C3 4167   0.423   2.621  15.049  0.3515  0.2211 -0.0572
  276TMC3    C4 4168   0.511   2.818  14.875  0.7360 -0.7351  0.0163
  276TMC3    C5 4169   0.521   2.841  15.013 -0.5828  0.0302  0.4883
  276TMC3    C6 4170   0.465   2.743  15.102 -0.1676  0.4764 -0.7648
  276TMC3     C 4171   0.430   2.682  14.689  0.4531  0.8100  0.3938
  276TMC3     O 4172   0.463   2.775  14.615 -0.1443 -0.2082  0.0327
  276TMC3     H 4173   0.405   2.494  14.890 -2.5224  0.2892 -0.9059
  276TMC3    H1 4174   0.537   2.898  14.806  1.4219 -1.2578 -0.3337
  276TMC3    H2 4175   0.472   2.767  15.207  0.4905 -1.8877 -0.2858
  276TMC3    C7 4176   0.626   2.921  15.062  0.1517  0.2696  0.4234
  276TMC3    C8 4177   0.402   2.509  15.144  0.5255  0.5931  0.2731
  276TMC3    O1 4178   0.648   2.906  15.181 -0.5302  0.1720  0.2166
  276TMC3    O2 4179   0.373   2.546  15.258  0.7855  0.0135  0.1037
  277MPD2     C 4180   2.289   1.525  13.498  0.1084 -0.1649 -0.5771
  277MPD2    C1 4181   2.160   1.502  13.455  0.4016  0.2717  0.1530
  277MPD2    C2 4182   2.070   1.427  13.526 -0.2008  0.3824 -0.1116
  277MPD2    C3 4183   2.108   1.360  13.639  0.3115 -0.0371  0.8771
  277MPD2    C4 4184   2.238   1.385  13.686  0.7192 -0.0305  0.1736
  277MPD2    C5 4185   2.327   1.458  13.613  0.3965 -0.2659  0.1716
  277MPD2     H 4186   1.968   1.423  13.489 -0.0083  0.9865 -0.7064
  277MPD2    H1 4187   2.270   1.357  13.786  0.8371  1.4580  0.5489
  277MPD2    H2 4188   2.368   1.586  13.456  0.8963 -1.8102 -1.4851
  277MPD2    H3 4189   2.426   1.467  13.656 -0.1880 -1.1021  1.7026
  277MPD2     N 4190   2.017   1.273  13.693  0.0638 -0.6181 -0.2776
  277MPD2    H5 4191   1.921   1.295  13.669  0.1255  1.2534  1.2092
  277MPD2    N1 4192   2.115   1.560  13.332 -0.0956 -0.1365 -0.3034
  277MPD2    H7 4193   2.016   1.577  13.318 -0.2023  0.2888  0.9440
  278TMC3    C1 4194   1.956   1.066  13.787  0.2222 -0.0284 -0.5584
  278TMC3    C2 4195   2.005   0.938  13.797  0.8593 -0.8896 -0.0384
  278TMC3    C3 4196   1.914   0.833  13.772  0.0313  0.0347  0.5961
  278TMC3    C4 4197   1.824   1.096  13.755  0.8115 -0.2018  1.0821
  278TMC3    C5 4198   1.742   0.987  13.724 -0.1843 -0.3931  0.6200
  278TMC3    C6 4199   1.786   0.855  13.725 -0.1405 -0.6319 -0.5008
  278TMC3     C 4200   2.056   1.161  13.767  0.3303 -0.3506 -0.4249
  278TMC3     O 4201   2.167   1.119  13.796  0.0271  0.4118 -0.4587
  278TMC3     H 4202   2.110   0.909  13.802  0.8612 -0.8506  0.1232
  278TMC3    H1 4203   1.788   1.196  13.735  1.0522 -0.1209  1.0501
  278TMC3    H2 4204   1.717   0.778  13.695 -1.5758  0.5758 -0.3245
  278TMC3    C7 4205   1.626   1.006  13.636 -0.7111  0.5764 -0.4044
  278TMC3    C8 4206   1.969   0.702  13.750  0.3695  0.0796  0.0093
  278TMC3    O1 4207   1.616   0.917  13.549 -0.5735  0.3257  0.4021
  278TMC3    O2 4208   2.079   0.679  13.801  0.5944  0.0621  0.5571
  279MPD2     C 4209   1.365   1.356   0.490  0.4749 -0.8750 -0.3327
  279MPD2    C1 4210   1.298   1.473   0.470 -0.8963 -0.1994  0.2706
  279MPD2    C2 4211   1.290   1.534   0.351  0.0865 -0.6375 -0.0297
  279MPD2    C3 4212   1.365   1.486   0.248  0.5852  0.1211 -0.6255
  279MPD2    C4 4213   1.444   1.373   0.263 -0.4552  0.4260  0.0805
  279MPD2    C5 4214   1.437   1.310   0.385  0.9542 -0.7603 -0.6060
  279MPD2     H 4215   1.230   1.624   0.350  1.7921  0.4878 -0.6013
  279MPD2    H1 4216   1.515   1.330   0.193  2.0047  1.7806  1.7316
  279MPD2    H2 4217   1.384   1.306   0.584  3.9870  0.5078 -0.2706
  279MPD2    H3 4218   1.487   1.214   0.395 -0.8678 -1.5855  0.5914
  279MPD2     N 4219   1.366   1.552   0.121 -0.1231 -0.1659 -0.2031
  279MPD2    H5 4220   1.419   1.503   0.049  0.9119  0.3631  0.2103
  279MPD2    N1 4221   1.247   1.538   0.590  0.0238 -0.5514 -0.2596
  279MPD2    H7 4222   1.287   1.507   0.677 -2.1365  0.0333  0.9412
  280TMC3    C1 4223   1.161   1.704   0.733 -0.5688  0.8143  0.0034
  280TMC3    C2 4224   1.264   1.671   0.821  0.7426 -0.4490  0.4852
  280TMC3    C3 4225   1.277   1.754   0.928 -0.5031  0.4060  0.7341
  280TMC3    C4 4226   1.066   1.798   0.756  0.0370  0.2416  0.6284
  280TMC3    C5 4227   1.077   1.872   0.869 -0.4834 -0.4541 -0.1732
  280TMC3    C6 4228   1.189   1.855   0.954 -0.5139  0.3174 -0.2601
  280TMC3     C 4229   1.156   1.645   0.602 -0.4506 -0.3870 -0.2763
  280TMC3     O 4230   1.084   1.698   0.520 -0.5856  0.6083 -0.2423
  280TMC3     H 4231   1.343   1.600   0.803  1.2509  0.0401  0.7809
  280TMC3    H1 4232   0.978   1.802   0.693 -0.3209 -0.4731  1.0913
  280TMC3    H2 4233   1.208   1.926   1.034  2.7411 -0.0243 -0.7655
  280TMC3    C7 4234   0.999   1.995   0.877 -0.2127 -0.2383  0.0362
  280TMC3    C8 4235   1.391   1.727   1.021 -0.1107 -0.2417  0.5165
  280TMC3    O1 4236   0.992   2.042   0.992 -0.1394  0.3253  0.5656
  280TMC3    O2 4237   1.476   1.644   0.991 -0.6770 -0.3409 -0.1650
  281TMC3    C1 4238   0.255   1.665  12.856  0.1165  0.8309  0.4355
  281TMC3    C2 4239   0.201   1.690  12.740 -0.3180  0.1653  0.5306
  281TMC3    C3 4240   0.183   1.583  12.653 -0.3749  0.1456 -0.6729
  281TMC3    C4 4241   0.281   1.544  12.902  0.3034 -0.9356 -0.1518
  281TMC3    C5 4242   0.268   1.443  12.811  0.7460 -0.2938 -0.6156
  281TMC3    C6 4243   0.224   1.464  12.684  0.0488  0.0091 -0.0558
  281TMC3     C 4244   0.238   1.760  12.963 -0.7351 -0.2072 -0.1249
  281TMC3     O 4245   0.304   1.747  13.070 -1.4308 -0.0473 -0.0333
  281TMC3     H 4246   0.193   1.792  12.703  1.4749  0.0739 -0.0905
  281TMC3    H1 4247   0.318   1.539  13.004  0.6731 -0.1272 -0.2428
  281TMC3    H2 4248   0.200   1.389  12.610 -0.5928 -2.4580  2.6949
  281TMC3    C7 4249   0.258   1.305  12.854  0.1649 -0.2557  0.6200
  281TMC3    C8 4250   0.188   1.611  12.509  0.2338  1.0426  0.5728
  281TMC3    O1 4251   0.259   1.216  12.767 -0.2160  0.0600 -0.1738
  281TMC3    O2 4252   0.277   1.565  12.441  0.7011  0.5447 -1.0362
  282MPD2     C 4253   2.361   3.138  15.204  0.4201 -0.4761 -0.1187
  282MPD2    C1 4254   2.228   3.157  15.225  0.5227 -0.2555  0.4290
  282MPD2    C2 4255   2.142   3.131  15.116  0.2445  0.6790  0.2502
  282MPD2    C3 4256   2.191   3.113  14.988 -0.3329  0.2311 -0.0106
  282MPD2    C4 4257   2.327   3.105  14.968 -0.2989 -0.4753 -0.7017
  282MPD2    C5 4258   2.408   3.104  15.084  0.1743  0.0826 -0.2509
  282MPD2     H 4259   2.039   3.146  15.144  0.6023  0.2104  1.8079
  282MPD2    H1 4260   2.363   3.093  14.866 -0.7237  1.9311 -1.1374
  282MPD2    H2 4261   2.432   3.129  15.285  0.2010  0.3671  0.1667
  282MPD2    H3 4262   2.510   3.068  15.075  0.4982  0.5321  1.6540
  282MPD2     N 4263   2.097   3.103  14.884  0.6552  0.0304  0.4894
  282MPD2    H5 4264   1.999   3.119  14.904  0.5006  0.5260 -0.7034
  282MPD2    N1 4265   2.179   3.182  15.355  0.3216 -0.7284  0.0362
  282MPD2    H7 4266   2.082   3.160  15.375  0.4915 -1.5020 -0.0082
  283TMC3    C1 4267   2.190   3.237  15.582 -0.2749 -0.5461 -0.1600
  283TMC3    C2 4268   2.223   3.345  15.658  0.3383 -0.3842  0.5844
  283TMC3    C3 4269   2.182   3.346  15.785  0.0527  0.1792  0.4706
  283TMC3    C4 4270   2.106   3.137  15.619 -0.1369 -0.3967  0.4506
  283TMC3    C5 4271   2.067   3.136  15.750  0.0471 -0.1027  0.0963
  283TMC3    C6 4272   2.112   3.236  15.837  0.4763 -0.1238 -0.6949
  283TMC3     C 4273   2.255   3.237  15.456  0.0188 -0.5636 -0.4404
  283TMC3     O 4274   2.363   3.298  15.449 -0.5138 -0.0282 -0.7439
  283TMC3     H 4275   2.279   3.423  15.608  0.9890 -1.2522 -0.0394
  283TMC3    H1 4276   2.086   3.060  15.546  1.1285 -0.5708  0.2970
  283TMC3    H2 4277   2.080   3.247  15.940  0.1786  0.8682 -0.8891
  283TMC3    C7 4278   1.942   3.073  15.795 -0.3066 -0.3760 -0.2692
  283TMC3    C8 4279   2.177   3.475  15.850 -0.4924  0.0054  0.6172
  283TMC3    O1 4280   1.879   3.131  15.884  0.5437 -0.4511  0.4191
  283TMC3    O2 4281   2.155   3.477  15.971  0.2634 -0.0790  0.3514
  284MPD2     C 4282   0.182   2.426  11.883  0.1797 -0.1372 -0.2775
  284MPD2    C1 4283   0.108   2.385  11.777 -0.1347  0.2909 -0.1654
  284MPD2    C2 4284   0.021   2.279  11.790  0.1818  0.2492  0.3953
  284MPD2    C3 4285   4.717   2.215  11.915 -0.6928  0.1386 -0.2169
  284MPD2    C4 4286   0.069   2.267  12.023 -0.7723  0.4956 -0.0850
  284MPD2    C5 4287   0.163   2.361  12.006 -0.4311  0.0156  0.5311
  284MPD2     H 4288   4.674   2.239  11.712 -0.9258 -1.0675  1.9923
  284MPD2    H1 4289   0.060   2.241  12.128 -0.4440 -1.0025 -0.4285
  284MPD2    H2 4290   0.256   2.504  11.869  0.5150 -0.2946  0.6240
  284MPD2    H3 4291   0.226   2.391  12.088 -1.2587 -1.5053  1.7261
  284MPD2     N 4292   4.629   2.103  11.933 -0.7923 -0.5687  0.3810
  284MPD2    H5 4293   4.600   2.054  11.849  0.1889 -2.7338  1.2759
  284MPD2    N1 4294   0.117   2.441  11.644  0.6565  0.1870  0.3511
  284MPD2    H7 4295   0.045   2.418  11.577  0.4429 -2.6645  1.5531
  285TMC3    C1 4296   0.213   2.567  11.464 -0.0125  0.0270  0.7246
  285TMC3    C2 4297   0.256   2.460  11.399  0.0133  0.1210  0.7181
  285TMC3    C3 4298   0.352   2.482  11.302  0.0100  0.2775 -0.6986
  285TMC3    C4 4299   0.242   2.697  11.431  0.0502 -0.5384 -0.5149
  285TMC3    C5 4300   0.338   2.715  11.334  0.4023 -0.0820  0.7016
  285TMC3    C6 4301   0.396   2.607  11.266  0.4747  0.7575 -0.5321
  285TMC3     C 4302   0.203   2.544  11.605  0.0755  0.2217  0.0899
  285TMC3     O 4303   0.279   2.613  11.672  0.0631  0.1753 -0.7449
  285TMC3     H 4304   0.230   2.361  11.435  0.1157  0.4432  1.6878
  285TMC3    H1 4305   0.213   2.773  11.503  4.5505  0.2330  0.4632
  285TMC3    H2 4306   0.462   2.623  11.182 -1.9374  0.1747 -2.5493
  285TMC3    C7 4307   0.385   2.845  11.295 -0.3183 -0.0544 -0.0562
  285TMC3    C8 4308   0.376   2.361  11.216  0.3080 -0.5689 -0.3477
  285TMC3    O1 4309   0.505   2.856  11.270 -0.1125 -0.0445 -0.1205
  285TMC3    O2 4310   0.292   2.273  11.223 -0.4238 -0.4776  0.0962
  286MPD2     C 4311   4.590   1.386   1.647  0.0093 -0.3965  0.3173
  286MPD2    C1 4312   4.632   1.369   1.517  0.5645 -0.7505 -0.0618
  286MPD2    C2 4313   0.028   1.310   1.480 -0.2450  0.2350  0.2891
  286MPD2    C3 4314   0.109   1.263   1.581 -0.2787 -0.3986 -0.1631
  286MPD2    C4 4315   0.075   1.284   1.715  0.0717 -1.1030  0.1782
  286MPD2    C5 4316   4.678   1.341   1.744 -0.5170 -0.3080  0.6742
  286MPD2     H 4317   0.048   1.313   1.373 -0.5162 -0.0444  0.2308
  286MPD2    H1 4318   0.140   1.261   1.798  3.0987 -1.4733 -2.2612
  286MPD2    H2 4319   4.509   1.448   1.683 -0.3113 -0.6256 -0.0066
  286MPD2    H3 4320   4.674   1.365   1.850  0.5509 -1.3438  0.9473
  286MPD2     N 4321   0.230   1.201   1.560 -0.0299 -0.4642  1.1270
  286MPD2    H5 4322   0.276   1.177   1.647  0.1907  1.2307  1.4748
  286MPD2    N1 4323   4.558   1.413   1.403  0.0311  0.4946 -0.1093
  286MPD2    H7 4324   4.604   1.390   1.315  0.1477  1.7717 -0.3749
  287TMC3    C1 4325   0.399   1.099   1.450 -0.3917 -0.2691 -0.0808
  287TMC3    C2 4326   0.444   1.035   1.339  0.0046 -0.2117 -0.2698
  287TMC3    C3 4327   0.569   0.981   1.333 -0.6935  0.0635 -0.0145
  287TMC3    C4 4328   0.483   1.123   1.559 -0.4469 -0.2667  0.4036
  287TMC3    C5 4329   0.610   1.067   1.552 -0.0564 -0.2047  0.3948
  287TMC3    C6 4330   0.656   1.000   1.441  0.2900 -0.2196  0.3932
  287TMC3     C 4331   0.277   1.169   1.433 -0.0324  0.3875 -0.1129
  287TMC3     O 4332   0.228   1.188   1.320 -0.0328  0.4274 -0.0992
  287TMC3     H 4333   0.379   1.031   1.253 -1.0719 -1.6315  0.6141
  287TMC3    H1 4334   0.458   1.175   1.652 -0.2816  1.1677 -0.3529
  287TMC3    H2 4335   0.752   0.949   1.444  0.4658 -0.0341 -2.1464
  287TMC3    C7 4336   0.698   1.080   1.669 -0.2444  0.2739  0.7132
  287TMC3    C8 4337   0.621   0.903   1.218 -0.3227 -0.5398 -0.7055
  287TMC3    O1 4338   0.658   1.144   1.764  0.5647 -0.4705 -0.4647
  287TMC3    O2 4339   0.719   0.833   1.238 -0.6593 -0.0650 -0.1754
  288TMC3    C1 4340   2.850   0.766  14.645  0.0177  0.4643 -0.0014
  288TMC3    C2 4341   2.742   0.817  14.699 -0.2873  0.7855  0.3920
  288TMC3    C3 4342   2.623   0.810  14.634 -0.1468  0.2731 -0.0094
  288TMC3    C4 4343   2.851   0.713  14.523 -0.5985 -0.4508 -0.0122
  288TMC3    C5 4344   2.730   0.702  14.456  0.0661  0.3552 -0.5173
  288TMC3    C6 4345   2.615   0.748  14.516  0.2250 -0.7685 -0.4686
  288TMC3     C 4346   2.974   0.773  14.732 -0.0001  0.5114  0.7259
  288TMC3     O 4347   2.947   0.775  14.854  0.4069 -0.1096  0.4079
  288TMC3     H 4348   2.745   0.874  14.790 -2.9985  0.6272  0.5671
  288TMC3    H1 4349   2.942   0.662  14.493 -1.7499 -1.8253 -1.2051
  288TMC3    H2 4350   2.518   0.734  14.471  0.5940 -0.9874 -1.1957
  288TMC3    C7 4351   2.728   0.624  14.341 -0.1253 -0.1441 -0.8666
  288TMC3    C8 4352   2.507   0.855  14.705  0.3253 -0.2364 -0.0131
  288TMC3    O1 4353   2.830   0.561  14.312  0.4071 -0.1113 -0.2994
  288TMC3    O2 4354   2.519   0.956  14.769  0.7930  0.7928  0.0267
  289MPD2     C 4355   2.718   0.090  14.290 -0.3322 -0.6413 -0.3665
  289MPD2    C1 4356   2.672   0.179  14.381 -0.1170 -0.7948 -0.3897
  289MPD2    C2 4357   2.533   0.199  14.387 -0.9033 -0.1547 -0.1554
  289MPD2    C3 4358   2.447   0.125  14.299  0.0426 -0.1020 -0.2961
  289MPD2    C4 4359   2.495   0.026  14.221  0.0449  0.5505 -0.7381
  289MPD2    C5 4360   2.631   0.012  14.218  0.4493  0.1950 -0.3487
  289MPD2     H 4361   2.490   0.275  14.452 -0.1143  0.4553 -0.3422
  289MPD2    H1 4362   2.439   4.686  14.149 -0.3949  1.5087 -1.1653
  289MPD2    H2 4363   2.824   0.082  14.267 -0.2108 -1.5661  0.5041
  289MPD2    H3 4364   2.683   4.658  14.155  3.6721  3.4234 -1.3589
  289MPD2     N 4365   2.312   0.158  14.286 -0.0536  0.1092 -0.6888
  289MPD2    H5 4366   2.270   0.103  14.213  0.2634  0.3477 -1.0521
  289MPD2    N1 4367   2.764   0.243  14.473 -0.5173  0.0812 -0.4197
  289MPD2    H7 4368   2.864   0.227  14.459 -0.5281 -2.0000  1.9389
  290TMC3    C1 4369   2.095   0.233  14.349  0.7845 -0.5682 -0.3990
  290TMC3    C2 4370   2.022   0.341  14.377  0.0178 -0.6737  0.0375
  290TMC3    C3 4371   1.890   0.344  14.351  0.6723 -0.7763 -0.3671
  290TMC3    C4 4372   2.036   0.121  14.293  0.0264 -0.1954  0.0580
  290TMC3    C5 4373   1.902   0.123  14.287 -0.1445  0.0881 -0.3298
  290TMC3    C6 4374   1.824   0.236  14.305 -0.0532 -0.7801  0.0650
  290TMC3     C 4375   2.242   0.256  14.355  0.1636  0.5097 -0.9526
  290TMC3     O 4376   2.271   0.346  14.432 -0.3463 -0.3911  0.0687
  290TMC3     H 4377   2.074   0.428  14.413  0.0022 -0.7371  0.2130
  290TMC3    H1 4378   2.087   0.032  14.257  0.6961  0.4122 -0.4961
  290TMC3    H2 4379   1.717   0.235  14.289 -0.1721 -0.1790  0.8368
  290TMC3    C7 4380   1.827   0.003  14.266 -0.9731 -0.3990  0.1454
  290TMC3    C8 4381   1.808   0.440  14.423 -0.6815  0.2120  0.3332
  290TMC3    O1 4382   1.705   0.010  14.249 -0.3099 -0.2883 -0.4592
  290TMC3    O2 4383   1.699   0.393  14.463  0.6720  0.3950 -0.2955
  291MPD2     C 4384   2.184   0.593   0.788 -0.5669  0.1610 -0.0527
  291MPD2    C1 4385   2.099   0.504   0.716 -0.8339  0.1894  0.7099
  291MPD2    C2 4386   2.062   0.537   0.586 -1.0183 -0.2957 -0.1250
  291MPD2    C3 4387   2.117   0.645   0.526 -0.5998 -0.1280 -0.2395
  291MPD2    C4 4388   2.212   0.722   0.592  0.4922 -0.0146 -0.5348
  291MPD2    C5 4389   2.243   0.695   0.723 -0.3945 -1.2054  0.7721
  291MPD2     H 4390   2.000   0.465   0.534  0.3071 -1.7659  0.3211
  291MPD2    H1 4391   2.267   0.796   0.535  0.6112  1.0452  0.9492
  291MPD2    H2 4392   2.206   0.568   0.891  1.9518 -0.4298 -0.7328
  291MPD2    H3 4393   2.310   0.763   0.773 -1.0607  0.9914 -1.2904
  291MPD2     N 4394   2.094   0.678   0.389  0.8418  0.2620 -0.9660
  291MPD2    H5 4395   2.153   0.753   0.356  0.9190  2.1999  3.6136
  291MPD2    N1 4396   2.078   0.381   0.782 -0.0600  0.4850 -0.5992
  291MPD2    H7 4397   2.120   0.370   0.874 -0.3712  0.9249 -0.4021
  292TMC3    C1 4398   2.001   0.158   0.814 -0.0338 -0.6523  0.5376
  292TMC3    C2 4399   1.973   0.186   0.940 -0.4468  0.0610 -0.0243
  292TMC3    C3 4400   1.927   0.076   1.014  0.3641 -0.2898  0.3269
  292TMC3    C4 4401   1.979   0.039   0.750  0.3819 -0.1678  1.2658
  292TMC3    C5 4402   1.940   4.655   0.827  0.2083  0.3342  0.1718
  292TMC3    C6 4403   1.909   4.670   0.958 -0.2099 -0.1517 -0.5774
  292TMC3     C 4404   2.014   0.276   0.731 -0.0494  0.2810  0.0569
  292TMC3     O 4405   1.982   0.246   0.617 -0.4958 -0.0573  0.2240
  292TMC3     H 4406   1.988   0.282   0.989 -3.0148 -1.3713  3.5686
  292TMC3    H1 4407   2.007   0.033   0.646 -0.8287 -1.7191  1.0255
  292TMC3    H2 4408   1.906   4.582   1.021  1.5579  1.9209  2.3601
  292TMC3    C7 4409   1.905   4.535   0.751  0.3552 -0.6460 -0.0384
  292TMC3    C8 4410   1.896   0.082   1.157  0.2158  1.2241 -0.0255
  292TMC3    O1 4411   1.947   4.510   0.639 -0.0492 -0.6621  0.1523
  292TMC3    O2 4412   1.953   0.162   1.230  0.2764 -0.0806 -0.1975
  293MPD2     C 4413   3.553   1.073  12.599  0.2062  0.0589  0.1956
  293MPD2    C1 4414   3.440   1.087  12.677 -0.6898  0.0384  0.3457
  293MPD2    C2 4415   3.452   1.128  12.806 -0.0746  0.1928 -0.2084
  293MPD2    C3 4416   3.579   1.123  12.871 -0.5485 -0.0284  0.1002
  293MPD2    C4 4417   3.692   1.101  12.798  0.1924  0.1579  0.0846
  293MPD2    C5 4418   3.670   1.077  12.663  0.0010 -0.1794 -0.3556
  293MPD2     H 4419   3.359   1.154  12.855  0.5150  0.0084  1.0172
  293MPD2    H1 4420   3.791   1.120  12.838  0.0029  1.6390 -0.1497
  293MPD2    H2 4421   3.549   1.048  12.494  1.9875 -2.8226  0.8055
  293MPD2    H3 4422   3.759   1.062  12.603 -0.5641  0.5798 -1.3953
  293MPD2     N 4423   3.596   1.171  13.002  0.4343  0.0766 -0.0276
  293MPD2    H5 4424   3.516   1.220  13.040 -0.1904  0.0355 -1.2945
  293MPD2    N1 4425   3.319   1.064  12.613 -0.2477  0.1188  0.6650
  293MPD2    H7 4426   3.323   1.037  12.515  0.3349  2.5200  0.0320
  294TMC3    C1 4427   3.082   1.037  12.585 -0.2100 -0.1716 -0.2384
  294TMC3    C2 4428   2.963   1.018  12.654  0.1687 -1.2212 -0.4918
  294TMC3    C3 4429   2.849   1.013  12.575  0.8707 -0.0764 -0.3659
  294TMC3    C4 4430   3.087   1.007  12.446 -0.3467  0.7999 -0.6830
  294TMC3    C5 4431   2.970   0.996  12.381  0.2187 -0.4038 -0.5353
  294TMC3    C6 4432   2.845   1.006  12.441  0.1809 -0.2366 -0.9774
  294TMC3     C 4433   3.195   1.053  12.675 -0.0917  0.6831 -0.4516
  294TMC3     O 4434   3.166   1.043  12.797 -0.0227  0.2262  0.5878
  294TMC3     H 4435   2.946   1.049  12.756 -0.4108 -3.2135  0.0279
  294TMC3    H1 4436   3.177   0.997  12.387 -0.0354 -0.0938 -0.0483
  294TMC3    H2 4437   2.754   1.025  12.385 -1.7090 -0.0459  2.1913
  294TMC3    C7 4438   2.953   0.964  12.241 -0.2008  0.6974 -0.4637
  294TMC3    C8 4439   2.720   0.999  12.637 -0.5511 -0.6464 -0.9210
  294TMC3    O1 4440   2.844   0.920  12.212  0.0817 -0.0329  0.4653
  294TMC3    O2 4441   2.702   1.057  12.743 -0.4816  0.1229 -0.0549
  295MPD2     C 4442   3.314   4.588  17.329  0.8361  0.4062 -0.2398
  295MPD2    C1 4443   3.380   4.685  17.400  0.0558 -1.4188  0.4000
  295MPD2    C2 4444   3.314   0.026  17.505 -0.1998 -0.4275 -0.0812
  295MPD2    C3 4445   3.184   4.712  17.545 -0.8585 -0.6374 -0.0669
  295MPD2    C4 4446   3.119   4.623  17.457  0.1876  0.2685 -0.1475
  295MPD2    C5 4447   3.184   4.554  17.359  0.6332  0.2603  0.0812
  295MPD2     H 4448   3.366   0.107  17.555  0.1870 -0.2282 -0.7940
  295MPD2    H1 4449   3.019   4.586  17.478  1.0076 -1.6589  0.2768
  295MPD2    H2 4450   3.365   4.537  17.248 -1.3308  0.2402 -1.4933
  295MPD2    H3 4451   3.135   4.472  17.308 -0.7189  0.7267  0.6057
  295MPD2     N 4452   3.114   0.059  17.648 -0.0654  0.3098 -0.5500
  295MPD2    H5 4453   3.018   0.031  17.668 -0.2159  0.6106 -0.8507
  295MPD2    N1 4454   3.517   0.009  17.380  0.0553 -0.1369 -0.2204
  295MPD2    H7 4455   3.547   0.082  17.445  0.3171 -0.4514  0.0150
  296TMC3    C1 4456   3.100   0.175   0.177  0.3847  0.8335  1.0692
  296TMC3    C2 4457   3.119   0.300   0.239  0.3652 -0.4789 -0.3839
  296TMC3    C3 4458   3.113   0.300   0.375 -0.6412  0.2459  0.2946
  296TMC3    C4 4459   3.070   0.066   0.249  0.4243 -0.1678 -0.0334
  296TMC3    C5 4460   3.052   0.075   0.388  0.6940  0.3898  1.2896
  296TMC3    C6 4461   3.077   0.194   0.454 -0.6014  0.2070 -0.1185
  296TMC3     C 4462   3.171   0.150   0.056 -0.0388 -0.0653 -0.2323
  296TMC3     O 4463   3.256   0.233   0.020 -0.2035 -0.1724  0.0028
  296TMC3     H 4464   3.134   0.391   0.182 -2.0659 -1.5831 -2.7683
  296TMC3    H1 4465   3.038   4.698   0.190  0.3226  1.5796 -2.5100
  296TMC3    H2 4466   3.066   0.207   0.561  0.4998  0.8394 -0.0795
  296TMC3    C7 4467   2.958   4.697   0.446  0.0663  0.3714  1.1763
  296TMC3    C8 4468   3.190   0.405   0.441  0.3079  0.1387 -0.2458
  296TMC3    O1 4469   2.890   4.627   0.369 -0.0179 -0.1554  0.2589
  296TMC3    O2 4470   3.237   0.492   0.368 -0.0436 -0.6022  0.1373
  297MPD2     C 4471   1.449   1.836  16.318  0.5682  0.2475 -0.1973
  297MPD2    C1 4472   1.351   1.933  16.338 -0.2257 -0.5318  0.4606
  297MPD2    C2 4473   1.386   2.066  16.320 -0.8040  0.2295  0.6161
  297MPD2    C3 4474   1.514   2.102  16.271 -0.1407  0.1328 -0.7386
  297MPD2    C4 4475   1.599   2.001  16.247 -0.1645  0.3113  0.5022
  297MPD2    C5 4476   1.579   1.878  16.288  0.4899  0.1534  0.0762
  297MPD2     H 4477   1.311   2.142  16.340 -0.0543  0.6290  1.9662
  297MPD2    H1 4478   1.695   2.023  16.201 -1.1767  1.6579 -0.9577
  297MPD2    H2 4479   1.425   1.735  16.348 -1.4327  1.0719  0.9567
  297MPD2    H3 4480   1.661   1.810  16.270 -0.0761 -0.8250  1.2338
  297MPD2     N 4481   1.563   2.232  16.238 -0.3655 -0.1395 -0.6889
  297MPD2    H5 4482   1.658   2.238  16.203  0.6773  3.3146  2.6920
  297MPD2    N1 4483   1.229   1.895  16.387  0.2484 -0.0036  0.0518
  297MPD2    H7 4484   1.184   1.975  16.429  1.2764  0.3281  0.5062
  298TMC3    C1 4485   1.042   1.764  16.428  0.2191  0.0631  0.2038
  298TMC3    C2 4486   0.949   1.717  16.339 -0.3787  0.5394 -0.3618
  298TMC3    C3 4487   0.820   1.737  16.365 -0.6690  0.1508  0.0346
  298TMC3    C4 4488   1.007   1.834  16.541  1.2644 -0.8104  0.5276
  298TMC3    C5 4489   0.873   1.843  16.566  0.5622  0.3470 -0.2931
  298TMC3    C6 4490   0.782   1.772  16.489  0.4686  0.1392  0.5010
  298TMC3     C 4491   1.172   1.771  16.380  0.6112 -0.4148 -0.1099
  298TMC3     O 4492   1.202   1.672  16.318 -0.2807  0.2972 -0.1446
  298TMC3     H 4493   0.989   1.677  16.246 -1.6063 -0.5417 -0.4232
  298TMC3    H1 4494   1.080   1.872  16.612 -0.3936  1.2928  1.1065
  298TMC3    H2 4495   0.677   1.759  16.510  0.9665 -1.6768  1.8518
  298TMC3    C7 4496   0.823   1.966  16.612  0.4662 -0.1850  0.7365
  298TMC3    C8 4497   0.728   1.789  16.263  0.1104 -0.4228 -0.5503
  298TMC3    O1 4498   0.896   2.039  16.676 -0.5506 -0.2874 -0.1870
  298TMC3    O2 4499   0.628   1.849  16.300 -0.6803 -0.2761  0.0834
  299MPD2     C 4500   1.629   1.157  10.315  0.2216 -0.2516 -0.2568
  299MPD2    C1 4501   1.569   1.281  10.293  0.1813 -0.8673 -0.2157
  299MPD2    C2 4502   1.451   1.287  10.216  0.1338 -0.5712  0.7957
  299MPD2    C3 4503   1.389   1.171  10.181 -0.2693 -0.0030  0.3690
  299MPD2    C4 4504   1.446   1.045  10.200 -0.3948  0.1752  0.4481
  299MPD2    C5 4505   1.567   1.043  10.268 -0.4734 -0.0577 -0.0856
  299MPD2     H 4506   1.410   1.385  10.199  1.2535 -0.1952  0.2429
  299MPD2    H1 4507   1.401   0.948  10.182  1.3783 -0.5835  0.0835
  299MPD2    H2 4508   1.724   1.155  10.367 -1.1102  0.1044  2.2011
  299MPD2    H3 4509   1.616   0.947  10.280 -1.9905 -0.9673 -1.1589
  299MPD2     N 4510   1.262   1.162  10.118  0.0046  0.2640  0.0479
  299MPD2    H5 4511   1.223   1.068  10.116 -2.0921  1.1249  0.6284
  299MPD2    N1 4512   1.642   1.392  10.349  0.0813 -0.1669 -0.0416
  299MPD2    H7 4513   1.717   1.369  10.413  0.9064 -0.6549 -1.1731
  300TMC3    C1 4514   1.050   1.247  10.051 -0.5872  0.2569 -0.0491
  300TMC3    C2 4515   0.984   1.351   9.990 -0.5704  0.0893 -0.3285
  300TMC3    C3 4516   0.857   1.390  10.019  0.0679  0.2645 -0.1337
  300TMC3    C4 4517   0.992   1.181  10.157 -0.8534  0.5354 -0.3115
  300TMC3    C5 4518   0.870   1.226  10.188 -0.1509  0.8988  0.3655
  300TMC3    C6 4519   0.792   1.323  10.125 -0.0170  0.2375  0.0093
  300TMC3     C 4520   1.196   1.267  10.065  0.0809 -0.2811 -0.3249
  300TMC3     O 4521   1.239   1.377  10.044 -0.0426  0.1459  0.0938
  300TMC3     H 4522   1.042   1.404   9.915  0.3159 -1.1956 -0.5517
  300TMC3    H1 4523   1.039   1.100  10.212 -0.3891  1.0215  0.0042
  300TMC3    H2 4524   0.693   1.355  10.157 -0.2597  0.2297 -0.7276
  300TMC3    C7 4525   0.808   1.139  10.286 -0.1838  0.8736 -0.1894
  300TMC3    C8 4526   0.804   1.509   9.969  0.8760 -0.2108 -0.1386
  300TMC3    O1 4527   0.830   1.017  10.281 -0.2163  0.3983 -0.4675
  300TMC3    O2 4528   0.851   1.543   9.859  0.5725 -0.0035 -0.2947
  301MPD2     C 4529   3.381   2.893   1.903  0.1695  0.1169  0.3333
  301MPD2    C1 4530   3.324   2.896   1.778  0.1431  0.0896  0.0289
  301MPD2    C2 4531   3.367   2.805   1.679 -0.4159 -0.1474  0.0498
  301MPD2    C3 4532   3.471   2.724   1.700 -0.2597  0.0445  0.6390
  301MPD2    C4 4533   3.535   2.732   1.817 -0.0569 -0.0630 -0.2720
  301MPD2    C5 4534   3.488   2.811   1.921  0.4474 -0.2094 -0.1092
  301MPD2     H 4535   3.324   2.815   1.580 -0.2983 -2.3071 -0.2096
  301MPD2    H1 4536   3.627   2.676   1.832 -1.5862 -1.6470  3.2554
  301MPD2    H2 4537   3.349   2.961   1.981 -1.9132 -0.3765 -0.0880
  301MPD2    H3 4538   3.545   2.821   2.013 -0.0882 -0.5117  0.2487
  301MPD2     N 4539   3.523   2.623   1.606  0.6376 -0.8324  0.2963
  301MPD2    H5 4540   3.602   2.571   1.643  1.6230 -0.6395 -1.5957
  301MPD2    N1 4541   3.218   2.985   1.740 -0.5224  0.4405  0.2500
  301MPD2    H7 4542   3.179   2.959   1.650  2.0964 -1.3594 -0.4047
  302TMC3    C1 4543   3.553   2.515   1.385 -0.2987 -0.9956  0.4379
  302TMC3    C2 4544   3.665   2.447   1.432  0.5666  0.7014  0.1687
  302TMC3    C3 4545   3.696   2.324   1.371 -0.2455  0.3748  0.1391
  302TMC3    C4 4546   3.483   2.451   1.288  0.0682  0.7047 -0.0670
  302TMC3    C5 4547   3.512   2.324   1.241  0.0004  0.2408 -0.0645
  302TMC3    C6 4548   3.621   2.255   1.283 -0.4610 -0.0407  0.7080
  302TMC3     C 4549   3.481   2.609   1.476  0.3025  0.0283 -0.0781
  302TMC3     O 4550   3.384   2.664   1.425  0.3969  0.0935 -0.1129
  302TMC3     H 4551   3.729   2.475   1.515  3.7721  1.3980 -2.4907
  302TMC3    H1 4552   3.396   2.505   1.251 -0.7684  0.0869  0.9980
  302TMC3    H2 4553   3.653   2.162   1.237  0.9412  0.1586  1.2926
  302TMC3    C7 4554   3.432   2.276   1.135 -0.6228  0.2619 -0.8972
  302TMC3    C8 4555   3.813   2.259   1.413  0.1910 -0.6105 -0.6577
  302TMC3    O1 4556   3.447   2.155   1.113 -0.0040 -0.5012  0.1509
  302TMC3    O2 4557   3.903   2.328   1.458  0.1707  0.0269 -0.4994
  303MPD2     C 4558   3.618   1.047  10.011  0.3189  0.0229  0.2636
  303MPD2    C1 4559   3.526   0.984   9.933  0.3597 -0.2718 -0.4086
  303MPD2    C2 4560   3.412   1.055   9.883  0.3780 -0.3673  0.6500
  303MPD2    C3 4561   3.408   1.192   9.897 -0.4563 -0.6748  0.0720
  303MPD2    C4 4562   3.516   1.256   9.967  0.4121  0.1647 -0.4632
  303MPD2    C5 4563   3.614   1.184  10.029  0.1094  0.2205 -0.0690
  303MPD2     H 4564   3.330   1.012   9.827  1.8809 -1.0509 -1.0352
  303MPD2    H1 4565   3.527   1.364   9.975 -0.0299  0.1240  0.6407
  303MPD2    H2 4566   3.688   0.989  10.071  0.8108  0.2324 -0.1096
  303MPD2    H3 4567   3.695   1.234  10.081 -1.1642  0.0976  2.0186
  303MPD2     N 4568   3.297   1.268   9.849  0.0631  0.4698 -0.0087
  303MPD2    H5 4569   3.313   1.368   9.851 -0.7511  0.5750  1.0649
  303MPD2    N1 4570   3.532   0.846   9.925  0.3278  0.2583  0.4832
  303MPD2    H7 4571   3.595   0.788   9.979  1.0274 -0.0480 -0.6770
  304TMC3    C1 4572   3.454   0.634   9.869  1.1261 -0.7290  0.1881
  304TMC3    C2 4573   3.414   0.611   9.999 -0.4065  0.0292 -0.3389
  304TMC3    C3 4574   3.359   0.487  10.026  0.3500 -0.6139  0.3688
  304TMC3    C4 4575   3.437   0.541   9.770  0.0991 -0.1479 -0.1076
  304TMC3    C5 4576   3.384   0.422   9.803 -0.5777 -0.0352 -0.2133
  304TMC3    C6 4577   3.358   0.387   9.930  0.0263 -0.0581  0.2958
  304TMC3     C 4578   3.462   0.771   9.838 -0.3594  0.3256 -0.6509
  304TMC3     O 4579   3.400   0.808   9.741 -0.5406  0.7532 -0.6496
  304TMC3     H 4580   3.425   0.690  10.072  2.5841 -0.9095  0.2120
  304TMC3    H1 4581   3.456   0.565   9.666 -1.5248  1.5097 -0.0291
  304TMC3    H2 4582   3.319   0.288   9.948  0.6916 -0.5780 -1.0669
  304TMC3    C7 4583   3.289   0.371   9.701  0.0974 -0.6764 -0.6617
  304TMC3    C8 4584   3.229   0.496  10.089 -0.4846  0.2017 -0.1242
  304TMC3    O1 4585   3.316   0.388   9.584  0.3591  0.1100 -0.7621
  304TMC3    O2 4586   3.143   0.425  10.036 -0.1102  0.2343 -0.2903
  305MPD2     C 4587   1.779   3.214  13.924 -0.6405  0.0845 -0.2226
  305MPD2    C1 4588   1.915   3.213  13.905 -0.2061  0.3022 -0.7562
  305MPD2    C2 4589   1.960   3.187  13.782  0.3526 -0.1930 -0.1582
  305MPD2    C3 4590   1.888   3.149  13.673 -0.4697  0.8271 -0.0088
  305MPD2    C4 4591   1.756   3.151  13.699  0.0155 -0.1125  0.3063
  305MPD2    C5 4592   1.698   3.177  13.818 -0.2526 -0.0680 -0.5494
  305MPD2     H 4593   2.066   3.180  13.765 -0.1563 -0.5880 -3.3162
  305MPD2    H1 4594   1.693   3.108  13.622 -3.1136  2.6993  1.2960
  305MPD2    H2 4595   1.741   3.230  14.024 -3.7468  1.6442 -1.6556
  305MPD2    H3 4596   1.593   3.155  13.835  0.0622 -0.7042  0.5947
  305MPD2     N 4597   1.934   3.078  13.557 -0.2911 -0.2134  0.5997
  305MPD2    H5 4598   1.862   3.045  13.493 -0.4063 -0.2847  0.7666
  305MPD2    N1 4599   1.991   3.247  14.016 -0.7213 -0.2063 -0.2140
  305MPD2    H7 4600   1.941   3.284  14.096  1.4122  2.8683 -0.2984
  306TMC3    C1 4601   2.183   3.289  14.146 -0.2066  0.6913  0.4078
  306TMC3    C2 4602   2.319   3.314  14.138  0.2280  0.2062 -1.1141
  306TMC3    C3 4603   2.377   3.369  14.248  0.3069 -0.1798  0.4678
  306TMC3    C4 4604   2.110   3.305  14.261 -0.1009 -0.0040 -0.1289
  306TMC3    C5 4605   2.178   3.351  14.376  1.0405 -0.2011  0.3730
  306TMC3    C6 4606   2.308   3.389  14.367 -0.1963  0.0122  0.6226
  306TMC3     C 4607   2.128   3.231  14.025 -0.3052 -0.7090 -1.0755
  306TMC3     O 4608   2.208   3.174  13.952  0.6570  0.5305  0.3717
  306TMC3     H 4609   2.379   3.287  14.051 -1.8010 -0.9437 -2.1524
  306TMC3    H1 4610   2.005   3.280  14.276 -0.0966 -0.1127 -0.2827
  306TMC3    H2 4611   2.362   3.442  14.444  1.1119  0.1251 -0.3547
  306TMC3    C7 4612   2.104   3.373  14.497 -0.0266  0.2668  0.4026
  306TMC3    C8 4613   2.518   3.362  14.242 -0.7147 -0.2552  0.4689
  306TMC3    O1 4614   1.985   3.385  14.485  0.2763  0.3616 -0.3494
  306TMC3    O2 4615   2.576   3.269  14.193 -0.4125  0.1504 -0.0621
  307MPD2     C 4616   0.595   1.056   0.230  0.5276  0.0644  0.1677
  307MPD2    C1 4617   0.489   1.120   0.177 -0.4700 -0.2427  0.5058
  307MPD2    C2 4618   0.395   1.175   0.260 -0.4385 -0.0437  1.0897
  307MPD2    C3 4619   0.419   1.180   0.397 -0.6697  0.5981  0.6916
  307MPD2    C4 4620   0.533   1.129   0.444  0.0549  0.9791  0.3989
  307MPD2    C5 4621   0.623   1.068   0.368  0.2587  0.0463  0.7812
  307MPD2     H 4622   0.301   1.219   0.230 -0.4117 -0.1041  0.9176
  307MPD2    H1 4623   0.561   1.137   0.548 -2.5931  1.0080  1.1011
  307MPD2    H2 4624   0.670   0.997   0.178 -0.3060  1.2961 -2.4480
  307MPD2    H3 4625   0.714   1.027   0.410  0.5624 -0.6592 -0.5657
  307MPD2     N 4626   0.320   1.243   0.476 -0.1862  0.3085  0.3104
  307MPD2    H5 4627   0.245   1.295   0.431 -1.9245  0.1820  3.0760
  307MPD2    N1 4628   0.471   1.130   0.036 -0.3692  0.7563 -0.3914
  307MPD2    H7 4629   0.387   1.172   0.001 -2.2699 -3.4048 -0.8515
  308TMC3    C1 4630   4.700   1.362   0.719 -0.1951  0.6641 -0.6088
  308TMC3    C2 4631   4.706   1.500   0.697  0.4495  0.2304  0.8308
  308TMC3    C3 4632   0.104   1.555   0.648  0.5507 -0.1500 -0.0893
  308TMC3    C4 4633   0.095   1.288   0.712  0.4692 -0.1785 -0.2528
  308TMC3    C5 4634   0.207   1.338   0.652  0.0832  0.7789 -0.1963
  308TMC3    C6 4635   0.212   1.471   0.621  0.1095  0.3287  0.0956
  308TMC3     C 4636   4.607   1.323   0.820 -0.3764  0.1512 -0.2644
  308TMC3     O 4637   4.650   1.263   0.913 -0.8587 -0.1513  0.1491
  308TMC3     H 4638   4.625   1.563   0.730  1.3523  1.7327  0.2146
  308TMC3    H1 4639   0.091   1.181   0.729 -3.6953 -0.4610 -2.8033
  308TMC3    H2 4640   0.309   1.503   0.584  0.2569 -0.0380  0.1700
  308TMC3    C7 4641   0.309   1.242   0.608  0.9181  0.3399  0.0931
  308TMC3    C8 4642   0.107   1.681   0.580  0.2860 -0.0470  0.6760
  308TMC3    O1 4643   0.363   1.175   0.692  0.3562  0.2743  0.3174
  308TMC3    O2 4644   0.188   1.704   0.491  0.1019  0.7588  0.1008
  309MPD2     C 4645   3.974   1.625  17.283  0.4886 -0.6487 -0.0257
  309MPD2    C1 4646   3.921   1.730  17.210 -0.3427 -0.4058 -0.4349
  309MPD2    C2 4647   3.813   1.797  17.257 -0.4926 -0.0638 -0.5069
  309MPD2    C3 4648   3.750   1.766  17.382 -0.6208 -0.1993  0.4454
  309MPD2    C4 4649   3.803   1.654  17.450 -0.0463 -0.3220  0.8253
  309MPD2    C5 4650   3.915   1.593  17.405 -0.6764  0.0134  0.3800
  309MPD2     H 4651   3.779   1.879  17.195  0.4482  0.7206  0.0236
  309MPD2    H1 4652   3.763   1.616  17.543  0.8498 -2.1182  0.4884
  309MPD2    H2 4653   4.064   1.572  17.255 -0.4359 -1.4483 -1.4880
  309MPD2    H3 4654   3.948   1.506  17.461 -0.5668 -1.0850 -1.3978
  309MPD2     N 4655   3.640   1.834  17.439 -0.1235  0.7509  0.8699
  309MPD2    H5 4656   3.600   1.800  17.526 -2.1233  0.5468 -0.1275
  309MPD2    N1 4657   3.976   1.762  17.084  0.1288  0.3953 -0.4412
  309MPD2    H7 4658   3.943   1.841  17.029  1.2716  0.2122 -1.3911
  310TMC3    C1 4659   4.110   1.739  16.889 -0.5463 -0.4730  0.1237
  310TMC3    C2 4660   4.033   1.823  16.814 -0.3993 -0.2072  0.0831
  310TMC3    C3 4661   4.087   1.866  16.697 -0.5450 -0.6205  0.4680
  310TMC3    C4 4662   4.236   1.704  16.861  0.4426 -0.8460  0.4237
  310TMC3    C5 4663   4.291   1.765  16.747  0.7576 -0.4348  0.5005
  310TMC3    C6 4664   4.214   1.833  16.657  0.5863  0.4768  0.4971
  310TMC3     C 4665   4.055   1.674  17.009 -0.0011 -0.4749  0.2839
  310TMC3     O 4666   4.103   1.566  17.041  0.1310  0.6703  0.1767
  310TMC3     H 4667   3.934   1.855  16.844 -0.4818  1.0605 -1.5192
  310TMC3    H1 4668   4.284   1.626  16.918  0.6478 -0.0865  1.2886
  310TMC3    H2 4669   4.251   1.864  16.560  1.9215 -1.8799  0.2477
  310TMC3    C7 4670   4.397   1.691  16.683 -0.3690  0.1404 -0.3199
  310TMC3    C8 4671   3.991   1.922  16.606  0.5539  0.4485  0.8390
  310TMC3    O1 4672   4.407   1.569  16.711  0.7382 -1.1014 -0.5786
  310TMC3    O2 4673   3.878   1.876  16.611  0.3105 -0.3131  0.4464
  311MPD2     C 4674   1.061   2.449  12.731  0.7353 -0.2486 -0.8198
  311MPD2    C1 4675   1.061   2.562  12.810  0.3538  0.2735  0.0876
  311MPD2    C2 4676   0.955   2.583  12.895 -0.0443  0.7873  0.2717
  311MPD2    C3 4677   0.843   2.502  12.892 -0.4608  0.5471  0.1005
  311MPD2    C4 4678   0.839   2.397  12.801  0.3429  0.3927 -0.3193
  311MPD2    C5 4679   0.948   2.367  12.734 -0.7407 -0.0142  0.3055
  311MPD2     H 4680   0.971   2.671  12.956  0.5176  1.2940 -0.6022
  311MPD2    H1 4681   0.752   2.334  12.786 -0.4943  0.9283  2.2925
  311MPD2    H2 4682   1.139   2.409  12.667  1.1240  1.5305 -1.4493
  311MPD2    H3 4683   0.949   2.292  12.656 -0.8813 -0.7451  1.0052
  311MPD2     N 4684   0.725   2.521  12.967 -0.4492  0.3072 -0.1317
  311MPD2    H5 4685   0.643   2.463  12.951 -0.1188 -1.1953  3.8253
  311MPD2    N1 4686   1.170   2.653  12.812  0.0248 -0.0400  0.4166
  311MPD2    H7 4687   1.172   2.733  12.875 -1.9466  4.2015 -4.8834
  312TMC3    C1 4688   0.587   2.617  13.135 -0.1233  0.4568 -0.5914
  312TMC3    C2 4689   0.482   2.608  13.059 -0.2214  0.7936  0.2034
  312TMC3    C3 4690   0.357   2.636  13.118 -0.8353 -0.5195  0.2917
  312TMC3    C4 4691   0.580   2.646  13.268  0.5398  0.1135  0.0290
  312TMC3    C5 4692   0.457   2.665  13.324 -0.1091 -0.2802  0.7048
  312TMC3    C6 4693   0.347   2.652  13.245 -0.7770  0.4526 -0.0748
  312TMC3     C 4694   0.720   2.601  13.078 -0.0120  0.1094  0.7712
  312TMC3     O 4695   0.810   2.659  13.135  0.1393 -0.6954  0.4093
  312TMC3     H 4696   0.490   2.587  12.953 -2.5146 -0.5487  0.2831
  312TMC3    H1 4697   0.671   2.662  13.324 -0.6982  1.4049  1.6597
  312TMC3    H2 4698   0.249   2.655  13.292 -1.2295 -1.5707 -0.8732
  312TMC3    C7 4699   0.426   2.615  13.456  0.0095 -0.5621  0.0238
  312TMC3    C8 4700   0.252   2.677  13.034  0.0377  0.2052 -0.2883
  312TMC3    O1 4701   0.359   2.512  13.458  0.7429 -0.4825 -0.0169
  312TMC3    O2 4702   0.227   2.606  12.936  0.1791  0.4879  0.5661
  313MPD2     C 4703   0.403   1.569  10.553  0.5797  0.1130  0.3715
  313MPD2    C1 4704   0.326   1.653  10.472 -0.5390 -0.0062 -0.0458
  313MPD2    C2 4705   0.223   1.590  10.408 -0.9650 -0.2522 -0.2796
  313MPD2    C3 4706   0.187   1.458  10.428  0.2438 -0.0580  0.5751
  313MPD2    C4 4707   0.270   1.382  10.506 -0.0867 -0.3503 -0.5750
  313MPD2    C5 4708   0.376   1.442  10.571  0.0129 -0.1810 -0.8888
  313MPD2     H 4709   0.160   1.643  10.338 -0.9740  1.2438  0.8615
  313MPD2    H1 4710   0.262   1.274  10.507  1.1964 -0.4315  1.2095
  313MPD2    H2 4711   0.491   1.611  10.600 -0.2025  0.1293  1.8283
  313MPD2    H3 4712   0.440   1.377  10.630 -0.1287 -0.2279 -0.7880
  313MPD2     N 4713   0.070   1.406  10.365 -0.4381  0.0998  0.4026
  313MPD2    H5 4714   0.014   1.473  10.314  0.6180  1.2245  0.7072
  313MPD2    N1 4715   0.363   1.785  10.447  0.4162 -0.0481  0.1899
  313MPD2    H7 4716   0.308   1.829  10.373 -0.0387 -0.0991  0.5000
  314TMC3    C1 4717   0.464   1.993  10.492 -0.1469 -0.5919 -0.3280
  314TMC3    C2 4718   0.511   2.085  10.581 -0.8260  0.1357 -0.1458
  314TMC3    C3 4719   0.539   2.210  10.536 -0.2631 -0.2624 -0.0261
  314TMC3    C4 4720   0.463   2.024  10.351  0.3997 -0.2374 -0.6250
  314TMC3    C5 4721   0.496   2.151  10.316  0.5604  0.2008  0.0698
  314TMC3    C6 4722   0.532   2.249  10.405  0.3742  0.0892 -0.2753
  314TMC3     C 4723   0.446   1.860  10.533 -0.0821 -0.3304 -0.2108
  314TMC3     O 4724   0.497   1.823  10.639  0.1456  0.1565  0.0099
  314TMC3     H 4725   0.507   2.066  10.687 -2.3000 -1.1243 -0.4229
  314TMC3    H1 4726   0.454   1.947  10.274 -1.4408  0.0846 -0.7272
  314TMC3    H2 4727   0.547   2.353  10.380  1.2386  0.2946  1.0983
  314TMC3    C7 4728   0.467   2.205  10.182 -0.2929 -0.0521  0.1025
  314TMC3    C8 4729   0.527   2.321  10.631  0.6926  0.4493 -0.7334
  314TMC3    O1 4730   0.507   2.317  10.169  0.7240 -0.2140  0.3723
  314TMC3    O2 4731   0.590   2.420  10.599 -0.5156 -0.1640 -0.0052
  315MPD2     C 4732   0.384   1.779   0.009 -0.2311 -0.1393 -0.0214
  315MPD2    C1 4733   0.459   1.803   0.124  0.2200  0.4526 -0.0580
  315MPD2    C2 4734   0.504   1.928   0.152 -0.0965 -0.6005  0.0421
  315MPD2    C3 4735   0.460   2.037   0.088  0.5432 -0.2309  0.1240
  315MPD2    C4 4736   0.374   2.018  17.654 -0.4944  0.1556  0.0613
  315MPD2    C5 4737   0.345   1.889  17.616 -0.7850  0.2554  0.0071
  315MPD2     H 4738   0.563   1.927   0.243 -2.7883 -2.1799  1.7729
  315MPD2    H1 4739   0.343   2.109  17.603 -0.7609  1.4315  2.5076
  315MPD2    H2 4740   0.347   1.681  17.655 -2.3446  0.8134 -0.5393
  315MPD2    H3 4741   0.283   1.858  17.532 -1.4066  0.9806  0.1970
  315MPD2     N 4742   0.508   2.166   0.131 -0.1491  0.4131  0.8369
  315MPD2    H5 4743   0.566   2.165   0.214  1.0990 -0.0546 -0.0348
  315MPD2    N1 4744   0.504   1.697   0.206  0.5334  0.2219 -0.3907
  315MPD2    H7 4745   0.568   1.718   0.282 -0.2424 -2.4295  0.9724
  316TMC3    C1 4746   0.548   2.397   0.117 -0.1213  0.7102 -0.1058
  316TMC3    C2 4747   0.603   2.386   0.245 -0.0453  0.1423  0.1447
  316TMC3    C3 4748   0.686   2.481   0.279 -0.5402  0.0086 -0.0398
  316TMC3    C4 4749   0.582   2.496   0.032 -0.6560 -0.3521  0.7879
  316TMC3    C5 4750   0.677   2.591   0.075  0.1778  0.0448 -0.6018
  316TMC3    C6 4751   0.729   2.582   0.197  0.1858 -0.7363 -0.3202
  316TMC3     C 4752   0.496   2.280   0.058  0.4155 -0.0415 -0.1225
  316TMC3     O 4753   0.457   2.282  17.613 -0.3327 -0.3354  0.3658
  316TMC3     H 4754   0.565   2.309   0.311  0.7108 -1.1433 -0.9067
  316TMC3    H1 4755   0.543   2.497  17.604  0.7347 -3.9263  0.2374
  316TMC3    H2 4756   0.812   2.643   0.234 -2.1018  2.1262  0.0508
  316TMC3    C7 4757   0.705   2.719   0.013  0.0587  0.4180 -0.1702
  316TMC3    C8 4758   0.735   2.483   0.415  0.7202 -0.2125  0.3653
  316TMC3    O1 4759   0.727   2.811   0.092  0.7012  0.6031 -0.0500
  316TMC3    O2 4760   0.754   2.590   0.467 -0.5111  0.2243 -0.1781
  317MPD2     C 4761   2.308   4.434  12.505 -0.3940  0.1886  0.0840
  317MPD2    C1 4762   2.416   4.519  12.528  0.5181  0.6199 -0.0214
  317MPD2    C2 4763   2.496   4.492  12.639 -0.9472  0.2316 -0.1961
  317MPD2    C3 4764   2.467   4.385  12.732  0.1587 -0.1566  0.8611
  317MPD2    C4 4765   2.347   4.326  12.718  0.5581 -0.1155 -0.1463
  317MPD2    C5 4766   2.270   4.349  12.607 -0.2377  0.1851  0.5544
  317MPD2     H 4767   2.588   4.548  12.651 -0.7719  0.0168 -0.5311
  317MPD2    H1 4768   2.304   4.252  12.784 -1.5049  0.5960 -0.6984
  317MPD2    H2 4769   2.232   4.450  12.429  2.3650  1.2790 -2.4674
  317MPD2    H3 4770   2.179   4.289  12.606 -0.3995  0.4335  0.4160
  317MPD2     N 4771   2.564   4.350  12.831  0.6958  0.1807  0.0884
  317MPD2    H5 4772   2.645   4.410  12.839  0.8413  0.3033 -2.2364
  317MPD2    N1 4773   2.463   4.607  12.427 -0.3121  0.1539 -0.0911
  317MPD2    H7 4774   2.549   4.654  12.451  0.2865 -0.6961 -0.5753
  318TMC3    C1 4775   2.660   4.236  13.015 -0.3762 -0.2691  0.6448
  318TMC3    C2 4776   2.639   4.151  13.107 -0.5610 -0.1114 -0.2799
  318TMC3    C3 4777   2.709   4.157  13.225 -0.1287  0.7174 -0.0743
  318TMC3    C4 4778   2.752   4.336  13.029  0.2667  0.1478 -0.0466
  318TMC3    C5 4779   2.825   4.343  13.146 -0.0965 -0.2523  0.4894
  318TMC3    C6 4780   2.800   4.257  13.245 -0.4073 -0.3232  0.5223
  318TMC3     C 4781   2.555   4.246  12.917  0.1551 -0.1548  0.0015
  318TMC3     O 4782   2.469   4.159  12.917  0.0084 -0.3915  0.9831
  318TMC3     H 4783   2.593   4.060  13.071 -0.5523 -0.7174  1.2849
  318TMC3    H1 4784   2.770   4.408  12.950  0.0094  0.3611  0.0865
  318TMC3    H2 4785   2.857   4.277  13.335  0.5739 -0.9080  0.0332
  318TMC3    C7 4786   2.927   4.444  13.155 -0.5442 -0.0711  0.4470
  318TMC3    C8 4787   2.679   4.068  13.337  0.0162 -0.5134 -0.1920
  318TMC3    O1 4788   2.885   4.553  13.123 -0.0612  0.1150 -0.1932
  318TMC3    O2 4789   2.759   4.078  13.430  0.1796 -0.5540  0.0315
  319MPD2     C 4790   3.384   1.394  16.889 -0.1712 -0.4840 -0.0992
  319MPD2    C1 4791   3.285   1.304  16.912  0.0245 -0.7910 -0.3284
  319MPD2    C2 4792   3.214   1.255  16.805  0.7663 -0.3866  0.2302
  319MPD2    C3 4793   3.227   1.300  16.677  0.3392 -1.0057 -0.4760
  319MPD2    C4 4794   3.335   1.388  16.654 -0.0756  0.0027  0.6927
  319MPD2    C5 4795   3.409   1.432  16.760  0.4679 -0.4796  0.0048
  319MPD2     H 4796   3.134   1.187  16.831 -0.1162  0.3966 -0.4284
  319MPD2    H1 4797   3.368   1.415  16.554  1.2765  0.0160  1.1542
  319MPD2    H2 4798   3.450   1.425  16.969  0.9348  1.0624 -1.6152
  319MPD2    H3 4799   3.496   1.493  16.736  0.9746 -1.4375 -0.5847
  319MPD2     N 4800   3.148   1.259  16.575  0.7198  0.3334  0.0538
  319MPD2    H5 4801   3.173   1.295  16.483  0.6815 -0.3112 -0.2063
  319MPD2    N1 4802   3.242   1.265  17.038  0.0367 -0.1317  0.1282
  319MPD2    H7 4803   3.166   1.197  17.035 -0.8973  0.8641  1.1570
  320TMC3    C1 4804   2.986   1.155  16.442 -0.0830  0.1484  0.2196
  320TMC3    C2 4805   2.970   1.256  16.350 -0.2878  0.5166 -0.3346
  320TMC3    C3 4806   2.896   1.234  16.232  0.4161 -0.3315  0.3110
  320TMC3    C4 4807   2.938   1.029  16.414 -0.4097 -0.6411 -0.6222
  320TMC3    C5 4808   2.873   1.011  16.298 -0.3825 -0.0821 -0.1810
  320TMC3    C6 4809   2.851   1.106  16.200 -0.5991  0.4110  0.7788
  320TMC3     C 4810   3.045   1.168  16.578  0.2642  0.4275 -0.1996
  320TMC3     O 4811   2.987   1.103  16.668 -0.6581  0.2587  0.9455
  320TMC3     H 4812   2.998   1.352  16.391  0.5305  0.0381  0.2267
  320TMC3    H1 4813   2.958   0.940  16.472 -0.0483 -1.1749 -1.5787
  320TMC3    H2 4814   2.788   1.083  16.114  1.0776 -0.6760 -0.1789
  320TMC3    C7 4815   2.814   0.882  16.280 -0.2528 -0.6999  0.0826
  320TMC3    C8 4816   2.855   1.355  16.165  0.2555  0.1662 -0.0735
  320TMC3    O1 4817   2.796   0.844  16.164 -0.0328  0.0042 -0.3884
  320TMC3    O2 4818   2.896   1.465  16.210 -0.4626  0.0872 -0.3932
  321TMC3    C1 4819   3.235   1.260  17.274  0.8282  0.0691  0.1325
  321TMC3    C2 4820   3.177   1.137  17.274  0.2135  0.0877  0.1864
  321TMC3    C3 4821   3.123   1.092  17.391  0.3569  0.3216 -0.4019
  321TMC3    C4 4822   3.242   1.333  17.391  0.2213  0.2545 -0.5228
  321TMC3    C5 4823   3.184   1.293  17.507 -0.4606 -0.1347 -0.2984
  321TMC3    C6 4824   3.114   1.176  17.504  0.0724  0.2287 -0.0772
  321TMC3     C 4825   3.291   1.315  17.155  0.4868 -0.1489  0.1356
  321TMC3     O 4826   3.363   1.410  17.178  0.1227  0.1632 -0.0887
  321TMC3     H 4827   3.190   1.061  17.198 -0.4893 -1.7218  1.8651
  321TMC3    H1 4828   3.289   1.430  17.385 -0.3441  0.6686  1.7637
  321TMC3    H2 4829   3.048   1.139  17.582  0.0735 -2.0067 -1.1213
  321TMC3    C7 4830   3.291   1.264  17.598 -0.2042  0.1143 -0.3564
  321TMC3    C8 4831   3.128   0.946  17.427 -0.2495 -0.0865  0.2308
  321TMC3    O1 4832   3.271   1.159  17.661  0.0834  0.3196  0.4063
  321TMC3    O2 4833   3.139   0.868  17.335 -0.4041  0.0673 -0.5697
  322MPD2     C 4834   1.740   2.089  13.772  0.1227  0.1076 -0.3304
  322MPD2    C1 4835   1.785   2.107  13.898  0.5079 -0.1444 -0.6365
  322MPD2    C2 4836   1.809   1.997  13.980  0.3573  0.1625  0.6229
  322MPD2    C3 4837   1.785   1.870  13.927  0.5698 -0.0880 -0.4648
  322MPD2    C4 4838   1.742   1.852  13.802  0.3372  0.3261 -0.3189
  322MPD2    C5 4839   1.720   1.959  13.725  0.3030  0.4306 -0.0053
  322MPD2     H 4840   1.850   2.002  14.080  1.7739 -2.1953  0.1861
  322MPD2    H1 4841   1.739   1.755  13.754  2.8370  0.5660 -0.9614
  322MPD2    H2 4842   1.723   2.176  13.710  0.3773  2.2408  2.6048
  322MPD2    H3 4843   1.676   1.935  13.628  1.3684  1.7412 -0.8148
  322MPD2     N 4844   1.812   1.769  14.016 -0.7365 -0.6396 -1.0526
  322MPD2    H5 4845   1.861   1.810  14.095  0.3168 -1.1457 -1.4346
  322MPD2    N1 4846   1.839   2.231  13.934  0.8419  0.1209 -0.0009
  322MPD2    H7 4847   1.823   2.310  13.872 -1.2492 -0.4759 -0.2069
  323TMC3    C1 4848   1.966   2.402  14.050 -0.1970 -0.7314  0.1843
  323TMC3    C2 4849   2.034   2.426  13.933 -0.0888 -0.0125  0.4161
  323TMC3    C3 4850   2.122   2.533  13.943  0.5142  0.0677  0.1044
  323TMC3    C4 4851   1.986   2.465  14.172  0.1296  0.2664  0.1773
  323TMC3    C5 4852   2.078   2.563  14.175  0.1909 -0.2068  0.1162
  323TMC3    C6 4853   2.153   2.597  14.062  0.4800 -0.4896  0.1195
  323TMC3     C 4854   1.892   2.275  14.056 -0.2666 -0.2560 -0.1287
  323TMC3     O 4855   1.873   2.219  14.159 -0.7410  0.0189 -0.0539
  323TMC3     H 4856   2.006   2.368  13.847  0.5421  0.1081  0.1362
  323TMC3    H1 4857   1.920   2.437  14.252 -0.1803 -1.4438 -0.6813
  323TMC3    H2 4858   2.241   2.660  14.070 -0.2091  0.5479 -0.4198
  323TMC3    C7 4859   2.138   2.573  14.307 -0.6028  0.2728  0.1256
  323TMC3    C8 4860   2.218   2.543  13.839 -0.4783  0.4143  0.6844
  323TMC3    O1 4861   2.120   2.473  14.378 -0.4750 -0.3621  0.2690
  323TMC3    O2 4862   2.324   2.595  13.872  0.3251  0.3019  0.6681
  324MPD2     C 4863   4.220   3.883  14.016 -0.5538  0.2442  0.1384
  324MPD2    C1 4864   4.208   3.936  14.140  0.5204  0.0705 -0.1312
  324MPD2    C2 4865   4.084   3.931  14.207 -0.1484 -0.5389 -0.5519
  324MPD2    C3 4866   3.971   3.880  14.137 -0.4928  0.3708 -0.0898
  324MPD2    C4 4867   3.986   3.830  14.008  0.5828 -0.1459 -0.7915
  324MPD2    C5 4868   4.108   3.838  13.944  0.0836  0.1977  0.2163
  324MPD2     H 4869   4.076   3.959  14.311  2.5898 -0.2212 -0.4276
  324MPD2    H1 4870   3.907   3.796  13.942 -0.4402  0.2337  0.2286
  324MPD2    H2 4871   4.317   3.887  13.968 -0.4326 -0.2438  0.3459
  324MPD2    H3 4872   4.112   3.808  13.840 -2.4615  3.1773 -0.7586
  324MPD2     N 4873   3.841   3.875  14.182  0.6440  0.4300  1.1154
  324MPD2    H5 4874   3.773   3.822  14.129  0.3474  0.1657  1.7702
  324MPD2    N1 4875   4.319   3.985  14.210  0.0440  0.1233  0.6280
  324MPD2    H7 4876   4.300   4.004  14.308 -2.1796  0.7086  0.0907
  325TMC3    C1 4877   3.658   3.906  14.339  0.9117 -0.3312 -0.0864
  325TMC3    C2 4878   3.587   3.810  14.270 -0.5144  0.4996  1.7533
  325TMC3    C3 4879   3.449   3.833  14.255  0.1640  0.0514 -0.2866
  325TMC3    C4 4880   3.589   4.020  14.389 -0.2003 -0.8306  0.5599
  325TMC3    C5 4881   3.454   4.038  14.383 -0.0728 -0.1235  0.4229
  325TMC3    C6 4882   3.381   3.941  14.311  0.0359 -0.3674  0.2911
  325TMC3     C 4883   3.800   3.919  14.311 -0.0971 -0.5272  1.0525
  325TMC3     O 4884   3.856   3.994  14.390  0.6175 -0.1702 -0.1532
  325TMC3     H 4885   3.633   3.718  14.237 -1.1862  0.5736  0.5681
  325TMC3    H1 4886   3.648   4.092  14.445 -1.9521  2.0234 -1.2364
  325TMC3    H2 4887   3.279   3.953  14.276  0.9541  1.2487 -1.8485
  325TMC3    C7 4888   3.391   4.106  14.493 -0.1275 -0.0906 -0.2265
  325TMC3    C8 4889   3.375   3.736  14.166  0.8292 -0.8511  0.2328
  325TMC3    O1 4890   3.452   4.188  14.558  0.0363  0.4165 -0.0855
  325TMC3    O2 4891   3.439   3.673  14.087  0.2965  0.2982 -0.4659
  326MPD2     C 4892   0.010   4.239  10.655  0.0629 -0.5222  1.1000
  326MPD2    C1 4893   4.644   4.294  10.563 -0.6187 -0.0739 -0.3107
  326MPD2    C2 4894   4.668   4.423  10.528  0.0271 -0.2561 -0.5830
  326MPD2    C3 4895   0.067   4.487  10.559  0.6017 -0.0163 -0.7511
  326MPD2    C4 4896   0.155   4.432  10.646  0.0745 -0.8057 -0.3758
  326MPD2    C5 4897   0.120   4.309  10.691 -0.9700 -0.2151  0.8860
  326MPD2     H 4898   4.611   4.454  10.441  1.5336 -2.2549 -2.2786
  326MPD2    H1 4899   0.250   4.471  10.682  0.1548 -1.7425  0.4250
  326MPD2    H2 4900   4.707   4.150  10.714  0.0606 -0.8110  0.6647
  326MPD2    H3 4901   0.192   4.260  10.755 -1.0747  0.1391  1.2716
  326MPD2     N 4902   0.105   4.618  10.512 -0.2847  0.0167  0.3147
  326MPD2    H5 4903   0.180   4.664  10.563 -0.3756  0.8814 -0.3377
  326MPD2    N1 4904   4.523   4.232  10.522 -0.2327 -0.1146 -0.9169
  326MPD2    H7 4905   4.470   4.279  10.450 -1.0537  0.4608  0.0701
  327TMC3    C1 4906   4.359   4.057  10.503  0.7382  0.5590 -0.2811
  327TMC3    C2 4907   4.279   4.146  10.439 -0.2381  0.9117 -0.4040
  327TMC3    C3 4908   4.142   4.120  10.451 -0.0725 -0.0701 -0.6752
  327TMC3    C4 4909   4.306   3.943  10.561  0.0177 -0.3060 -0.9133
  327TMC3    C5 4910   4.173   3.925  10.587  0.2371  0.0947 -0.1977
  327TMC3    C6 4911   4.090   4.012  10.523  0.4120 -0.3529 -0.6802
  327TMC3     C 4912   4.482   4.108  10.565  0.6438  0.0957  0.0705
  327TMC3     O 4913   4.519   4.049  10.668  0.1859  0.1231 -0.4443
  327TMC3     H 4914   4.324   4.234  10.392  0.6594  0.0386 -1.1855
  327TMC3    H1 4915   4.387   3.875  10.585  0.2186  0.2337 -0.0827
  327TMC3    H2 4916   3.982   4.003  10.532  0.5500  0.0034  1.2912
  327TMC3    C7 4917   4.141   3.903  10.725 -0.3339  0.1989  0.5129
  327TMC3    C8 4918   4.064   4.214  10.371  0.9068 -0.7917 -0.0619
  327TMC3    O1 4919   4.028   3.868  10.754 -0.2490  0.5345 -0.0940
  327TMC3    O2 4920   4.116   4.324  10.356 -0.0392  0.0695  0.3031
  328MPD2     C 4921   2.639   4.392  16.979 -0.5474 -0.2808 -0.0379
  328MPD2    C1 4922   2.549   4.466  17.050  0.4078 -1.2994 -1.7819
  328MPD2    C2 4923   2.509   4.590  17.000 -0.1695  0.2150 -0.6731
  328MPD2    C3 4924   2.548   4.627  16.871  0.5555 -0.1615 -0.0639
  328MPD2    C4 4925   2.624   4.539  16.797  0.0599 -0.0733  0.3708
  328MPD2    C5 4926   2.684   4.432  16.857  0.2831  1.2076 -0.7212
  328MPD2     H 4927   2.447   4.659  17.056 -1.0652 -1.1606  0.0282
  328MPD2    H1 4928   2.667   4.571  16.703 -0.4954  1.4961  0.6443
  328MPD2    H2 4929   2.689   4.302  17.014  0.1612 -1.3182 -3.7423
  328MPD2    H3 4930   2.766   4.378  16.811 -1.7552 -2.6901  0.2502
  328MPD2     N 4931   2.494   0.027  16.818 -0.2076 -0.3528  0.4747
  328MPD2    H5 4932   2.484   0.028  16.717 -0.5374  1.1690  0.5141
  328MPD2    N1 4933   2.505   4.413  17.178  0.2670  0.0284 -0.2062
  328MPD2    H7 4934   2.517   4.314  17.196 -0.1416 -0.0362 -0.2928
  329TMC3    C1 4935   2.377   4.418  17.374 -0.7342  0.5781  0.7166
  329TMC3    C2 4936   2.268   4.492  17.377  0.6950 -0.7626  0.0264
  329TMC3    C3 4937   2.144   4.436  17.363 -0.4666  0.2184  0.1659
  329TMC3    C4 4938   2.366   4.282  17.349  0.1673  0.0013  0.4312
  329TMC3    C5 4939   2.240   4.234  17.325  0.1483  0.2627  0.1911
  329TMC3    C6 4940   2.131   4.306  17.318 -1.0396 -0.3441  0.5345
  329TMC3     C 4941   2.449   4.493  17.277  0.2397 -0.2238 -0.4775
  329TMC3     O 4942   2.453   4.613  17.280 -0.8413 -0.5731  0.3437
  329TMC3     H 4943   2.273   4.596  17.407 -0.9075 -0.1675 -1.7153
  329TMC3    H1 4944   2.452   4.217  17.353 -0.2180 -0.5053  0.5283
  329TMC3    H2 4945   2.035   4.267  17.287 -1.2657  0.9408 -0.3998
  329TMC3    C7 4946   2.228   4.097  17.380  0.0347  0.3649 -0.0460
  329TMC3    C8 4947   2.029   4.525  17.350 -0.5795 -0.2031  0.0960
  329TMC3    O1 4948   2.323   4.023  17.366  0.2286  0.6971 -0.0932
  329TMC3    O2 4949   1.940   4.490  17.272  0.8198  0.2956 -0.1378
  330TMC3    C1 4950   0.310   3.242   8.851  0.5097  0.4296 -0.0176
  330TMC3    C2 4951   0.233   3.150   8.795 -0.4313  0.9070 -0.2851
  330TMC3    C3 4952   0.224   3.031   8.861  0.5084 -0.9666  0.5298
  330TMC3    C4 4953   0.368   3.227   8.971  0.0227 -0.3465 -0.1385
  330TMC3    C5 4954   0.340   3.111   9.041  0.3826 -0.5491 -0.0203
  330TMC3    C6 4955   0.276   3.011   8.982  0.2783 -1.0993  0.2896
  330TMC3     C 4956   0.337   3.359   8.774 -0.0614  0.0832 -0.8395
  330TMC3     O 4957   0.446   3.414   8.782  0.3593  0.2290 -0.4286
  330TMC3     H 4958   0.204   3.159   8.691 -1.7165  0.5285  0.0422
  330TMC3    H1 4959   0.417   3.309   9.022  0.8937 -1.1651  0.3604
  330TMC3    H2 4960   0.269   2.914   9.031  1.3393 -0.0165  2.6159
  330TMC3    C7 4961   0.384   3.113   9.185 -0.2779 -0.0038  0.3010
  330TMC3    C8 4962   0.174   2.921   8.781 -0.0485  0.0478  0.3342
  330TMC3    O1 4963   0.477   3.184   9.216  0.0240  0.0451  0.1464
  330TMC3    O2 4964   0.202   2.925   8.662 -0.6669  0.6747 -0.4941
  331MPD2     C 4965   3.488   3.416  12.907 -0.1400 -0.0664 -0.1234
  331MPD2    C1 4966   3.524   3.377  12.780  0.1440  0.2146 -0.1034
  331MPD2    C2 4967   3.488   3.255  12.727 -0.1522 -0.2275 -0.0971
  331MPD2    C3 4968   3.399   3.174  12.797  0.4580 -0.6638 -0.5337
  331MPD2    C4 4969   3.344   3.218  12.912  0.8678  0.3553  0.0275
  331MPD2    C5 4970   3.391   3.333  12.968  0.4734 -0.1010  0.4387
  331MPD2     H 4971   3.531   3.219  12.634 -1.0170  1.1137 -1.0159
  331MPD2    H1 4972   3.276   3.170  12.981  1.8626  0.2453  0.9303
  331MPD2    H2 4973   3.509   3.507  12.963  1.2455  0.0526 -0.8430
  331MPD2    H3 4974   3.344   3.350  13.065  1.9278 -3.2081  1.6948
  331MPD2     N 4975   3.343   3.064  12.731 -0.0218 -0.6505  0.5634
  331MPD2    H5 4976   3.388   3.029  12.647  1.0914  1.4488  0.2849
  331MPD2    N1 4977   3.611   3.455  12.696 -0.1501  0.1211  0.2711
  331MPD2    H7 4978   3.630   3.414  12.605 -1.5485  0.2437 -0.0780
  332TMC3    C1 4979   3.233   2.869  12.668 -0.6051  0.3492 -1.1038
  332TMC3    C2 4980   3.227   2.912  12.535 -0.2867  0.2651 -0.8438
  332TMC3    C3 4981   3.215   2.822  12.434  0.2445 -0.2367  0.5401
  332TMC3    C4 4982   3.230   2.734  12.692 -0.7613 -0.1924  0.0968
  332TMC3    C5 4983   3.222   2.651  12.585  0.1108  0.7667  0.6718
  332TMC3    C6 4984   3.209   2.687  12.455 -0.6681 -0.2537 -0.1436
  332TMC3     C 4985   3.246   2.970  12.769 -0.1437  0.3224  0.7019
  332TMC3     O 4986   3.190   2.957  12.878 -0.3214 -0.0913 -0.0528
  332TMC3     H 4987   3.216   3.017  12.511  0.9499  0.2126 -1.6322
  332TMC3    H1 4988   3.233   2.699  12.795  3.5040 -1.2957 -0.4006
  332TMC3    H2 4989   3.224   2.616  12.375 -0.5925  0.8686 -1.1362
  332TMC3    C7 4990   3.303   2.535  12.582 -0.1023  1.6856 -0.3039
  332TMC3    C8 4991   3.278   2.855  12.309 -0.6276 -0.2656  0.0763
  332TMC3    O1 4992   3.257   2.427  12.550  0.1837  0.1767 -0.1034
  332TMC3    O2 4993   3.351   2.952  12.310 -0.1714 -0.1810  0.0958
  333MPD2     C 4994   2.676   2.950  10.995 -0.0977  0.4088  0.3851
  333MPD2    C1 4995   2.770   2.866  10.955  0.4492  0.7283  0.0208
  333MPD2    C2 4996   2.753   2.732  10.972  0.0061 -1.3520 -0.2120
  333MPD2    C3 4997   2.632   2.689  11.022 -0.4677 -0.4120 -0.1631
  333MPD2    C4 4998   2.530   2.777  11.054  0.2781  0.6854 -0.3153
  333MPD2    C5 4999   2.549   2.912  11.039 -0.1898 -0.0513 -1.2239
  333MPD2     H 5000   2.831   2.658  10.959  0.2429 -0.7085 -2.3857
  333MPD2    H1 5001   2.432   2.745  11.089  0.7839 -1.6539 -1.0560
  333MPD2    H2 5002   2.690   3.058  10.988 -2.2696  0.6173 -0.9664
  333MPD2    H3 5003   2.477   2.988  11.068  2.0826  0.9318  1.8805
  333MPD2     N 5004   2.631   2.553  11.072  0.5995 -0.2169 -0.1214
  333MPD2    H5 5005   2.714   2.495  11.063  0.3885 -0.6221  0.5219
  333MPD2    N1 5006   2.893   2.926  10.916  0.2730  0.2283  0.6604
  333MPD2    H7 5007   2.886   3.027  10.906 -0.1903 -0.0616 -1.9502
  334TMC3    C1 5008   3.111   2.961  10.844  0.3950  0.5284 -0.1581
  334TMC3    C2 5009   3.220   2.901  10.778 -0.0497  0.6676 -0.3590
  334TMC3    C3 5010   3.343   2.944  10.815 -0.3425  0.2235 -0.2006
  334TMC3    C4 5011   3.138   3.052  10.952  0.3483 -0.2079 -0.1133
  334TMC3    C5 5012   3.268   3.079  10.984  0.9428  0.8621 -0.5700
  334TMC3    C6 5013   3.372   3.029  10.912  0.4204 -0.0430 -0.2534
  334TMC3     C 5014   3.006   2.864  10.868 -0.1267  0.0436  0.5047
  334TMC3     O 5015   3.038   2.747  10.859 -0.0354 -0.1244  0.1872
  334TMC3     H 5016   3.204   2.843  10.689 -4.1492 -0.8231  1.3813
  334TMC3    H1 5017   3.053   3.097  11.003 -0.8741 -1.7112 -0.8394
  334TMC3    H2 5018   3.468   3.057  10.953  0.0573 -0.0368  0.6008
  334TMC3    C7 5019   3.308   3.164  11.092 -0.1764 -0.0697  0.9828
  334TMC3    C8 5020   3.448   2.872  10.756 -0.4993 -0.5951 -0.0538
  334TMC3    O1 5021   3.402   3.235  11.059 -0.0117 -0.3564 -0.3208
  334TMC3    O2 5022   3.415   2.776  10.683 -0.1533  0.5342 -0.2980
  335TMC3    C1 5023   3.283   0.257  17.253 -0.1791  0.1305  0.2717
  335TMC3    C2 5024   3.240   0.191  17.142  0.1287 -0.2642 -0.5259
  335TMC3    C3 5025   3.327   0.180  17.034 -0.4879  0.2860  0.5219
  335TMC3    C4 5026   3.403   0.329  17.247 -0.3330 -0.1307 -0.0962
  335TMC3    C5 5027   3.481   0.329  17.134 -0.0132  0.4989  0.2342
  335TMC3    C6 5028   3.447   0.250  17.028  0.3884 -0.2563  0.4288
  335TMC3     C 5029   3.185   0.312  17.347  0.3015  0.2199 -0.8613
  335TMC3     O 5030   3.224   0.417  17.394 -0.2050  0.1607  0.2415
  335TMC3     H 5031   3.141   0.146  17.133  0.7793 -1.9494  0.7754
  335TMC3    H1 5032   3.434   0.392  17.329  0.0963  1.1931 -1.2736
  335TMC3    H2 5033   3.506   0.262  16.937 -1.6845  1.6495 -0.6563
  335TMC3    C7 5034   3.627   0.333  17.148 -0.3206  0.3874 -0.3841
  335TMC3    C8 5035   3.305   0.076  16.938 -0.3194 -0.1923 -0.1954
  335TMC3    O1 5036   3.689   0.300  17.050 -0.3626 -0.0836  0.1616
  335TMC3    O2 5037   3.388   0.076  16.848 -0.1400 -0.1584  0.4781
  336MPD2     C 5038   3.166   2.628  16.332 -0.8721  0.0804  0.1592
  336MPD2    C1 5039   3.092   2.566  16.233 -0.3009  0.0124 -0.5649
  336MPD2    C2 5040   3.102   2.431  16.215  0.3154  0.3685 -0.1950
  336MPD2    C3 5041   3.172   2.353  16.304 -0.0323 -0.3229 -0.2790
  336MPD2    C4 5042   3.258   2.412  16.393 -0.6938  0.4707 -0.2297
  336MPD2    C5 5043   3.254   2.549  16.402  0.0204 -0.3277 -0.4023
  336MPD2     H 5044   3.034   2.380  16.147  1.5133 -0.4742 -0.7656
  336MPD2    H1 5045   3.322   2.354  16.459 -0.3997 -1.2401 -2.0182
  336MPD2    H2 5046   3.183   2.734  16.344  2.1992 -0.5182  1.1433
  336MPD2    H3 5047   3.318   2.592  16.478 -0.9940  1.2083 -0.4263
  336MPD2     N 5048   3.152   2.212  16.317 -0.1608  0.2798 -0.2040
  336MPD2    H5 5049   3.076   2.173  16.261  0.1549 -0.0691 -0.3866
  336MPD2    N1 5050   3.009   2.640  16.145  0.4628 -0.5424 -0.6631
  336MPD2    H7 5051   2.961   2.586  16.073  1.0626 -0.7271 -0.9205
  337TMC3    C1 5052   2.876   2.815  16.073 -0.1329 -0.1343  0.0014
  337TMC3    C2 5053   2.840   2.745  15.959 -0.3988 -0.4348  0.5076
  337TMC3    C3 5054   2.753   2.803  15.869  0.3126  0.2475 -0.1259
  337TMC3    C4 5055   2.818   2.939  16.101 -0.9148 -0.6201  0.9231
  337TMC3    C5 5056   2.709   2.973  16.019  0.0657  0.2428  0.2207
  337TMC3    C6 5057   2.696   2.922  15.895  0.1054  0.4355  0.1619
  337TMC3     C 5058   2.987   2.775  16.149  0.4528 -0.2404 -0.0378
  337TMC3     O 5059   3.021   2.859  16.229 -0.1189 -0.1299  0.6250
  337TMC3     H 5060   2.901   2.660  15.935 -2.6707 -2.2084  1.0277
  337TMC3    H1 5061   2.826   2.980  16.201  1.2575 -0.6906  0.7644
  337TMC3    H2 5062   2.637   2.973  15.820 -0.3330 -2.2517 -1.3106
  337TMC3    C7 5063   2.623   3.088  16.048 -0.4826 -0.0922  0.3266
  337TMC3    C8 5064   2.688   2.713  15.779  0.4337  0.3879  0.3645
  337TMC3    O1 5065   2.525   3.104  15.976  0.4727 -0.2233  0.0250
  337TMC3    O2 5066   2.675   2.596  15.818 -0.6008 -0.4814 -0.0544
  338MPD2     C 5067   3.277   1.427   1.090 -0.2489  0.2059 -0.2460
  338MPD2    C1 5068   3.298   1.557   1.061 -0.8696 -0.1235 -0.5565
  338MPD2    C2 5069   3.193   1.646   1.071  0.3802  0.2469  0.4420
  338MPD2    C3 5070   3.070   1.605   1.117 -0.1856 -0.3959 -0.1696
  338MPD2    C4 5071   3.047   1.470   1.131  0.1594  0.1417  0.2973
  338MPD2    C5 5072   3.151   1.384   1.128  0.1756 -0.1603  0.0309
  338MPD2     H 5073   3.216   1.752   1.064 -1.7134  0.7294  0.8557
  338MPD2    H1 5074   2.950   1.424   1.147  0.5777 -0.5903  0.7288
  338MPD2    H2 5075   3.362   1.359   1.087  1.0270  1.7430  0.9102
  338MPD2    H3 5076   3.126   1.280   1.146  1.4793 -0.4088  0.3780
  338MPD2     N 5077   2.975   1.703   1.142  0.2725  0.0833  0.0689
  338MPD2    H5 5078   2.989   1.799   1.112  0.0513 -0.4105 -1.6536
  338MPD2    N1 5079   3.418   1.604   1.010 -0.5496  0.4345  0.1860
  338MPD2    H7 5080   3.421   1.700   0.976 -1.8376  0.1164 -0.7914
  339TMC3    C1 5081   2.758   1.761   1.130 -0.3168 -0.3993  0.2711
  339TMC3    C2 5082   2.650   1.791   1.208  0.4881  0.5978 -0.2573
  339TMC3    C3 5083   2.577   1.899   1.178 -0.1762  0.5685 -0.4456
  339TMC3    C4 5084   2.773   1.819   1.010  0.0872  0.4220  0.3743
  339TMC3    C5 5085   2.688   1.915   0.979 -0.5200 -0.4879 -0.1503
  339TMC3    C6 5086   2.605   1.973   1.063 -0.2232  0.3102  0.0610
  339TMC3     C 5087   2.852   1.669   1.185 -0.5960 -0.7837 -0.3006
  339TMC3     O 5088   2.807   1.570   1.238  0.0625 -0.0576 -0.1568
  339TMC3     H 5089   2.624   1.738   1.300  1.0167  0.0367 -0.4304
  339TMC3    H1 5090   2.852   1.783   0.945 -0.6468 -0.5787  0.0290
  339TMC3    H2 5091   2.541   2.059   1.047  0.4090  0.2537 -2.7659
  339TMC3    C7 5092   2.719   1.997   0.863  0.3226  0.2194  0.7298
  339TMC3    C8 5093   2.447   1.922   1.244  0.3705  0.0462  0.5466
  339TMC3    O1 5094   2.692   2.116   0.868 -0.0498 -0.2744  0.2797
  339TMC3    O2 5095   2.390   2.023   1.208 -0.6775  0.1591  0.2234
  340MPD2     C 5096   4.076   2.300   9.641  0.8449 -0.0973 -1.0219
  340MPD2    C1 5097   3.933   2.316   9.642 -0.1115 -0.5172  0.9101
  340MPD2    C2 5098   3.874   2.336   9.765  0.0252 -0.3152  0.2020
  340MPD2    C3 5099   3.942   2.327   9.886  0.3726  0.6955 -0.5149
  340MPD2    C4 5100   4.077   2.292   9.879 -0.1734 -0.1693 -0.2462
  340MPD2    C5 5101   4.146   2.287   9.760  0.4150 -0.1613  0.4207
  340MPD2     H 5102   3.770   2.365   9.768 -0.3894 -1.9096  1.4043
  340MPD2    H1 5103   4.138   2.290   9.969 -2.9528  2.4676  1.7109
  340MPD2    H2 5104   4.134   2.280   9.552  0.3550  3.3379 -2.1139
  340MPD2    H3 5105   4.253   2.270   9.760  0.7215  1.7504  0.6203
  340MPD2     N 5106   3.892   2.366  10.013 -0.0908  0.5458  0.3857
  340MPD2    H5 5107   3.961   2.368  10.088  0.1654  0.9160  0.1391
  340MPD2    N1 5108   3.872   2.348   9.521  0.1997 -0.3913  0.2980
  340MPD2    H7 5109   3.927   2.345   9.436  1.8321  1.5494  1.3015
  341TMC3    C1 5110   3.725   2.468   9.368  0.0857  0.0824  0.5187
  341TMC3    C2 5111   3.600   2.451   9.316  1.0091 -0.1551  0.5032
  341TMC3    C3 5112   3.562   2.513   9.198  0.3375  0.7749  0.2917
  341TMC3    C4 5113   3.828   2.526   9.298  0.3135  0.1025 -0.0376
  341TMC3    C5 5114   3.787   2.580   9.181  0.1210 -0.2073  0.2260
  341TMC3    C6 5115   3.655   2.579   9.132  1.2413  0.1809  0.6280
  341TMC3     C 5116   3.753   2.405   9.500  0.0234  0.1649  0.5231
  341TMC3     O 5117   3.654   2.405   9.573 -0.1495 -0.1741  0.5803
  341TMC3     H 5118   3.539   2.371   9.357 -0.1355  1.0956  1.2160
  341TMC3    H1 5119   3.926   2.548   9.339  1.3224 -2.3864 -1.1092
  341TMC3    H2 5120   3.618   2.627   9.042 -0.3270  1.3855  1.9148
  341TMC3    C7 5121   3.880   2.677   9.129  0.5018  0.0495  0.0691
  341TMC3    C8 5122   3.432   2.493   9.144  0.0602 -0.1829 -0.5801
  341TMC3    O1 5123   3.964   2.724   9.207 -0.1678 -0.0783 -0.2550
  341TMC3    O2 5124   3.378   2.392   9.184  0.1506  0.0507 -0.2497
  342MPD2     C 5125   1.360   3.277   0.047 -0.4771 -0.0343 -0.3754
  342MPD2    C1 5126   1.496   3.273   0.026 -0.1354 -0.7688  0.4317
  342MPD2    C2 5127   1.583   3.375   0.072  0.3697  0.1578  0.1318
  342MPD2    C3 5128   1.537   3.475   0.156 -0.1409 -0.3378  0.9749
  342MPD2    C4 5129   1.401   3.481   0.169  0.4997  0.3299 -0.8995
  342MPD2    C5 5130   1.315   3.384   0.122 -0.0298 -0.6088 -0.1547
  342MPD2     H 5131   1.688   3.360   0.049  0.0636  0.0728 -1.2335
  342MPD2    H1 5132   1.354   3.556   0.232  0.9373  0.7897 -1.1250
  342MPD2    H2 5133   1.295   3.193   0.023  1.5673 -0.7685 -3.3740
  342MPD2    H3 5134   1.207   3.396   0.134 -0.5738 -2.7970 -2.9324
  342MPD2     N 5135   1.618   3.579   0.208 -0.6961 -0.3691 -0.1142
  342MPD2    H5 5136   1.565   3.648   0.260 -0.6388  1.6696 -2.7626
  342MPD2    N1 5137   1.549   3.162  17.633  0.6910  0.2734  0.2871
  342MPD2    H7 5138   1.649   3.159  17.615  0.6871  0.3314  0.2550
  343TMC3    C1 5139   1.527   2.948  17.534 -0.5326  0.4624  0.2878
  343TMC3    C2 5140   1.634   2.973  17.449  0.1808  0.0952  0.2959
  343TMC3    C3 5141   1.676   2.877  17.367  0.1456  0.2394  0.4337
  343TMC3    C4 5142   1.465   2.826  17.538  0.4493 -0.4378  0.5403
  343TMC3    C5 5143   1.513   2.735  17.454 -0.7428  0.7466 -0.1172
  343TMC3    C6 5144   1.611   2.756  17.368 -0.6544  0.2737 -0.0728
  343TMC3     C 5145   1.481   3.047  17.631 -0.2999  0.0183 -0.1142
  343TMC3     O 5146   1.382   3.003   0.012 -0.2981  0.1523 -0.7555
  343TMC3     H 5147   1.672   3.074  17.435 -0.5918  0.1658 -1.3075
  343TMC3    H1 5148   1.380   2.799  17.600 -0.2433  2.4455  0.8566
  343TMC3    H2 5149   1.648   2.669  17.315 -1.3496 -0.8264  1.2303
  343TMC3    C7 5150   1.452   2.605  17.450  0.1266 -0.1850  0.3226
  343TMC3    C8 5151   1.817   2.871  17.339 -0.2896  0.2697  0.3714
  343TMC3    O1 5152   1.415   2.558  17.344  0.6413  0.0737 -0.3743
  343TMC3    O2 5153   1.888   2.944  17.406 -0.0943  0.1361 -0.2976
  344MPD2     C 5154   2.368   1.737  10.488  0.4769 -0.4303 -0.1119
  344MPD2    C1 5155   2.265   1.802  10.432 -0.1439 -0.3919  0.3750
  344MPD2    C2 5156   2.277   1.921  10.355 -0.3779  0.2702 -0.3778
  344MPD2    C3 5157   2.401   1.972  10.335  0.2130  0.4376  0.8777
  344MPD2    C4 5158   2.510   1.904  10.388  0.3316  0.4905 -0.3778
  344MPD2    C5 5159   2.486   1.788  10.468 -0.2589  0.0246 -0.7110
  344MPD2     H 5160   2.193   1.973  10.310 -1.4306 -1.0570  0.0506
  344MPD2    H1 5161   2.616   1.920  10.372  0.6219 -1.5851 -0.5223
  344MPD2    H2 5162   2.359   1.658  10.562 -0.6822  0.5763  0.8325
  344MPD2    H3 5163   2.574   1.741  10.510 -1.1084 -2.7938 -2.1326
  344MPD2     N 5164   2.427   2.098  10.284  0.4906 -0.6235 -0.6224
  344MPD2    H5 5165   2.522   2.131  10.297  1.0221 -1.7845 -1.5552
  344MPD2    N1 5166   2.137   1.751  10.465  0.2975  0.1561  0.0713
  344MPD2    H7 5167   2.125   1.680  10.536  0.9596 -2.0936 -2.0489
  345TMC3    C1 5168   2.387   2.309  10.181  0.9119 -0.5075 -0.3494
  345TMC3    C2 5169   2.498   2.359  10.254 -0.3027  0.0780  0.2495
  345TMC3    C3 5170   2.529   2.489  10.223  0.1180  0.2066  0.1796
  345TMC3    C4 5171   2.327   2.372  10.076  0.1184  0.1891 -0.4706
  345TMC3    C5 5172   2.371   2.498  10.051  0.8731 -0.4856  0.3327
  345TMC3    C6 5173   2.475   2.556  10.122  0.8288 -0.5183  0.6863
  345TMC3     C 5174   2.340   2.171  10.210 -0.0396  0.6872 -0.3940
  345TMC3     O 5175   2.245   2.126  10.145 -0.3870 -0.7031  0.6516
  345TMC3     H 5176   2.540   2.310  10.341  2.9305 -0.2140 -1.4340
  345TMC3    H1 5177   2.248   2.329  10.016  0.5226 -2.8807  1.1958
  345TMC3    H2 5178   2.505   2.659  10.107  2.6122 -0.9184  1.6318
  345TMC3    C7 5179   2.289   2.596   9.980  0.2541  0.3486 -0.1882
  345TMC3    C8 5180   2.529   2.569  10.347  0.3507  0.1319 -0.2230
  345TMC3    O1 5181   2.304   2.710  10.025  0.3817  0.7049  0.0764
  345TMC3    O2 5182   2.574   2.521  10.445  0.6695  0.2092 -0.7376
  346MPD2     C 5183   2.574   3.521  13.812  0.2289  0.0560 -0.0139
  346MPD2    C1 5184   2.669   3.623  13.827  0.4038 -0.3073  0.5434
  346MPD2    C2 5185   2.673   3.694  13.949 -0.2555 -0.1566  0.3010
  346MPD2    C3 5186   2.562   3.687  14.027 -0.4604  0.3087 -0.6938
  346MPD2    C4 5187   2.453   3.599  13.999 -0.4204  0.1214  0.5858
  346MPD2    C5 5188   2.460   3.517  13.891  0.6199 -0.2121 -0.0707
  346MPD2     H 5189   2.754   3.763  13.971 -1.7385  1.8699 -0.5856
  346MPD2    H1 5190   2.359   3.606  14.051 -0.7403 -2.2448  0.3066
  346MPD2    H2 5191   2.575   3.467  13.718  1.2198  0.1821 -0.0825
  346MPD2    H3 5192   2.382   3.448  13.860  0.3154 -0.7899  1.9879
  346MPD2     N 5193   2.554   3.781  14.135  0.0380 -0.3800 -0.1458
  346MPD2    H5 5194   2.619   3.858  14.132 -2.2372  1.5089 -0.6455
  346MPD2    N1 5195   2.767   3.650  13.725 -0.4822 -0.6043 -0.1243
  346MPD2    H7 5196   2.840   3.716  13.749  0.2834 -1.4916 -0.0246
  347TMC3    C1 5197   2.471   3.890  14.340  0.5450 -0.1662  0.4626
  347TMC3    C2 5198   2.583   3.968  14.342  0.1409 -0.0690 -0.5523
  347TMC3    C3 5199   2.615   4.031  14.462  0.0336  0.3808 -0.3162
  347TMC3    C4 5200   2.381   3.876  14.444 -0.1344  0.5149  0.5167
  347TMC3    C5 5201   2.420   3.931  14.564  0.3122  0.0169  0.1482
  347TMC3    C6 5202   2.540   3.996  14.571  0.2484 -0.0126 -0.1107
  347TMC3     C 5203   2.463   3.775  14.243 -0.4153 -0.0668 -0.3564
  347TMC3     O 5204   2.399   3.679  14.280 -0.1041  0.1698  0.4884
  347TMC3     H 5205   2.658   3.955  14.265  1.0080  1.5083  0.0047
  347TMC3    H1 5206   2.292   3.814  14.444 -0.7611  1.4240  1.8177
  347TMC3    H2 5207   2.577   4.027  14.668 -0.2776  2.4676 -0.6807
  347TMC3    C7 5208   2.352   3.889  14.686  0.7074 -0.2443 -0.7842
  347TMC3    C8 5209   2.756   4.044  14.482  0.0450 -0.0744  0.3476
  347TMC3    O1 5210   2.233   3.870  14.686 -0.3597  0.6287 -0.5837
  347TMC3    O2 5211   2.828   3.991  14.395  0.2080  0.4375  0.3386
  348MPD2     C 5212   0.453   2.873  11.952  0.0802  0.2259  0.1861
  348MPD2    C1 5213   0.528   2.990  11.942 -0.3245  0.0386  0.5941
  348MPD2    C2 5214   0.480   3.092  11.867  0.0843 -0.5233  0.1562
  348MPD2    C3 5215   0.358   3.081  11.801  0.5785 -0.5952  0.7728
  348MPD2    C4 5216   0.284   2.962  11.808 -0.1164  0.7652  0.1628
  348MPD2    C5 5217   0.334   2.860  11.883 -0.0002 -0.4101 -0.2911
  348MPD2     H 5218   0.534   3.186  11.860  1.2899 -1.1721  0.6703
  348MPD2    H1 5219   0.203   2.935  11.742 -0.6185 -1.1540  1.5576
  348MPD2    H2 5220   0.477   2.790  12.016  0.9356  0.7010  0.4851
  348MPD2    H3 5221   0.284   2.764  11.881 -0.6555 -0.1222  2.4677
  348MPD2     N 5222   0.317   3.191  11.725  0.3772 -0.8555  0.2079
  348MPD2    H5 5223   0.389   3.261  11.710 -0.1425 -0.3058  0.2753
  348MPD2    N1 5224   0.649   3.011  12.006  0.7857 -0.2883  0.2723
  348MPD2    H7 5225   0.692   3.102  12.009  1.3297 -0.5440  0.2949
  349TMC3    C1 5226   0.836   2.937  12.142 -0.4003 -0.2737  0.2727
  349TMC3    C2 5227   0.886   2.847  12.227 -0.2123  0.7015  0.0065
  349TMC3    C3 5228   1.021   2.854  12.254 -0.3646 -0.0747  0.1994
  349TMC3    C4 5229   0.917   3.039  12.084 -0.0423  0.8350 -0.1743
  349TMC3    C5 5230   1.052   3.046  12.123 -0.2635 -0.6706  0.2587
  349TMC3    C6 5231   1.104   2.951  12.204  0.1130  0.4977  0.6055
  349TMC3     C 5232   0.705   2.914  12.088 -0.2659  0.0429 -0.3983
  349TMC3     O 5233   0.659   2.810  12.135  0.2878 -0.6142 -0.2500
  349TMC3     H 5234   0.823   2.777  12.280  1.0835 -0.1874  0.3730
  349TMC3    H1 5235   0.878   3.108  12.010 -0.7327 -1.3936 -1.9155
  349TMC3    H2 5236   1.212   2.947  12.215  0.1820 -0.7086 -0.5519
  349TMC3    C7 5237   1.150   3.113  12.044 -0.1943 -0.9154  0.9108
  349TMC3    C8 5238   1.092   2.733  12.290  0.0808  0.4221 -0.9796
  349TMC3    O1 5239   1.248   3.160  12.100  0.0755  0.0282  0.1147
  349TMC3    O2 5240   1.208   2.744  12.327  0.3617 -0.2055  0.6158
  350MPD2     C 5241   4.092   1.541   9.680 -0.1220 -0.1821 -0.2008
  350MPD2    C1 5242   4.027   1.449   9.762  0.1614  0.1179 -0.5775
  350MPD2    C2 5243   4.098   1.410   9.870 -0.1353  0.5836 -0.1476
  350MPD2    C3 5244   4.232   1.450   9.902 -0.2307  0.0803 -0.4192
  350MPD2    C4 5245   4.292   1.543   9.818 -0.2456  0.2430  0.1215
  350MPD2    C5 5246   4.217   1.592   9.712 -0.3718 -0.0398  0.7053
  350MPD2     H 5247   4.052   1.338   9.936 -2.7621  2.1493 -0.2958
  350MPD2    H1 5248   4.397   1.568   9.816 -0.4396  1.1802  1.7615
  350MPD2    H2 5249   4.044   1.584   9.593 -1.4525 -1.7362 -0.2441
  350MPD2    H3 5250   4.256   1.656   9.633 -0.2894 -0.5051  0.3706
  350MPD2     N 5251   4.299   1.382  10.005  0.1645 -0.3340 -0.8620
  350MPD2    H5 5252   4.252   1.304  10.050  0.2453 -0.3568 -0.8180
  350MPD2    N1 5253   3.896   1.393   9.750 -0.4889  0.2156 -0.4552
  350MPD2    H7 5254   3.874   1.327   9.825  0.6079  0.3806  0.0035
  351TMC3    C1 5255   3.721   1.302   9.634  0.3152 -0.0780  0.1263
  351TMC3    C2 5256   3.762   1.180   9.677  0.1688  0.4905 -0.1423
  351TMC3    C3 5257   3.689   1.069   9.643 -0.0902  0.1006  0.1052
  351TMC3    C4 5258   3.605   1.321   9.555 -0.1006 -0.4808 -0.0109
  351TMC3    C5 5259   3.535   1.206   9.528  0.5420 -0.3165 -0.2945
  351TMC3    C6 5260   3.574   1.080   9.576  0.2654  0.0761 -0.1230
  351TMC3     C 5261   3.811   1.410   9.643 -0.3153  0.3502 -0.3715
  351TMC3     O 5262   3.808   1.498   9.556 -0.2834 -0.1366 -0.0022
  351TMC3     H 5263   3.859   1.165   9.724  1.4123  1.7520 -2.3023
  351TMC3    H1 5264   3.585   1.419   9.514 -2.2172 -0.7478  0.3552
  351TMC3    H2 5265   3.520   0.990   9.550  0.3147 -0.5241  1.8154
  351TMC3    C7 5266   3.409   1.227   9.457 -0.2913 -0.1704 -0.2552
  351TMC3    C8 5267   3.762   0.942   9.654 -0.3660 -0.0362 -0.0960
  351TMC3    O1 5268   3.377   1.348   9.455  0.5227  0.4531  0.5982
  351TMC3    O2 5269   3.857   0.941   9.732  0.3465 -0.6346  0.0729
  352MPD2     C 5270   3.169   3.950   1.606  0.3938  0.0172  0.0367
  352MPD2    C1 5271   3.095   3.883   1.513  0.6833  0.5108 -0.7502
  352MPD2    C2 5272   3.052   3.754   1.549  0.3791  0.1008 -0.2631
  352MPD2    C3 5273   3.072   3.693   1.670 -0.4212 -0.6748 -0.0345
  352MPD2    C4 5274   3.143   3.758   1.760  0.8882  0.6360  0.7548
  352MPD2    C5 5275   3.188   3.886   1.729 -0.9967 -0.5700  0.3229
  352MPD2     H 5276   2.982   3.707   1.480  1.7208 -0.1966 -1.4237
  352MPD2    H1 5277   3.171   3.715   1.855  0.0349 -0.6010  0.4507
  352MPD2    H2 5278   3.224   4.041   1.589 -2.0881  1.4498 -0.2595
  352MPD2    H3 5279   3.257   3.930   1.800  0.1340  0.2967 -1.2939
  352MPD2     N 5280   3.025   3.559   1.699 -0.2017 -0.1623 -0.0365
  352MPD2    H5 5281   3.054   3.526   1.790 -0.4167  0.2945  0.1988
  352MPD2    N1 5282   3.060   3.940   1.383 -0.2581 -0.4233  0.3126
  352MPD2    H7 5283   3.010   3.881   1.317 -2.6297 -0.1901  1.9430
  353TMC3    C1 5284   2.943   3.337   1.663  0.3383 -0.5544 -0.5407
  353TMC3    C2 5285   3.049   3.293   1.741  0.4676  0.4473 -0.5864
  353TMC3    C3 5286   3.069   3.158   1.727 -0.1288 -0.7744  0.5103
  353TMC3    C4 5287   2.859   3.269   1.585 -0.1088  0.0378 -0.3406
  353TMC3    C5 5288   2.872   3.132   1.598 -0.4464 -0.5938  0.2835
  353TMC3    C6 5289   2.975   3.077   1.671 -0.1192  0.8094 -0.4126
  353TMC3     C 5290   2.959   3.469   1.612 -0.5131 -0.0137 -0.7371
  353TMC3     O 5291   2.904   3.488   1.504 -0.0954  0.2169 -0.6749
  353TMC3     H 5292   3.124   3.357   1.786  0.4645 -0.1231  0.2271
  353TMC3    H1 5293   2.782   3.312   1.523 -0.8959 -0.3387  0.3786
  353TMC3    H2 5294   2.985   2.969   1.662 -0.3887  0.8588 -1.2530
  353TMC3    C7 5295   2.807   3.055   1.498 -0.1317  0.1112  0.3608
  353TMC3    C8 5296   3.180   3.098   1.809 -0.0928  0.3194 -0.3433
  353TMC3    O1 5297   2.788   3.114   1.392 -0.2267 -0.0654  0.3860
  353TMC3    O2 5298   3.244   3.170   1.888 -0.0899 -0.0442 -0.1517
  354TMC3    C1 5299   0.258   4.457  13.087  0.4219  0.1394 -0.3481
  354TMC3    C2 5300   0.180   4.572  13.065  0.3247 -0.5909  0.2484
  354TMC3    C3 5301   0.146   4.599  12.938  0.4544 -0.9754 -0.0801
  354TMC3    C4 5302   0.309   4.378  12.989  0.3701  0.2030  0.1703
  354TMC3    C5 5303   0.260   4.406  12.863  0.8885 -0.3555 -0.4059
  354TMC3    C6 5304   0.184   4.519  12.836  0.3976  0.1219  0.4711
  354TMC3     C 5305   0.218   4.398  13.219  0.1082 -0.3666 -0.6867
  354TMC3     O 5306   0.128   4.444  13.282 -0.8489 -0.2751  0.2923
  354TMC3     H 5307   0.127   4.626  13.142  0.8043  0.5647 -0.2375
  354TMC3    H1 5308   0.357   4.284  13.013 -0.7283 -0.7755 -1.4208
  354TMC3    H2 5309   0.153   4.546  12.736 -2.9585 -0.5242  1.3222
  354TMC3    C7 5310   0.340   4.370  12.754  0.5354 -0.2927  1.0400
  354TMC3    C8 5311   0.097   0.015  12.903  0.1911  0.0475  0.4129
  354TMC3    O1 5312   0.328   4.255  12.718  0.0134 -0.6750  0.4425
  354TMC3    O2 5313   0.037   0.013  12.795 -0.0188 -0.0708  0.1243
  355MPD2     C 5314   0.722   0.269  11.678  1.0046 -0.0565  0.0423
  355MPD2    C1 5315   0.697   0.324  11.552 -0.3767  0.0431  0.0832
  355MPD2    C2 5316   0.780   0.433  11.517  0.0942  0.4001 -0.4955
  355MPD2    C3 5317   0.852   0.504  11.605 -0.3559 -0.3975  0.3257
  355MPD2    C4 5318   0.851   0.459  11.737  0.0687 -0.5661 -0.4487
  355MPD2    C5 5319   0.802   0.334  11.769 -0.0369 -0.3810 -0.5406
  355MPD2     H 5320   0.776   0.468  11.415 -0.7295  1.8546  0.0344
  355MPD2    H1 5321   0.899   0.514  11.818  0.3270 -0.7921 -0.4438
  355MPD2    H2 5322   0.668   0.178  11.702 -2.3009  1.9535  0.2152
  355MPD2    H3 5323   0.800   0.296  11.871  0.8642 -0.7928 -0.6698
  355MPD2     N 5324   0.911   0.632  11.584 -0.2605  0.9697 -0.2911
  355MPD2    H5 5325   0.930   0.687  11.666 -0.3018  2.1206 -1.0554
  355MPD2    N1 5326   0.604   0.260  11.465  0.2691  0.1365  0.3000
  355MPD2    H7 5327   0.585   0.164  11.493  1.6580 -0.4617 -0.8054
  356TMC3    C1 5328   0.958   0.831  11.463  0.4010  0.1877 -0.0336
  356TMC3    C2 5329   0.935   0.892  11.343 -0.9191  0.0241 -0.3926
  356TMC3    C3 5330   0.945   1.031  11.340  0.5198  0.8693  0.3042
  356TMC3    C4 5331   0.973   0.899  11.581 -0.3409  0.8339 -0.5576
  356TMC3    C5 5332   0.980   1.029  11.566 -0.0268 -0.5906 -0.2474
  356TMC3    C6 5333   0.960   1.106  11.450 -0.3663  0.6027 -0.1658
  356TMC3     C 5334   0.935   0.690  11.460  0.0475  0.0516  0.2949
  356TMC3     O 5335   0.931   0.642  11.349  0.3006  0.6196 -0.5220
  356TMC3     H 5336   0.924   0.833  11.253  0.1527  1.4742 -1.4921
  356TMC3    H1 5337   1.007   0.852  11.673 -0.7775  1.8542  0.1166
  356TMC3    H2 5338   0.953   1.213  11.444  0.9677  0.6765 -0.4225
  356TMC3    C7 5339   0.997   1.100  11.696  0.2162 -0.2265 -0.3465
  356TMC3    C8 5340   0.933   1.098  11.209 -0.6196 -0.1649  0.5097
  356TMC3    O1 5341   0.993   1.033  11.798  0.1483  0.2574  0.3561
  356TMC3    O2 5342   0.893   1.034  11.113 -0.7096 -0.2235 -0.0444
  357MPD2     C 5343   4.563   0.968   0.667  0.2423  0.0967 -0.6208
  357MPD2    C1 5344   4.683   0.948   0.736  0.8503 -0.2707 -0.0860
  357MPD2    C2 5345   4.684   0.951   0.878  0.1039 -0.3658 -0.2158
  357MPD2    C3 5346   4.567   0.964   0.947  0.4125  1.0854  0.5610
  357MPD2    C4 5347   4.450   0.981   0.880  0.4053 -0.0749 -0.4203
  357MPD2    C5 5348   4.448   0.982   0.738 -0.0814 -0.1977 -0.3912
  357MPD2     H 5349   0.059   0.941   0.933 -0.5436 -0.1495  0.9149
  357MPD2    H1 5350   4.351   0.991   0.922  0.9016  1.2844  0.4203
  357MPD2    H2 5351   4.557   0.988   0.560 -2.6345  1.0980 -0.2873
  357MPD2    H3 5352   4.352   0.995   0.689  0.0625 -2.9904 -1.4638
  357MPD2     N 5353   4.556   0.957   1.087 -0.2411 -0.5063  0.1111
  357MPD2    H5 5354   4.461   0.944   1.121  0.2973 -0.1664  1.7317
  357MPD2    N1 5355   0.081   0.927   0.657 -0.4792  0.0867 -0.5595
  357MPD2    H7 5356   0.075   0.935   0.556 -0.0783  0.9503 -0.5181
  358TMC3    C1 5357   0.302   0.862   0.612  0.1445  0.2925 -0.3295
  358TMC3    C2 5358   0.271   0.893   0.482 -0.0951 -0.3195 -0.0618
  358TMC3    C3 5359   0.321   0.814   0.390 -0.0776 -0.8786  0.4692
  358TMC3    C4 5360   0.382   0.756   0.649 -1.0047 -0.3200  0.0750
  358TMC3    C5 5361   0.437   0.681   0.544 -0.4551 -0.6083 -0.2253
  358TMC3    C6 5362   0.414   0.719   0.421  0.2091 -0.3209  0.1687
  358TMC3     C 5363   0.202   0.893   0.710 -0.2422  0.1313 -0.3520
  358TMC3     O 5364   0.229   0.877   0.823 -0.0202  0.2384  0.3188
  358TMC3     H 5365   0.227   0.987   0.453 -0.2923  0.4941  2.9064
  358TMC3    H1 5366   0.396   0.724   0.752  0.7298 -0.8221 -0.3281
  358TMC3    H2 5367   0.447   0.647   0.347 -0.8482 -0.6809  0.0461
  358TMC3    C7 5368   0.551   0.601   0.570 -0.6836 -0.8993  0.0220
  358TMC3    C8 5369   0.282   0.837   0.248 -0.0395 -0.3652 -0.4627
  358TMC3    O1 5370   0.643   0.605   0.484 -0.2024 -0.5814  0.5051
  358TMC3    O2 5371   0.200   0.927   0.224 -0.3420 -0.7200 -0.4968
  359MPD2     C 5372   0.957   3.975  12.382  0.5509 -0.6921 -0.9336
  359MPD2    C1 5373   0.864   3.917  12.298  0.2883 -0.1423 -0.1335
  359MPD2    C2 5374   0.834   3.782  12.315 -0.5274  0.0074 -0.0458
  359MPD2    C3 5375   0.910   3.704  12.394  0.3050  0.0118  1.0252
  359MPD2    C4 5376   1.014   3.760  12.464  0.2003 -0.7712 -0.2627
  359MPD2    C5 5377   1.039   3.894  12.458  0.1622  0.0597  0.2099
  359MPD2     H 5378   0.765   3.731  12.248  2.4740 -2.1059 -1.5866
  359MPD2    H1 5379   1.069   3.700  12.535  0.2314  0.1528  0.5034
  359MPD2    H2 5380   0.979   4.081  12.385  0.4770 -0.7534  1.8809
  359MPD2    H3 5381   1.122   3.936  12.514 -0.1907  0.4929  0.4081
  359MPD2     N 5382   0.879   3.572  12.437  0.2600 -0.0753  0.0582
  359MPD2    H5 5383   0.944   3.526  12.499 -0.3864 -0.2911  0.5776
  359MPD2    N1 5384   0.788   3.985  12.203  0.3514  0.0383 -0.1993
  359MPD2    H7 5385   0.731   3.927  12.142 -0.3164  1.8431 -1.2775
  360TMC3    C1 5386   0.724   4.177  12.066  0.0837  0.3379 -0.5721
  360TMC3    C2 5387   0.755   4.305  12.031 -0.4925  0.3009  0.1647
  360TMC3    C3 5388   0.661   4.392  11.979 -0.4129 -0.4285  0.4970
  360TMC3    C4 5389   0.591   4.141  12.060  0.4084 -0.5745 -0.1274
  360TMC3    C5 5390   0.493   4.227  12.014  0.1537 -0.3929  0.7115
  360TMC3    C6 5391   0.524   4.351  11.964 -0.0556  0.7492  0.2974
  360TMC3     C 5392   0.806   4.120  12.169  0.6601 -0.4224  0.4370
  360TMC3     O 5393   0.882   4.200  12.224 -0.4952 -0.4939  0.4167
  360TMC3     H 5394   0.858   4.331  12.055 -0.2955 -2.3927  2.2735
  360TMC3    H1 5395   0.570   4.044  12.105  0.9760 -0.4549  0.3979
  360TMC3    H2 5396   0.455   4.417  11.913  0.2045 -1.8700 -3.4124
  360TMC3    C7 5397   0.378   4.159  11.959 -0.2831  0.0553 -0.3403
  360TMC3    C8 5398   0.708   4.476  11.880 -0.5265 -0.6237 -0.3500
  360TMC3    O1 5399   0.382   4.039  11.949 -0.7286 -0.4355 -0.2407
  360TMC3    O2 5400   0.628   4.560  11.838  0.0185 -0.2749 -0.1939
  361MPD2     C 5401   2.545   3.753  17.264 -0.6765  0.2116  0.0205
  361MPD2    C1 5402   2.510   3.642  17.193  0.9967 -0.3149  0.6021
  361MPD2    C2 5403   2.584   3.525  17.195 -0.0501  0.1681  1.0043
  361MPD2    C3 5404   2.684   3.521  17.289 -0.7135 -0.4180  0.0936
  361MPD2    C4 5405   2.720   3.633  17.361  0.7252 -0.4272  0.0997
  361MPD2    C5 5406   2.653   3.750  17.348  0.6158 -0.0213  1.2388
  361MPD2     H 5407   2.557   3.447  17.125  0.6281 -0.3873  1.3681
  361MPD2    H1 5408   2.799   3.636  17.434  1.7413  0.4709 -1.0522
  361MPD2    H2 5409   2.481   3.841  17.255 -0.8618  0.0503 -0.2419
  361MPD2    H3 5410   2.690   3.834  17.405  1.5723 -1.0909  2.2079
  361MPD2     N 5411   2.763   3.408  17.308 -0.1355 -0.2703 -0.3000
  361MPD2    H5 5412   2.830   3.417  17.385 -1.6748 -0.3359  1.0513
  361MPD2    N1 5413   2.400   3.630  17.111 -0.7976  0.0220 -0.6528
  361MPD2    H7 5414   2.378   3.538  17.075 -0.3192 -0.2190 -0.3324
  362TMC3    C1 5415   2.212   3.697  17.007 -0.4711 -0.3882  0.0933
  362TMC3    C2 5416   2.127   3.615  17.082  0.1553  0.7958  0.9687
  362TMC3    C3 5417   1.999   3.601  17.031 -0.5916  0.7912 -0.6274
  362TMC3    C4 5418   2.180   3.745  16.886 -0.5704 -0.1328  0.3410
  362TMC3    C5 5419   2.059   3.707  16.836  0.5166 -0.5772 -0.2156
  362TMC3    C6 5420   1.958   3.641  16.911  0.4920 -0.2949  0.4082
  362TMC3     C 5421   2.329   3.739  17.068 -0.5176 -0.7075 -0.1931
  362TMC3     O 5422   2.362   3.857  17.052 -0.0479 -0.0263 -0.2750
  362TMC3     H 5423   2.152   3.581  17.183 -1.5725 -0.3249  1.0215
  362TMC3    H1 5424   2.251   3.804  16.830 -2.0456  0.2288 -1.1472
  362TMC3    H2 5425   1.855   3.627  16.883 -0.2910  2.6512  1.7502
  362TMC3    C7 5426   2.028   3.749  16.703  0.1580 -0.3255 -0.4244
  362TMC3    C8 5427   1.903   3.543  17.127 -0.0759 -0.0500  0.4427
  362TMC3    O1 5428   2.094   3.838  16.646  0.0268 -0.0210  0.4914
  362TMC3    O2 5429   1.964   3.465  17.202 -0.0225 -0.0291 -0.5190
  363TMC3    C1 5430   0.185   0.652   9.852  0.8085  0.5726  0.0163
  363TMC3    C2 5431   0.167   0.520   9.874 -0.5850  0.2620 -0.2197
  363TMC3    C3 5432   0.039   0.482   9.926  0.3942  0.2716  0.8989
  363TMC3    C4 5433   0.085   0.747   9.873 -0.2379  0.2138 -0.2562
  363TMC3    C5 5434   4.681   0.699   9.927  0.0494  0.5079  0.6767
  363TMC3    C6 5435   4.653   0.566   9.950 -0.2950 -0.2184 -0.4424
  363TMC3     C 5436   0.301   0.716   9.784  0.3670  0.5440  0.0184
  363TMC3     O 5437   0.326   0.835   9.806 -0.1624  0.4346 -0.3124
  363TMC3     H 5438   0.256   0.458   9.875 -1.4362 -0.8633  3.2553
  363TMC3    H1 5439   0.108   0.851   9.854 -2.4537  0.5793 -0.8885
  363TMC3    H2 5440   4.554   0.538   9.984  0.2518  0.1503  1.4473
  363TMC3    C7 5441   4.569   0.775   9.886 -0.6985  0.2484  0.3411
  363TMC3    C8 5442   0.004   0.344   9.942 -0.2085  0.1294 -0.5867
  363TMC3    O1 5443   4.460   0.724   9.884 -0.0943 -0.1525  0.2120
  363TMC3    O2 5444   4.610   0.320   9.988  0.1988 -0.2214  0.1901
  364MPD2     C 5445   3.739   4.320   9.990  0.8462  0.1455 -0.2129
  364MPD2    C1 5446   3.826   4.405  10.062 -0.4582 -1.1800  0.0215
  364MPD2    C2 5447   3.883   4.349  10.175 -0.1187  0.5086 -0.0353
  364MPD2    C3 5448   3.868   4.215  10.217 -0.0713  0.1183 -0.3531
  364MPD2    C4 5449   3.780   4.147  10.145 -0.2058 -0.1220 -0.5663
  364MPD2    C5 5450   3.709   4.194  10.035  0.6433  0.2248 -0.2128
  364MPD2     H 5451   3.961   4.401  10.229 -0.2185 -0.2119  0.8043
  364MPD2    H1 5452   3.754   4.046  10.175  0.6360 -0.4472 -0.9519
  364MPD2    H2 5453   3.695   4.346   9.894 -0.6124 -0.4405  0.2980
  364MPD2    H3 5454   3.637   4.131   9.984  0.7840 -0.6964  0.7319
  364MPD2     N 5455   3.951   4.155  10.312  0.3255 -0.1696  0.1230
  364MPD2    H5 5456   3.927   4.060  10.340  1.6676 -0.5593 -0.0155
  364MPD2    N1 5457   3.857   4.541  10.021 -0.0254  0.8902  0.2733
  364MPD2    H7 5458   3.812   4.582   9.940  1.6604  0.4329 -0.8892
  365TMC3    C1 5459   3.966   0.027  10.008 -0.1935  0.5893 -0.5478
  365TMC3    C2 5460   3.975   0.011   9.869  0.8347  0.1052  0.6766
  365TMC3    C3 5461   4.000   0.123   9.785  0.2072 -0.0437  0.6761
  365TMC3    C4 5462   4.010   0.142  10.064 -0.9815 -0.0760 -0.2422
  365TMC3    C5 5463   4.042   0.245   9.982 -1.2449  0.8186 -0.5113
  365TMC3    C6 5464   4.040   0.238   9.846  0.2721  0.3458  0.2532
  365TMC3     C 5465   3.940   4.627  10.089 -0.8181  0.3935 -0.6826
  365TMC3     O 5466   3.998   4.608  10.194  1.0721  0.0048  0.7185
  365TMC3     H 5467   3.985   4.627   9.832 -1.5040 -0.2049  0.8799
  365TMC3    H1 5468   3.988   0.148  10.170  1.3044 -2.4817  0.3966
  365TMC3    H2 5469   4.080   0.321   9.790  0.6256  1.0449  1.5361
  365TMC3    C7 5470   4.143   0.329  10.025  0.4556  0.5211 -0.1806
  365TMC3    C8 5471   4.038   0.097   9.650  0.3469  0.0502 -0.3299
  365TMC3    O1 5472   4.237   0.353   9.953 -0.0267 -0.5852 -0.2943
  365TMC3    O2 5473   4.084   0.186   9.584 -0.0436 -0.0427 -0.0307
  366MPD2     C 5474   2.682   1.493  15.398  0.7958 -0.5863 -0.8528
  366MPD2    C1 5475   2.765   1.583  15.336  0.0314  0.0674 -0.2736
  366MPD2    C2 5476   2.889   1.555  15.295  0.1022 -0.1143  0.4820
  366MPD2    C3 5477   2.934   1.423  15.314  0.3998  0.2239 -0.1892
  366MPD2    C4 5478   2.860   1.329  15.377 -0.3423  0.4128  0.9746
  366MPD2    C5 5479   2.729   1.365  15.416 -0.0829 -0.0787  0.1616
  366MPD2     H 5480   2.958   1.632  15.263  1.3525 -0.6850  1.7921
  366MPD2    H1 5481   2.891   1.225  15.385 -1.5465  0.0325  0.6135
  366MPD2    H2 5482   2.585   1.524  15.435  1.8943  0.1759  1.3373
  366MPD2    H3 5483   2.674   1.294  15.477  0.2351 -1.2100 -0.8520
  366MPD2     N 5484   3.072   1.399  15.277 -0.4102 -0.4262 -0.2125
  366MPD2    H5 5485   3.126   1.477  15.240 -2.0279  1.3767  1.2577
  366MPD2    N1 5486   2.733   1.718  15.347  0.4023 -0.5625 -0.6856
  366MPD2    H7 5487   2.795   1.781  15.299 -1.9161  0.3445 -2.5105
  367TMC3    C1 5488   2.630   1.916  15.386  0.3407 -0.6336  0.0796
  367TMC3    C2 5489   2.692   1.970  15.490  0.2537  0.1247 -0.0477
  367TMC3    C3 5490   2.697   2.108  15.494  0.0077  0.0823 -0.0536
  367TMC3    C4 5491   2.582   1.981  15.277  0.2752  0.4335  0.4369
  367TMC3    C5 5492   2.590   2.117  15.284  0.0776  0.6421  0.0400
  367TMC3    C6 5493   2.639   2.180  15.392  0.2876 -0.2482 -0.3721
  367TMC3     C 5494   2.618   1.773  15.394 -0.2443  0.7463  0.0453
  367TMC3     O 5495   2.511   1.734  15.441 -0.0604 -0.0231 -0.4617
  367TMC3     H 5496   2.688   1.908  15.580  2.4603  0.9779  0.6365
  367TMC3    H1 5497   2.528   1.921  15.204 -0.8888  2.3964 -0.3048
  367TMC3    H2 5498   2.617   2.286  15.401  3.5751  0.4744 -0.7967
  367TMC3    C7 5499   2.513   2.195  15.182 -0.5288 -0.0468 -0.4294
  367TMC3    C8 5500   2.768   2.170  15.596  0.2031 -0.1180 -0.1935
  367TMC3    O1 5501   2.463   2.297  15.220 -0.0836 -0.0168 -0.2737
  367TMC3    O2 5502   2.796   2.091  15.683  0.5213 -0.2921 -0.6243
  368MPD2     C 5503   3.914   3.605  12.925 -0.6343 -0.5460  0.1554
  368MPD2    C1 5504   3.949   3.733  12.876 -0.1515 -0.3367  0.2205
  368MPD2    C2 5505   4.083   3.758  12.865  0.0231 -0.4958 -0.0634
  368MPD2    C3 5506   4.181   3.664  12.879 -0.3131  0.5463 -0.0144
  368MPD2    C4 5507   4.138   3.546  12.931 -0.7346  0.0441 -0.3592
  368MPD2    C5 5508   4.005   3.509  12.948 -1.2432 -0.7805 -0.9456
  368MPD2     H 5509   4.120   3.850  12.823  0.5271 -2.0733 -3.0847
  368MPD2    H1 5510   4.208   3.468  12.957 -3.2569 -1.7572  1.0495
  368MPD2    H2 5511   3.810   3.576  12.930 -1.1197  1.4138  1.5765
  368MPD2    H3 5512   3.984   3.407  12.980 -2.6206 -0.2909 -0.3035
  368MPD2     N 5513   4.319   3.678  12.855  0.0110  0.1289  0.6349
  368MPD2    H5 5514   4.386   3.603  12.872  0.1226 -0.6469 -3.2597
  368MPD2    N1 5515   3.843   3.826  12.855 -0.6616 -0.8519  0.1996
  368MPD2    H7 5516   3.753   3.794  12.889  0.5010 -1.9861  2.1737
  369TMC3    C1 5517   3.756   4.043  12.849 -0.2934 -0.6466  0.4726
  369TMC3    C2 5518   3.795   4.156  12.915  0.4852 -0.0740 -0.5684
  369TMC3    C3 5519   3.710   4.210  13.007  0.1982 -0.3009  0.1713
  369TMC3    C4 5520   3.638   3.985  12.874  0.1756 -0.3734  0.6695
  369TMC3    C5 5521   3.546   4.044  12.956  0.3644  0.2228 -0.0635
  369TMC3    C6 5522   3.587   4.153  13.030 -0.0933  0.3162 -0.0431
  369TMC3     C 5523   3.868   3.958  12.820 -0.3249  0.1740 -0.2495
  369TMC3     O 5524   3.970   4.009  12.777 -0.4318  0.6083  0.3791
  369TMC3     H 5525   3.889   4.208  12.901 -1.0844  3.0441  0.3752
  369TMC3    H1 5526   3.615   3.893  12.821 -0.5127 -0.8753  1.8488
  369TMC3    H2 5527   3.515   4.187  13.103  1.0725  1.8174  0.4104
  369TMC3    C7 5528   3.461   3.952  13.018 -0.0011  1.0718  0.2200
  369TMC3    C8 5529   3.727   4.357  13.016  0.2958 -0.1691  0.1697
  369TMC3    O1 5530   3.460   3.947  13.137  0.2752  0.2605  0.1384
  369TMC3    O2 5531   3.843   4.395  13.016  0.1213  0.4072  0.2603
  370TMC3    C1 5532   3.430   4.101  16.031 -0.3170 -0.1080 -0.2972
  370TMC3    C2 5533   3.371   4.037  16.139  0.9245  0.1532  0.6405
  370TMC3    C3 5534   3.351   3.901  16.132 -0.4918  0.5493 -0.6283
  370TMC3    C4 5535   3.486   4.030  15.930 -0.2344  0.3769  0.0784
  370TMC3    C5 5536   3.461   3.892  15.929 -0.2556 -0.1170 -0.6246
  370TMC3    C6 5537   3.402   3.826  16.032  0.9130  0.6651  0.7395
  370TMC3     C 5538   3.404   4.235  16.000  0.2695 -0.6239 -0.4192
  370TMC3     O 5539   3.298   4.286  16.043 -0.1953 -0.0875  0.5387
  370TMC3     H 5540   3.334   4.112  16.209  2.7657  0.0841  1.6758
  370TMC3    H1 5541   3.547   4.075  15.853  2.0540  0.0050  1.6613
  370TMC3    H2 5542   3.395   3.718  16.047  1.4793  0.0466 -3.5405
  370TMC3    C7 5543   3.523   3.816  15.818 -0.6524  0.0546 -0.4498
  370TMC3    C8 5544   3.302   3.831  16.249 -0.2167  0.1630 -0.3548
  370TMC3    O1 5545   3.618   3.870  15.762  0.4316  0.5645 -0.2596
  370TMC3    O2 5546   3.273   3.712  16.249 -0.3758 -0.0897 -0.5419
  371TMC3    C1 5547   4.692   2.247  15.622  0.2799  0.0130 -0.2662
  371TMC3    C2 5548   4.573   2.252  15.690 -0.1560  0.0921 -0.4812
  371TMC3    C3 5549   4.501   2.366  15.684 -0.0432 -0.1657  0.3346
  371TMC3    C4 5550   0.011   2.344  15.539  0.2717 -1.0734  0.2153
  371TMC3    C5 5551   4.651   2.452  15.525 -0.4758 -0.4048  0.3589
  371TMC3    C6 5552   4.542   2.471  15.605 -0.5470 -0.4922 -0.0736
  371TMC3     C 5553   0.071   2.138  15.630  0.3281  0.3204 -0.2376
  371TMC3     O 5554   0.189   2.166  15.640  0.1953 -0.7550 -0.6722
  371TMC3     H 5555   4.533   2.170  15.749 -0.4527  0.8797  0.4125
  371TMC3    H1 5556   0.106   2.347  15.487 -1.4301 -0.5698 -2.8761
  371TMC3    H2 5557   4.479   2.558  15.585 -0.5760 -0.6850 -0.8213
  371TMC3    C7 5558   4.686   2.564  15.438 -0.1670 -0.4225  0.2606
  371TMC3    C8 5559   4.359   2.350  15.713 -0.2204 -0.1483  0.2855
  371TMC3    O1 5560   4.659   2.675  15.484 -0.2568  0.4727  0.0377
  371TMC3    O2 5561   4.313   2.240  15.686  0.0143 -0.1317  0.2228
  372MPD2     C 5562   3.757   3.727  13.186 -0.0491  0.9914  0.0278
  372MPD2    C1 5563   3.869   3.690  13.256 -0.3153  0.3369 -0.6991
  372MPD2    C2 5564   3.886   3.553  13.294 -0.1814  1.0527 -0.2626
  372MPD2    C3 5565   3.787   3.462  13.282 -0.0056 -0.3305  0.2807
  372MPD2    C4 5566   3.666   3.493  13.212 -0.4630  0.2043  0.2468
  372MPD2    C5 5567   3.663   3.625  13.169  0.2113  0.0884 -1.0478
  372MPD2     H 5568   3.975   3.521  13.348  0.4222  2.0303 -0.6832
  372MPD2    H1 5569   3.578   3.432  13.201  0.6802 -1.5991  1.0163
  372MPD2    H2 5570   3.727   3.822  13.144 -0.2425  1.1579  0.5430
  372MPD2    H3 5571   3.572   3.641  13.112  0.0849  0.0390 -0.8604
  372MPD2     N 5572   3.807   3.340  13.341  0.0497 -0.4744  0.1740
  372MPD2    H5 5573   3.885   3.328  13.405 -1.4904  1.9774  2.5128
  372MPD2    N1 5574   3.981   3.776  13.248 -0.0827 -0.1561  0.1058
  372MPD2    H7 5575   4.068   3.745  13.289  0.2295 -1.1978 -1.3419
  373TMC3    C1 5576   3.760   3.134  13.437 -0.1119  0.3784  0.5391
  373TMC3    C2 5577   3.791   3.189  13.561  0.2631 -0.5035  0.2210
  373TMC3    C3 5578   3.832   3.094  13.651  0.5257  0.1245  0.2358
  373TMC3    C4 5579   3.760   3.002  13.411  0.1511  0.9670 -0.3145
  373TMC3    C5 5580   3.805   2.916  13.503  0.2647  0.1485  0.7909
  373TMC3    C6 5581   3.855   2.962  13.620 -0.5432 -0.6863  0.3432
  373TMC3     C 5582   3.726   3.232  13.335 -0.4347  0.5321  0.2055
  373TMC3     O 5583   3.629   3.206  13.263  0.2486 -0.1782  0.3526
  373TMC3     H 5584   3.806   3.294  13.583 -1.1053  0.1392 -1.9176
  373TMC3    H1 5585   3.735   2.967  13.311 -0.9267 -0.2033  0.3724
  373TMC3    H2 5586   3.865   2.905  13.711 -0.7125 -1.5938 -0.2060
  373TMC3    C7 5587   3.865   2.792  13.453  0.2286  0.4084  0.5269
  373TMC3    C8 5588   3.881   3.143  13.778  0.3787  0.0754  0.3533
  373TMC3    O1 5589   3.843   2.733  13.348  0.0769 -0.5291  0.2606
  373TMC3    O2 5590   3.976   3.088  13.834 -0.1975  0.4869  0.2822
  374TMC3    C1 5591   4.643   3.188   9.580  0.0119 -0.3488  0.4899
  374TMC3    C2 5592   0.026   3.233   9.652 -0.3136 -0.4205  0.0677
  374TMC3    C3 5593   0.131   3.286   9.581  0.9139  0.1059 -0.4371
  374TMC3    C4 5594   4.637   3.200   9.446  0.1768 -0.3593 -0.0389
  374TMC3    C5 5595   0.028   3.254   9.382  0.7350 -0.7800  0.1458
  374TMC3    C6 5596   0.139   3.298   9.448  0.3773 -0.2807 -0.3062
  374TMC3     C 5597   4.522   3.164   9.648  0.3197  0.0942  0.6021
  374TMC3     O 5598   4.419   3.161   9.581  0.0007 -1.0020  0.3912
  374TMC3     H 5599   0.031   3.218   9.760 -1.5586 -0.7327  0.0770
  374TMC3    H1 5600   4.542   3.182   9.396  0.6421 -1.1756 -0.6293
  374TMC3    H2 5601   0.224   3.357   9.413 -0.3925  1.0396  0.0653
  374TMC3    C7 5602   0.041   3.241   9.240  0.6172  0.1829  0.5896
  374TMC3    C8 5603   0.246   3.347   9.653  0.2608 -0.2251  0.5960
  374TMC3    O1 5604   0.139   3.293   9.191 -0.7029 -0.0601 -0.2512
  374TMC3    O2 5605   0.346   3.367   9.582 -0.5744 -0.0624  0.4975
  375MPD2     C 5606   0.077   4.399  17.062 -0.2387  0.2064 -0.5048
  375MPD2    C1 5607   0.043   4.490  16.964  0.2084 -0.4141 -0.1139
  375MPD2    C2 5608   0.088   4.486  16.829  0.1606  0.2328  0.1793
  375MPD2    C3 5609   0.182   4.387  16.800  0.4431  0.0479 -0.5151
  375MPD2    C4 5610   0.211   4.288  16.897 -0.5649  0.3951  0.6191
  375MPD2    C5 5611   0.153   4.295  17.019 -0.9570  0.8282 -0.3104
  375MPD2     H 5612   0.078   4.566  16.756 -2.9418  0.4721  0.8459
  375MPD2    H1 5613   0.282   4.208  16.875 -0.7173 -0.3874  2.9689
  375MPD2    H2 5614   0.051   4.417  17.166  2.2318  3.2611 -0.4210
  375MPD2    H3 5615   0.185   4.222  17.093 -2.4315  0.6518  0.1445
  375MPD2     N 5616   0.252   4.378  16.675  0.0056 -0.1556 -0.5712
  375MPD2    H5 5617   0.316   4.301  16.659  1.4732  1.0326 -0.4673
  375MPD2    N1 5618   4.667   4.596  16.976 -0.1368 -0.3765 -0.0329
  375MPD2    H7 5619   4.635   4.630  16.886 -0.2556 -1.5229 -0.4279
  376TMC3    C1 5620   0.323   4.422  16.457 -0.2193  0.5901 -0.1847
  376TMC3    C2 5621   0.448   4.385  16.499 -0.3790 -0.1745 -1.1075
  376TMC3    C3 5622   0.532   4.340  16.410  0.1067 -0.3302 -0.2395
  376TMC3    C4 5623   0.285   4.411  16.326  0.1111  0.3754  0.6813
  376TMC3    C5 5624   0.377   4.361  16.232 -0.7591  0.3727 -0.9606
  376TMC3    C6 5625   0.503   4.330  16.273  0.2187 -1.0461 -0.0132
  376TMC3     C 5626   0.214   4.442  16.562 -0.4065 -0.1849  0.4833
  376TMC3     O 5627   0.104   4.481  16.526  0.0322  0.4246  0.3527
  376TMC3     H 5628   0.481   4.418  16.597 -0.5243 -1.8428 -0.4952
  376TMC3    H1 5629   0.186   4.448  16.302  0.0780 -0.0820  0.0998
  376TMC3    H2 5630   0.590   4.299  16.217 -0.1600 -0.3570 -0.9823
  376TMC3    C7 5631   0.332   4.338  16.097  0.8767 -0.1850 -0.2916
  376TMC3    C8 5632   0.669   4.369  16.436  0.1083 -0.2241 -1.1504
  376TMC3    O1 5633   0.233   4.398  16.057 -0.2409  0.0809 -0.4929
  376TMC3    O2 5634   0.729   4.428  16.348  0.4705  0.0962  0.0779
  377MPD2     C 5635   2.511   4.092  12.323  0.0312 -0.6194  0.0080
  377MPD2    C1 5636   2.625   4.046  12.394 -0.0574 -0.5277 -0.4377
  377MPD2    C2 5637   2.601   3.982  12.515  0.0371  0.5410  0.5223
  377MPD2    C3 5638   2.471   3.974  12.564  0.8994 -0.3800  0.4862
  377MPD2    C4 5639   2.364   4.031  12.501 -0.1591 -0.5590  0.4977
  377MPD2    C5 5640   2.384   4.082  12.370  0.5916  0.4249  0.1655
  377MPD2     H 5641   2.677   3.934  12.575 -0.1386  0.0641  0.3634
  377MPD2    H1 5642   2.263   4.026  12.538  0.1344  0.2248  1.4065
  377MPD2    H2 5643   2.532   4.128  12.223 -2.6955  2.1545  0.4364
  377MPD2    H3 5644   2.298   4.107  12.308  0.8009  1.4555  0.2944
  377MPD2     N 5645   2.444   3.929  12.695 -0.6780  0.4159 -0.4230
  377MPD2    H5 5646   2.363   3.964  12.744  1.0484  0.5038  2.4216
  377MPD2    N1 5647   2.758   4.061  12.339 -0.0086  0.5068  0.5301
  377MPD2    H7 5648   2.760   4.116  12.255  5.0130 -0.5266 -0.0292
  378TMC3    C1 5649   3.078   4.090  12.103  0.4736 -0.4219  0.1416
  378TMC3    C2 5650   2.978   4.044  12.172 -0.7410  0.2992 -0.1864
  378TMC3    C3 5651   2.987   4.048  12.313  0.5452 -0.2544 -0.3773
  378TMC3    C4 5652   3.184   4.157  12.156 -0.1517  0.6134  0.4973
  378TMC3    C5 5653   3.190   4.166  12.287 -0.3133  0.1198 -0.1239
  378TMC3    C6 5654   3.093   4.112  12.375  0.5395 -0.3301 -0.1940
  378TMC3     C 5655   3.028   4.148  11.980  0.3340 -0.1746  0.3695
  378TMC3     O 5656   2.910   4.156  11.959  0.6462  0.2323  0.3483
  378TMC3     H 5657   2.901   3.984  12.125 -1.4781  0.5672  0.6619
  378TMC3    H1 5658   3.271   4.193  12.102 -0.1791 -1.6834 -1.0866
  378TMC3    H2 5659   3.109   4.108  12.482  1.1130  1.2453 -0.2173
  378TMC3    C7 5660   3.322   4.165  12.347 -0.0281  0.1153 -0.4343
  378TMC3    C8 5661   2.874   4.009  12.384 -0.7991  0.1514 -0.0152
  378TMC3    O1 5662   3.325   4.198  12.463 -0.6330  0.0529 -0.4177
  378TMC3    O2 5663   2.899   3.949  12.487  0.4892  0.1459 -0.0658
  379MPD2     C 5664   3.869   2.255  16.230  0.0291  0.4806  0.1519
  379MPD2    C1 5665   3.797   2.150  16.280  0.7317 -0.6686  0.5643
  379MPD2    C2 5666   3.859   2.069  16.381  0.6596  0.3798  0.7844
  379MPD2    C3 5667   3.989   2.089  16.422 -0.8022 -0.3125  0.4726
  379MPD2    C4 5668   4.054   2.195  16.367 -0.5091 -0.2632  0.4329
  379MPD2    C5 5669   3.996   2.278  16.273  0.2068 -0.5322 -0.7378
  379MPD2     H 5670   3.801   1.993  16.432 -0.2516  1.4361  1.3243
  379MPD2    H1 5671   4.149   2.230  16.406 -0.5041  0.9606 -0.6803
  379MPD2    H2 5672   3.822   2.326  16.164  1.8728  0.2681 -1.3863
  379MPD2    H3 5673   4.041   2.370  16.236 -0.1277  0.1049  0.4522
  379MPD2     N 5674   4.055   2.015  16.520  0.5597 -0.8164  0.7825
  379MPD2    H5 5675   4.151   2.043  16.535  0.2569  1.2802 -1.1875
  379MPD2    N1 5676   3.671   2.132  16.223 -0.2862  0.0111  0.0369
  379MPD2    H7 5677   3.642   2.208  16.163 -1.3656 -1.2195 -1.0091
  380TMC3    C1 5678   3.484   2.038  16.126 -0.3694  0.3635 -0.0844
  380TMC3    C2 5679   3.457   1.925  16.057 -0.1200 -0.7773  0.3945
  380TMC3    C3 5680   3.389   1.940  15.937 -0.0305  0.5028  0.4933
  380TMC3    C4 5681   3.435   2.155  16.097 -0.5299  0.3045  0.5436
  380TMC3    C5 5682   3.356   2.168  15.986 -0.7020  0.3255  0.4048
  380TMC3    C6 5683   3.338   2.060  15.900 -0.2065  0.5460  0.3545
  380TMC3     C 5684   3.592   2.023  16.222 -0.1678 -0.7588  0.0013
  380TMC3     O 5685   3.615   1.915  16.273  0.3027  0.2240  0.0824
  380TMC3     H 5686   3.504   1.835  16.094 -0.3880 -1.2322 -0.3917
  380TMC3    H1 5687   3.443   2.238  16.167  0.1718  1.0689 -0.4544
  380TMC3    H2 5688   3.281   2.057  15.808  2.4456  2.2664 -1.3334
  380TMC3    C7 5689   3.297   2.296  15.943 -0.1622  0.1279  0.7083
  380TMC3    C8 5690   3.448   1.882  15.823  0.6722  0.5601 -0.2839
  380TMC3    O1 5691   3.369   2.397  15.952  0.3876 -0.3743  0.1929
  380TMC3    O2 5692   3.452   1.944  15.716 -0.3559 -0.1674 -0.0257
  381TMC3    C1 5693   3.122   3.233  16.087  0.4502 -0.4024 -0.6362
  381TMC3    C2 5694   3.249   3.262  16.071 -0.4066 -0.4546  0.6745
  381TMC3    C3 5695   3.303   3.353  16.162 -0.3221 -0.1347  0.0665
  381TMC3    C4 5696   3.050   3.279  16.186 -0.5077 -0.3601 -0.3837
  381TMC3    C5 5697   3.097   3.355  16.289  0.2389  0.0085  0.2848
  381TMC3    C6 5698   3.228   3.391  16.272  0.5512 -0.4258  0.1641
  381TMC3     C 5699   3.049   3.181  15.977  0.3222  0.6345  0.2700
  381TMC3     O 5700   3.097   3.081  15.922  0.4060 -0.1200  0.5660
  381TMC3     H 5701   3.300   3.219  15.986 -1.8488  3.0494 -1.9449
  381TMC3    H1 5702   2.951   3.237  16.195 -0.8614  0.9150  1.9361
  381TMC3    H2 5703   3.275   3.455  16.346  0.1538 -0.2192  0.2377
  381TMC3    C7 5704   3.066   3.311  16.421  0.0283  0.8207 -0.7545
  381TMC3    C8 5705   3.444   3.384  16.159 -0.0758  0.1105  0.1324
  381TMC3    O1 5706   3.102   3.199  16.452 -0.4860  0.4327  0.4128
  381TMC3    O2 5707   3.512   3.309  16.092 -0.2226  0.0726  0.1116
  382MPD2     C 5708   2.480   1.203  17.055  0.8887  0.6930  0.2008
  382MPD2    C1 5709   2.404   1.209  17.173  0.5806 -0.0997 -0.0626
  382MPD2    C2 5710   2.373   1.091  17.235  0.0219 -0.0966 -0.7614
  382MPD2    C3 5711   2.424   0.975  17.191  0.4005 -0.4965  0.1067
  382MPD2    C4 5712   2.501   0.977  17.084 -0.5078 -0.2389 -0.5176
  382MPD2    C5 5713   2.523   1.084  17.006  0.8637 -1.0324 -0.6848
  382MPD2     H 5714   2.308   1.102  17.321 -0.5009  1.9899 -1.4254
  382MPD2    H1 5715   2.541   0.890  17.033 -0.3069 -0.6839  0.4057
  382MPD2    H2 5716   2.502   1.287  16.991 -0.3856 -0.9872 -2.4416
  382MPD2    H3 5717   2.587   1.073  16.919  2.0779 -1.3578  0.2523
  382MPD2     N 5718   2.375   0.846  17.236 -0.0990 -0.3721  0.0977
  382MPD2    H5 5719   2.409   0.762  17.189 -0.5794 -0.0908 -0.7578
  382MPD2    N1 5720   2.348   1.330  17.220 -0.3323  0.0601  0.0413
  382MPD2    H7 5721   2.283   1.322  17.297  1.3379 -2.0210  1.2318
  383TMC3    C1 5722   2.290   0.682  17.378  0.2432 -0.3619 -0.6917
  383TMC3    C2 5723   2.241   0.606  17.274 -0.4405 -0.6771  0.5284
  383TMC3    C3 5724   2.233   0.473  17.295 -0.3421  0.2003 -0.2912
  383TMC3    C4 5725   2.324   0.632  17.501 -0.1223  0.1465 -0.3162
  383TMC3    C5 5726   2.324   0.497  17.521  0.3436  0.5122 -0.2781
  383TMC3    C6 5727   2.267   0.421  17.422 -0.5269  0.2556 -0.4730
  383TMC3     C 5728   2.310   0.831  17.356 -0.6941  0.5296 -0.8758
  383TMC3     O 5729   2.304   0.905  17.452 -0.5211 -0.3122 -0.2143
  383TMC3     H 5730   2.209   0.645  17.178  0.9184 -2.1106 -0.5192
  383TMC3    H1 5731   2.361   0.703  17.575 -1.5787  0.2909  0.2770
  383TMC3    H2 5732   2.250   0.316  17.439 -0.3919  0.1526 -0.9822
  383TMC3    C7 5733   2.303   0.434  17.649 -0.1491  0.1209 -0.0677
  383TMC3    C8 5734   2.154   0.396  17.202  0.6065  0.3340 -0.5785
  383TMC3    O1 5735   2.229   0.342  17.653 -0.0688  0.0980  0.1375
  383TMC3    O2 5736   2.096   0.455  17.110  0.4628  0.1387  0.1527
  384MPD2     C 5737   4.073   1.925  11.856  0.3131  0.2354  0.0308
  384MPD2    C1 5738   4.151   1.851  11.938  0.1531  0.1899  0.4649
  384MPD2    C2 5739   4.221   1.740  11.898  0.3012  0.3261  0.5697
  384MPD2    C3 5740   4.225   1.713  11.758  0.9231  0.2223 -0.4340
  384MPD2    C4 5741   4.161   1.800  11.671  0.5882 -0.5615  0.1409
  384MPD2    C5 5742   4.088   1.905  11.722  0.5795 -0.0065  0.5829
  384MPD2     H 5743   4.277   1.675  11.964 -0.4398 -0.0187  0.8658
  384MPD2    H1 5744   4.160   1.787  11.563  0.4575 -1.5848  0.2593
  384MPD2    H2 5745   4.025   2.013  11.896 -3.8779 -2.2497  0.4742
  384MPD2    H3 5746   4.051   1.973  11.646  1.5771 -2.4449 -2.0966
  384MPD2     N 5747   4.299   1.592  11.721  0.5645  1.0565 -0.0713
  384MPD2    H5 5748   4.340   1.546  11.802  1.4181 -1.4712 -1.9168
  384MPD2    N1 5749   4.168   1.885  12.074  0.4993  0.1301  0.1810
  384MPD2    H7 5750   4.214   1.809  12.123  1.2998  0.4782 -0.0355
  385TMC3    C1 5751   4.352   1.405  11.612  0.3878  0.0626  0.0544
  385TMC3    C2 5752   4.266   1.302  11.588 -0.1074 -0.7376  0.7938
  385TMC3    C3 5753   4.264   1.196  11.679 -0.1177 -0.0560  0.7869
  385TMC3    C4 5754   4.444   1.406  11.711  0.2942  0.7383  0.3650
  385TMC3    C5 5755   4.448   1.299  11.792  0.8018  0.3766 -0.3096
  385TMC3    C6 5756   4.352   1.197  11.787 -0.1972  0.2224  0.1579
  385TMC3     C 5757   4.283   1.527  11.602 -0.2473 -0.2720 -0.6098
  385TMC3     O 5758   4.227   1.553  11.495  0.2770  0.0073 -0.4292
  385TMC3     H 5759   4.193   1.308  11.509  0.4199  0.4873  0.3972
  385TMC3    H1 5760   4.512   1.487  11.733  0.6328  0.7956 -0.8866
  385TMC3    H2 5761   4.353   1.114  11.857 -1.4073  0.6791  0.7171
  385TMC3    C7 5762   4.451   1.344  11.932  0.0584  0.6671  0.1239
  385TMC3    C8 5763   4.191   1.073  11.649 -0.0691 -0.6109 -0.5319
  385TMC3    O1 5764   4.452   1.467  11.950  0.4482  0.3894 -0.0113
  385TMC3    O2 5765   4.186   0.982  11.729  0.2555 -0.5682  0.6692
  386TMC3    C1 5766   4.688   3.824  12.037 -0.1784  0.3180 -0.5176
  386TMC3    C2 5767   4.623   3.799  11.925 -0.0780 -0.6380  0.7278
  386TMC3    C3 5768   4.525   3.881  11.885 -0.0652  0.0775  0.3024
  386TMC3    C4 5769   4.643   3.926  12.122 -0.7738 -0.6181  0.1014
  386TMC3    C5 5770   4.548   4.013  12.073 -0.5518  0.6372  0.1355
  386TMC3    C6 5771   4.479   3.989  11.960  0.2668  0.1245  0.0366
  386TMC3     C 5772   0.095   3.758  12.042 -0.3217  0.0640  0.5849
  386TMC3     O 5773   0.185   3.802  11.972 -0.5669 -0.8870  0.2621
  386TMC3     H 5774   4.679   3.730  11.862 -0.8289  0.2290 -0.8735
  386TMC3    H1 5775   4.693   3.953  12.214  0.9004  3.4694 -1.9643
  386TMC3    H2 5776   4.398   4.054  11.929  0.0124 -0.4235 -0.4487
  386TMC3    C7 5777   4.491   4.117  12.158 -0.4488  0.1373  0.6411
  386TMC3    C8 5778   4.444   3.854  11.774  0.0060 -0.2649 -0.2683
  386TMC3    O1 5779   4.431   4.206  12.097  0.0412 -0.0430  0.4210
  386TMC3    O2 5780   4.363   3.942  11.745  0.1434 -0.2442 -0.0656
  387MPD2     C 5781   1.571   3.984   9.717 -0.2959  0.0441 -0.5648
  387MPD2    C1 5782   1.612   3.932   9.838  0.6063  0.8981 -0.8031
  387MPD2    C2 5783   1.659   3.802   9.842  0.3985  0.9025 -0.4045
  387MPD2    C3 5784   1.667   3.726   9.732  0.3491 -0.4471  1.0152
  387MPD2    C4 5785   1.629   3.778   9.610 -0.0608 -0.9465  0.3827
  387MPD2    C5 5786   1.582   3.906   9.600 -0.3933  0.3116 -0.4901
  387MPD2     H 5787   1.696   3.760   9.934  1.9890  0.7997 -1.0892
  387MPD2    H1 5788   1.639   3.718   9.521 -0.1200  0.8120 -0.7989
  387MPD2    H2 5789   1.531   4.084   9.713  3.6009  1.5648 -1.0871
  387MPD2    H3 5790   1.563   3.946   9.501  2.1653 -0.3314 -1.2428
  387MPD2     N 5791   1.733   3.606   9.747 -0.4690  0.2030  0.1287
  387MPD2    H5 5792   1.756   3.570   9.839 -2.5156  1.3146  1.0923
  387MPD2    N1 5793   1.618   3.996   9.966 -0.0790 -0.1052  0.1652
  387MPD2    H7 5794   1.658   3.941  10.041  0.5343 -0.1584 -0.1995
  388TMC3    C1 5795   1.657   4.145  10.132  0.4036 -0.0169 -0.4100
  388TMC3    C2 5796   1.606   4.257  10.202  0.1757  0.4999 -0.2223
  388TMC3    C3 5797   1.659   4.272  10.324  0.3254 -0.4748 -0.4925
  388TMC3    C4 5798   1.761   4.071  10.175 -0.5466 -0.9553  0.1281
  388TMC3    C5 5799   1.815   4.093  10.299  0.0420  0.3488  0.5733
  388TMC3    C6 5800   1.765   4.193  10.377  0.2649  0.1570 -0.2704
  388TMC3     C 5801   1.605   4.131  10.000  0.9569  0.2588 -0.2086
  388TMC3     O 5802   1.564   4.226   9.933 -0.6847  0.6930 -0.7269
  388TMC3     H 5803   1.521   4.314  10.166  0.9427  2.9140  1.8019
  388TMC3    H1 5804   1.817   4.011  10.104  0.5437  0.2367 -0.0105
  388TMC3    H2 5805   1.808   4.207  10.475 -3.9097 -1.6872  1.8511
  388TMC3    C7 5806   1.923   4.009  10.340 -0.2587  0.3809  0.3660
  388TMC3    C8 5807   1.617   4.388  10.407 -0.3193 -0.3926  0.2878
  388TMC3    O1 5808   2.010   4.058  10.411  0.0964 -0.1974  0.2403
  388TMC3    O2 5809   1.636   4.366  10.526  0.2763  0.2948  0.2701
  389MPD2     C 5810   1.224   2.132  10.940  0.5292 -0.9254 -0.0897
  389MPD2    C1 5811   1.132   2.060  10.869 -0.4721  0.2346 -0.4724
  389MPD2    C2 5812   1.054   1.963  10.927 -0.5125 -0.2262 -0.0799
  389MPD2    C3 5813   1.065   1.949  11.065 -0.3421  0.1265 -0.7521
  389MPD2    C4 5814   1.153   2.023  11.138 -0.0667 -0.0638  0.4158
  389MPD2    C5 5815   1.238   2.112  11.078 -0.9600  0.4380 -1.2305
  389MPD2     H 5816   0.987   1.900  10.870  1.2413 -1.0957 -1.1909
  389MPD2    H1 5817   1.163   2.019  11.245  0.3461  2.2211  0.4639
  389MPD2    H2 5818   1.294   2.198  10.890 -1.2965  0.0125 -1.4102
  389MPD2    H3 5819   1.302   2.174  11.140 -0.5127 -0.4681 -0.7874
  389MPD2     N 5820   0.985   1.856  11.141  0.0550 -0.2632 -0.1821
  389MPD2    H5 5821   1.004   1.847  11.241  0.4596 -0.5415 -0.2821
  389MPD2    N1 5822   1.120   2.091  10.732 -0.7797 -0.1691 -0.3815
  389MPD2    H7 5823   1.188   2.157  10.696 -1.0562  1.2875  1.7601
  390TMC3    C1 5824   0.822   1.710  11.203 -0.1366 -0.1885 -0.0784
  390TMC3    C2 5825   0.783   1.574  11.197 -0.0404 -0.5629  0.0427
  390TMC3    C3 5826   0.695   1.529  11.294 -0.1807 -0.1740  0.2563
  390TMC3    C4 5827   0.759   1.798  11.286  0.4433 -0.3155 -0.2466
  390TMC3    C5 5828   0.651   1.751  11.355 -0.0464 -0.3163 -0.3788
  390TMC3    C6 5829   0.625   1.618  11.373  0.4153  0.0196  0.2448
  390TMC3     C 5830   0.894   1.773  11.093 -0.2595  0.0423 -0.1380
  390TMC3     O 5831   0.855   1.758  10.978 -0.1504 -0.3791 -0.2061
  390TMC3     H 5832   0.828   1.500  11.131  1.6824 -0.6544  1.3036
  390TMC3    H1 5833   0.766   1.906  11.282 -0.2140 -0.2373  0.7652
  390TMC3    H2 5834   0.544   1.577  11.432  0.1247 -0.0300 -0.1913
  390TMC3    C7 5835   0.543   1.844  11.374  0.4348 -0.3035 -0.0112
  390TMC3    C8 5836   0.679   1.389  11.331 -0.6041  0.2821 -0.2447
  390TMC3    O1 5837   0.563   1.954  11.320 -0.1817  0.4106  0.1077
  390TMC3    O2 5838   0.674   1.308  11.238 -0.1770  0.5339 -0.3148
  391MPD2     C 5839   4.489   3.502  11.094 -0.7650  0.6469  0.5372
  391MPD2    C1 5840   4.622   3.537  11.094 -0.2887  0.1392 -0.4934
  391MPD2    C2 5841   4.673   3.604  10.986  0.5126  0.4202  0.5708
  391MPD2    C3 5842   4.607   3.643  10.876  0.0776 -0.0557  0.3584
  391MPD2    C4 5843   4.477   3.601  10.873 -0.3454  0.3041  0.1516
  391MPD2    C5 5844   4.422   3.528  10.979 -0.3470  0.7588  0.8851
  391MPD2     H 5845   0.063   3.621  10.983  0.5568  0.0502  0.1231
  391MPD2    H1 5846   4.414   3.641  10.794 -1.2172 -1.7539 -0.2168
  391MPD2    H2 5847   4.437   3.459  11.179 -1.2419  1.0716  0.4623
  391MPD2    H3 5848   4.320   3.493  10.967  0.2411 -0.1598 -1.2499
  391MPD2     N 5849   4.677   3.707  10.770 -0.1018 -0.0654  0.6411
  391MPD2    H5 5850   0.058   3.728  10.782 -0.5407  2.5024 -0.0984
  391MPD2    N1 5851   4.704   3.509  11.200  0.3365 -0.8616  0.2775
  391MPD2    H7 5852   0.083   3.542  11.202 -0.9854  3.0677  0.3290
  392TMC3    C1 5853   4.713   3.791  10.546 -0.1553  0.0778  0.4564
  392TMC3    C2 5854   4.714   3.742  10.416  0.9582  0.0612 -0.1022
  392TMC3    C3 5855   0.112   3.754  10.343 -1.0267  0.2153 -0.5763
  392TMC3    C4 5856   0.112   3.845  10.594  0.4946 -0.4632  0.1448
  392TMC3    C5 5857   0.224   3.848  10.521  0.1214 -0.0776 -0.5590
  392TMC3    C6 5858   0.226   3.810  10.393 -0.0196  0.3917  0.2674
  392TMC3     C 5859   4.622   3.732  10.642  0.2169 -0.5684  0.2223
  392TMC3     O 5860   4.515   3.699  10.602  0.3331  0.2661  0.3307
  392TMC3     H 5861   4.631   3.678  10.386  0.6737  0.0179  0.7788
  392TMC3    H1 5862   0.128   3.888  10.693 -2.9646 -3.6705  2.0783
  392TMC3    H2 5863   0.320   3.798  10.340  0.1662 -0.4376  0.7727
  392TMC3    C7 5864   0.338   3.918  10.566  0.2259  0.3374 -0.4782
  392TMC3    C8 5865   0.131   3.663  10.229 -0.5135 -0.2298 -0.4621
  392TMC3    O1 5866   0.357   3.916  10.687 -0.4573 -0.0952 -0.1783
  392TMC3    O2 5867   0.069   3.556  10.242  0.3607  0.3813 -0.2707
  393TMC3    C1 5868   3.606   1.402  10.447  0.3872  0.0628 -0.9747
  393TMC3    C2 5869   3.480   1.404  10.509  0.8150 -0.2494 -0.2318
  393TMC3    C3 5870   3.459   1.330  10.621 -0.5428 -0.5528  0.7089
  393TMC3    C4 5871   3.695   1.312  10.492  0.3206 -0.2950  0.0471
  393TMC3    C5 5872   3.668   1.239  10.606  0.5616 -0.5967  0.1432
  393TMC3    C6 5873   3.545   1.243  10.663 -0.2740 -0.0508 -0.0424
  393TMC3     C 5874   3.634   1.500  10.344  0.9023 -0.2167 -0.5172
  393TMC3     O 5875   3.539   1.561  10.296 -0.1444 -0.4220 -0.3882
  393TMC3     H 5876   3.418   1.487  10.477  1.1216  0.8221  1.9686
  393TMC3    H1 5877   3.797   1.321  10.457  0.7210 -0.7164  1.0910
  393TMC3    H2 5878   3.523   1.175  10.744  1.8195 -1.7123 -0.8706
  393TMC3    C7 5879   3.774   1.163  10.673 -0.0074 -0.1811  0.8814
  393TMC3    C8 5880   3.338   1.367  10.687 -0.1083  0.2220 -0.5673
  393TMC3    O1 5881   3.762   1.156  10.791 -0.5963 -0.1042 -0.4706
  393TMC3    O2 5882   3.235   1.400  10.626  0.0376 -0.5374  0.4313
  394TMC3    C1 5883   1.027   2.109  10.525 -0.2032 -0.1278 -0.0721
  394TMC3    C2 5884   0.910   2.136  10.464  0.1011  0.2158  0.6003
  394TMC3    C3 5885   0.913   2.212  10.346 -0.5304 -0.4518  0.3215
  394TMC3    C4 5886   1.145   2.130  10.465  0.4615  0.5807  0.2385
  394TMC3    C5 5887   1.145   2.191  10.342 -0.3224  0.4106 -0.3976
  394TMC3    C6 5888   1.034   2.228  10.284  0.4197 -0.1159 -0.3900
  394TMC3     C 5889   1.021   2.040  10.649  0.3479  0.2741 -0.8800
  394TMC3     O 5890   0.924   1.967  10.666 -0.2859 -0.1051  0.5554
  394TMC3     H 5891   0.817   2.126  10.519  0.4142 -0.2311  1.0450
  394TMC3    H1 5892   1.240   2.096  10.505 -0.2218 -1.0639  0.4348
  394TMC3    H2 5893   1.042   2.259  10.180  2.8061 -0.2913 -0.2564
  394TMC3    C7 5894   1.269   2.226  10.270 -0.7910  0.2937  0.1541
  394TMC3    C8 5895   0.810   2.165  10.253  0.0886 -0.2345  0.5632
  394TMC3    O1 5896   1.279   2.323  10.196  0.7582 -0.5300 -0.5638
  394TMC3    O2 5897   0.804   2.231  10.151  0.3333 -0.3273 -0.6453
  395TMC3    C1 5898   1.234   4.000  14.926  0.1655  0.1734 -0.0257
  395TMC3    C2 5899   1.226   3.927  14.807  0.7079 -0.7133 -0.6452
  395TMC3    C3 5900   1.307   3.966  14.704  0.3861  0.1356 -0.4223
  395TMC3    C4 5901   1.324   4.107  14.941  0.0936  0.0016 -0.3528
  395TMC3    C5 5902   1.409   4.133  14.837 -0.1272 -0.4138 -0.1476
  395TMC3    C6 5903   1.399   4.064  14.719  0.5354 -0.3938  0.2007
  395TMC3     C 5904   1.148   3.977  15.044 -0.1036  0.0442 -0.3331
  395TMC3     O 5905   1.183   4.037  15.145 -0.0205 -0.4352  0.0831
  395TMC3     H 5906   1.149   3.852  14.791 -0.5549  1.1238 -3.3006
  395TMC3    H1 5907   1.316   4.177  15.023 -1.7121 -0.1745 -0.3798
  395TMC3    H2 5908   1.466   4.085  14.636 -0.4768 -0.2709 -0.5903
  395TMC3    C7 5909   1.469   4.264  14.832 -0.0055 -0.0440  0.2437
  395TMC3    C8 5910   1.259   3.959  14.564  0.3560  0.1795 -0.7307
  395TMC3    O1 5911   1.436   4.352  14.910  0.3266  0.1120 -0.2501
  395TMC3    O2 5912   1.305   4.040  14.486  0.6414 -0.1696  0.1244
  396MPD2     C 5913   1.635   0.705  16.982  0.0074  0.4881 -0.5095
  396MPD2    C1 5914   1.530   0.693  17.069 -0.0032  0.3760  0.2908
  396MPD2    C2 5915   1.410   0.757  17.040 -0.8862  0.3996 -0.1082
  396MPD2    C3 5916   1.387   0.821  16.925 -0.0611 -0.1322 -0.3558
  396MPD2    C4 5917   1.483   0.827  16.833  0.6276 -0.3051  0.0285
  396MPD2    C5 5918   1.605   0.767  16.860  0.4168 -0.4187 -0.8600
  396MPD2     H 5919   1.330   0.769  17.113  0.0472  1.1685  0.7777
  396MPD2    H1 5920   1.468   0.877  16.738  1.1907 -1.5997 -0.7410
  396MPD2    H2 5921   1.735   0.667  17.000 -0.9334 -1.8557 -0.2584
  396MPD2    H3 5922   1.680   0.765  16.782  1.6496 -1.3661  0.3376
  396MPD2     N 5923   1.263   0.879  16.908 -0.1731 -0.2723  0.1343
  396MPD2    H5 5924   1.207   0.882  16.993  0.9198 -2.5182  0.9403
  396MPD2    N1 5925   1.548   0.605  17.176 -0.0898  0.4859 -0.3747
  396MPD2    H7 5926   1.642   0.567  17.171 -0.6978 -1.2482  1.2420
  397TMC3    C1 5927   1.480   0.434  17.317  0.4930 -0.3126 -1.0727
  397TMC3    C2 5928   1.480   0.365  17.202  0.4632 -0.2645 -0.1277
  397TMC3    C3 5929   1.377   0.279  17.183  0.2922 -0.8939 -0.3726
  397TMC3    C4 5930   1.390   0.402  17.410 -0.5206 -0.0013 -0.4146
  397TMC3    C5 5931   1.275   0.325  17.391 -0.5776  0.5536  0.5260
  397TMC3    C6 5932   1.265   0.267  17.267 -0.4269 -0.6369  0.5940
  397TMC3     C 5933   1.456   0.560  17.271  0.2356  0.5542 -0.2733
  397TMC3     O 5934   1.349   0.609  17.290  0.0552  0.4857  0.2489
  397TMC3     H 5935   1.570   0.372  17.142  1.9870 -1.2851  2.0451
  397TMC3    H1 5936   1.399   0.442  17.510 -0.7327 -1.0293  0.0132
  397TMC3    H2 5937   1.176   0.217  17.232 -2.2737  2.4934  0.7348
  397TMC3    C7 5938   1.223   0.254  17.495  0.0564  0.0640 -1.1548
  397TMC3    C8 5939   1.336   0.257  17.048  0.4441 -0.2065  0.5035
  397TMC3    O1 5940   1.154   0.158  17.458  0.2314 -0.1671 -0.8723
  397TMC3    O2 5941   1.260   0.167  17.020  0.1012 -0.5765 -0.2061
  398MPD2     C 5942   3.807   1.989   0.049  0.7104 -0.5063  0.5448
  398MPD2    C1 5943   3.876   1.872   0.069 -0.2726 -0.5695 -0.1151
  398MPD2    C2 5944   3.997   1.860   0.013  0.2909  0.1475  0.7490
  398MPD2    C3 5945   4.057   1.963  17.617 -0.2117  0.1603 -0.6463
  398MPD2    C4 5946   3.985   2.085  17.590  0.1687  0.0066 -0.2388
  398MPD2    C5 5947   3.859   2.090  17.635  0.1829  0.2415  0.7151
  398MPD2     H 5948   4.058   1.771   0.026 -0.1521  0.1368  2.7123
  398MPD2    H1 5949   4.026   2.165  17.529 -1.6189  1.9557  1.1215
  398MPD2    H2 5950   3.717   2.008   0.107  0.4921 -0.4780  0.1973
  398MPD2    H3 5951   3.797   2.177  17.620 -0.7977 -0.5407  0.1915
  398MPD2     N 5952   4.193   1.948  17.589  0.2055 -0.1679 -0.1932
  398MPD2    H5 5953   4.245   1.871  17.630  1.4975  0.6389 -0.3066
  398MPD2    N1 5954   3.824   1.765   0.140  0.5185  0.9237  0.1782
  398MPD2    H7 5955   3.878   1.679   0.147  0.3453  0.9220  1.5741
  399TMC3    C1 5956   3.660   1.636   0.255  0.1582  0.0433 -0.3089
  399TMC3    C2 5957   3.754   1.582   0.337 -0.9627  0.5110 -0.4905
  399TMC3    C3 5958   3.720   1.470   0.412 -0.5857 -0.2079 -0.0705
  399TMC3    C4 5959   3.528   1.582   0.250  0.6773  0.1445 -1.0185
  399TMC3    C5 5960   3.495   1.487   0.340 -0.2594  0.4125 -0.6509
  399TMC3    C6 5961   3.592   1.437   0.425  0.0841 -0.5630  0.0410
  399TMC3     C 5962   3.694   1.748   0.173 -0.2629  0.0815 -0.3755
  399TMC3     O 5963   3.601   1.812   0.135 -0.2408  0.0451  0.2409
  399TMC3     H 5964   3.857   1.613   0.327 -0.7698 -1.0837 -3.5349
  399TMC3    H1 5965   3.463   1.622   0.173 -0.1931  1.4395  0.3917
  399TMC3    H2 5966   3.560   1.360   0.494 -1.1046 -1.4484 -1.4909
  399TMC3    C7 5967   3.371   1.419   0.315 -0.5965  0.3039  0.2856
  399TMC3    C8 5968   3.827   1.387   0.463  0.2529 -0.1988  0.7593
  399TMC3    O1 5969   3.352   1.317   0.371 -0.2213 -0.0410  0.3686
  399TMC3    O2 5970   3.943   1.423   0.442  0.0409  0.1434  0.2844
  400TMC3    C1 5971   2.398   0.237  16.814  0.0440 -0.2403 -0.6674
  400TMC3    C2 5972   2.291   0.199  16.734  0.0565  0.0409 -0.0695
  400TMC3    C3 5973   2.195   0.288  16.704  0.6465 -0.1737 -0.0129
  400TMC3    C4 5974   2.417   0.367  16.852 -0.0916 -0.4574 -0.0675
  400TMC3    C5 5975   2.316   0.451  16.822  0.5421  0.6157  0.5742
  400TMC3    C6 5976   2.205   0.418  16.751 -0.5737 -0.0282  0.3068
  400TMC3     C 5977   2.465   0.138  16.895  0.4314  0.1454  0.1627
  400TMC3     O 5978   2.497   0.177  17.006  0.1863 -0.3501 -0.2492
  400TMC3     H 5979   2.273   0.093  16.719  1.2071  0.0727 -1.6909
  400TMC3    H1 5980   2.501   0.405  16.909  1.0437 -0.6097 -1.6265
  400TMC3    H2 5981   2.128   0.490  16.725  0.2052  1.1500  1.2261
  400TMC3    C7 5982   2.330   0.592  16.862  0.3332 -0.5714 -0.0057
  400TMC3    C8 5983   2.065   0.254  16.642  0.5415  0.4430 -0.1627
  400TMC3    O1 5984   2.441   0.648  16.859  0.1333 -0.4213 -0.2784
  400TMC3    O2 5985   1.977   0.336  16.669  0.3455 -0.3983 -0.3110
  401MPD2     C 5986   0.956   3.894   0.972 -0.9570 -0.1802  0.5564
  401MPD2    C1 5987   1.027   3.850   1.078  0.4313 -0.8550 -0.2430
  401MPD2    C2 5988   1.055   3.714   1.091  0.2028 -0.3683 -0.6923
  401MPD2    C3 5989   1.028   3.626   0.997  0.9120  0.2902 -0.1956
  401MPD2    C4 5990   0.956   3.667   0.887  0.5948 -0.3613 -0.0375
  401MPD2    C5 5991   0.916   3.797   0.882 -1.1195 -0.9608 -0.3454
  401MPD2     H 5992   1.106   3.679   1.179  0.9595  0.4955 -0.7897
  401MPD2    H1 5993   0.916   3.597   0.813  1.3674  0.2697 -1.0533
  401MPD2    H2 5994   0.910   3.992   0.969  1.1302  0.8313  1.7487
  401MPD2    H3 5995   0.852   3.834   0.803 -0.7460  2.4567  0.9093
  401MPD2     N 5996   1.082   3.495   1.014 -0.3191 -0.3055 -0.0476
  401MPD2    H5 5997   1.129   3.473   1.102 -1.7016 -1.6314  0.3612
  401MPD2    N1 5998   1.068   3.939   1.184  0.3314 -0.3077 -0.1002
  401MPD2    H7 5999   1.088   3.902   1.276 -1.8163  1.2482  0.9923
  402TMC3    C1 6000   1.096   3.266   0.954 -0.1303  0.1516  0.4508
  402TMC3    C2 6001   1.048   3.234   1.076 -0.5168  0.4372 -0.8247
  402TMC3    C3 6002   1.056   3.099   1.099  0.9254  0.0088 -0.5102
  402TMC3    C4 6003   1.134   3.178   0.860 -0.7489  0.0008  0.1400
  402TMC3    C5 6004   1.131   3.047   0.888  0.4144 -0.2886 -0.8120
  402TMC3    C6 6005   1.097   3.002   1.015  0.0370 -0.0272 -0.4691
  402TMC3     C 6006   1.082   3.404   0.910 -0.0175  0.3237 -0.1069
  402TMC3     O 6007   1.075   3.414   0.786  0.6059  0.5837 -0.3112
  402TMC3     H 6008   1.035   3.314   1.147  1.2835 -1.0992  1.2253
  402TMC3    H1 6009   1.150   3.211   0.758 -1.3597  2.1553  0.7368
  402TMC3    H2 6010   1.098   2.897   1.044 -0.5993  0.8753  2.8922
  402TMC3    C7 6011   1.163   2.949   0.781 -0.4534 -0.1300 -0.0932
  402TMC3    C8 6012   0.993   3.049   1.215  0.1675 -0.3036 -0.1926
  402TMC3    O1 6013   1.122   2.833   0.790 -0.0896  0.1135  0.3217
  402TMC3    O2 6014   1.024   2.938   1.258  0.0522 -0.3266 -0.3435
  403MPD2     C 6015   3.664   1.779  13.439 -0.9007  0.2851 -0.0046
  403MPD2    C1 6016   3.728   1.679  13.512  0.0866  0.2535  0.2694
  403MPD2    C2 6017   3.803   1.718  13.620  0.3128 -0.1267  0.4669
  403MPD2    C3 6018   3.813   1.851  13.662 -0.0603  0.4607 -0.3100
  403MPD2    C4 6019   3.739   1.951  13.598 -0.5703  0.3351  0.7309
  403MPD2    C5 6020   3.666   1.910  13.484  0.0045  0.2729 -0.5221
  403MPD2     H 6021   3.865   1.652  13.679 -2.3577 -1.1149  2.1789
  403MPD2    H1 6022   3.730   2.054  13.632  0.2158  1.0239 -1.1950
  403MPD2    H2 6023   3.605   1.763  13.349 -1.0553  0.5492  0.0496
  403MPD2    H3 6024   3.605   1.976  13.424  0.7439  4.3691  3.2127
  403MPD2     N 6025   3.890   1.864  13.778 -0.2125 -0.1028 -0.4161
  403MPD2    H5 6026   3.935   1.780  13.811 -0.5654  0.1576  0.7482
  403MPD2    N1 6027   3.719   1.544  13.477 -0.0064  0.2965  0.1244
  403MPD2    H7 6028   3.776   1.473  13.522 -1.2372 -0.9949 -0.3651
  404TMC3    C1 6029   3.651   1.346  13.358  0.6173 -0.3182  0.4736
  404TMC3    C2 6030   3.683   1.272  13.462 -0.0809  0.3509  0.4071
  404TMC3    C3 6031   3.722   1.140  13.441  0.3552 -0.4084  0.2919
  404TMC3    C4 6032   3.654   1.303  13.229  0.8210 -0.1404  0.2183
  404TMC3    C5 6033   3.699   1.173  13.211 -0.4583  0.2979 -0.2539
  404TMC3    C6 6034   3.738   1.089  13.317 -0.3335  0.1196 -0.0583
  404TMC3     C 6035   3.649   1.493  13.370  0.3693  0.3131  0.0897
  404TMC3     O 6036   3.614   1.556  13.275 -0.1870  0.4266 -0.3171
  404TMC3     H 6037   3.670   1.320  13.558 -0.2418  0.8012  0.1625
  404TMC3    H1 6038   3.645   1.375  13.149 -2.7217 -1.6107 -0.7239
  404TMC3    H2 6039   3.776   0.989  13.306 -0.0265  0.3698 -1.2262
  404TMC3    C7 6040   3.699   1.123  13.078  0.1794 -0.2331  0.1987
  404TMC3    C8 6041   3.800   1.076  13.538  0.3333  0.3612  0.1367
  404TMC3    O1 6042   3.752   1.020  13.055 -0.2571  0.1293  0.3552
  404TMC3    O2 6043   3.902   1.015  13.505  0.6341 -0.4570  0.4497
  405MPD2     C 6044   3.922   2.175  14.748  0.2883  0.5290  0.1878
  405MPD2    C1 6045   3.918   2.076  14.652  0.8007  0.0715 -0.1917
  405MPD2    C2 6046   3.856   2.088  14.531 -0.1910 -0.5977 -0.2355
  405MPD2    C3 6047   3.782   2.200  14.506  0.1204 -0.2101  0.3709
  405MPD2    C4 6048   3.788   2.304  14.598 -0.3379 -0.2147 -0.3799
  405MPD2    C5 6049   3.854   2.288  14.716  0.4562  0.4588  0.0642
  405MPD2     H 6050   3.856   2.010  14.456  1.2864 -0.1770 -0.6684
  405MPD2    H1 6051   3.732   2.397  14.588 -0.2254 -0.1379 -0.2954
  405MPD2    H2 6052   3.979   2.166  14.840  1.5844 -1.0169 -0.7714
  405MPD2    H3 6053   3.841   2.365  14.792  2.5043  0.2485  0.6340
  405MPD2     N 6054   3.714   2.197  14.385 -0.2558  0.5480  0.3008
  405MPD2    H5 6055   3.735   2.127  14.315 -4.3680  0.5723 -0.9359
  405MPD2    N1 6056   3.988   1.958  14.683 -0.4793  0.3310  0.4476
  405MPD2    H7 6057   4.033   1.957  14.774  0.6182 -0.2682 -0.0993
  406TMC3    C1 6058   3.292   2.185  14.172  1.1000  0.0514  0.0240
  406TMC3    C2 6059   3.296   2.050  14.180 -0.3591 -0.5304  0.6526
  406TMC3    C3 6060   3.397   1.995  14.253 -0.3111 -0.1809  0.2598
  406TMC3    C4 6061   3.394   2.260  14.225  0.6132  0.4764 -0.4361
  406TMC3    C5 6062   3.508   2.198  14.279  0.2689  0.2323  0.1463
  406TMC3    C6 6063   3.505   2.065  14.295  0.4086 -0.7342 -0.1529
  406TMC3     C 6064   3.170   2.249  14.134  0.2233  0.6079  0.3108
  406TMC3     O 6065   3.103   2.197  14.045 -0.5321 -0.1162  0.8412
  406TMC3     H 6066   3.216   1.989  14.140  0.7489 -2.6690  1.6811
  406TMC3    H1 6067   3.396   2.368  14.231 -0.6397  0.4146  1.2858
  406TMC3    H2 6068   3.582   2.021  14.356 -1.8705 -2.6678  1.3299
  406TMC3    C7 6069   3.609   2.277  14.351  0.4100 -0.9367  0.1709
  406TMC3    C8 6070   3.395   1.846  14.270  0.4198  0.3969 -0.6505
  406TMC3    O1 6071   3.590   2.395  14.376  0.1400 -0.3720 -0.5054
  406TMC3    O2 6072   3.298   1.786  14.227 -0.1201  0.1379 -0.5730
  407MPD2     C 6073   1.432   3.143   9.374  0.4431  0.2842  0.3551
  407MPD2    C1 6074   1.495   3.263   9.413  0.4457 -0.4775  0.1464
  407MPD2    C2 6075   1.442   3.340   9.511  0.0850 -0.8009  0.2015
  407MPD2    C3 6076   1.311   3.318   9.552 -0.1483  0.2398 -0.4891
  407MPD2    C4 6077   1.235   3.208   9.503  0.0532 -0.6886 -0.3723
  407MPD2    C5 6078   1.303   3.125   9.421 -0.6543 -0.0390  0.5072
  407MPD2     H 6079   1.497   3.430   9.538 -0.9886  0.0964 -0.5604
  407MPD2    H1 6080   1.135   3.180   9.536 -1.5079  2.8481 -2.1629
  407MPD2    H2 6081   1.461   3.073   9.297  2.0438  0.0590  1.1748
  407MPD2    H3 6082   1.262   3.033   9.381 -1.4088  0.8301 -0.7172
  407MPD2     N 6083   1.251   3.408   9.639 -0.1185  0.5433  0.0299
  407MPD2    H5 6084   1.151   3.404   9.656 -0.3924 -0.9530 -1.9017
  407MPD2    N1 6085   1.622   3.306   9.369 -0.3874 -0.3797 -0.3660
  407MPD2    H7 6086   1.648   3.402   9.388  2.0806 -0.4911 -3.1516
  408TMC3    C1 6087   1.833   3.296   9.265 -0.3287  0.4875 -0.2226
  408TMC3    C2 6088   1.941   3.221   9.285 -0.3246  0.5751  0.3598
  408TMC3    C3 6089   2.058   3.283   9.280 -0.5897  0.9630 -0.2303
  408TMC3    C4 6090   1.832   3.434   9.261  0.7046 -0.0413  0.4654
  408TMC3    C5 6091   1.952   3.490   9.230  0.0116 -0.5792 -0.6316
  408TMC3    C6 6092   2.062   3.412   9.242  0.0825  0.7305  0.0980
  408TMC3     C 6093   1.713   3.229   9.301 -0.7709  0.5176  0.2068
  408TMC3     O 6094   1.698   3.116   9.261  0.1169  0.0944  0.2497
  408TMC3     H 6095   1.931   3.123   9.330 -0.0351  0.3011 -0.1826
  408TMC3    H1 6096   1.739   3.489   9.264 -0.4453 -2.1407  3.2350
  408TMC3    H2 6097   2.162   3.454   9.239  0.1498  0.6676  1.3649
  408TMC3    C7 6098   1.973   3.612   9.303 -0.4936  0.2924 -0.3625
  408TMC3    C8 6099   2.156   3.255   9.378 -0.3326  0.3196  0.2482
  408TMC3    O1 6100   2.078   3.621   9.367 -0.1446 -0.0286  0.3640
  408TMC3    O2 6101   2.172   3.134   9.408 -0.1275 -0.1343 -0.7440
  409MPD2     C 6102   0.955   4.315  17.046 -0.2810  0.7513  0.1195
  409MPD2    C1 6103   1.080   4.313  17.099  0.2441  0.2286 -0.0927
  409MPD2    C2 6104   1.181   4.397  17.058  0.1166 -0.3159 -0.4572
  409MPD2    C3 6105   1.155   4.488  16.951  0.5509 -0.0086  0.6819
  409MPD2    C4 6106   1.029   4.500  16.905  0.0962  0.5456  0.1033
  409MPD2    C5 6107   0.939   4.416  16.953 -0.5089 -0.1018  0.4930
  409MPD2     H 6108   1.279   4.399  17.104  0.8638 -1.1995 -2.0009
  409MPD2    H1 6109   1.001   4.572  16.829  0.8926  0.1258 -0.5795
  409MPD2    H2 6110   0.866   4.257  17.068 -0.9004  0.9714 -1.8188
  409MPD2    H3 6111   0.844   4.435  16.903  0.2039  1.8611 -0.0983
  409MPD2     N 6112   1.255   4.571  16.891  0.7755  0.3383  0.5843
  409MPD2    H5 6113   1.224   4.632  16.815  0.2634 -0.0738  0.4579
  409MPD2    N1 6114   1.108   4.221  17.199  0.3575 -0.8954  0.4667
  409MPD2    H7 6115   1.203   4.225  17.234  0.2757 -2.5563  0.8676
  410TMC3    C1 6116   1.458   4.686  16.860 -0.6414 -0.6340 -0.1733
  410TMC3    C2 6117   1.562   0.030  16.922 -0.7629 -0.0662 -0.7440
  410TMC3    C3 6118   1.621   0.129  16.852  0.1946 -0.0318  0.6998
  410TMC3    C4 6119   1.410   0.005  16.736  0.4973  1.0675 -0.0992
  410TMC3    C5 6120   1.468   0.113  16.678  0.0320 -0.0905 -0.4873
  410TMC3    C6 6121   1.579   0.181  16.733 -0.2986 -0.1786  0.4029
  410TMC3     C 6122   1.384   4.582  16.931  0.4317 -0.6993  0.9465
  410TMC3     O 6123   1.445   4.549  17.029 -0.2572  0.3468 -0.0253
  410TMC3     H 6124   1.609   4.708  17.011 -0.7453 -0.0702 -0.7553
  410TMC3    H1 6125   1.320   4.679  16.694 -0.5472  2.4816  0.6552
  410TMC3    H2 6126   1.635   0.263  16.689 -2.9564  1.7854  0.6868
  410TMC3    C7 6127   1.414   0.156  16.546 -0.8357  0.5278  0.2885
  410TMC3    C8 6128   1.749   0.176  16.907  0.4136 -0.8761  0.3310
  410TMC3    O1 6129   1.344   0.080  16.484  0.3199  0.4706 -0.0123
  410TMC3    O2 6130   1.760   0.293  16.938  0.1405 -0.3242  0.1386
  411MPD2     C 6131   1.750   0.663  14.124  0.0300 -0.1152 -0.4463
  411MPD2    C1 6132   1.632   0.631  14.192  0.2773 -0.1751 -0.5197
  411MPD2    C2 6133   1.581   0.509  14.157 -0.1457  0.8663 -0.4900
  411MPD2    C3 6134   1.638   0.428  14.055 -0.1678  0.0778  0.5362
  411MPD2    C4 6135   1.755   0.464  14.000  0.3372  0.2248 -0.2922
  411MPD2    C5 6136   1.810   0.580  14.040  0.3476  0.0210 -0.5158
  411MPD2     H 6137   1.492   0.475  14.209  2.1577 -2.9194  0.9548
  411MPD2    H1 6138   1.803   0.419  13.913  1.4895  0.2828  0.3077
  411MPD2    H2 6139   1.795   0.756  14.157 -0.0283 -0.9562  2.0704
  411MPD2    H3 6140   1.904   0.610  13.995  1.1214  0.1689  1.2189
  411MPD2     N 6141   1.579   0.309  14.002  0.4319 -0.5592 -0.3358
  411MPD2    H5 6142   1.634   0.249  13.941 -1.3058 -0.2774 -2.1600
  411MPD2    N1 6143   1.568   0.720  14.281  0.2274 -0.0782  0.0312
  411MPD2    H7 6144   1.611   0.811  14.296  2.9966 -1.7239  2.2221
  412TMC3    C1 6145   1.421   0.148  13.929 -0.0066 -0.6966  0.3377
  412TMC3    C2 6146   1.436   0.016  13.965 -0.6121  0.3131  0.1327
  412TMC3    C3 6147   1.389   4.634  13.879 -1.1180 -0.4575  1.3786
  412TMC3    C4 6148   1.348   0.185  13.816  0.0310  0.5625 -0.0061
  412TMC3    C5 6149   1.310   0.091  13.721  0.0814  0.7663  0.5345
  412TMC3    C6 6150   1.340   4.676  13.751  0.1607  0.2361  0.5152
  412TMC3     C 6151   1.456   0.258  14.023 -0.5540 -0.2822  0.7028
  412TMC3     O 6152   1.355   0.320  14.072 -0.5692  0.1005 -0.1326
  412TMC3     H 6153   1.492   4.715  14.056 -0.9569 -3.4246 -0.4008
  412TMC3    H1 6154   1.344   0.292  13.796 -0.0393  0.2174 -1.7812
  412TMC3    H2 6155   1.330   4.596  13.678 -0.6078  1.0908 -0.3052
  412TMC3    C7 6156   1.179   0.096  13.673  0.2491  0.2693  0.0916
  412TMC3    C8 6157   1.334   4.504  13.926 -0.5760  0.4922  0.3433
  412TMC3    O1 6158   1.125   4.709  13.644 -0.3527 -0.1502  0.2499
  412TMC3    O2 6159   1.391   4.443  14.018  0.0288  0.0175  0.2489
  413MPD2     C 6160   3.096   3.361  15.580  0.0060 -1.0114 -0.2610
  413MPD2    C1 6161   3.039   3.324  15.455  0.1943  0.2198  0.0335
  413MPD2    C2 6162   3.105   3.231  15.375  0.2597  0.0704 -0.3709
  413MPD2    C3 6163   3.222   3.175  15.420  0.4147  0.1160 -0.6979
  413MPD2    C4 6164   3.276   3.216  15.543  0.3153 -0.4847  0.2771
  413MPD2    C5 6165   3.212   3.307  15.623  0.1981 -0.3188 -0.1469
  413MPD2     H 6166   3.071   3.202  15.277  1.6938  1.2980 -1.2393
  413MPD2    H1 6167   3.363   3.169  15.587  0.5498 -0.5650 -0.2694
  413MPD2    H2 6168   3.042   3.427  15.647  2.1398 -1.2571  1.6704
  413MPD2    H3 6169   3.248   3.330  15.722  2.3317  0.7877 -1.1755
  413MPD2     N 6170   3.290   3.099  15.331  0.4105  0.0152  0.2401
  413MPD2    H5 6171   3.246   3.077  15.241 -0.7216  0.1870  0.7498
  413MPD2    N1 6172   2.907   3.373  15.426 -0.0108 -0.5511  0.3659
  413MPD2    H7 6173   2.870   3.433  15.499 -2.2568  0.1892 -1.4091
  414TMC3    C1 6174   3.450   2.960  15.238  1.2770  0.6585 -0.3495
  414TMC3    C2 6175   3.498   2.840  15.274  0.0842  0.7488  0.6642
  414TMC3    C3 6176   3.570   2.768  15.183 -0.2495 -0.1334  0.2410
  414TMC3    C4 6177   3.430   2.997  15.112  0.5241 -0.5510  0.2071
  414TMC3    C5 6178   3.503   2.923  15.026 -0.1110 -0.4724  0.0193
  414TMC3    C6 6179   3.577   2.816  15.057 -0.0012 -0.5957 -0.1262
  414TMC3     C 6180   3.409   3.038  15.354 -0.0611 -0.1530 -0.4817
  414TMC3     O 6181   3.485   3.030  15.456 -0.8731 -0.3291  0.3795
  414TMC3     H 6182   3.506   2.807  15.377 -0.6147 -1.7178 -0.0582
  414TMC3    H1 6183   3.383   3.092  15.091  1.3383  0.0401  1.1106
  414TMC3    H2 6184   3.604   2.742  14.982  1.0409 -0.6647  0.3078
  414TMC3    C7 6185   3.522   2.980  14.893  0.1429  0.4679  0.1635
  414TMC3    C8 6186   3.636   2.648  15.210  0.1623  0.4949  0.2337
  414TMC3    O1 6187   3.430   3.010  14.818  0.1151 -0.8391 -0.0852
  414TMC3    O2 6188   3.634   2.559  15.119 -0.6207  0.1870 -0.1178
  415TMC3    C1 6189   3.074   1.315   9.771  0.4295  0.2622 -0.0340
  415TMC3    C2 6190   3.120   1.406   9.687  0.0772  0.1288  0.6202
  415TMC3    C3 6191   3.033   1.464   9.601  0.7376 -0.6896 -0.3869
  415TMC3    C4 6192   2.939   1.282   9.786 -0.4811  0.4624  0.1000
  415TMC3    C5 6193   2.853   1.337   9.695 -0.2829  0.3279  0.0096
  415TMC3    C6 6194   2.902   1.429   9.603 -0.2823 -0.5167 -0.3258
  415TMC3     C 6195   3.170   1.218   9.824  0.3009  0.2946  0.1769
  415TMC3     O 6196   3.125   1.110   9.849  0.1376 -0.1063 -0.2670
  415TMC3     H 6197   3.221   1.443   9.700 -0.5435  1.6285  1.2574
  415TMC3    H1 6198   2.907   1.239   9.880  1.3555  2.3460  1.5783
  415TMC3    H2 6199   2.841   1.483   9.531 -0.5192  0.3173  0.4810
  415TMC3    C7 6200   2.717   1.302   9.685 -0.5229  0.4299 -0.0656
  415TMC3    C8 6201   3.062   1.557   9.497  0.1163  1.1818 -0.1634
  415TMC3    O1 6202   2.640   1.368   9.617 -0.1928 -0.3804 -0.3670
  415TMC3    O2 6203   2.979   1.643   9.480  0.5154 -0.0234  0.3178
  416MPD2     C 6204   0.435   4.527  11.014  0.6479  0.8636 -0.4143
  416MPD2    C1 6205   0.387   4.504  11.137 -0.5829  0.5307  0.7727
  416MPD2    C2 6206   0.379   4.374  11.184  0.3171 -0.3507 -0.0347
  416MPD2    C3 6207   0.412   4.268  11.109  0.2850 -0.5235 -0.6080
  416MPD2    C4 6208   0.464   4.293  10.984  0.5380  0.4460  0.3768
  416MPD2    C5 6209   0.481   4.422  10.938 -0.0179  0.2545 -0.2965
  416MPD2     H 6210   0.353   4.360  11.289  0.9201  1.5711  0.3701
  416MPD2    H1 6211   0.491   4.207  10.923 -0.2192  0.6900 -0.3149
  416MPD2    H2 6212   0.427   4.630  10.980 -0.1685  0.7709 -0.4858
  416MPD2    H3 6213   0.524   4.453  10.843  0.4785  1.7894  0.4306
  416MPD2     N 6214   0.386   4.134  11.145  0.2068 -0.7125 -0.1495
  416MPD2    H5 6215   0.401   4.065  11.072  1.8005  1.3232 -1.7356
  416MPD2    N1 6216   0.332   4.609  11.205  0.1941 -0.2589 -0.0309
  416MPD2    H7 6217   0.333   4.700  11.159  0.5505  0.3648  1.2378
  417TMC3    C1 6218   0.219   0.011  11.365  0.7509  0.4965 -0.4649
  417TMC3    C2 6219   0.261   0.069  11.485 -0.1272  0.6217 -0.6250
  417TMC3    C3 6220   0.218   0.197  11.517  0.0406 -0.1081 -0.9824
  417TMC3    C4 6221   0.148   0.079  11.274 -0.2186 -0.1925  0.0091
  417TMC3    C5 6222   0.102   0.205  11.305 -0.4717 -0.9529  1.2052
  417TMC3    C6 6223   0.129   0.259  11.431  0.1670  0.2348 -0.3081
  417TMC3     C 6224   0.275   4.599  11.330 -0.0846  0.7245  0.1522
  417TMC3     O 6225   0.300   4.517  11.416  0.4821  0.2636 -0.3540
  417TMC3     H 6226   0.332   0.017  11.548 -1.3856  1.7333  1.7360
  417TMC3    H1 6227   0.132   0.039  11.174 -0.4414 -1.9010  0.7139
  417TMC3    H2 6228   0.125   0.367  11.444  2.2351  0.3387 -0.4046
  417TMC3    C7 6229   0.058   0.291  11.202  0.1192 -0.5532  0.2865
  417TMC3    C8 6230   0.239   0.250  11.654  0.1593 -0.2187  0.3373
  417TMC3    O1 6231   0.113   0.403  11.199 -0.0871  0.3811 -0.4318
  417TMC3    O2 6232   0.174   0.349  11.684 -0.1124 -0.4476 -0.6537
  418TMC3    C1 6233   4.605   1.965  17.434  0.0446  0.2497 -0.5664
  418TMC3    C2 6234   4.481   2.027  17.429  0.7441 -0.5551  0.1646
  418TMC3    C3 6235   4.408   2.033  17.540 -0.1268  0.2151  0.1065
  418TMC3    C4 6236   4.660   1.935  17.557  0.0192 -0.2186  0.4511
  418TMC3    C5 6237   4.584   1.951  17.665  0.3019  0.5518 -0.9787
  418TMC3    C6 6238   4.454   1.995  17.663 -0.0695  0.3044  1.1689
  418TMC3     C 6239   4.673   1.931  17.310 -0.0407  0.4408  0.4637
  418TMC3     O 6240   4.664   2.002  17.211  0.1581  0.1130  0.4344
  418TMC3     H 6241   4.421   2.048  17.341 -0.7482 -0.2735  1.2412
  418TMC3    H1 6242   0.027   1.868  17.570  1.6416  1.4792 -1.3476
  418TMC3    H2 6243   4.387   2.013   0.073  1.4461 -0.1940  2.4893
  418TMC3    C7 6244   4.652   1.937   0.118  0.4372 -0.0795  0.5365
  418TMC3    C8 6245   4.264   2.035  17.513  0.2685 -0.3328 -0.1976
  418TMC3    O1 6246   0.019   1.854   0.121 -0.2654 -0.5743 -0.4388
  418TMC3    O2 6247   4.222   2.112  17.430 -0.0020 -0.3191 -0.5082
  419MPD2     C 6248   2.136   4.689  12.707  0.3126 -0.4086  0.1383
  419MPD2    C1 6249   2.193   0.097  12.706 -0.4828  0.4227  0.7600
  419MPD2    C2 6250   2.238   0.148  12.824 -0.2557 -0.6226  0.4845
  419MPD2    C3 6251   2.236   0.072  12.940  0.0280  0.1354  0.1697
  419MPD2    C4 6252   2.191   4.660  12.941 -0.2966  0.3541 -0.1553
  419MPD2    C5 6253   2.137   4.610  12.819 -0.0573  0.1591 -0.5238
  419MPD2     H 6254   2.266   0.252  12.836  0.5549 -0.8241  0.3390
  419MPD2    H1 6255   2.197   4.600  13.031 -2.5295 -0.6043 -0.6662
  419MPD2    H2 6256   2.125   4.632  12.615 -1.9225 -2.0313  1.4113
  419MPD2    H3 6257   2.095   4.510  12.820 -1.1459  0.6264  1.0706
  419MPD2     N 6258   2.277   0.138  13.059 -0.0274 -0.1951 -0.0613
  419MPD2    H5 6259   2.307   0.235  13.054  2.9906 -1.2595 -3.5580
  419MPD2    N1 6260   2.203   0.183  12.592 -0.8826  0.1916 -0.3331
  419MPD2    H7 6261   2.235   0.277  12.611  1.2555 -0.8568  1.2503
  420TMC3    C1 6262   2.312   0.170  13.287  0.2610 -0.0833 -0.0832
  420TMC3    C2 6263   2.234   0.287  13.274 -0.3250 -0.2046 -0.4013
  420TMC3    C3 6264   2.257   0.378  13.366  0.0721  1.1495  0.1615
  420TMC3    C4 6265   2.407   0.144  13.386 -0.1187  0.0451  0.1057
  420TMC3    C5 6266   2.419   0.250  13.474  0.3971 -0.1293 -0.5300
  420TMC3    C6 6267   2.347   0.363  13.469  0.3883  0.4994 -0.0978
  420TMC3     C 6268   2.299   0.077  13.184 -0.6518  0.3884 -0.1540
  420TMC3     O 6269   2.296   4.679  13.222 -0.5799  0.0261  0.3590
  420TMC3     H 6270   2.162   0.300  13.194  0.1264  0.3273 -0.7259
  420TMC3    H1 6271   2.456   0.048  13.395  1.5434  0.6398 -2.6863
  420TMC3    H2 6272   2.348   0.422  13.560 -2.0460  1.2189 -0.5392
  420TMC3    C7 6273   2.530   0.242  13.570 -0.7631 -0.2293  0.6925
  420TMC3    C8 6274   2.178   0.504  13.354 -0.4865  0.1350 -0.1616
  420TMC3    O1 6275   2.582   0.137  13.579  0.0788 -0.3988 -0.0031
  420TMC3    O2 6276   2.087   0.508  13.274 -0.0340  0.3046  0.5635
  421TMC3    C1 6277   4.033   1.997  13.931  1.3263 -0.1735  0.0174
  421TMC3    C2 6278   4.057   2.114  13.993 -0.2650 -0.3908  0.6955
  421TMC3    C3 6279   4.175   2.139  14.062 -0.4272  0.1805 -0.1716
  421TMC3    C4 6280   4.138   1.905  13.916 -0.0730 -0.6374 -0.0171
  421TMC3    C5 6281   4.263   1.948  13.973  0.4653 -0.6275 -0.4698
  421TMC3    C6 6282   4.286   2.061  14.045 -0.7289  0.0075  0.3504
  421TMC3     C 6283   3.918   1.982  13.844 -0.7639 -0.3660 -0.7757
  421TMC3     O 6284   3.862   2.090  13.823 -0.2519 -0.7382 -0.5099
  421TMC3     H 6285   3.975   2.182  14.015  0.7899  1.3981 -0.9106
  421TMC3    H1 6286   4.137   1.826  13.841 -0.9003 -0.9905  0.3659
  421TMC3    H2 6287   4.388   2.082  14.075 -1.3468 -0.1561  2.6311
  421TMC3    C7 6288   4.371   1.843  13.992  0.7957  0.1463 -0.0977
  421TMC3    C8 6289   4.183   2.258  14.149  0.4303  0.0334 -0.4202
  421TMC3    O1 6290   4.487   1.885  14.003 -0.6095 -0.2901 -0.5168
  421TMC3    O2 6291   4.075   2.311  14.183  0.1582 -0.5419  0.1893
  422TMC3    C1 6292   1.495   2.898  12.571  0.6096  0.2890  0.7243
  422TMC3    C2 6293   1.525   2.981  12.679  0.3894  0.3766 -0.6796
  422TMC3    C3 6294   1.475   2.943  12.800  0.6228  0.7439 -0.4043
  422TMC3    C4 6295   1.418   2.781  12.582 -0.4841  0.1230  0.1347
  422TMC3    C5 6296   1.361   2.758  12.707  0.1430 -0.1913 -0.2949
  422TMC3    C6 6297   1.395   2.836  12.817  0.2172  0.4660  0.2226
  422TMC3     C 6298   1.572   2.925  12.451  0.5701  0.3367  0.2832
  422TMC3     O 6299   1.632   3.032  12.451 -0.4069  0.1473 -0.3149
  422TMC3     H 6300   1.581   3.072  12.664 -0.3773  0.7881 -1.0610
  422TMC3    H1 6301   1.407   2.715  12.497  0.4400  0.1765 -0.0322
  422TMC3    H2 6302   1.362   2.809  12.917  2.5987 -0.1706  0.8383
  422TMC3    C7 6303   1.280   2.640  12.725  0.4402  0.9470  0.2942
  422TMC3    C8 6304   1.496   3.044  12.907 -0.4339  0.7863 -0.0337
  422TMC3    O1 6305   1.293   2.556  12.638  0.2030  0.5527 -0.1588
  422TMC3    O2 6306   1.563   3.141  12.879  0.1345  0.2798  0.8035
  423MPD2     C 6307   3.182   4.498   0.734  0.1663  0.5435  0.7469
  423MPD2    C1 6308   3.108   4.382   0.721 -0.0835  0.1965  0.0182
  423MPD2    C2 6309   3.120   4.306   0.602  0.6969  0.6658 -0.0811
  423MPD2    C3 6310   3.192   4.352   0.498  0.2598 -0.9429 -0.6135
  423MPD2    C4 6311   3.268   4.464   0.518 -0.1517  0.8258 -0.1110
  423MPD2    C5 6312   3.254   4.536   0.629 -0.3149  0.8246  0.6473
  423MPD2     H 6313   3.054   4.221   0.593  1.7277 -0.1993  0.4786
  423MPD2    H1 6314   3.332   4.498   0.437 -0.1865 -2.4938 -1.5038
  423MPD2    H2 6315   3.170   4.571   0.814 -2.1253 -1.0719  1.8825
  423MPD2    H3 6316   3.305   4.632   0.627  1.5680 -0.2014  0.1381
  423MPD2     N 6317   3.207   4.281   0.376 -0.0673  0.1035  0.2211
  423MPD2    H5 6318   3.259   4.318   0.298 -0.2450  0.0549  0.0794
  423MPD2    N1 6319   3.039   4.328   0.831  0.3009  0.1122  0.2476
  423MPD2    H7 6320   2.995   4.238   0.821  1.5659 -0.6663  1.7223
  424TMC3    C1 6321   2.999   4.250   1.042  0.6409 -0.1873 -0.0678
  424TMC3    C2 6322   3.071   4.202   1.151 -1.0188 -0.2069 -0.0127
  424TMC3    C3 6323   3.020   4.097   1.218  0.0321 -0.2403  0.9335
  424TMC3    C4 6324   2.874   4.214   1.020 -0.4268 -0.0102 -0.7965
  424TMC3    C5 6325   2.813   4.117   1.101 -0.5918 -0.2921 -0.5124
  424TMC3    C6 6326   2.891   4.057   1.195  0.1883 -0.1308  0.8318
  424TMC3     C 6327   3.066   4.350   0.960  0.3471 -1.1228 -1.1976
  424TMC3     O 6328   3.128   4.441   1.016  0.3745  0.2075  0.4581
  424TMC3     H 6329   3.163   4.246   1.187 -0.1952 -0.4213 -1.8426
  424TMC3    H1 6330   2.808   4.252   0.943  0.1315 -0.9831 -1.7437
  424TMC3    H2 6331   2.847   3.978   1.255  0.2999  0.4942  1.7328
  424TMC3    C7 6332   2.677   4.065   1.061  0.2016 -0.1718  0.2661
  424TMC3    C8 6333   3.091   4.065   1.342 -0.2416 -1.4897  0.6550
  424TMC3    O1 6334   2.622   4.110   0.959  0.2619  0.0048 -0.1788
  424TMC3    O2 6335   3.161   4.155   1.392  0.3335 -0.0376 -0.0467
  425MPD2     C 6336   2.559   3.756   0.024  0.5710  0.8214  0.1138
  425MPD2    C1 6337   2.462   3.665  17.669 -0.0698  0.1028 -0.4630
  425MPD2    C2 6338   2.331   3.694   0.036 -0.0300 -0.4563 -0.2404
  425MPD2    C3 6339   2.301   3.819   0.103  0.0132  0.2602 -0.3469
  425MPD2    C4 6340   2.397   3.911   0.111 -1.0560  0.4234  0.4519
  425MPD2    C5 6341   2.526   3.880   0.065 -0.2898 -0.5333  0.2111
  425MPD2     H 6342   2.250   3.628   0.009 -0.5205  1.1093 -2.6431
  425MPD2    H1 6343   2.370   4.006   0.157 -2.7855  0.0009  0.3086
  425MPD2    H2 6344   2.658   3.729  17.664  0.4091 -0.8984  1.0380
  425MPD2    H3 6345   2.606   3.953   0.067 -1.3896  0.7436 -1.9743
  425MPD2     N 6346   2.165   3.830   0.148  0.8025  0.2791  0.1183
  425MPD2    H5 6347   2.107   3.748   0.130  1.1375 -0.1009  0.7638
  425MPD2    N1 6348   2.498   3.541  17.608 -0.1821  0.0433  0.4189
  425MPD2    H7 6349   2.595   3.521  17.586  0.3367  1.6360  1.2057
  426TMC3    C1 6350   2.460   3.345  17.485  0.1337 -0.4712 -0.0724
  426TMC3    C2 6351   2.409   3.291  17.364  0.0650 -0.4634  0.1340
  426TMC3    C3 6352   2.416   3.155  17.344 -0.1359  0.3641 -0.0245
  426TMC3    C4 6353   2.538   3.262  17.560  0.0374  0.6638  0.0309
  426TMC3    C5 6354   2.565   3.138  17.520  0.1741 -0.2959  0.4132
  426TMC3    C6 6355   2.500   3.079  17.415 -0.4317  0.3065 -0.3947
  426TMC3     C 6356   2.401   3.460  17.544 -0.5927 -0.5727  0.3065
  426TMC3     O 6357   2.279   3.459  17.533 -0.7517  0.2310 -0.5261
  426TMC3     H 6358   2.341   3.347  17.302  0.4467 -1.0184 -0.7758
  426TMC3    H1 6359   2.600   3.301  17.640 -0.7037 -0.9019  1.3853
  426TMC3    H2 6360   2.512   2.972  17.406 -0.0966  0.1007  2.2809
  426TMC3    C7 6361   2.600   3.037  17.617  0.1868  0.0871 -0.6959
  426TMC3    C8 6362   2.373   3.100  17.219 -0.0420 -0.3493  0.1480
  426TMC3    O1 6363   2.668   2.943  17.584  0.0940  0.1357  0.0731
  426TMC3    O2 6364   2.452   3.029  17.157 -0.3110 -0.3369 -0.2212
  427MPD2     C 6365   0.828   0.637  14.605  0.3610 -0.1784 -0.1131
  427MPD2    C1 6366   0.817   0.622  14.748  0.1177 -0.2259 -0.3226
  427MPD2    C2 6367   0.703   0.672  14.817  0.1726 -0.7942 -0.0476
  427MPD2    C3 6368   0.593   0.704  14.742 -0.8048  0.7723 -0.0385
  427MPD2    C4 6369   0.595   0.694  14.607 -0.1068  0.3071  0.2563
  427MPD2    C5 6370   0.714   0.671  14.533  0.0927  0.1534  0.0629
  427MPD2     H 6371   0.691   0.663  14.924 -0.0635  1.5105  0.1257
  427MPD2    H1 6372   0.512   0.729  14.546 -0.1213  1.8848  1.1991
  427MPD2    H2 6373   0.921   0.626  14.551  0.5828 -0.7672  0.3749
  427MPD2    H3 6374   0.726   0.687  14.427 -0.0632 -1.3691 -0.1722
  427MPD2     N 6375   0.470   0.744  14.793  0.2722 -0.7429  0.4407
  427MPD2    H5 6376   0.389   0.742  14.731 -1.4671  0.0145  2.6848
  427MPD2    N1 6377   0.926   0.555  14.820  0.2569 -0.8022  0.0702
  427MPD2    H7 6378   1.011   0.537  14.768 -1.7561 -0.5920 -3.3194
  428TMC3    C1 6379   1.031   0.421  14.981  0.2890  0.1020  0.1532
  428TMC3    C2 6380   1.007   0.309  15.049  0.4506  0.4244 -0.7009
  428TMC3    C3 6381   1.114   0.252  15.117  0.1110 -0.3220 -0.6644
  428TMC3    C4 6382   1.148   0.485  14.979  0.0924 -0.3079  0.5949
  428TMC3    C5 6383   1.255   0.432  15.042 -0.0231  0.2456 -0.2903
  428TMC3    C6 6384   1.239   0.321  15.115  0.4627  0.3636 -0.4624
  428TMC3     C 6385   0.911   0.496  14.947 -0.4356 -1.0824 -0.3542
  428TMC3     O 6386   0.806   0.471  15.004 -0.4055  0.4015  0.0441
  428TMC3     H 6387   0.907   0.266  15.040 -1.1736  3.9341  0.6142
  428TMC3    H1 6388   1.154   0.584  14.935  3.8859  0.5309  3.0096
  428TMC3    H2 6389   1.332   0.274  15.144 -0.8847 -1.3829  1.0092
  428TMC3    C7 6390   1.322   0.526  15.131 -0.3984  0.3947 -1.0405
  428TMC3    C8 6391   1.086   0.139  15.208 -0.4811  0.5586  0.6454
  428TMC3    O1 6392   1.307   0.507  15.252 -0.2900 -0.8166  0.1482
  428TMC3    O2 6393   0.967   0.100  15.204 -0.5590 -0.1154  0.0972
  429MPD2     C 6394   1.647   0.675   0.303 -0.1296 -0.0398 -0.0314
  429MPD2    C1 6395   1.627   0.582   0.207 -0.2055  0.2679  0.1190
  429MPD2    C2 6396   1.619   0.632   0.077  0.3569 -0.2950 -0.1033
  429MPD2    C3 6397   1.619   0.765   0.049 -0.2152 -0.3203 -0.0659
  429MPD2    C4 6398   1.626   0.857   0.149  1.0800 -0.2210  0.5516
  429MPD2    C5 6399   1.643   0.808   0.278  0.5581 -0.7394  0.3415
  429MPD2     H 6400   1.602   0.560  17.671  0.4922  0.9503 -1.2717
  429MPD2    H1 6401   1.626   0.962   0.123  0.2680  0.0194  1.5441
  429MPD2    H2 6402   1.648   0.648   0.408 -2.8775 -0.4872 -0.1073
  429MPD2    H3 6403   1.652   0.882   0.357  0.5763 -0.4267  0.0465
  429MPD2     N 6404   1.608   0.804  17.587 -0.4188 -0.7155  0.4513
  429MPD2    H5 6405   1.623   0.732  17.517  0.4228 -1.2683  1.2002
  429MPD2    N1 6406   1.620   0.448   0.255 -0.0455 -0.6828  0.5492
  429MPD2    H7 6407   1.626   0.439   0.356 -0.4884 -1.6623  0.4871
  430TMC3    C1 6408   1.574   0.940  17.397 -0.2830  0.3767 -0.0816
  430TMC3    C2 6409   1.498   1.037  17.327 -0.7755  0.3658 -0.1942
  430TMC3    C3 6410   1.533   1.062  17.193 -0.7761 -0.0029 -0.8160
  430TMC3    C4 6411   1.673   0.863  17.335  0.2941 -0.2087 -0.4767
  430TMC3    C5 6412   1.708   0.910  17.209 -0.4321  0.3283  0.2573
  430TMC3    C6 6413   1.634   1.001  17.130  0.4851  0.0649 -0.0796
  430TMC3     C 6414   1.564   0.930  17.542  0.4754 -0.1485 -0.4939
  430TMC3     O 6415   1.509   1.022  17.602 -0.3431  0.5543  0.0954
  430TMC3     H 6416   1.411   1.081  17.376  0.3758  1.5803  0.7583
  430TMC3    H1 6417   1.746   0.800  17.384 -1.2937 -0.7295  1.1747
  430TMC3    H2 6418   1.655   1.016  17.025 -1.5346  2.1006 -0.2104
  430TMC3    C7 6419   1.841   0.867  17.165  0.0769  0.1386 -0.3665
  430TMC3    C8 6420   1.462   1.165  17.120 -0.3243  0.2841 -1.1165
  430TMC3    O1 6421   1.886   0.768  17.223 -0.1242 -0.2073 -1.0655
  430TMC3    O2 6422   1.390   1.248  17.181  0.0786 -0.2565 -0.3879
  431MPD2     C 6423   2.449   0.912  12.729 -0.0769 -0.1771 -0.0107
  431MPD2    C1 6424   2.506   0.872  12.609  1.0033 -0.2830  0.4814
  431MPD2    C2 6425   2.436   0.779  12.534 -0.0842 -0.1287 -0.2602
  431MPD2    C3 6426   2.310   0.737  12.570 -0.3875  0.5712  0.9683
  431MPD2    C4 6427   2.253   0.787  12.684  0.8423  0.1665  0.5410
  431MPD2    C5 6428   2.324   0.877  12.760  0.6481  0.4249  0.2952
  431MPD2     H 6429   2.491   0.738  12.450  0.5239 -0.6539  0.3964
  431MPD2    H1 6430   2.162   0.751  12.730 -0.5428  3.7693  0.6622
  431MPD2    H2 6431   2.494   0.982  12.798  1.5061  0.8033 -2.0205
  431MPD2    H3 6432   2.282   0.915  12.852  0.5288 -1.0473  0.8538
  431MPD2     N 6433   2.245   0.634  12.499 -0.1345  0.2958 -0.5058
  431MPD2    H5 6434   2.161   0.594  12.539  1.1242 -0.4508  1.3563
  431MPD2    N1 6435   2.637   0.912  12.575 -0.4051 -0.3973 -0.7492
  431MPD2    H7 6436   2.666   0.866  12.489  1.9276 -1.1151  0.4171
  432TMC3    C1 6437   2.219   0.478  12.328 -0.5741 -0.3480  0.3627
  432TMC3    C2 6438   2.241   0.444  12.200  0.1598  0.3560 -0.0358
  432TMC3    C3 6439   2.223   0.315  12.160 -0.0710 -0.4350  0.3055
  432TMC3    C4 6440   2.192   0.384  12.424 -0.3312 -0.3947  0.1827
  432TMC3    C5 6441   2.175   0.253  12.378 -0.4538  0.4337  0.1834
  432TMC3    C6 6442   2.184   0.217  12.246  0.9537 -0.1398  0.0586
  432TMC3     C 6443   2.276   0.603  12.365  0.3513 -0.0620  0.1871
  432TMC3     O 6444   2.364   0.647  12.296 -0.2550  0.5011  0.4163
  432TMC3     H 6445   2.253   0.527  12.132  1.4699 -0.2363 -0.5227
  432TMC3    H1 6446   2.168   0.410  12.526  1.3185  1.4050  0.1248
  432TMC3    H2 6447   2.177   0.113  12.217 -0.8183 -0.3800  1.3287
  432TMC3    C7 6448   2.165   0.145  12.469 -0.5882  1.0793  0.5879
  432TMC3    C8 6449   2.279   0.289  12.024  0.6434 -0.2571  0.1783
  432TMC3    O1 6450   2.118   0.037  12.436 -0.1967 -0.1411  0.6533
  432TMC3    O2 6451   2.233   0.207  11.950  0.4902 -0.9358 -0.4110
  433MPD2     C 6452   1.071   4.185  10.565 -0.2396 -0.1301  0.5141
  433MPD2    C1 6453   1.052   4.072  10.636 -0.2650  0.1064 -0.8912
  433MPD2    C2 6454   1.066   4.068  10.775  0.3458  0.4485  0.4107
  433MPD2    C3 6455   1.115   4.186  10.839  0.4728 -0.6110 -0.4364
  433MPD2    C4 6456   1.136   4.300  10.767 -0.0275 -0.3960 -0.3954
  433MPD2    C5 6457   1.103   4.298  10.634  0.2430 -0.1591  0.4553
  433MPD2     H 6458   1.042   3.977  10.829 -2.0867  1.2359  0.6957
  433MPD2    H1 6459   1.152   4.396  10.814  1.9105 -0.3751 -1.0840
  433MPD2    H2 6460   1.050   4.192  10.459  2.1431  3.0397  0.2826
  433MPD2    H3 6461   1.097   4.390  10.578 -1.3331 -0.6960 -0.2672
  433MPD2     N 6462   1.154   4.173  10.980 -0.0107  0.0960 -0.2806
  433MPD2    H5 6463   1.111   4.095  11.028  3.0061 -3.3225 -3.1362
  433MPD2    N1 6464   1.019   3.955  10.554  0.1105 -0.1627  0.1586
  433MPD2    H7 6465   1.034   3.958  10.454 -2.6237  0.9742 -0.2058
  434TMC3    C1 6466   1.024   3.719  10.531 -0.5663 -0.6743 -0.7144
  434TMC3    C2 6467   1.061   3.615  10.611  0.0692  0.4317  0.9281
  434TMC3    C3 6468   1.139   3.517  10.558  0.0205 -0.3784 -0.6805
  434TMC3    C4 6469   1.070   3.730  10.402  0.5840 -0.1135 -0.3666
  434TMC3    C5 6470   1.133   3.622  10.347 -1.0259  0.4361  0.2388
  434TMC3    C6 6471   1.168   3.515  10.430 -0.1162  0.2013  0.2833
  434TMC3     C 6472   0.970   3.834  10.605  0.1808  0.8559  0.5333
  434TMC3     O 6473   0.903   3.820  10.709 -0.5394  0.1073 -0.3387
  434TMC3     H 6474   1.020   3.612  10.711 -0.5773 -0.5823  0.6410
  434TMC3    H1 6475   1.041   3.819  10.347  0.5084 -0.4848 -0.9361
  434TMC3    H2 6476   1.206   3.424  10.384  1.0337 -0.5481  2.7323
  434TMC3    C7 6477   1.087   3.578  10.218 -0.9196  0.1015  0.4755
  434TMC3    C8 6478   1.221   3.442  10.645 -0.6730  0.2640 -0.6606
  434TMC3    O1 6479   0.992   3.633  10.169 -0.2033 -0.2426  0.8734
  434TMC3    O2 6480   1.192   3.444  10.762  0.1460  0.1071  0.0561
  435MPD2     C 6481   3.823   3.900  15.247 -0.0835  0.5676  0.1728
  435MPD2    C1 6482   3.766   3.895  15.371  0.2936  0.3664 -0.2495
  435MPD2    C2 6483   3.830   3.828  15.471  0.1227 -0.3047 -0.0390
  435MPD2    C3 6484   3.953   3.760  15.452 -0.7709  1.2137  0.4192
  435MPD2    C4 6485   4.002   3.770  15.320 -0.0705 -0.1310 -0.4053
  435MPD2    C5 6486   3.940   3.839  15.221  0.3684 -0.2317 -0.5424
  435MPD2     H 6487   3.797   3.844  15.573 -2.0343  1.1778 -0.9615
  435MPD2    H1 6488   4.084   3.702  15.300 -1.6519 -2.0218 -0.4724
  435MPD2    H2 6489   3.787   3.964  15.167  1.2145  0.3730 -0.5745
  435MPD2    H3 6490   3.986   3.841  15.123 -2.1086  0.7007 -1.6873
  435MPD2     N 6491   4.007   3.683  15.559  0.2026  0.4556  0.1501
  435MPD2    H5 6492   3.945   3.671  15.638 -0.6638 -4.1937 -1.1927
  435MPD2    N1 6493   3.653   3.970  15.414 -0.5579 -0.4533 -0.2570
  435MPD2    H7 6494   3.621   3.943  15.507  0.8485 -3.0725 -0.5102
  436TMC3    C1 6495   3.312   4.109  15.564  0.3014 -0.8970  0.2235
  436TMC3    C2 6496   3.406   4.043  15.496  0.1801  0.1929 -0.2411
  436TMC3    C3 6497   3.474   4.124  15.407 -0.3900  0.4485 -0.2530
  436TMC3    C4 6498   3.284   4.242  15.554  0.6490  0.2765 -0.2139
  436TMC3    C5 6499   3.358   4.316  15.459 -0.3783  0.1261 -0.3818
  436TMC3    C6 6500   3.455   4.261  15.387 -0.0030 -0.3891 -0.0465
  436TMC3     C 6501   3.236   4.033  15.660 -0.3947  0.5444  0.3144
  436TMC3     O 6502   3.269   3.919  15.678 -0.0427  0.0381  0.1643
  436TMC3     H 6503   3.420   3.936  15.507  1.6417  0.7395  3.3514
  436TMC3    H1 6504   3.238   4.297  15.636 -1.4289 -1.7613 -0.0167
  436TMC3    H2 6505   3.524   4.313  15.322  0.4540  1.2701  1.7567
  436TMC3    C7 6506   3.336   4.456  15.467 -0.6176  0.2166  0.7572
  436TMC3    C8 6507   3.583   4.066  15.340  0.0853 -0.8993  0.0238
  436TMC3    O1 6508   3.434   4.532  15.466  0.4292  0.2235  0.5543
  436TMC3    O2 6509   3.611   4.107  15.229  0.1538 -0.4058  0.0353
  437TMC3    C1 6510   2.286   1.356  12.480 -0.2370 -0.0170 -0.7340
  437TMC3    C2 6511   2.196   1.410  12.389 -0.1433 -0.4382  0.2364
  437TMC3    C3 6512   2.235   1.440  12.264  0.4364  0.4008 -0.2787
  437TMC3    C4 6513   2.411   1.323  12.444  0.3245 -0.1627  0.6803
  437TMC3    C5 6514   2.442   1.332  12.310  0.0439 -0.4929  0.5074
  437TMC3    C6 6515   2.355   1.390  12.219  0.4111  0.4461  0.3173
  437TMC3     C 6516   2.234   1.326  12.609 -0.6518  0.0009 -0.8191
  437TMC3     O 6517   2.111   1.314  12.626 -0.0790 -0.0411  0.3295
  437TMC3     H 6518   2.103   1.445  12.432  0.4662  0.9992  0.4034
  437TMC3    H1 6519   2.466   1.252  12.505  0.6390 -0.0195  0.5613
  437TMC3    H2 6520   2.380   1.399  12.114 -1.1326  1.0994 -0.0041
  437TMC3    C7 6521   2.577   1.298  12.271 -0.3629 -0.3179 -0.2573
  437TMC3    C8 6522   2.136   1.491  12.164  0.5214  0.6495  0.4543
  437TMC3    O1 6523   2.587   1.258  12.156 -0.6957 -0.6126  0.4170
  437TMC3    O2 6524   2.016   1.494  12.193 -0.5288  0.3466 -0.0994
  438MPD2     C 6525   0.201   2.871  16.560  0.9122  0.5420 -0.5456
  438MPD2    C1 6526   0.242   2.794  16.670  0.3724  0.0544  0.8595
  438MPD2    C2 6527   0.297   2.853  16.776 -0.3340 -0.0531 -0.1068
  438MPD2    C3 6528   0.295   2.994  16.780 -0.4255  0.5231  0.1605
  438MPD2    C4 6529   0.252   3.070  16.679 -0.4072  0.6713  0.1068
  438MPD2    C5 6530   0.218   3.003  16.567  0.7364 -0.3665  0.1502
  438MPD2     H 6531   0.332   2.796  16.862 -0.8416  0.9950  0.7944
  438MPD2    H1 6532   0.256   3.178  16.668 -2.4626  0.6325 -1.0529
  438MPD2    H2 6533   0.151   2.829  16.474 -0.4291 -2.5185  1.7088
  438MPD2    H3 6534   0.208   3.072  16.483 -1.0496 -3.4819 -2.1956
  438MPD2     N 6535   0.332   3.067  16.892 -0.3579  0.4511  0.0512
  438MPD2    H5 6536   0.290   3.159  16.903  0.8947  0.9209  0.9434
  438MPD2    N1 6537   0.225   2.653  16.681  0.5080 -0.1193  0.0668
  438MPD2    H7 6538   0.213   2.614  16.775 -0.9543  1.2138  0.4227
  439TMC3    C1 6539   0.158   2.435  16.617  0.2850 -0.7421 -0.9370
  439TMC3    C2 6540   0.087   2.356  16.528  0.2772  0.0158 -0.4613
  439TMC3    C3 6541   0.067   2.226  16.573 -0.3849 -0.3927 -0.2356
  439TMC3    C4 6542   0.222   2.384  16.722 -0.1301 -0.2724  0.3515
  439TMC3    C5 6543   0.215   2.256  16.755  0.2900 -0.0570 -0.0962
  439TMC3    C6 6544   0.130   2.175  16.683 -0.3089  0.1364 -0.2323
  439TMC3     C 6545   0.188   2.568  16.574  0.2239 -0.4496  0.2350
  439TMC3     O 6546   0.195   2.580  16.454 -0.4936 -0.3742 -0.1812
  439TMC3     H 6547   0.044   2.408  16.444  1.0259  2.3380  0.5901
  439TMC3    H1 6548   0.300   2.444  16.768 -1.5803  1.4307  0.5761
  439TMC3    H2 6549   0.119   2.070  16.708  1.6745 -0.2417 -0.8985
  439TMC3    C7 6550   0.327   2.199  16.823 -0.3357 -0.2053 -0.0722
  439TMC3    C8 6551   0.068   2.125  16.469 -0.0414 -0.6966 -0.8134
  439TMC3    O1 6552   0.388   2.269  16.900 -0.6039  0.2707  0.1618
  439TMC3    O2 6553   0.109   2.015  16.495 -0.2326 -0.3534  0.3978
  440MPD2     C 6554   3.366   2.088  14.607 -0.5275  0.3700 -0.0752
  440MPD2    C1 6555   3.424   2.181  14.688  0.7237  0.0624  0.0044
  440MPD2    C2 6556   3.530   2.146  14.768  0.3109  0.3272  0.1245
  440MPD2    C3 6557   3.565   2.014  14.790 -0.7266 -0.0587 -0.8311
  440MPD2    C4 6558   3.494   1.917  14.718 -0.2668  0.2089  0.0227
  440MPD2    C5 6559   3.401   1.960  14.630 -0.3312 -0.8931 -0.2652
  440MPD2     H 6560   3.593   2.221  14.815  1.2929 -1.2420  1.3126
  440MPD2    H1 6561   3.526   1.814  14.726  2.3127  1.0428  0.4782
  440MPD2    H2 6562   3.292   2.122  14.535 -3.0792 -0.9835  1.8993
  440MPD2    H3 6563   3.360   1.878  14.571  0.9842  0.2093 -2.7307
  440MPD2     N 6564   3.667   1.964  14.879 -0.0753  0.1526 -0.0073
  440MPD2    H5 6565   3.679   1.863  14.887  0.2243  0.0344 -1.8323
  440MPD2    N1 6566   3.390   2.318  14.680  0.3548  0.5918 -0.4973
  440MPD2    H7 6567   3.432   2.370  14.757  0.1336  0.1891 -0.1058
  441TMC3    C1 6568   3.802   1.964  15.065 -0.1951  0.4125  0.5069
  441TMC3    C2 6569   3.907   2.038  15.115  0.7177 -0.3268  0.0403
  441TMC3    C3 6570   3.959   2.001  15.238  0.2785  0.5702 -0.1841
  441TMC3    C4 6571   3.749   1.864  15.137  0.0320  0.4354 -0.2228
  441TMC3    C5 6572   3.797   1.835  15.266  0.0287 -0.0665  0.1855
  441TMC3    C6 6573   3.903   1.912  15.318  0.5463 -0.5384 -0.0407
  441TMC3     C 6574   3.718   2.042  14.976 -0.1956  0.0701 -0.0749
  441TMC3     O 6575   3.726   2.163  14.982  0.4084 -0.0633  0.3125
  441TMC3     H 6576   3.949   2.121  15.059  0.6879  0.6981  1.5463
  441TMC3    H1 6577   3.657   1.821  15.099 -0.2382  1.0697 -0.2982
  441TMC3    H2 6578   3.947   1.897  15.416  1.2592 -0.9432 -0.4312
  441TMC3    C7 6579   3.708   1.766  15.361  0.0155 -0.3189 -0.0880
  441TMC3    C8 6580   3.983   2.114  15.324 -0.0956  1.0483  0.2106
  441TMC3    O1 6581   3.589   1.796  15.361  0.6863 -0.6248  0.4047
  441TMC3    O2 6582   4.067   2.095  15.408  0.0038 -0.2695 -0.1458
  442MPD2     C 6583   1.958   3.162  16.574  0.1526 -0.3050  0.8747
  442MPD2    C1 6584   1.826   3.130  16.613  0.2128  0.1041  0.1107
  442MPD2    C2 6585   1.781   3.015  16.554 -0.8276  0.3392  0.4801
  442MPD2    C3 6586   1.845   2.951  16.448  0.8855 -0.9657  0.4955
  442MPD2    C4 6587   1.969   2.990  16.415 -0.3271  0.3546  0.5011
  442MPD2    C5 6588   2.034   3.095  16.473 -0.5251  0.7666  0.4853
  442MPD2     H 6589   1.681   2.982  16.583  0.7238 -3.4732  1.5011
  442MPD2    H1 6590   2.015   2.939  16.330  0.7783  0.0745  1.2721
  442MPD2    H2 6591   2.001   3.255  16.607 -1.0692  1.1167 -1.5361
  442MPD2    H3 6592   2.130   3.130  16.437 -1.2307  0.3477 -1.8394
  442MPD2     N 6593   1.796   2.844  16.363  0.2469  0.3226 -0.3279
  442MPD2    H5 6594   1.847   2.825  16.277  1.2250 -1.7365  0.7209
  442MPD2    N1 6595   1.752   3.205  16.708  0.1006 -0.1076 -0.3276
  442MPD2    H7 6596   1.654   3.179  16.709  0.2264 -0.6160 -1.2494
  443TMC3    C1 6597   1.674   3.364  16.848 -0.3544 -0.5320 -0.1664
  443TMC3    C2 6598   1.635   3.497  16.851  0.5810 -0.1399  0.7405
  443TMC3    C3 6599   1.511   3.522  16.903  0.0606  0.2037 -0.5938
  443TMC3    C4 6600   1.613   3.264  16.919  0.1715  0.2155 -0.1115
  443TMC3    C5 6601   1.511   3.307  16.999  0.1072 -0.4385  0.0750
  443TMC3    C6 6602   1.454   3.432  16.992  0.4042  0.2520 -0.1506
  443TMC3     C 6603   1.780   3.328  16.761  0.0839  0.7068  0.0814
  443TMC3     O 6604   1.882   3.397  16.749  0.2605  0.1719  0.5138
  443TMC3     H 6605   1.686   3.557  16.777  1.6811  1.2769  2.6597
  443TMC3    H1 6606   1.660   3.166  16.923  0.5673  0.4565  1.1174
  443TMC3    H2 6607   1.356   3.455  17.033  0.4873  0.2212  0.0652
  443TMC3    C7 6608   1.472   3.219  17.109  0.3285 -0.9239 -0.4305
  443TMC3    C8 6609   1.413   3.542  16.796 -0.0035  0.1307 -0.5003
  443TMC3    O1 6610   1.519   3.106  17.108 -0.3263 -0.0498 -0.7140
  443TMC3    O2 6611   1.314   3.469  16.779 -0.2276 -0.3993 -0.3985
  444MPD2     C 6612   2.093   2.784  17.258 -0.2223  0.3091 -0.0993
  444MPD2    C1 6613   1.975   2.759  17.185  0.1601  0.0022  0.1933
  444MPD2    C2 6614   1.980   2.699  17.064 -1.1291  0.9941 -0.0819
  444MPD2    C3 6615   2.098   2.653  17.017  0.0949  0.0437 -0.2251
  444MPD2    C4 6616   2.216   2.668  17.093  0.7694 -0.2519 -0.2714
  444MPD2    C5 6617   2.205   2.734  17.210  0.0064  0.1539  0.5890
  444MPD2     H 6618   1.891   2.695  17.003  1.0295 -0.7815 -3.0831
  444MPD2    H1 6619   2.316   2.645  17.059  1.4263 -0.5575  1.8469
  444MPD2    H2 6620   2.091   2.834  17.353  0.3031  0.3381 -0.1057
  444MPD2    H3 6621   2.294   2.751  17.269 -0.1462 -1.2593  1.2249
  444MPD2     N 6622   2.100   2.589  16.892 -0.2271 -0.3601  0.3979
  444MPD2    H5 6623   2.008   2.559  16.858 -0.1095 -0.3883  0.1025
  444MPD2    N1 6624   1.845   2.794  17.231  0.0938  0.0383  0.2621
  444MPD2    H7 6625   1.767   2.755  17.179 -0.7407  2.4364 -0.2941
  445TMC3    C1 6626   2.172   2.415  16.747  0.0123 -0.4804  0.2783
  445TMC3    C2 6627   2.043   2.354  16.759 -0.3309  0.3452 -0.2597
  445TMC3    C3 6628   2.011   2.236  16.693 -0.0747 -0.4037  0.0232
  445TMC3    C4 6629   2.263   2.357  16.671  0.3977 -0.4537  0.3991
  445TMC3    C5 6630   2.229   2.244  16.595 -0.6751 -0.3235 -0.9110
  445TMC3    C6 6631   2.103   2.183  16.604 -0.9156  0.0044  0.3909
  445TMC3     C 6632   2.210   2.527  16.833 -0.0239 -0.1255 -0.5889
  445TMC3     O 6633   2.327   2.535  16.860 -0.1474  0.5363 -0.3842
  445TMC3     H 6634   1.972   2.400  16.827 -1.1056 -0.5575 -0.4590
  445TMC3    H1 6635   2.364   2.395  16.662 -0.7736  2.7052  0.6330
  445TMC3    H2 6636   2.083   2.087  16.558 -1.3046  0.8556 -1.2127
  445TMC3    C7 6637   2.342   2.187  16.520 -0.4603 -0.4002 -0.2949
  445TMC3    C8 6638   1.873   2.198  16.674 -0.3814  0.5694  0.1754
  445TMC3    O1 6639   2.442   2.254  16.516  0.2905 -0.0145 -0.5931
  445TMC3    O2 6640   1.849   2.077  16.651  0.5778  0.2212 -0.5114
  446MPD2     C 6641   1.152   3.199  11.250 -0.4798  0.2618 -0.2000
  446MPD2    C1 6642   1.090   3.258  11.139  0.5473 -0.0413  0.3913
  446MPD2    C2 6643   1.146   3.371  11.079  0.0918 -0.7342 -0.0451
  446MPD2    C3 6644   1.262   3.433  11.129  0.2471  0.2933 -0.3385
  446MPD2    C4 6645   1.315   3.376  11.243  0.1753  0.3858 -0.5208
  446MPD2    C5 6646   1.268   3.258  11.300 -0.3106 -0.0747  0.3698
  446MPD2     H 6647   1.098   3.414  10.992 -0.3510 -0.5925  0.2692
  446MPD2    H1 6648   1.404   3.419  11.290  0.0370 -0.6681  0.6855
  446MPD2    H2 6649   1.096   3.118  11.295  2.0811 -1.3945  0.0158
  446MPD2    H3 6650   1.322   3.207  11.378 -0.0989 -0.6682 -0.1617
  446MPD2     N 6651   1.328   3.529  11.054  0.5292 -0.0121  0.0412
  446MPD2    H5 6652   1.275   3.560  10.973 -1.9572 -2.0638  0.8927
  446MPD2    N1 6653   0.973   3.212  11.075 -0.0573 -0.0904  0.4075
  446MPD2    H7 6654   0.940   3.278  11.006  1.1658 -0.9350 -0.9681
  447TMC3    C1 6655   1.511   3.666  10.974 -0.2085  0.3123  0.0417
  447TMC3    C2 6656   1.452   3.679  10.849  0.6371  0.5035  0.1799
  447TMC3    C3 6657   1.468   3.792  10.775 -0.3291 -0.1774  0.5549
  447TMC3    C4 6658   1.596   3.763  11.028 -0.2220 -0.7453 -0.0780
  447TMC3    C5 6659   1.622   3.873  10.950  0.2186  0.1139 -0.7304
  447TMC3    C6 6660   1.558   3.885  10.824  0.0906  0.2628  0.3222
  447TMC3     C 6661   1.455   3.576  11.071 -0.1860 -0.0482 -0.1834
  447TMC3     O 6662   1.541   3.526  11.144  0.5704 -0.0666  0.6069
  447TMC3     H 6663   1.386   3.599  10.817  0.1556  0.8632  0.2672
  447TMC3    H1 6664   1.637   3.751  11.128 -1.2413 -0.0064  0.4196
  447TMC3    H2 6665   1.603   3.963  10.763 -0.3312 -0.3084 -0.7268
  447TMC3    C7 6666   1.709   3.982  10.987  0.9026  0.5417 -0.2657
  447TMC3    C8 6667   1.429   3.811  10.636 -0.2827  0.1803  0.0076
  447TMC3    O1 6668   1.703   4.090  10.931  0.0276  0.0534  0.3815
  447TMC3    O2 6669   1.418   3.702  10.572 -0.0706  0.2497  0.6558
  448TMC3    C1 6670   0.231   3.880  16.712 -0.3494  0.3376  1.0414
  448TMC3    C2 6671   0.288   3.768  16.659 -0.4681 -0.1894 -0.0219
  448TMC3    C3 6672   0.376   3.693  16.736 -0.3570  0.3585  0.1158
  448TMC3    C4 6673   0.240   3.909  16.845 -0.6340  0.0240 -0.3948
  448TMC3    C5 6674   0.317   3.824  16.916  0.6503  0.1933 -0.1637
  448TMC3    C6 6675   0.399   3.726  16.873  0.1731 -0.3370  0.1133
  448TMC3     C 6676   0.140   3.961  16.639 -0.0340 -1.1264  1.4413
  448TMC3     O 6677   0.102   4.065  16.695  0.0923  0.1277 -0.1392
  448TMC3     H 6678   0.265   3.745  16.555  0.3200 -0.8894 -0.0425
  448TMC3    H1 6679   0.172   3.977  16.895  0.8805  0.5099  0.9956
  448TMC3    H2 6680   0.456   3.659  16.936 -0.0798 -2.3810 -1.8508
  448TMC3    C7 6681   0.338   3.871  17.046  0.2321 -0.0783 -0.1370
  448TMC3    C8 6682   0.392   3.550  16.702 -0.3548  0.3912  0.8012
  448TMC3    O1 6683   0.332   3.992  17.050 -0.3352 -0.1070 -0.1349
  448TMC3    O2 6684   0.415   3.469  16.788 -0.0280 -0.9310  0.2106
  449MPD2     C 6685   1.484   2.408  13.935  0.0199  0.2391  0.8156
  449MPD2    C1 6686   1.392   2.325  13.866 -0.2537 -0.1177 -0.1972
  449MPD2    C2 6687   1.313   2.230  13.932 -0.6416  0.4257  0.2863
  449MPD2    C3 6688   1.324   2.221  14.074  1.0899 -0.2112  0.6616
  449MPD2    C4 6689   1.402   2.311  14.135  0.2711 -0.0819 -0.8137
  449MPD2    C5 6690   1.471   2.408  14.069  0.0412  0.3902  0.6419
  449MPD2     H 6691   1.259   2.149  13.883  0.7771 -0.4864  0.2483
  449MPD2    H1 6692   1.395   2.323  14.243 -0.4760 -0.3554 -0.8300
  449MPD2    H2 6693   1.551   2.479  13.888 -0.8054 -0.2937 -1.1627
  449MPD2    H3 6694   1.533   2.474  14.129  2.5875  0.9141 -2.5387
  449MPD2     N 6695   1.228   2.122  14.129  0.1434 -0.7677 -0.3221
  449MPD2    H5 6696   1.185   2.064  14.058 -0.5313 -1.2596  0.4953
  449MPD2    N1 6697   1.387   2.323  13.726  0.6225  0.2040  0.0684
  449MPD2    H7 6698   1.307   2.274  13.688  2.0807 -0.4726 -2.1339
  450TMC3    C1 6699   1.385   2.398  13.516  0.2748 -0.0873 -0.2576
  450TMC3    C2 6700   1.455   2.337  13.414  0.7756 -0.1273  0.2432
  450TMC3    C3 6701   1.377   2.252  13.333  0.0307 -0.5477  0.0003
  450TMC3    C4 6702   1.256   2.374  13.543  0.3991 -0.5093 -0.7287
  450TMC3    C5 6703   1.188   2.280  13.472  0.1215 -1.0337 -0.2793
  450TMC3    C6 6704   1.251   2.210  13.371 -0.3133 -0.1416  0.6065
  450TMC3     C 6705   1.457   2.405  13.641  0.1092 -0.4262 -0.0783
  450TMC3     O 6706   1.563   2.461  13.645  0.3683 -0.0454 -0.7497
  450TMC3     H 6707   1.561   2.358  13.409  0.4126  1.9519  1.1854
  450TMC3    H1 6708   1.200   2.427  13.619  0.6592 -0.3569 -0.6449
  450TMC3    H2 6709   1.195   2.135  13.316  0.0738  0.3351 -0.4421
  450TMC3    C7 6710   1.119   2.190  13.559 -0.2702 -0.1221 -0.2758
  450TMC3    C8 6711   1.454   2.169  13.233 -0.2823 -0.8446  0.1898
  450TMC3    O1 6712   1.155   2.194  13.675 -0.1553  0.0142  0.2503
  450TMC3    O2 6713   1.575   2.154  13.250 -0.4815  0.4152  0.0789
  451MPD2     C 6714   2.761   1.241   1.412  0.0934 -0.2076  0.0114
  451MPD2    C1 6715   2.660   1.151   1.436 -0.6524  0.5530 -0.6230
  451MPD2    C2 6716   2.676   1.018   1.395 -0.3752 -0.0341 -0.0951
  451MPD2    C3 6717   2.794   0.983   1.335 -0.2518 -0.4822  0.1102
  451MPD2    C4 6718   2.894   1.075   1.306  0.1611  0.4666  0.1814
  451MPD2    C5 6719   2.880   1.207   1.352 -0.2094 -0.3935  0.6879
  451MPD2     H 6720   2.596   0.946   1.408  0.9063 -1.2587  0.9117
  451MPD2    H1 6721   2.986   1.046   1.258  0.4628 -0.7770  1.5101
  451MPD2    H2 6722   2.756   1.347   1.432  0.1528  0.1338 -1.7604
  451MPD2    H3 6723   2.954   1.285   1.340 -0.4946 -0.4364 -1.3787
  451MPD2     N 6724   2.817   0.861   1.280  0.0764 -0.3939 -0.0200
  451MPD2    H5 6725   2.900   0.838   1.226 -1.1363  0.0064 -2.0269
  451MPD2    N1 6726   2.540   1.211   1.477 -0.2320  0.4911  0.0325
  451MPD2    H7 6727   2.533   1.309   1.450 -2.8545  0.4617  0.5778
  452TMC3    C1 6728   2.825   0.636   1.277 -0.1627  0.5129  0.3293
  452TMC3    C2 6729   2.828   0.530   1.366  0.3765  0.1629 -0.4034
  452TMC3    C3 6730   2.841   0.405   1.312  0.1736  0.5159  0.1364
  452TMC3    C4 6731   2.841   0.613   1.144  0.4359 -0.3758  0.5314
  452TMC3    C5 6732   2.853   0.485   1.099  0.1598 -0.1635  0.6614
  452TMC3    C6 6733   2.851   0.376   1.178 -0.3563  0.0953 -0.2181
  452TMC3     C 6734   2.747   0.750   1.313 -0.3897  0.1810  0.1187
  452TMC3     O 6735   2.666   0.736   1.407 -0.0186 -0.6268 -0.5041
  452TMC3     H 6736   2.833   0.552   1.472 -2.2410  1.0701 -0.4641
  452TMC3    H1 6737   2.827   0.693   1.073 -0.1295 -2.2818 -1.4947
  452TMC3    H2 6738   2.869   0.272   1.153 -0.1594 -0.1084  0.7401
  452TMC3    C7 6739   2.870   0.476   0.955 -0.1367 -0.7518  0.6449
  452TMC3    C8 6740   2.819   0.298   1.409  0.2245  0.3438 -0.3906
  452TMC3    O1 6741   2.924   0.572   0.899  0.5454 -0.8555  0.6004
  452TMC3    O2 6742   2.845   0.324   1.527  0.1458  0.2285 -0.6110
  453TMC3    C1 6743   3.466   2.526  12.019  0.0671 -0.3669  0.2799
  453TMC3    C2 6744   3.393   2.483  12.122 -0.3269  0.5126  0.0622
  453TMC3    C3 6745   3.275   2.415  12.103  0.2202 -1.1115  0.2342
  453TMC3    C4 6746   3.417   2.523  11.896  0.4885 -0.0762 -0.4790
  453TMC3    C5 6747   3.297   2.456  11.879 -0.0125  0.6893 -1.1337
  453TMC3    C6 6748   3.222   2.397  11.977 -0.5696 -0.4379 -0.8789
  453TMC3     C 6749   3.588   2.603  12.039  0.2030 -0.5319  0.3703
  453TMC3     O 6750   3.612   2.630  12.158  0.1018  0.0217  0.1303
  453TMC3     H 6751   3.432   2.488  12.223  1.1936  0.6225 -0.5234
  453TMC3    H1 6752   3.457   2.596  11.826 -0.4973 -0.0504 -1.0142
  453TMC3    H2 6753   3.138   2.330  11.962 -3.1640  2.7585 -0.3367
  453TMC3    C7 6754   3.251   2.453  11.737 -0.2345  0.8304  0.6231
  453TMC3    C8 6755   3.230   2.320  12.201 -0.7122 -0.5361 -0.5691
  453TMC3    O1 6756   3.331   2.487  11.648  0.4198  0.0424  0.0817
  453TMC3    O2 6757   3.112   2.306  12.234  0.4892  0.9107  0.4170
  454MPD2     C 6758   2.805   2.365  16.366  0.0109 -0.2961 -0.1638
  454MPD2    C1 6759   2.747   2.425  16.257  0.1193  0.0397 -0.4155
  454MPD2    C2 6760   2.678   2.540  16.273 -0.5912  0.1140 -0.2807
  454MPD2    C3 6761   2.685   2.609  16.393  0.2319  0.1882  0.5311
  454MPD2    C4 6762   2.765   2.561  16.493 -0.4202 -0.3343 -0.4016
  454MPD2    C5 6763   2.821   2.437  16.484  0.8266  0.5272  0.5029
  454MPD2     H 6764   2.609   2.578  16.198 -1.9867  1.2346  1.5896
  454MPD2    H1 6765   2.770   2.611  16.589  2.0869  1.7197 -1.5913
  454MPD2    H2 6766   2.854   2.269  16.360  0.6307  0.0251 -0.2774
  454MPD2    H3 6767   2.878   2.397  16.567  2.5031  3.1414  0.6037
  454MPD2     N 6768   2.597   2.719  16.418 -0.5494  0.1662  1.0347
  454MPD2    H5 6769   2.595   2.749  16.515  1.6720  1.8958  0.5506
  454MPD2    N1 6770   2.738   2.369  16.131 -0.0161  0.0630  0.4577
  454MPD2    H7 6771   2.667   2.411  16.072  0.5759 -0.0759 -0.3453
  455TMC3    C1 6772   2.387   2.792  16.403 -0.4976  0.0010  0.0564
  455TMC3    C2 6773   2.393   2.825  16.538 -0.2147 -0.1114  0.9173
  455TMC3    C3 6774   2.280   2.792  16.615 -0.0237 -0.7201 -0.1093
  455TMC3    C4 6775   2.285   2.715  16.350  0.0871  0.4436 -0.2910
  455TMC3    C5 6776   2.177   2.683  16.435  0.4809  0.6238 -0.3865
  455TMC3    C6 6777   2.168   2.728  16.566  0.5381 -0.3792  0.0163
  455TMC3     C 6778   2.505   2.779  16.330  0.6485  0.5032  0.1376
  455TMC3     O 6779   2.505   2.782  16.208  0.2322 -0.4735  0.2939
  455TMC3     H 6780   2.475   2.881  16.581  1.7412 -2.4055  0.1568
  455TMC3    H1 6781   2.291   2.690  16.245 -0.7641 -1.8524  0.1959
  455TMC3    H2 6782   2.089   2.692  16.631 -1.1854  2.4476 -0.5350
  455TMC3    C7 6783   2.077   2.583  16.398  0.1659  0.3984 -0.0727
  455TMC3    C8 6784   2.271   2.858  16.746  0.3681  0.0413  0.4791
  455TMC3    O1 6785   1.974   2.593  16.464  0.3684 -0.0312  0.2775
  455TMC3    O2 6786   2.384   2.871  16.796 -0.2911 -0.4243 -0.2197
  456MPD2     C 6787   0.521   2.115  16.471  0.2173 -0.8499  0.6083
  456MPD2    C1 6788   0.633   2.113  16.547  0.0293  0.2876 -0.0520
  456MPD2    C2 6789   0.661   2.227  16.620 -0.3455 -0.3345  0.3074
  456MPD2    C3 6790   0.597   2.349  16.599 -0.2549  1.6807 -0.7411
  456MPD2    C4 6791   0.478   2.347  16.522  0.3021  1.2278 -0.2392
  456MPD2    C5 6792   0.436   2.228  16.464  0.3944 -0.5971  0.3649
  456MPD2     H 6793   0.749   2.228  16.683  0.0375 -0.2969 -0.2355
  456MPD2    H1 6794   0.417   2.436  16.514 -1.0299  0.2537 -0.7895
  456MPD2    H2 6795   0.505   2.028  16.408  0.9150 -0.0439 -0.7083
  456MPD2    H3 6796   0.349   2.204  16.403  1.8674  0.1027 -2.0039
  456MPD2     N 6797   0.637   2.472  16.660  0.4604  0.0702  0.2364
  456MPD2    H5 6798   0.696   2.461  16.742  0.3733 -1.5951  0.0634
  456MPD2    N1 6799   0.703   1.994  16.552 -0.6306  0.4775 -1.0642
  456MPD2    H7 6800   0.665   1.920  16.494 -1.6049 -1.1252  1.5797
  457TMC3    C1 6801   0.649   2.711  16.681 -0.5048 -0.7431  0.3954
  457TMC3    C2 6802   0.631   2.835  16.628 -0.4633 -0.1989 -0.0213
  457TMC3    C3 6803   0.675   2.940  16.706 -0.2633 -0.1746  0.6852
  457TMC3    C4 6804   0.720   2.689  16.797 -0.3600  0.0761  0.0180
  457TMC3    C5 6805   0.747   2.800  16.876 -0.7012  0.4416  0.1491
  457TMC3    C6 6806   0.720   2.927  16.835  0.0730  0.3040  0.1843
  457TMC3     C 6807   0.608   2.593  16.605 -0.1000  0.4175  0.3392
  457TMC3     O 6808   0.556   2.619  16.496 -0.4738  0.5158  0.1302
  457TMC3     H 6809   0.582   2.850  16.533 -1.6047  2.1808  0.9490
  457TMC3    H1 6810   0.763   2.594  16.826 -0.1448  0.1829  0.0502
  457TMC3    H2 6811   0.725   3.014  16.899 -3.3688  1.2361 -0.8155
  457TMC3    C7 6812   0.754   2.774  17.019  0.1287  0.1055  0.2622
  457TMC3    C8 6813   0.642   3.070  16.667  0.9559  0.3268 -0.0723
  457TMC3    O1 6814   0.745   2.657  17.056  0.4070  0.1068  0.2100
  457TMC3    O2 6815   0.658   3.160  16.748  0.2296 -0.3348  0.3029
  458MPD2     C 6816   3.089   1.336  12.295 -0.0349  0.1534  0.3766
  458MPD2    C1 6817   3.039   1.359  12.421  0.2085  0.0817 -0.2181
  458MPD2    C2 6818   2.904   1.369  12.441  0.1853  0.4328  0.3531
  458MPD2    C3 6819   2.816   1.336  12.338 -1.3684  0.3998 -0.3877
  458MPD2    C4 6820   2.866   1.322  12.214 -0.2273  0.2207  0.2847
  458MPD2    C5 6821   2.998   1.325  12.196  0.5322 -0.1358  0.7074
  458MPD2     H 6822   2.870   1.386  12.542 -0.2716  0.0804  0.2590
  458MPD2    H1 6823   2.801   1.310  12.128 -1.2859  1.7827  0.8773
  458MPD2    H2 6824   3.196   1.331  12.282 -0.1966 -1.7994 -0.1677
  458MPD2    H3 6825   3.041   1.333  12.097 -0.9159 -1.0556 -0.0073
  458MPD2     N 6826   2.676   1.332  12.366  0.1500  0.3627  0.4124
  458MPD2    H5 6827   2.645   1.346  12.461  0.7948  1.1996  0.4987
  458MPD2    N1 6828   3.131   1.384  12.525  0.7152  0.0324  0.5139
  458MPD2    H7 6829   3.223   1.421  12.502  0.2607  0.5533 -0.4683
  459TMC3    C1 6830   3.205   1.439  12.744 -0.4094 -1.0484  0.0847
  459TMC3    C2 6831   3.296   1.540  12.700  0.1315 -0.0705  0.3686
  459TMC3    C3 6832   3.365   1.602  12.800  0.0372 -0.1499 -0.3971
  459TMC3    C4 6833   3.194   1.411  12.872  0.4805  0.1248 -0.7651
  459TMC3    C5 6834   3.267   1.477  12.968 -0.2684 -0.2534  0.5658
  459TMC3    C6 6835   3.361   1.571  12.937 -0.0008 -0.2784 -0.1695
  459TMC3     C 6836   3.105   1.382  12.659  0.0968 -0.2386  0.3123
  459TMC3     O 6837   3.009   1.332  12.711 -0.2762  0.0943 -0.1443
  459TMC3     H 6838   3.284   1.580  12.600  2.4641  0.1879  0.2002
  459TMC3    H1 6839   3.122   1.336  12.902  1.5762 -0.8125 -0.4723
  459TMC3    H2 6840   3.408   1.638  13.008 -1.9045 -1.0264  1.8237
  459TMC3    C7 6841   3.281   1.400  13.093  0.2612  0.0369 -0.3184
  459TMC3    C8 6842   3.469   1.690  12.753 -0.1532 -0.1867  1.0079
  459TMC3    O1 6843   3.299   1.281  13.071 -0.3942 -0.1391  0.1227
  459TMC3    O2 6844   3.513   1.661  12.641 -0.0137  0.0642 -0.0041
  460MPD2     C 6845   1.404   4.124  10.461  0.9597  0.6569 -0.0687
  460MPD2    C1 6846   1.407   3.985  10.469 -0.2049  0.3119  0.1219
  460MPD2    C2 6847   1.355   3.914  10.363 -0.2885 -0.3181 -0.7738
  460MPD2    C3 6848   1.312   3.977  10.245 -0.3587  0.2500  0.0263
  460MPD2    C4 6849   1.308   4.112  10.245 -0.0134 -0.0754  0.0344
  460MPD2    C5 6850   1.342   4.187  10.352  0.3199 -0.4588 -0.4764
  460MPD2     H 6851   1.357   3.806  10.368  2.8498 -0.2181  0.3254
  460MPD2    H1 6852   1.285   4.167  10.155 -0.9523 -2.6807 -1.3381
  460MPD2    H2 6853   1.431   4.184  10.548  1.0178  1.3154 -0.5398
  460MPD2    H3 6854   1.338   4.295  10.342 -1.2680 -0.4957 -0.2503
  460MPD2     N 6855   1.279   3.908  10.128 -0.5448 -0.7777  0.5892
  460MPD2    H5 6856   1.229   3.967  10.062  1.0723 -0.1807 -0.1257
  460MPD2    N1 6857   1.439   3.937  10.599 -0.3938  0.9519  0.2564
  460MPD2    H7 6858   1.447   4.008  10.671 -1.8303  0.1394  1.2074
  461TMC3    C1 6859   1.261   3.736   9.973 -0.0892  0.5494  1.3043
  461TMC3    C2 6860   1.316   3.628   9.906 -0.2701 -0.4830  0.4139
  461TMC3    C3 6861   1.247   3.580   9.798  0.1214 -0.4705  0.2381
  461TMC3    C4 6862   1.146   3.792   9.918 -0.4391 -1.2013  0.0768
  461TMC3    C5 6863   1.089   3.746   9.806 -0.9604 -0.1678  0.2963
  461TMC3    C6 6864   1.138   3.644   9.737  0.4057 -0.2407  0.2067
  461TMC3     C 6865   1.311   3.774  10.103  0.3703  0.1101 -0.0689
  461TMC3     O 6866   1.388   3.698  10.159  0.1125  0.0064  0.3480
  461TMC3     H 6867   1.401   3.576   9.948  1.4344  0.8746 -1.3462
  461TMC3    H1 6868   1.087   3.865   9.972 -1.4800 -0.7934 -1.6095
  461TMC3    H2 6869   1.106   3.618   9.636 -0.4906  0.1067  0.4032
  461TMC3    C7 6870   0.962   3.796   9.773 -0.0269 -0.1446 -0.3013
  461TMC3    C8 6871   1.322   3.483   9.723  0.2580 -0.3780 -0.2498
  461TMC3    O1 6872   0.926   3.900   9.826  0.0770 -0.3152 -0.0118
  461TMC3    O2 6873   1.438   3.482   9.749  0.0719 -0.1258 -0.4249
  462TMC3    C1 6874   1.995   0.817  17.671 -0.1538  0.3761 -0.7597
  462TMC3    C2 6875   1.967   0.718  17.576  0.2774 -0.3703 -0.0890
  462TMC3    C3 6876   1.966   0.588  17.616  0.3225 -0.1087  0.3259
  462TMC3    C4 6877   2.020   0.784   0.124 -0.6292 -0.1232  0.0144
  462TMC3    C5 6878   2.014   0.651   0.163  0.5628  0.3561 -0.1151
  462TMC3    C6 6879   1.964   0.550   0.079  0.5541 -0.5316  1.1590
  462TMC3     C 6880   1.971   0.959  17.648  0.5782 -1.0583 -0.4160
  462TMC3     O 6881   1.946   1.036   0.068  0.0564 -0.0635 -0.2718
  462TMC3     H 6882   1.930   0.742  17.477 -1.1296  1.1559  0.8121
  462TMC3    H1 6883   2.032   0.863   0.198  1.6508  0.8401 -1.3793
  462TMC3    H2 6884   1.963   0.447   0.113  0.1429 -0.1020  2.4583
  462TMC3    C7 6885   2.007   0.613   0.304  0.0106  0.3301  0.1791
  462TMC3    C8 6886   1.911   0.496  17.524 -0.3457  0.2048 -0.2854
  462TMC3    O1 6887   1.943   0.514   0.332 -0.0867 -0.3256 -0.1126
  462TMC3    O2 6888   1.824   0.544  17.455 -0.0199 -0.1821 -0.1496
  463MPD2     C 6889   2.846   4.069   1.999 -0.2000 -0.0208 -0.7573
  463MPD2    C1 6890   2.737   4.085   1.914 -0.2937 -0.2078  0.0998
  463MPD2    C2 6891   2.751   4.150   1.790  0.2959  0.0071 -0.6859
  463MPD2    C3 6892   2.881   4.192   1.756  0.0915 -0.4899  0.1404
  463MPD2    C4 6893   2.992   4.169   1.841 -0.2133  0.4719 -0.4229
  463MPD2    C5 6894   2.971   4.105   1.959  0.0766  0.3860  1.1447
  463MPD2     H 6895   2.662   4.171   1.731 -0.9253  1.2106  1.5750
  463MPD2    H1 6896   3.091   4.198   1.808  0.4521 -1.0820  0.2121
  463MPD2    H2 6897   2.831   4.027   2.098 -1.3389  2.3505  0.0681
  463MPD2    H3 6898   3.052   4.088   2.029 -0.2664  3.1175  2.2059
  463MPD2     N 6899   2.905   4.259   1.634  0.1005 -0.1126 -0.4570
  463MPD2    H5 6900   3.004   4.268   1.612  0.3858 -0.4253  0.6823
  463MPD2    N1 6901   2.608   4.043   1.952 -0.0973  0.4272  0.0930
  463MPD2    H7 6902   2.527   4.042   1.892  1.0165  0.3845 -1.4037
  464TMC3    C1 6903   2.445   3.917   2.069  0.5272  0.1865  0.0764
  464TMC3    C2 6904   2.415   3.850   1.942  0.2811 -0.4923  0.2065
  464TMC3    C3 6905   2.325   3.748   1.936 -0.2515  0.6666 -0.0498
  464TMC3    C4 6906   2.372   3.885   2.178 -1.1533  0.2566 -0.2946
  464TMC3    C5 6907   2.269   3.796   2.159 -0.3691  0.1635 -0.3580
  464TMC3    C6 6908   2.243   3.721   2.045  0.1288  0.3194  0.0458
  464TMC3     C 6909   2.570   3.991   2.072 -0.3119  0.2417  0.0594
  464TMC3     O 6910   2.625   3.999   2.184 -0.3626  0.2751  0.4765
  464TMC3     H 6911   2.479   3.859   1.855  0.9858 -1.1870  0.6483
  464TMC3    H1 6912   2.381   3.936   2.272 -1.3956 -0.9303  0.3729
  464TMC3    H2 6913   2.165   3.648   2.026  1.7415 -0.9972 -1.4753
  464TMC3    C7 6914   2.205   3.741   2.279 -0.3701 -1.1749 -0.7433
  464TMC3    C8 6915   2.276   3.714   1.807 -0.6599  0.3361 -0.4386
  464TMC3    O1 6916   2.191   3.809   2.378  0.0037  0.0386  0.4059
  464TMC3    O2 6917   2.296   3.800   1.720  0.3814 -0.8712  0.1901
  465MPD2     C 6918   4.358   2.561  17.017  0.0555  0.4982 -0.4841
  465MPD2    C1 6919   4.264   2.469  17.069  0.1675 -0.2802 -0.7567
  465MPD2    C2 6920   4.171   2.414  16.985 -0.4058 -0.4903 -0.5788
  465MPD2    C3 6921   4.163   2.444  16.847  0.3690  0.1803 -0.1329
  465MPD2    C4 6922   4.247   2.540  16.804  0.3299  0.5907  0.2661
  465MPD2    C5 6923   4.349   2.586  16.882 -0.5048  0.3197  0.3338
  465MPD2     H 6924   4.093   2.360  17.037  0.2645 -0.0871  0.8471
  465MPD2    H1 6925   4.238   2.588  16.707  3.2649  2.9517  1.1945
  465MPD2    H2 6926   4.452   2.598  17.056  0.6341 -1.7853  0.2387
  465MPD2    H3 6927   4.420   2.656  16.840  1.4333 -2.1602 -0.5913
  465MPD2     N 6928   4.066   2.386  16.761 -0.2915  0.7239  0.0100
  465MPD2    H5 6929   3.996   2.328  16.807 -0.8588  0.4929 -1.1427
  465MPD2    N1 6930   4.264   2.432  17.205 -0.3080  0.0905 -0.7936
  465MPD2    H7 6931   4.198   2.359  17.234 -0.4607  0.8704  0.8460
  466TMC3    C1 6932   3.707   2.262  16.619 -0.7519 -0.2179  0.4952
  466TMC3    C2 6933   3.647   2.350  16.529 -0.4298 -0.4506 -0.2481
  466TMC3    C3 6934   3.719   2.450  16.477  0.3020  0.1899  0.6575
  466TMC3    C4 6935   3.840   2.281  16.654  0.2245  0.0093 -0.2677
  466TMC3    C5 6936   3.906   2.380  16.591 -0.1530  0.3310 -0.4907
  466TMC3    C6 6937   3.851   2.467  16.508 -0.5008  0.2836  0.9407
  466TMC3     C 6938   3.618   2.214  16.725 -0.6070  0.4510 -0.3485
  466TMC3     O 6939   3.678   2.159  16.818  0.3688 -0.0986 -0.4829
  466TMC3     H 6940   3.546   2.333  16.491 -0.6010  0.9086 -0.4208
  466TMC3    H1 6941   3.880   2.208  16.722  0.7358 -0.2870 -0.8850
  466TMC3    H2 6942   3.913   2.542  16.460  1.2300 -1.2489  0.8018
  466TMC3    C7 6943   4.047   2.414  16.629 -0.2994 -0.1844  0.4438
  466TMC3    C8 6944   3.651   2.583  16.476  0.7679 -0.6221  0.1394
  466TMC3    O1 6945   4.119   2.478  16.550  0.5066  0.8891  0.5899
  466TMC3    O2 6946   3.660   2.640  16.587  0.0963  0.6266  0.7053
  467TMC3    C1 6947   0.024   1.263  13.804  0.0544 -0.2017  0.3363
  467TMC3    C2 6948   4.716   1.274  13.676  0.0601 -0.2714 -0.0276
  467TMC3    C3 6949   4.714   1.168  13.593 -0.4390 -0.0166 -0.6996
  467TMC3    C4 6950   0.041   1.139  13.860  0.5226 -0.1094 -0.0538
  467TMC3    C5 6951   0.054   1.030  13.780  0.5451 -0.1318  0.0844
  467TMC3    C6 6952   0.033   1.042  13.649 -0.1232 -0.5611  0.2343
  467TMC3     C 6953   0.136   1.357  13.838 -0.0978 -0.0778 -0.0037
  467TMC3     O 6954   0.228   1.304  13.898 -0.6316  0.2349 -0.7799
  467TMC3     H 6955   4.683   1.366  13.631  0.1110 -0.5807 -0.7035
  467TMC3    H1 6956   0.059   1.133  13.967 -0.9552  0.8508  0.2308
  467TMC3    H2 6957   0.049   0.953  13.590  1.3570  0.3034 -0.6615
  467TMC3    C7 6958   0.070   0.897  13.838  0.4804  0.0215  0.0461
  467TMC3    C8 6959   0.042   1.208  13.466  0.2895 -1.0626 -0.2241
  467TMC3    O1 6960   0.144   0.825  13.776  0.4007 -0.0626  0.4941
  467TMC3    O2 6961   0.099   1.320  13.462 -0.0502 -0.3822  0.2877
  468MPD2     C 6962   3.202   3.474  11.484  0.1877  0.3233 -0.0380
  468MPD2    C1 6963   3.319   3.465  11.413  0.0631 -0.0549  0.1339
  468MPD2    C2 6964   3.325   3.376  11.309 -0.0967 -1.1251 -0.2601
  468MPD2    C3 6965   3.215   3.294  11.276  0.3040  0.8027  0.8833
  468MPD2    C4 6966   3.095   3.309  11.342  0.2667 -0.5808 -0.5095
  468MPD2    C5 6967   3.093   3.398  11.443  0.1074 -0.7929  0.0952
  468MPD2     H 6968   3.417   3.372  11.251  0.7354  0.5813  0.9533
  468MPD2    H1 6969   3.007   3.253  11.313  0.9399 -0.9308 -1.8595
  468MPD2    H2 6970   3.191   3.546  11.564 -0.5891  2.2474 -1.8635
  468MPD2    H3 6971   2.995   3.426  11.480  0.2409  0.2518 -0.3309
  468MPD2     N 6972   3.200   3.198  11.174 -0.0956  0.8509  0.2521
  468MPD2    H5 6973   3.119   3.137  11.176 -0.7353  1.7446  1.8969
  468MPD2    N1 6974   3.429   3.546  11.440  0.1820  0.0496  0.5562
  468MPD2    H7 6975   3.509   3.521  11.381 -1.4020 -0.5820 -1.3333
  469TMC3    C1 6976   3.552   3.724  11.540 -0.0488  0.0422 -0.2304
  469TMC3    C2 6977   3.671   3.671  11.488  0.4698 -0.7842 -0.3835
  469TMC3    C3 6978   3.782   3.749  11.486 -0.6636 -0.1332  0.0812
  469TMC3    C4 6979   3.554   3.856  11.590 -0.5551 -0.0438  0.6860
  469TMC3    C5 6980   3.671   3.925  11.596  0.4027 -0.9065 -0.1607
  469TMC3    C6 6981   3.786   3.881  11.536  0.0790  0.0146 -0.4063
  469TMC3     C 6982   3.431   3.653  11.525 -0.0052 -0.3419  0.4466
  469TMC3     O 6983   3.343   3.719  11.575 -0.2059  0.3166 -0.4543
  469TMC3     H 6984   3.670   3.566  11.459 -0.5628 -1.0857  0.7234
  469TMC3    H1 6985   3.468   3.899  11.640  0.4345  0.6880  1.7580
  469TMC3    H2 6986   3.873   3.944  11.540  0.1536 -0.1291  0.1663
  469TMC3    C7 6987   3.663   4.055  11.656 -0.2379 -0.2069 -0.0293
  469TMC3    C8 6988   3.901   3.675  11.449  0.4173 -0.1848  0.4234
  469TMC3    O1 6989   3.584   4.061  11.746  0.1041 -0.0968 -0.6545
  469TMC3    O2 6990   3.890   3.574  11.384  0.1431 -0.0722  0.2244
  470TMC3    C1 6991   1.044   1.042   0.731  0.2299 -0.0038 -0.5541
  470TMC3    C2 6992   0.975   1.089   0.838  0.2353 -0.7984 -0.6316
  470TMC3    C3 6993   1.023   1.045   0.959 -0.2256 -0.6616 -0.5636
  470TMC3    C4 6994   1.147   0.948   0.739  0.2575  0.2382  0.4792
  470TMC3    C5 6995   1.196   0.917   0.861  0.6283  0.1216 -0.1947
  470TMC3    C6 6996   1.133   0.956   0.976 -1.2087  1.1535  0.0943
  470TMC3     C 6997   1.005   1.094   0.600 -0.1515  0.2719 -0.4994
  470TMC3     O 6998   0.951   1.203   0.588 -0.1397 -0.5793 -0.4929
  470TMC3     H 6999   0.910   1.176   0.829  0.3946 -0.3737  2.2821
  470TMC3    H1 7000   1.193   0.909   0.649 -1.4872 -0.7929  0.0474
  470TMC3    H2 7001   1.162   0.926   1.076  0.0499  0.8736 -0.3553
  470TMC3    C7 7002   1.339   0.879   0.857 -0.1624  0.9040 -0.1091
  470TMC3    C8 7003   0.971   1.099   1.084  0.2734  0.0749  0.4660
  470TMC3    O1 7004   1.395   0.851   0.753  0.1928  0.1719 -0.4938
  470TMC3    O2 7005   1.057   1.093   1.173 -0.2600 -0.1301  0.2678
  471MPD2     C 7006   1.242   1.341  16.684 -0.2465 -0.0378  0.0632
  471MPD2    C1 7007   1.308   1.222  16.663  0.3122  0.3780 -0.4619
  471MPD2    C2 7008   1.383   1.170  16.762 -0.3982  0.3790 -0.1559
  471MPD2    C3 7009   1.395   1.221  16.887 -0.3622  0.2678  0.5860
  471MPD2    C4 7010   1.333   1.339  16.908  0.0909  0.1892 -0.4335
  471MPD2    C5 7011   1.252   1.389  16.812  0.1503 -0.1624 -0.0104
  471MPD2     H 7012   1.445   1.083  16.747 -0.9129 -0.2965  1.5610
  471MPD2    H1 7013   1.338   1.395  17.001 -2.9765  1.1269 -0.8382
  471MPD2    H2 7014   1.169   1.384  16.616  0.5674  1.3744  0.0719
  471MPD2    H3 7015   1.194   1.477  16.840  3.4914  2.8977 -2.6370
  471MPD2     N 7016   1.465   1.149  16.984 -0.2005 -0.2571 -0.0613
  471MPD2    H5 7017   1.511   1.063  16.956  2.1830  0.8165  0.5395
  471MPD2    N1 7018   1.305   1.141  16.547  0.1745  0.1016  0.4907
  471MPD2    H7 7019   1.354   1.052  16.560  0.5448  0.1693 -0.3954
  472TMC3    C1 7020   1.253   1.059  16.337 -0.4047  0.4533  0.5089
  472TMC3    C2 7021   1.184   1.064  16.221 -0.1885  0.3602 -0.3391
  472TMC3    C3 7022   1.208   0.969  16.115 -0.3696 -0.3258 -0.1112
  472TMC3    C4 7023   1.349   0.964  16.358  1.3400  0.4731 -0.4221
  472TMC3    C5 7024   1.372   0.875  16.254 -0.1097 -0.3419 -0.5385
  472TMC3    C6 7025   1.303   0.869  16.133  0.4281  0.2567  0.1663
  472TMC3     C 7026   1.244   1.170  16.428 -0.3163  0.0990  0.4314
  472TMC3     O 7027   1.183   1.271  16.392 -0.4885 -0.0415  0.0686
  472TMC3     H 7028   1.098   1.130  16.209  1.4565  2.4077 -0.9505
  472TMC3    H1 7029   1.413   0.954  16.444  1.3899 -0.4707 -0.5706
  472TMC3    H2 7030   1.347   0.816  16.049  1.2485 -0.3309  0.9720
  472TMC3    C7 7031   1.440   0.755  16.296  0.6729  0.2912 -0.5875
  472TMC3    C8 7032   1.104   0.909  16.034  0.1783  0.4728 -0.4372
  472TMC3    O1 7033   1.468   0.747  16.413  0.7820  0.1173  0.1542
  472TMC3    O2 7034   1.101   0.954  15.919  0.8870 -0.0367 -0.7907
  473MPD2     C 7035   1.501   3.314  14.123 -0.7256 -0.3285  0.1692
  473MPD2    C1 7036   1.558   3.414  14.045  0.4024 -0.0178  0.4708
  473MPD2    C2 7037   1.662   3.486  14.098 -0.3228  0.9178 -0.1265
  473MPD2    C3 7038   1.732   3.437  14.207 -0.2740  0.1718  0.1932
  473MPD2    C4 7039   1.689   3.329  14.276 -0.2225 -0.2003 -0.3862
  473MPD2    C5 7040   1.566   3.272  14.239  0.0188  0.2423  0.0282
  473MPD2     H 7041   1.704   3.573  14.047  1.9445 -0.4060 -0.5226
  473MPD2    H1 7042   1.736   3.295  14.368  0.2639 -0.5950 -0.7791
  473MPD2    H2 7043   1.409   3.263  14.096 -1.7598  2.4531 -1.6006
  473MPD2    H3 7044   1.527   3.190  14.299 -3.2055  0.8935 -1.1499
  473MPD2     N 7045   1.834   3.500  14.271 -0.2370 -0.3865  0.1020
  473MPD2    H5 7046   1.862   3.460  14.360  0.6938 -0.4643 -0.2260
  473MPD2    N1 7047   1.488   3.460  13.932 -0.0830 -0.7480  0.4456
  473MPD2    H7 7048   1.524   3.538  13.878  0.7592 -1.8377 -0.5667
  474TMC3    C1 7049   1.977   3.692  14.327 -0.0137  0.4839  0.6916
  474TMC3    C2 7050   2.040   3.794  14.275 -0.6467 -0.3765 -0.5970
  474TMC3    C3 7051   2.046   3.909  14.351 -0.6510  0.1364  0.1702
  474TMC3    C4 7052   1.945   3.687  14.460  0.2766 -0.9132 -0.2774
  474TMC3    C5 7053   1.969   3.799  14.535  0.1419  0.1329 -0.4406
  474TMC3    C6 7054   2.016   3.915  14.483 -0.7132 -0.5008 -0.4198
  474TMC3     C 7055   1.891   3.618  14.233 -0.3291 -0.9264 -0.4087
  474TMC3     O 7056   1.907   3.657  14.119 -0.0685 -0.4072  0.1653
  474TMC3     H 7057   2.081   3.798  14.174  1.2872  2.1800  0.2737
  474TMC3    H1 7058   1.878   3.610  14.496 -1.1759 -0.4626 -2.0184
  474TMC3    H2 7059   2.038   4.004  14.540 -2.7384 -0.5661  0.4698
  474TMC3    C7 7060   1.905   3.796  14.663 -0.1386  0.8886 -0.3029
  474TMC3    C8 7061   1.979   4.016  14.278  0.2861 -0.8871 -0.3540
  474TMC3    O1 7062   1.809   3.718  14.676 -0.1921 -0.5038  0.6295
  474TMC3    O2 7063   1.972   3.988  14.160 -0.8411 -0.6196 -0.4569
  475MPD2     C 7064   4.264   1.062  10.669  0.0377 -0.3081  0.4055
  475MPD2    C1 7065   4.226   1.063  10.540  0.5078  0.4808 -0.2901
  475MPD2    C2 7066   4.091   1.082  10.510  0.2510 -0.0748 -0.3775
  475MPD2    C3 7067   4.004   1.109  10.612 -0.6841 -0.3257 -0.3608
  475MPD2    C4 7068   4.043   1.098  10.745  0.3200  0.0948  0.2467
  475MPD2    C5 7069   4.172   1.077  10.770 -0.0499 -0.2006 -0.0111
  475MPD2     H 7070   4.057   1.076  10.407  1.2767 -0.0155 -0.7121
  475MPD2    H1 7071   3.983   1.104  10.835  1.6805 -0.6665  1.2213
  475MPD2    H2 7072   4.369   1.052  10.694  0.3505 -0.4875 -0.9686
  475MPD2    H3 7073   4.206   1.053  10.871 -1.0221  2.2424  0.8977
  475MPD2     N 7074   3.874   1.145  10.582  0.2811 -0.2987 -0.2756
  475MPD2    H5 7075   3.845   1.146  10.484  1.4065  0.7122 -0.5930
  475MPD2    N1 7076   4.329   1.053  10.443  0.0486  0.1154 -0.2308
  475MPD2    H7 7077   4.421   1.076  10.479 -0.2033  0.5000  0.1619
  476TMC3    C1 7078   4.449   1.093  10.240 -0.6083 -0.1277 -0.1052
  476TMC3    C2 7079   4.425   1.168  10.124  0.1239 -0.2361  0.1878
  476TMC3    C3 7080   4.493   1.292  10.111 -0.4335 -0.0283 -0.0440
  476TMC3    C4 7081   4.562   1.127  10.317 -0.3334 -0.1994 -1.1258
  476TMC3    C5 7082   4.624   1.244  10.297  0.3293 -0.0350 -1.2445
  476TMC3    C6 7083   4.575   1.335  10.206 -0.1449 -0.0753 -0.1482
  476TMC3     C 7084   4.322   1.051  10.306 -1.0335 -0.0666 -0.1068
  476TMC3     O 7085   4.221   1.036  10.239 -0.0465  0.2056 -0.7093
  476TMC3     H 7086   4.347   1.140  10.054  0.8992  0.7832 -1.0726
  476TMC3    H1 7087   4.591   1.061  10.398 -0.4751 -1.7828 -2.3627
  476TMC3    H2 7088   4.620   1.434  10.199 -1.7008  0.7406  1.3446
  476TMC3    C7 7089   0.018   1.282  10.384  0.4091  0.4392 -0.1066
  476TMC3    C8 7090   4.435   1.393  10.027 -1.1261 -0.4105 -0.4497
  476TMC3    O1 7091   0.063   1.191  10.458 -0.5257  0.6427 -0.1021
  476TMC3    O2 7092   4.499   1.491   9.993 -0.1070 -0.2033 -0.4800
  477MPD2     C 7093   1.525   2.711  11.655  0.4231  0.4921 -0.2639
  477MPD2    C1 7094   1.625   2.806  11.665 -0.6940  0.0864 -0.5182
  477MPD2    C2 7095   1.720   2.783  11.765 -0.6738  0.2307  0.4230
  477MPD2    C3 7096   1.715   2.681  11.849 -0.0402 -0.1923 -0.2471
  477MPD2    C4 7097   1.620   2.584  11.826 -0.4606  0.0718 -0.2485
  477MPD2    C5 7098   1.521   2.606  11.736 -0.1824 -0.4292  0.2978
  477MPD2     H 7099   1.789   2.865  11.782 -0.2995  0.3791 -1.8535
  477MPD2    H1 7100   1.609   2.489  11.877  2.9762  0.3405  0.9641
  477MPD2    H2 7101   1.437   2.714  11.591 -0.3169 -1.0864  0.6770
  477MPD2    H3 7102   1.442   2.531  11.732  0.0558 -0.6570 -0.1390
  477MPD2     N 7103   1.800   2.654  11.960 -0.4966  0.1273  0.0323
  477MPD2    H5 7104   1.778   2.578  12.023  2.2068 -0.1788  0.5948
  477MPD2    N1 7105   1.645   2.915  11.580  0.2178 -0.5789 -0.2001
  477MPD2    H7 7106   1.728   2.969  11.606 -0.6851  0.2887  0.8842
  478TMC3    C1 7107   1.633   3.058  11.393  0.2086  0.9501 -0.4876
  478TMC3    C2 7108   1.703   3.162  11.463  0.1445 -0.1944  0.2677
  478TMC3    C3 7109   1.723   3.278  11.390 -0.3100 -0.2726 -0.7151
  478TMC3    C4 7110   1.587   3.077  11.266 -0.5808 -0.1585  0.2104
  478TMC3    C5 7111   1.616   3.200  11.207  0.9974 -0.3051  0.8454
  478TMC3    C6 7112   1.682   3.298  11.265 -0.3015 -0.2289 -0.3781
  478TMC3     C 7113   1.571   2.952  11.470 -0.0460  0.1878  0.8536
  478TMC3     O 7114   1.466   2.911  11.428  0.8370 -0.0552 -0.1156
  478TMC3     H 7115   1.744   3.150  11.562  2.1876 -1.4099 -0.7419
  478TMC3    H1 7116   1.533   2.996  11.218  0.4294 -0.0996 -1.0523
  478TMC3    H2 7117   1.729   3.372  11.201  1.8908 -0.2901  1.1469
  478TMC3    C7 7118   1.645   3.187  11.063  0.9279  0.0575 -0.5101
  478TMC3    C8 7119   1.772   3.397  11.460 -0.1329 -0.2068 -0.3077
  478TMC3    O1 7120   1.753   3.140  11.032 -0.1314  0.6604  0.4553
  478TMC3    O2 7121   1.838   3.374  11.561  0.1757  0.5902  0.2019
  479MPD2     C 7122   1.523   0.812  15.035 -0.2511 -0.1341  0.0957
  479MPD2    C1 7123   1.476   0.728  15.122  0.5205  0.5688 -0.1069
  479MPD2    C2 7124   1.481   0.749  15.252 -0.5858 -0.0933  0.3683
  479MPD2    C3 7125   1.530   0.873  15.297  0.0662 -0.5426 -0.5171
  479MPD2    C4 7126   1.586   0.958  15.213 -0.7894  0.3023  0.2539
  479MPD2    C5 7127   1.581   0.933  15.077  0.4081  0.3193 -0.2785
  479MPD2     H 7128   1.442   0.669  15.315 -0.6618  0.1947  0.6877
  479MPD2    H1 7129   1.644   1.035  15.264 -2.0674  1.1655  0.3932
  479MPD2    H2 7130   1.512   0.790  14.929 -0.1110  2.5360 -0.4801
  479MPD2    H3 7131   1.618   1.002  15.002 -1.2685  1.8448  0.2998
  479MPD2     N 7132   1.547   0.902  15.439  0.0898  0.3368  0.3432
  479MPD2    H5 7133   1.619   0.970  15.463  1.2104  0.1972 -2.6842
  479MPD2    N1 7134   1.403   0.619  15.068  0.3811  0.2122 -0.3481
  479MPD2    H7 7135   1.402   0.617  14.967  1.0833 -0.4163 -0.3443
  480TMC3    C1 7136   1.263   0.557  15.617  0.9767  0.4916  0.7207
  480TMC3    C2 7137   1.152   0.605  15.562  0.5711  0.1208  0.1358
  480TMC3    C3 7138   1.166   0.711  15.481  0.5120 -0.4383  0.5284
  480TMC3    C4 7139   1.384   0.628  15.618 -0.2267  0.2206 -0.2270
  480TMC3    C5 7140   1.389   0.740  15.538 -0.6694  0.0182 -0.6013
  480TMC3    C6 7141   1.278   0.786  15.469 -0.0023 -0.0100  0.4595
  480TMC3     C 7142   1.262   0.423  15.671  0.5176 -0.2124 -1.1472
  480TMC3     O 7143   1.368   0.376  15.710  0.5514  0.1104  0.1535
  480TMC3     H 7144   1.053   0.561  15.567  1.5213 -1.8260  1.8860
  480TMC3    H1 7145   1.468   0.599  15.680 -0.1648  1.8360  0.4347
  480TMC3    H2 7146   1.280   0.877  15.410  0.2314  1.4041  2.6216
  480TMC3    C7 7147   1.504   0.829  15.548 -0.2229 -0.2849 -0.2870
  480TMC3    C8 7148   1.064   0.730  15.373  0.4727  0.1002  0.2318
  480TMC3    O1 7149   1.537   0.835  15.666 -0.3506  0.5078 -0.5043
  480TMC3    O2 7150   0.947   0.709  15.396  0.4470  0.3755 -0.1604
  481MPD2     C 7151   3.518   4.487  14.354  0.6351  0.5634 -0.3611
  481MPD2    C1 7152   3.400   4.544  14.341  0.4731 -0.1146  0.2366
  481MPD2    C2 7153   3.330   4.585  14.447  0.2936 -0.2195  0.7220
  481MPD2    C3 7154   3.381   4.562  14.581  0.3334  0.0651  0.2661
  481MPD2    C4 7155   3.499   4.494  14.593  0.0430 -0.0994 -0.0191
  481MPD2    C5 7156   3.563   4.460  14.477 -0.6584  0.0169  0.2956
  481MPD2     H 7157   3.242   4.646  14.429  0.2564 -1.2992 -2.7545
  481MPD2    H1 7158   3.532   4.473  14.694 -1.7745  0.8766  0.7906
  481MPD2    H2 7159   3.574   4.451  14.269  1.3009 -0.4765  0.5255
  481MPD2    H3 7160   3.658   4.407  14.478  0.6108  2.2869 -0.2176
  481MPD2     N 7161   3.317   4.619  14.700  0.1632 -0.6469 -0.1663
  481MPD2    H5 7162   3.373   4.620  14.785 -1.3150  1.4018  0.7934
  481MPD2    N1 7163   3.348   4.562  14.204 -0.0372  0.5138  0.2058
  481MPD2    H7 7164   3.402   4.514  14.133 -2.7612  0.9331 -2.1478
  482TMC3    C1 7165   3.239   4.655  14.021  0.0499  0.8112  0.6167
  482TMC3    C2 7166   3.289   4.558  13.932  0.4803  0.7280 -0.0400
  482TMC3    C3 7167   3.265   4.570  13.795 -0.0924  0.5953 -0.6870
  482TMC3    C4 7168   3.158   0.031  13.968  0.4143  0.6697 -0.3647
  482TMC3    C5 7169   3.140   0.039  13.832  0.1310  0.1272 -0.1320
  482TMC3    C6 7170   3.196   4.674  13.742  0.6688 -0.3279 -0.1089
  482TMC3     C 7171   3.261   4.655  14.163  0.2651  0.6920  0.1145
  482TMC3     O 7172   3.180   4.717  14.227 -0.3859  0.0514 -0.4234
  482TMC3     H 7173   3.342   4.474  13.973 -0.5823 -0.0627 -0.2790
  482TMC3    H1 7174   3.096   0.090  14.035 -0.9554 -0.3017 -0.7861
  482TMC3    H2 7175   3.171   4.675  13.636  0.2531  1.8129  0.0066
  482TMC3    C7 7176   3.025   0.108  13.780 -0.6197 -0.7262 -0.0796
  482TMC3    C8 7177   3.275   4.448  13.723  0.4336 -0.3894 -0.1415
  482TMC3    O1 7178   2.984   0.070  13.671 -0.4196  0.5029 -0.6825
  482TMC3    O2 7179   3.208   4.420  13.628 -0.3003  0.1370 -0.0770
  483TMC3    C1 7180   1.150   4.126   1.294  0.3254  0.1291 -0.5153
  483TMC3    C2 7181   1.235   4.228   1.266  0.3414 -0.0504  0.0022
  483TMC3    C3 7182   1.350   4.250   1.335 -0.1931  0.0274  1.0826
  483TMC3    C4 7183   1.193   4.038   1.394 -0.1503  0.7169 -0.2167
  483TMC3    C5 7184   1.303   4.070   1.467 -0.3375 -0.8268 -0.8714
  483TMC3    C6 7185   1.385   4.171   1.439  0.5868  0.8967 -0.7197
  483TMC3     C 7186   1.081   4.074   1.178  1.1592  0.2203  0.1331
  483TMC3     O 7187   1.069   4.146   1.079  0.3157 -0.4330  0.7521
  483TMC3     H 7188   1.203   4.306   1.197 -0.5133 -0.0171  0.4356
  483TMC3    H1 7189   1.124   3.963   1.430  1.8992 -0.2774  1.6395
  483TMC3    H2 7190   1.480   4.176   1.492 -0.7310 -0.2965  1.7698
  483TMC3    C7 7191   1.358   3.959   1.544 -0.4429  0.7862 -0.3808
  483TMC3    C8 7192   1.422   4.376   1.321  0.1403 -0.6834  0.7268
  483TMC3    O1 7193   1.321   3.851   1.504 -0.5158  0.1106  0.2107
  483TMC3    O2 7194   1.409   4.437   1.213 -0.6886 -0.6569 -0.1895
  484MPD2     C 7195   3.538   2.043  12.830  0.5843 -0.0364  0.4745
  484MPD2    C1 7196   3.560   1.918  12.783  0.3785 -0.0027  0.5634
  484MPD2    C2 7197   3.675   1.903  12.707  0.6368  0.1415 -0.2407
  484MPD2    C3 7198   3.771   1.997  12.682 -0.8853 -0.5247 -0.4064
  484MPD2    C4 7199   3.740   2.122  12.721  0.1693 -0.1399 -0.1168
  484MPD2    C5 7200   3.621   2.145  12.789  0.3011  0.5409  0.3906
  484MPD2     H 7201   3.701   1.806  12.667 -0.5444  0.6216 -2.1720
  484MPD2    H1 7202   3.802   2.208  12.699  0.0625  0.4109  1.7293
  484MPD2    H2 7203   3.458   2.070  12.897  2.3074  1.8068  1.8023
  484MPD2    H3 7204   3.597   2.243  12.829 -1.9165  0.9546 -1.9881
  484MPD2     N 7205   3.879   1.992  12.585 -0.3657  0.1397 -0.0756
  484MPD2    H5 7206   3.926   2.076  12.554 -1.8420  1.0413  0.1201
  484MPD2    N1 7207   3.472   1.812  12.815  0.0846 -0.3572  0.2391
  484MPD2    H7 7208   3.398   1.835  12.881  0.5602  1.9903 -0.0545
  485TMC3    C1 7209   4.057   1.887  12.462 -0.2649 -0.0229 -0.0880
  485TMC3    C2 7210   4.139   1.781  12.457 -0.4542 -0.1612 -0.7167
  485TMC3    C3 7211   4.253   1.785  12.383 -0.0597  0.2703  0.6505
  485TMC3    C4 7212   4.070   1.992  12.379 -0.3157  0.1612  0.1657
  485TMC3    C5 7213   4.170   1.981  12.284  0.6572  0.5563 -0.0541
  485TMC3    C6 7214   4.274   1.895  12.296  0.8048  0.1207  0.1019
  485TMC3     C 7215   3.942   1.875  12.553  0.6577 -0.4221  0.3006
  485TMC3     O 7216   3.932   1.767  12.610  0.1016  0.5310 -0.2532
  485TMC3     H 7217   4.115   1.694  12.516  0.9536  0.4622  0.7601
  485TMC3    H1 7218   3.984   2.057  12.367 -0.1858 -0.1066 -2.3450
  485TMC3    H2 7219   4.363   1.896  12.233  0.3213 -1.0039 -0.6049
  485TMC3    C7 7220   4.122   1.992  12.144  0.0982  0.4471  0.4721
  485TMC3    C8 7221   4.308   1.662  12.326 -0.2139  0.0887 -0.2045
  485TMC3    O1 7222   4.027   2.066  12.118 -0.3575 -0.1454  0.0046
  485TMC3    O2 7223   4.362   1.678  12.219  0.8089 -0.4167 -0.1282
  486MPD2     C 7224   0.682   0.654  12.979  0.7026 -0.0928  0.3857
  486MPD2    C1 7225   0.690   0.656  12.842 -0.4056  0.1664  0.0671
  486MPD2    C2 7226   0.682   0.780  12.776 -0.8540  0.2845  0.6169
  486MPD2    C3 7227   0.673   0.900  12.847 -0.9183  0.5337  0.2859
  486MPD2    C4 7228   0.663   0.891  12.982  0.3522  0.3848 -0.4527
  486MPD2    C5 7229   0.673   0.771  13.052  0.2354 -0.1583 -0.3194
  486MPD2     H 7230   0.686   0.787  12.668  1.6906 -1.0684  0.6176
  486MPD2    H1 7231   0.647   0.980  13.041 -0.7614 -0.6915  0.9031
  486MPD2    H2 7232   0.675   0.559  13.032 -0.4781 -0.3776 -0.2753
  486MPD2    H3 7233   0.658   0.754  13.158 -0.3756 -3.0207 -0.8587
  486MPD2     N 7234   0.660   1.021  12.779 -0.4836  0.0617 -0.6860
  486MPD2    H5 7235   0.676   1.014  12.679 -2.7998  1.8305 -1.1787
  486MPD2    N1 7236   0.687   0.525  12.780 -0.0594  0.2666  0.2267
  486MPD2    H7 7237   0.675   0.439  12.832 -1.1292 -0.4658 -1.2461
  487TMC3    C1 7238   0.749   0.373  12.610 -0.0161 -0.5451 -0.7653
  487TMC3    C2 7239   0.711   0.326  12.484 -0.1653 -0.0887  0.7019
  487TMC3    C3 7240   0.736   0.201  12.450 -0.3264 -0.0898  0.6695
  487TMC3    C4 7241   0.810   0.294  12.700 -0.0080  0.2618 -0.1462
  487TMC3    C5 7242   0.827   0.164  12.664 -0.5100  0.1617  0.3397
  487TMC3    C6 7243   0.803   0.122  12.542  0.4042  0.5406  0.2909
  487TMC3     C 7244   0.712   0.506  12.649 -0.9338 -0.0239 -0.3391
  487TMC3     O 7245   0.725   0.589  12.555 -0.6449  0.2900  0.1204
  487TMC3     H 7246   0.650   0.381  12.414  1.1325 -0.5389 -0.7801
  487TMC3    H1 7247   0.841   0.328  12.798 -0.2262  0.6365 -0.2072
  487TMC3    H2 7248   0.819   0.018  12.515  0.7173  0.0119  2.5259
  487TMC3    C7 7249   0.802   0.071  12.775 -0.1070 -0.0691 -0.2778
  487TMC3    C8 7250   0.614   0.135  12.416  0.6736  0.2894 -0.0996
  487TMC3    O1 7251   0.769   0.123  12.879  0.1068  0.0140  0.2484
  487TMC3    O2 7252   0.506   0.183  12.451  0.3975 -0.0669  0.4579
  488MPD2     C 7253   1.036   2.538  16.520 -0.2441  0.1059 -0.1025
  488MPD2    C1 7254   1.103   2.636  16.579 -0.0170 -0.3417 -0.2898
  488MPD2    C2 7255   1.117   2.629  16.713  0.0554  0.2516 -0.3661
  488MPD2    C3 7256   1.054   2.528  16.790 -0.4397 -0.9446 -0.2600
  488MPD2    C4 7257   0.981   2.427  16.732 -0.0706 -0.7194 -0.0053
  488MPD2    C5 7258   0.973   2.434  16.591 -0.1042 -0.5894  0.6187
  488MPD2     H 7259   1.176   2.708  16.759  0.8661 -0.2322 -0.5640
  488MPD2    H1 7260   0.933   2.349  16.790 -1.3237 -1.4391 -2.0257
  488MPD2    H2 7261   1.025   2.523  16.413  0.3509 -0.6832 -0.0567
  488MPD2    H3 7262   0.926   2.352  16.537 -3.3171  0.5508  1.6709
  488MPD2     N 7263   1.062   2.540  16.928  0.2603  0.6588 -0.7317
  488MPD2    H5 7264   1.102   2.626  16.964  0.5432  0.5582 -0.8046
  488MPD2    N1 7265   1.172   2.741  16.512 -1.1981 -0.0850 -0.2782
  488MPD2    H7 7266   1.226   2.807  16.566 -1.1253  1.9044 -2.7829
  489TMC3    C1 7267   1.044   2.503  17.154 -0.2641  0.0306  0.1631
  489TMC3    C2 7268   1.134   2.604  17.167 -0.1342 -0.3895  0.6088
  489TMC3    C3 7269   1.129   2.682  17.283  0.0009  0.7711  0.5119
  489TMC3    C4 7270   0.960   2.467  17.252 -0.9871 -0.5380 -0.2732
  489TMC3    C5 7271   0.977   2.536  17.372  0.2453 -0.0499  0.1829
  489TMC3    C6 7272   1.055   2.643  17.389  0.3365 -0.0030  0.9621
  489TMC3     C 7273   1.009   2.458  17.020 -0.6911 -0.8255 -0.5261
  489TMC3     O 7274   0.962   2.350  17.005 -0.0515  0.6824 -0.0782
  489TMC3     H 7275   1.212   2.622  17.094 -0.3289 -0.0583  0.4768
  489TMC3    H1 7276   0.910   2.372  17.239  0.2526 -1.3913  1.1890
  489TMC3    H2 7277   1.063   2.692  17.485 -0.0502  1.9110  0.0124
  489TMC3    C7 7278   0.930   2.481  17.503  0.5865  0.0385 -0.1158
  489TMC3    C8 7279   1.204   2.801  17.285 -0.0508  0.6979  0.2152
  489TMC3    O1 7280   0.958   2.542  17.606  0.9993 -0.0441  0.0660
  489TMC3    O2 7281   1.263   2.827  17.181 -0.1861 -0.1825 -0.0363
  490MPD2     C 7282   1.667   2.268  17.403  0.3678 -0.6275 -0.0345
  490MPD2    C1 7283   1.645   2.204  17.524  0.4056 -0.8579  0.2408
  490MPD2    C2 7284   1.698   2.261  17.645  0.0321  0.3254 -0.2464
  490MPD2    C3 7285   1.756   2.388  17.639 -0.0396  0.3479 -0.0499
  490MPD2    C4 7286   1.772   2.447  17.520 -0.4120 -0.7641  0.2898
  490MPD2    C5 7287   1.725   2.391  17.406 -0.0540 -0.1869 -0.7683
  490MPD2     H 7288   1.693   2.204   0.064 -0.7204  0.0486 -0.4550
  490MPD2    H1 7289   1.826   2.541  17.526  1.4124 -1.9033  1.7433
  490MPD2    H2 7290   1.625   2.237  17.308 -2.0746 -1.2658  1.2286
  490MPD2    H3 7291   1.730   2.450  17.315  0.8714  2.2285  0.8441
  490MPD2     N 7292   1.819   2.445   0.075  0.3241 -0.2902  0.1151
  490MPD2    H5 7293   1.865   2.534   0.056 -0.1962 -0.1888 -0.6749
  490MPD2    N1 7294   1.577   2.079  17.537 -0.1039  0.4010  0.5799
  490MPD2    H7 7295   1.579   2.043  17.632  0.5020  1.7273  1.0699
  491TMC3    C1 7296   1.466   1.873  17.473 -0.0973 -0.4428  0.2823
  491TMC3    C2 7297   1.427   1.844  17.603  0.3588  0.2698  0.1510
  491TMC3    C3 7298   1.368   1.724  17.635 -0.8460  0.2826 -0.3213
  491TMC3    C4 7299   1.435   1.781  17.377 -0.0615 -0.4198  0.6700
  491TMC3    C5 7300   1.364   1.670  17.412 -0.0346 -0.0246  0.4379
  491TMC3    C6 7301   1.337   1.632  17.540 -0.7135 -0.1391  0.4775
  491TMC3     C 7302   1.514   2.008  17.438  0.4643 -0.4110  0.0584
  491TMC3     O 7303   1.514   2.038  17.318  0.1948 -0.4655 -0.2312
  491TMC3     H 7304   1.465   1.905   0.011 -0.3505  1.5741 -0.4921
  491TMC3    H1 7305   1.454   1.805  17.273  0.6600  0.3751  0.9858
  491TMC3    H2 7306   1.267   1.554  17.568 -1.1697  0.4626  1.0134
  491TMC3    C7 7307   1.284   1.605  17.312  0.6286 -0.0990  0.3090
  491TMC3    C8 7308   1.342   1.684   0.105 -0.1501 -0.2400 -0.0648
  491TMC3    O1 7309   1.250   1.485  17.336 -0.5730 -0.4483  0.0527
  491TMC3    O2 7310   1.337   1.772   0.189 -0.7860 -0.3117 -0.3280
  492MPD2     C 7311   2.010   1.579  11.021  0.9183  0.0400 -0.4787
  492MPD2    C1 7312   1.900   1.543  10.958 -0.4019 -0.7778 -0.8270
  492MPD2    C2 7313   1.794   1.489  11.029  0.4022 -0.6810  0.3741
  492MPD2    C3 7314   1.800   1.479  11.166  0.0435  0.0512  0.2042
  492MPD2    C4 7315   1.914   1.526  11.229 -0.3489  0.5473  0.3984
  492MPD2    C5 7316   2.021   1.570  11.159  0.5025  0.0621  0.3538
  492MPD2     H 7317   1.697   1.481  10.980  1.1129 -1.4685 -0.8900
  492MPD2    H1 7318   1.921   1.519  11.337  0.5255 -1.9849  0.1684
  492MPD2    H2 7319   2.098   1.619  10.972 -0.8170  0.9024 -2.8861
  492MPD2    H3 7320   2.114   1.590  11.213  1.2048 -0.6228 -0.6023
  492MPD2     N 7321   1.695   1.440  11.246  0.6346 -0.3026  0.1803
  492MPD2    H5 7322   1.719   1.461  11.343 -0.9025  0.1329  0.4569
  492MPD2    N1 7323   1.897   1.564  10.820 -0.3748  0.3052  0.5499
  492MPD2    H7 7324   1.973   1.619  10.781 -0.6699  0.2543 -0.1045
  493TMC3    C1 7325   1.788   1.606  10.622  0.2928 -0.5535 -0.2965
  493TMC3    C2 7326   1.904   1.671  10.582  0.2807  0.3396 -0.4407
  493TMC3    C3 7327   1.908   1.707  10.446 -0.4313  0.1805  0.4723
  493TMC3    C4 7328   1.689   1.565  10.533 -0.0761 -0.0183 -0.2368
  493TMC3    C5 7329   1.696   1.609  10.402  0.0064  0.5828 -0.7199
  493TMC3    C6 7330   1.805   1.680  10.360 -1.0915  0.9782  0.6229
  493TMC3     C 7331   1.796   1.526  10.743  0.6663 -0.1555  0.0351
  493TMC3     O 7332   1.705   1.444  10.760  0.2817 -0.2715  0.0287
  493TMC3     H 7333   1.975   1.717  10.649 -0.1531  1.0754 -0.4938
  493TMC3    H1 7334   1.597   1.517  10.564 -1.3896  1.8880 -1.1417
  493TMC3    H2 7335   1.821   1.699  10.254  1.9078  2.9468  1.4494
  493TMC3    C7 7336   1.620   1.524  10.313  0.1019 -0.2761  0.0221
  493TMC3    C8 7337   2.026   1.777  10.392 -0.6468 -0.7659  0.4586
  493TMC3    O1 7338   1.544   1.564  10.221 -0.2073  0.1284  0.0292
  493TMC3    O2 7339   2.025   1.823  10.276 -0.3309  0.2119  0.3120
  494TMC3    C1 7340   2.684   3.856   0.488  0.1324  0.2596 -0.7824
  494TMC3    C2 7341   2.759   3.748   0.526  0.2349  0.9091 -0.1926
  494TMC3    C3 7342   2.889   3.736   0.497 -0.4743  0.1627 -0.1424
  494TMC3    C4 7343   2.740   3.946   0.403 -0.8712  0.3639  0.1224
  494TMC3    C5 7344   2.865   3.915   0.351  0.0744  1.1454 -0.3901
  494TMC3    C6 7345   2.942   3.817   0.407 -0.3508  0.9534 -0.3592
  494TMC3     C 7346   2.538   3.859   0.525  0.5539  0.9909 -0.2400
  494TMC3     O 7347   2.500   3.759   0.584  0.4326 -0.3214  0.1366
  494TMC3     H 7348   2.701   3.670   0.575  2.2845  0.5790  1.6819
  494TMC3    H1 7349   2.678   4.020   0.354  1.0758  1.3812 -0.7630
  494TMC3    H2 7350   3.034   3.783   0.359 -0.4068  1.0357 -0.5263
  494TMC3    C7 7351   2.903   3.958   0.220 -0.0618  0.1520  0.3178
  494TMC3    C8 7352   2.936   3.604   0.508 -0.5747 -0.4021  0.2259
  494TMC3    O1 7353   2.954   3.874   0.149  0.8260  0.5129  0.1366
  494TMC3    O2 7354   2.869   3.510   0.472  0.1888 -0.4666  0.3036
  495TMC3    C1 7355   1.413   0.796  14.441  0.0597 -0.0688 -0.5251
  495TMC3    C2 7356   1.403   0.919  14.380  0.4909  0.1600 -0.4528
  495TMC3    C3 7357   1.330   1.021  14.445  0.3427  0.3741  0.8078
  495TMC3    C4 7358   1.350   0.770  14.553  0.0414  0.1009 -0.6720
  495TMC3    C5 7359   1.283   0.863  14.621  0.5308 -0.5467  0.6047
  495TMC3    C6 7360   1.265   0.989  14.566  0.0747 -0.1868 -0.2419
  495TMC3     C 7361   1.466   0.685  14.362  1.1909 -1.0883  0.6195
  495TMC3     O 7362   1.415   0.581  14.382  0.1900 -0.8933 -0.2019
  495TMC3     H 7363   1.449   0.944  14.285  3.8866 -1.6438  0.7064
  495TMC3    H1 7364   1.349   0.671  14.597 -0.8075 -0.1362 -1.2312
  495TMC3    H2 7365   1.206   1.062  14.621 -0.2610  0.2687 -1.2036
  495TMC3    C7 7366   1.253   0.847  14.758 -0.0514 -0.0009  0.5994
  495TMC3    C8 7367   1.260   1.119  14.366  0.5638  0.3773  0.1497
  495TMC3    O1 7368   1.309   0.755  14.818 -0.0615  0.6492  0.0369
  495TMC3    O2 7369   1.167   1.178  14.412 -0.1325  0.4189  0.1993
  496MPD2     C 7370   3.762   0.568  15.703 -0.5666  0.3090  0.1298
  496MPD2    C1 7371   3.665   0.468  15.681 -0.1768 -0.1236 -0.7051
  496MPD2    C2 7372   3.537   0.474  15.749  0.3679  0.1968  0.9578
  496MPD2    C3 7373   3.513   0.582  15.832 -0.7021 -0.0187  0.0041
  496MPD2    C4 7374   3.615   0.675  15.859 -0.2757  0.3441  0.4029
  496MPD2    C5 7375   3.742   0.674  15.792 -0.1903 -0.1925  0.0005
  496MPD2     H 7376   3.465   0.394  15.735  1.2270 -0.2825 -0.7747
  496MPD2    H1 7377   3.594   0.756  15.927  2.0607  0.5141  0.9360
  496MPD2    H2 7378   3.855   0.564  15.647  0.9087 -1.1431  2.6953
  496MPD2    H3 7379   3.809   0.758  15.785  0.0008 -0.4974 -1.7252
  496MPD2     N 7380   3.385   0.596  15.895  0.1318 -0.5356  0.0941
  496MPD2    H5 7381   3.372   0.633  15.989  0.9034 -1.4292  0.5523
  496MPD2    N1 7382   3.692   0.385  15.572 -0.4063  0.4256 -0.2883
  496MPD2    H7 7383   3.783   0.405  15.531 -1.6001  3.3892 -1.5136
  497TMC3    C1 7384   3.157   0.563  15.914  0.5868 -0.2527  0.5903
  497TMC3    C2 7385   3.044   0.512  15.862  0.4421  0.2277 -0.3362
  497TMC3    C3 7386   2.931   0.495  15.947 -0.4416 -0.2267 -0.3067
  497TMC3    C4 7387   3.174   0.580  16.045  0.5566  0.1769 -0.1345
  497TMC3    C5 7388   3.063   0.567  16.129 -1.5382  0.7221 -0.0342
  497TMC3    C6 7389   2.945   0.514  16.083  0.0145  0.2255 -0.6282
  497TMC3     C 7390   3.275   0.561  15.828  0.3518  0.1928  0.1588
  497TMC3     O 7391   3.268   0.540  15.710 -0.1190  0.3486  0.2477
  497TMC3     H 7392   3.044   0.471  15.762  2.6252 -1.5575  0.3894
  497TMC3    H1 7393   3.259   0.632  16.089  0.7230  0.2280 -0.5133
  497TMC3    H2 7394   2.855   0.512  16.143  0.5100 -1.1166  0.0603
  497TMC3    C7 7395   3.071   0.603  16.266  0.3032 -0.7074  0.2348
  497TMC3    C8 7396   2.800   0.479  15.887 -0.2290 -0.2638  0.5300
  497TMC3    O1 7397   2.987   0.559  16.338 -0.3580  0.1623 -0.6349
  497TMC3    O2 7398   2.704   0.484  15.962 -0.3407 -1.1127 -0.3587
  498MPD2     C 7399   3.309   1.764   9.107  0.2198  0.3432  0.7451
  498MPD2    C1 7400   3.398   1.688   9.175 -0.6358 -0.3198 -0.1817
  498MPD2    C2 7401   3.357   1.614   9.285  0.0048  0.3272 -0.2560
  498MPD2    C3 7402   3.224   1.620   9.324  0.4786  0.7294  0.8643
  498MPD2    C4 7403   3.138   1.700   9.256 -0.0405 -0.2814 -0.4381
  498MPD2    C5 7404   3.180   1.772   9.152  0.6618 -0.2281 -0.0780
  498MPD2     H 7405   3.427   1.546   9.332 -0.6191 -0.8195 -0.9942
  498MPD2    H1 7406   3.032   1.713   9.276  0.1580 -0.7364  0.9521
  498MPD2    H2 7407   3.340   1.821   9.020 -1.1193  1.3850  0.9477
  498MPD2    H3 7408   3.112   1.843   9.107 -1.8046 -2.4330  0.1824
  498MPD2     N 7409   3.186   1.547   9.443 -0.0115  0.2905 -0.1602
  498MPD2    H5 7410   3.252   1.480   9.481  0.2990 -0.3073 -1.7465
  498MPD2    N1 7411   3.539   1.681   9.131  0.0809 -0.1950  0.6694
  498MPD2    H7 7412   3.597   1.626   9.193 -2.4652  0.1533  3.3832
  499TMC3    C1 7413   3.717   1.705   8.979  0.5336  0.0840 -0.0993
  499TMC3    C2 7414   3.744   1.572   8.978 -0.9368  0.3325  0.0070
  499TMC3    C3 7415   3.876   1.530   8.981 -0.1907 -0.6845 -0.1512
  499TMC3    C4 7416   3.819   1.804   8.966 -0.1197  0.1309  0.4244
  499TMC3    C5 7417   3.947   1.754   8.960  0.1582  0.5044 -0.1862
  499TMC3    C6 7418   3.979   1.622   8.972  0.3731  0.4102  0.2063
  499TMC3     C 7419   3.593   1.749   9.023  0.1495  0.1174  0.2341
  499TMC3     O 7420   3.541   1.821   8.940  0.6107 -0.1021 -0.5554
  499TMC3     H 7421   3.664   1.500   8.989  0.1425 -1.0671 -1.3887
  499TMC3    H1 7422   3.793   1.909   8.959 -0.0821  0.1907  1.1425
  499TMC3    H2 7423   4.076   1.585   8.941  0.0090 -0.6558  0.3509
  499TMC3    C7 7424   4.061   1.842   8.951  0.2337 -0.5542 -0.0998
  499TMC3    C8 7425   3.902   1.389   8.971  0.1712 -0.7823 -0.5765
  499TMC3    O1 7426   4.062   1.942   8.875 -0.0603 -0.5896  0.4980
  499TMC3    O2 7427   3.806   1.327   8.929  0.2026 -0.0018 -0.8650
  500MPD2     C 7428   1.297   2.466   9.635  0.0702 -0.4514  0.4310
  500MPD2    C1 7429   1.224   2.541   9.718 -0.5023 -0.6141  0.6988
  500MPD2    C2 7430   1.100   2.578   9.681  0.1740 -0.1078  0.5580
  500MPD2    C3 7431   1.044   2.553   9.552 -0.4744 -0.4413 -0.1801
  500MPD2    C4 7432   1.130   2.488   9.463  1.0575 -0.0831 -0.0893
  500MPD2    C5 7433   1.249   2.440   9.505 -0.5361  0.1268 -0.9043
  500MPD2     H 7434   1.049   2.646   9.748 -0.7628 -0.3127  0.0709
  500MPD2    H1 7435   1.096   2.456   9.365  0.5319  0.1498  0.0165
  500MPD2    H2 7436   1.387   2.423   9.675  0.3131  0.3838  0.7837
  500MPD2    H3 7437   1.306   2.374   9.442 -1.7773 -1.1348 -0.7031
  500MPD2     N 7438   0.912   2.583   9.514 -0.4826  1.1248 -0.3752
  500MPD2    H5 7439   0.880   2.566   9.419  1.6927 -0.4984 -0.8181
  500MPD2    N1 7440   1.272   2.585   9.844  0.2613  0.6802 -0.2453
  500MPD2    H7 7441   1.209   2.651   9.889  1.5200  1.2255  0.7158
  501TMC3    C1 7442   1.431   2.652  10.003 -0.2219 -0.2457 -0.2238
  501TMC3    C2 7443   1.402   2.782   9.979 -0.3553  0.8138  0.2778
  501TMC3    C3 7444   1.451   2.880  10.067  0.0273  0.1749 -0.1753
  501TMC3    C4 7445   1.517   2.610  10.101 -0.0122  0.5692  0.2608
  501TMC3    C5 7446   1.574   2.714  10.180 -0.8908  0.3160 -0.5519
  501TMC3    C6 7447   1.544   2.843  10.157  0.7665 -0.7911  0.4023
  501TMC3     C 7448   1.393   2.554   9.904 -0.0297  0.2571  0.6132
  501TMC3     O 7449   1.461   2.455   9.892 -0.0855  0.0955  0.2593
  501TMC3     H 7450   1.323   2.807   9.909  0.3459  1.9107 -0.1062
  501TMC3    H1 7451   1.556   2.508  10.098  1.2075  1.0110  1.0245
  501TMC3    H2 7452   1.596   2.925  10.205 -0.3619 -0.2082  0.6320
  501TMC3    C7 7453   1.683   2.668  10.265  0.5524  0.0280  0.6557
  501TMC3    C8 7454   1.387   3.010  10.085 -0.6530 -0.7674 -0.1436
  501TMC3    O1 7455   1.744   2.568  10.227  0.0331  0.6839  0.0212
  501TMC3    O2 7456   1.422   3.076  10.180  0.0253 -0.8049  0.5171
  502TMC3    C1 7457   0.911   1.634  15.150 -0.2850 -1.2415 -0.0724
  502TMC3    C2 7458   0.877   1.767  15.119 -0.1577  0.9103 -0.1530
  502TMC3    C3 7459   0.747   1.788  15.086 -1.0094 -1.0906 -0.3524
  502TMC3    C4 7460   0.814   1.541  15.152  0.4783  0.0949 -0.3464
  502TMC3    C5 7461   0.680   1.567  15.139  0.1283 -0.5689 -0.2479
  502TMC3    C6 7462   0.644   1.692  15.102 -0.3651 -0.1833  1.0547
  502TMC3     C 7463   0.995   1.624  15.270  0.0848 -0.1573 -0.6292
  502TMC3     O 7464   1.116   1.635  15.261 -0.3377 -0.6133  0.0524
  502TMC3     H 7465   0.951   1.846  15.131  1.9829 -1.2994  1.2979
  502TMC3    H1 7466   0.851   1.446  15.188  1.4734  0.3359 -0.7486
  502TMC3    H2 7467   0.539   1.713  15.082 -0.7018 -2.0871  0.8256
  502TMC3    C7 7468   0.600   1.494  15.236  0.6178 -0.0530  0.0458
  502TMC3    C8 7469   0.697   1.921  15.102  0.2497  0.7199 -0.1018
  502TMC3    O1 7470   0.657   1.403  15.295  0.2259 -0.4953 -0.0939
  502TMC3    O2 7471   0.775   2.007  15.070  0.5630 -0.4932 -0.4143
  503MPD2     C 7472   2.856   2.536  17.191  0.2950 -0.1017  0.8047
  503MPD2    C1 7473   2.932   2.584  17.300 -0.0675  0.4800 -0.2861
  503MPD2    C2 7474   3.008   2.496  17.371  0.1293 -0.3433 -0.0958
  503MPD2    C3 7475   3.012   2.363  17.342  0.3812 -0.1431 -0.1395
  503MPD2    C4 7476   2.935   2.313  17.236 -0.2643 -0.4108 -0.2545
  503MPD2    C5 7477   2.875   2.409  17.160 -0.3806  0.3572  0.6855
  503MPD2     H 7478   3.082   2.533  17.441 -0.4370 -0.4780  0.5703
  503MPD2    H1 7479   2.940   2.214  17.192  1.2398  1.3978 -4.1425
  503MPD2    H2 7480   2.782   2.591  17.134 -0.5033  0.3492  2.2812
  503MPD2    H3 7481   2.823   2.380  17.069  1.0270 -2.3428  0.7528
  503MPD2     N 7482   3.105   2.286  17.414  0.7101 -0.0305 -0.1820
  503MPD2    H5 7483   3.149   2.320  17.498  1.2370  0.7333 -0.7650
  503MPD2    N1 7484   2.929   2.722  17.344 -0.2519  0.2021  0.5904
  503MPD2    H7 7485   2.992   2.748  17.420  0.7728  1.3805 -0.6611
  504TMC3    C1 7486   3.250   2.096  17.436  0.4335  0.1990 -0.4231
  504TMC3    C2 7487   3.248   2.099  17.572  0.0365 -0.2980 -0.2177
  504TMC3    C3 7488   3.355   2.055  17.645 -0.1424 -0.3671  0.3573
  504TMC3    C4 7489   3.354   2.032  17.368 -0.0249  0.7688 -0.3513
  504TMC3    C5 7490   3.457   1.972  17.447 -0.5854  0.2756  0.2148
  504TMC3    C6 7491   3.465   1.997  17.584 -0.4302  0.1803 -0.2722
  504TMC3     C 7492   3.151   2.163  17.364 -0.1564 -0.4007  0.5006
  504TMC3     O 7493   3.135   2.111  17.253 -0.3681 -0.1475 -0.0484
  504TMC3     H 7494   3.162   2.139  17.626 -1.0395 -0.9020 -1.4942
  504TMC3    H1 7495   3.364   2.051  17.261  2.7378  0.5036 -0.1336
  504TMC3    H2 7496   3.550   1.969  17.644  0.0833  0.5931 -0.8016
  504TMC3    C7 7497   3.572   1.935  17.370 -0.7345 -0.3438 -0.2608
  504TMC3    C8 7498   3.364   2.102   0.112  0.7701  0.0352 -0.2608
  504TMC3    O1 7499   3.596   2.004  17.272 -0.4954  0.1289  0.4121
  504TMC3    O2 7500   3.342   2.221   0.125  0.4204 -0.7005  0.0680
  505MPD2     C 7501   2.848   0.733  10.355 -0.3961  0.2274  1.1202
  505MPD2    C1 7502   2.849   0.612  10.286 -0.3783 -0.2600  0.2467
  505MPD2    C2 7503   2.974   0.563  10.239  0.2285  0.1363  0.2366
  505MPD2    C3 7504   3.095   0.635  10.250  0.0729 -0.5642  0.0288
  505MPD2    C4 7505   3.093   0.750  10.332 -0.6786 -0.1341 -0.3459
  505MPD2    C5 7506   2.968   0.795  10.380  0.3665  0.0524 -0.1620
  505MPD2     H 7507   2.978   0.467  10.190 -0.9076  0.7029 -0.9664
  505MPD2    H1 7508   3.175   0.817  10.356  0.6075 -1.9608  0.3847
  505MPD2    H2 7509   2.764   0.784  10.399 -1.2784  0.2326 -0.5575
  505MPD2    H3 7510   2.963   0.890  10.432  1.4910  1.3092 -2.3495
  505MPD2     N 7511   3.217   0.594  10.193 -1.2862 -0.6100  0.0247
  505MPD2    H5 7512   3.295   0.654  10.219  0.9015 -2.1634 -2.9528
  505MPD2    N1 7513   2.724   0.564  10.246 -0.5813 -0.1019 -0.9207
  505MPD2    H7 7514   2.647   0.615  10.289  0.2618 -0.9565  1.5703
  506TMC3    C1 7515   2.565   0.458  10.097 -0.2522  0.2183  0.4505
  506TMC3    C2 7516   2.495   0.575  10.067 -0.3034 -0.0118 -0.0039
  506TMC3    C3 7517   2.410   0.577   9.964 -0.9134 -0.7724  0.3146
  506TMC3    C4 7518   2.549   0.350  10.006  0.0719  0.7519 -0.7653
  506TMC3    C5 7519   2.475   0.365   9.893 -0.4444 -0.0252  0.2384
  506TMC3    C6 7520   2.387   0.474   9.873 -0.1080 -0.2788 -0.4382
  506TMC3     C 7521   2.709   0.476  10.143 -0.9443  0.4669  0.4036
  506TMC3     O 7522   2.794   0.408  10.082  0.6630 -0.2876  0.3687
  506TMC3     H 7523   2.518   0.667  10.118 -2.5852  0.7837 -0.4506
  506TMC3    H1 7524   2.611   0.265  10.030 -0.8652 -0.3426 -2.2429
  506TMC3    H2 7525   2.351   0.501   9.774  1.8271  1.0883 -0.7783
  506TMC3    C7 7526   2.558   0.338   9.776  0.1659  0.1364  0.0281
  506TMC3    C8 7527   2.361   0.706   9.906  0.5023  0.1121  0.3337
  506TMC3    O1 7528   2.503   0.316   9.666 -0.1038  0.2132  0.6202
  506TMC3    O2 7529   2.242   0.714   9.877 -0.2319 -0.3559  0.6501
  507TMC3    C1 7530   4.023   1.727  14.922 -0.0334  0.8140 -0.3407
  507TMC3    C2 7531   3.918   1.636  14.910 -1.2072 -0.4532 -0.2303
  507TMC3    C3 7532   3.890   1.590  14.789  1.0173 -0.2629 -0.2702
  507TMC3    C4 7533   4.097   1.773  14.817  0.3119 -0.6836 -0.5223
  507TMC3    C5 7534   4.062   1.732  14.693 -0.3723  0.0255  0.1327
  507TMC3    C6 7535   3.967   1.628  14.676  0.1768 -0.8417 -0.0977
  507TMC3     C 7536   4.076   1.757  15.054  0.1391  0.3583 -0.1415
  507TMC3     O 7537   4.162   1.846  15.060 -0.2330 -0.2591 -0.2303
  507TMC3     H 7538   3.860   1.610  14.997 -1.0303 -2.0512 -0.5912
  507TMC3    H1 7539   4.188   1.831  14.829 -1.2228  1.7376 -0.8074
  507TMC3    H2 7540   3.933   1.603  14.575  1.8088 -0.1210 -0.8207
  507TMC3    C7 7541   4.001   1.838  14.613 -0.3389 -0.4498 -0.0372
  507TMC3    C8 7542   3.751   1.599  14.752  0.8886 -0.2273 -0.3543
  507TMC3    O1 7543   3.944   1.822  14.506  0.1299  0.8906  0.5469
  507TMC3    O2 7544   3.685   1.676  14.820 -0.5335 -0.4243  0.7522
  508MPD2     C 7545   0.425   4.099  15.834 -0.8445 -0.2743 -0.6032
  508MPD2    C1 7546   0.378   4.217  15.887  0.0203  0.8323  0.2450
  508MPD2    C2 7547   0.314   4.310  15.798 -0.0421  0.9547  0.1536
  508MPD2    C3 7548   0.296   4.275  15.665 -0.1997 -0.1951 -0.0940
  508MPD2    C4 7549   0.351   4.152  15.620  0.1996 -0.4052  0.5021
  508MPD2    C5 7550   0.411   4.070  15.703 -0.7274 -0.6840 -0.3125
  508MPD2     H 7551   0.281   4.409  15.829 -2.5089  0.4060 -0.7187
  508MPD2    H1 7552   0.341   4.120  15.517  0.0766  2.4798 -0.3875
  508MPD2    H2 7553   0.487   4.035  15.895 -1.9036 -0.1033  0.6413
  508MPD2    H3 7554   0.450   3.978  15.659  0.1268 -0.8823  0.8568
  508MPD2     N 7555   0.230   4.371  15.584 -0.7200 -0.8464  0.0926
  508MPD2    H5 7556   0.195   4.456  15.628  2.5898  0.6746 -0.2570
  508MPD2    N1 7557   0.399   4.240  16.031 -0.0415 -0.0473 -0.3632
  508MPD2    H7 7558   0.452   4.172  16.084  0.2195  0.4353 -0.0037
  509TMC3    C1 7559   0.022   4.669  15.406  0.4041 -0.5926  0.2646
  509TMC3    C2 7560   0.051   4.697  15.272  0.7432  0.2989  0.4672
  509TMC3    C3 7561   0.129   4.614  15.209  0.7447 -0.1659 -0.1559
  509TMC3    C4 7562   0.067   4.558  15.472  0.0401 -0.3038  0.2270
  509TMC3    C5 7563   0.142   4.472  15.397 -0.3241  0.3802  0.3092
  509TMC3    C6 7564   0.180   4.496  15.268 -0.1340  0.3609 -0.4273
  509TMC3     C 7565   0.022   0.069  15.499  0.1743  0.4390  0.0576
  509TMC3     O 7566   0.066   0.048  15.611 -0.1878 -0.4234  0.2296
  509TMC3     H 7567   0.016   0.068  15.221  1.1181 -0.9824 -1.9836
  509TMC3    H1 7568   0.045   4.536  15.575  0.7853 -0.4225  0.3652
  509TMC3    H2 7569   0.250   4.435  15.213  1.0812 -0.4529  2.0196
  509TMC3    C7 7570   0.206   4.353  15.452  0.0584  0.4702 -0.0101
  509TMC3    C8 7571   0.223   4.691  15.130  0.1988 -0.1346  0.2887
  509TMC3    O1 7572   0.229   4.256  15.379 -0.8282 -0.5245  0.4861
  509TMC3    O2 7573   0.191   4.701  15.013  0.3903 -0.4515 -0.5548
  510MPD2     C 7574   2.759   1.137  14.611 -0.3097 -0.2913 -0.1688
  510MPD2    C1 7575   2.855   1.160  14.706 -1.1727 -0.5781 -0.6222
  510MPD2    C2 7576   2.990   1.158  14.680  0.5229  0.3148 -0.6529
  510MPD2    C3 7577   3.025   1.120  14.556  0.5278 -0.5077 -0.2535
  510MPD2    C4 7578   2.931   1.092  14.463  0.0719 -0.1307  0.0633
  510MPD2    C5 7579   2.801   1.093  14.489 -0.2245 -0.7234 -0.5920
  510MPD2     H 7580   3.065   1.187  14.752  0.6270 -0.5467 -0.4131
  510MPD2    H1 7581   2.956   1.066  14.361  2.1937 -0.9834  0.7990
  510MPD2    H2 7582   2.652   1.133  14.625 -0.9009  1.6024 -3.9845
  510MPD2    H3 7583   2.741   1.056  14.406  1.1143 -0.6985 -1.5630
  510MPD2     N 7584   3.166   1.111  14.538  0.5631  0.1196 -0.0824
  510MPD2    H5 7585   3.209   1.135  14.627  1.0389 -0.7107 -0.0861
  510MPD2    N1 7586   2.796   1.170  14.837 -0.2190  0.4667  0.0652
  510MPD2    H7 7587   2.696   1.165  14.822 -0.4409  2.0912  0.9372
  511TMC3    C1 7588   2.755   1.141  15.052 -0.1257 -0.3753  0.6675
  511TMC3    C2 7589   2.658   1.223  15.100  0.7256  0.3484 -0.1550
  511TMC3    C3 7590   2.534   1.170  15.136 -0.1256  0.2896  1.1265
  511TMC3    C4 7591   2.733   1.005  15.050  0.4347 -0.1908 -0.5820
  511TMC3    C5 7592   2.611   0.953  15.085 -0.3288  0.5560  0.0104
  511TMC3    C6 7593   2.512   1.037  15.131  0.9790 -0.0501 -0.1261
  511TMC3     C 7594   2.858   1.185  14.959 -0.0763 -0.3550  0.0791
  511TMC3     O 7595   2.973   1.166  14.986 -0.3248  0.0119 -0.2317
  511TMC3     H 7596   2.661   1.331  15.105  1.4795  0.3005  0.3970
  511TMC3    H1 7597   2.804   0.944  14.994 -0.7273 -2.4490  0.4174
  511TMC3    H2 7598   2.408   1.008  15.135  1.1784 -0.7413  0.1360
  511TMC3    C7 7599   2.593   0.807  15.061 -0.1078  0.0408 -0.9910
  511TMC3    C8 7600   2.454   1.256  15.226  1.7156  0.0836  0.5608
  511TMC3    O1 7601   2.691   0.745  15.028 -0.0848  0.1660 -0.0852
  511TMC3    O2 7602   2.475   1.377  15.222 -0.4120  0.0383  0.1301
  512TMC3    C1 7603   1.882   0.187  12.950 -0.5191 -0.3525 -0.2963
  512TMC3    C2 7604   1.896   0.199  13.083 -0.4522 -0.4070  0.1871
  512TMC3    C3 7605   1.852   0.103  13.167 -0.1757 -0.8334 -0.1240
  512TMC3    C4 7606   1.855   0.066  12.894  0.1442  0.6696 -0.0429
  512TMC3    C5 7607   1.829   4.685  12.980  0.3593  0.1972  0.1987
  512TMC3    C6 7608   1.814   4.705  13.115  0.3172  0.4141 -0.8561
  512TMC3     C 7609   1.931   0.298  12.861 -0.1776  0.0444 -0.2221
  512TMC3     O 7610   1.981   0.399  12.915 -0.0088  0.4111 -0.6397
  512TMC3     H 7611   1.925   0.300  13.110  0.1553  0.0808 -2.2531
  512TMC3    H1 7612   1.837   0.051  12.789 -2.6968 -0.0679  0.5681
  512TMC3    H2 7613   1.782   4.625  13.181  1.0697  0.0431 -0.9373
  512TMC3    C7 7614   1.815   4.553  12.923  0.4418  0.3146 -0.1029
  512TMC3    C8 7615   1.877   0.123  13.306  0.5721  0.3839  0.1764
  512TMC3    O1 7616   1.789   4.555  12.804 -0.4534 -0.2035 -0.1061
  512TMC3    O2 7617   1.902   0.025  13.375  0.1995  0.6678  0.2872
  513MPD2     C 7618   3.312   0.298  13.548  0.0446  0.3038 -0.5686
  513MPD2    C1 7619   3.382   0.378  13.455  0.1056 -0.6762 -0.1720
  513MPD2    C2 7620   3.473   0.468  13.496  0.5244 -0.1640  0.3780
  513MPD2    C3 7621   3.504   0.485  13.630  0.5898 -0.2640  0.2332
  513MPD2    C4 7622   3.434   0.416  13.725  0.0729  0.2864  0.4167
  513MPD2    C5 7623   3.342   0.326  13.676  0.3190 -0.0258 -0.3534
  513MPD2     H 7624   3.524   0.535  13.427 -0.0233  0.4278  0.5414
  513MPD2    H1 7625   3.454   0.422  13.832 -0.1150 -0.9884  0.5208
  513MPD2    H2 7626   3.250   0.214  13.521  1.7033 -1.0337 -0.2056
  513MPD2    H3 7627   3.288   0.265  13.747  0.9201  2.4523  2.2446
  513MPD2     N 7628   3.611   0.577  13.658 -0.6626 -0.4209 -0.0636
  513MPD2    H5 7629   3.660   0.611  13.576 -1.2754 -1.9597 -1.0741
  513MPD2    N1 7630   3.350   0.355  13.316  0.2071  0.1939 -0.2907
  513MPD2    H7 7631   3.281   0.287  13.287 -1.8552  1.9743  0.3834
  514TMC3    C1 7632   3.350   0.406  13.087 -0.0210  0.7786  0.2574
  514TMC3    C2 7633   3.251   0.480  13.027  0.5862  0.0777  0.4221
  514TMC3    C3 7634   3.271   0.504  12.894  0.2845 -0.3533  0.6640
  514TMC3    C4 7635   3.455   0.361  13.016  0.2873 -0.7517 -0.7872
  514TMC3    C5 7636   3.480   0.397  12.890  0.0425 -0.7183  0.4197
  514TMC3    C6 7637   3.379   0.465  12.825 -0.6006  0.0517  0.2659
  514TMC3     C 7638   3.396   0.437  13.219  0.2525  0.1290  0.4507
  514TMC3     O 7639   3.488   0.513  13.216 -0.4474  0.0726 -0.0387
  514TMC3     H 7640   3.161   0.512  13.077  0.3542 -1.2667  0.8486
  514TMC3    H1 7641   3.536   0.322  13.077  0.9674 -0.2323 -1.3611
  514TMC3    H2 7642   3.399   0.490  12.721 -0.8029  0.4523  0.3234
  514TMC3    C7 7643   3.612   0.449  12.865 -0.0951  0.8446  0.2189
  514TMC3    C8 7644   3.158   0.557  12.824 -0.2288 -0.5771  0.0012
  514TMC3    O1 7645   3.666   0.431  12.756  0.3259  0.2080 -0.4377
  514TMC3    O2 7646   3.052   0.568  12.884  0.2699 -0.1354 -0.2671
  515MPD2     C 7647   1.417   2.517  15.256  0.3963  0.1222 -0.7914
  515MPD2    C1 7648   1.453   2.515  15.123 -0.4429  0.9075 -0.0974
  515MPD2    C2 7649   1.575   2.568  15.087  0.0643 -0.9554  0.7030
  515MPD2    C3 7650   1.653   2.640  15.176  0.0446 -0.0450 -0.1816
  515MPD2    C4 7651   1.609   2.647  15.307  0.2318  0.5870 -0.1607
  515MPD2    C5 7652   1.493   2.588  15.348 -0.4999 -0.5307  0.1643
  515MPD2     H 7653   1.600   2.573  14.982  3.3979  2.1365  1.6262
  515MPD2    H1 7654   1.669   2.689  15.386  0.4958 -0.7871  0.3649
  515MPD2    H2 7655   1.323   2.473  15.286  0.1024  0.2123 -1.6058
  515MPD2    H3 7656   1.463   2.592  15.452  1.9439  0.7644  0.8257
  515MPD2     N 7657   1.773   2.700  15.137 -0.3055 -0.1803 -0.3792
  515MPD2    H5 7658   1.828   2.738  15.213 -1.3097  1.9776 -0.7354
  515MPD2    N1 7659   1.381   2.434  15.033 -0.2300  0.3710  0.2261
  515MPD2    H7 7660   1.398   2.450  14.934  0.9907 -0.9328  0.2126
  516TMC3    C1 7661   1.225   2.271  14.947 -0.1116 -0.0162  0.1975
  516TMC3    C2 7662   1.208   2.344  14.832  0.4181 -0.1957 -0.3465
  516TMC3    C3 7663   1.124   2.295  14.740  0.4395 -0.3219  0.2133
  516TMC3    C4 7664   1.176   2.145  14.963 -0.2965  0.2406 -0.2981
  516TMC3    C5 7665   1.095   2.100  14.863 -0.3157  0.5669 -0.5429
  516TMC3    C6 7666   1.064   2.176  14.753  0.6559  0.4027 -0.3138
  516TMC3     C 7667   1.291   2.331  15.060  0.0278  0.9388 -0.8365
  516TMC3     O 7668   1.287   2.272  15.165 -0.4025 -0.9451 -0.1084
  516TMC3     H 7669   1.226   2.451  14.831 -0.7158 -0.0002  0.2766
  516TMC3    H1 7670   1.201   2.090  15.053 -0.4209  0.3203 -0.2141
  516TMC3    H2 7671   1.015   2.137  14.664 -2.0819 -1.3225  1.9387
  516TMC3    C7 7672   1.067   1.956  14.862  0.4519 -0.4763  0.0708
  516TMC3    C8 7673   1.083   2.365  14.619  0.4505  0.2363  0.0593
  516TMC3    O1 7674   1.145   1.884  14.924 -0.1085  0.2173  0.4279
  516TMC3    O2 7675   0.985   2.323  14.562 -0.3064  0.2358  0.2541
  517MPD2     C 7676   1.634   4.099   0.749  0.5703 -0.2897 -0.7065
  517MPD2    C1 7677   1.719   4.147   0.647  0.5760 -0.7115  0.4259
  517MPD2    C2 7678   1.772   4.274   0.662  1.0131 -0.4889  0.3633
  517MPD2    C3 7679   1.754   4.341   0.785 -0.2557  0.9459  0.0405
  517MPD2    C4 7680   1.672   4.290   0.883  0.7816  0.6129  0.0975
  517MPD2    C5 7681   1.612   4.170   0.863  0.0244  0.5521 -0.0951
  517MPD2     H 7682   1.845   4.308   0.588 -2.3945 -1.8505 -3.5919
  517MPD2    H1 7683   1.648   4.337   0.978 -1.3639  2.0390 -1.1265
  517MPD2    H2 7684   1.586   4.001   0.747  0.7105 -0.4312  2.9943
  517MPD2    H3 7685   1.543   4.129   0.935  0.2066  0.5038  0.0529
  517MPD2     N 7686   1.817   4.458   0.824 -0.0535  0.6767  0.5126
  517MPD2    H5 7687   1.791   4.502   0.911 -2.2208 -2.2070  1.3217
  517MPD2    N1 7688   1.753   4.071   0.531 -0.4687 -0.3896 -0.4143
  517MPD2    H7 7689   1.795   4.118   0.452 -2.0120 -0.3257 -1.1774
  518TMC3    C1 7690   1.818   3.880   0.418  0.3123 -0.1142  0.2337
  518TMC3    C2 7691   1.753   3.773   0.352 -0.3845  0.1383  0.6421
  518TMC3    C3 7692   1.811   3.724   0.240 -0.4036 -0.8236 -0.6722
  518TMC3    C4 7693   1.921   3.947   0.361 -0.3237 -0.1238 -0.4271
  518TMC3    C5 7694   1.974   3.889   0.248  0.4797 -0.0185 -0.2125
  518TMC3    C6 7695   1.920   3.781   0.180 -0.7670  0.2041 -0.1804
  518TMC3     C 7696   1.763   3.931   0.536  1.1850 -0.2054  0.7273
  518TMC3     O 7697   1.717   3.846   0.616 -0.5178  0.2724  0.0627
  518TMC3     H 7698   1.665   3.730   0.401 -1.0890  0.8546  0.0015
  518TMC3    H1 7699   1.975   4.024   0.415 -2.4407 -0.4137  2.0970
  518TMC3    H2 7700   1.952   3.735   0.087 -0.8678  1.4214 -0.8321
  518TMC3    C7 7701   2.104   3.936   0.209  0.1941  0.0724 -0.0989
  518TMC3    C8 7702   1.749   3.607   0.177  0.4477  0.4024 -0.0063
  518TMC3    O1 7703   2.145   4.041   0.251  0.2151 -0.2090  0.9911
  518TMC3    O2 7704   1.816   3.547   0.093 -0.1102 -0.1824 -0.9431
  519MPD2     C 7705   2.902   2.182  14.389  0.2390 -0.0675  0.2017
  519MPD2    C1 7706   2.834   2.134  14.278  0.0630 -0.2742 -0.7152
  519MPD2    C2 7707   2.872   2.014  14.220  0.0988 -0.7052 -0.7275
  519MPD2    C3 7708   2.966   1.935  14.281  0.1710 -0.3241  0.0407
  519MPD2    C4 7709   3.042   1.991  14.386  0.7503  0.2138 -0.3785
  519MPD2    C5 7710   3.007   2.109  14.439 -0.7167 -0.1558 -0.6385
  519MPD2     H 7711   2.816   1.974  14.136 -1.0259 -1.1084  0.2087
  519MPD2    H1 7712   3.116   1.928  14.434  1.3344 -0.6167 -2.3836
  519MPD2    H2 7713   2.874   2.278  14.431 -0.2312 -0.0366 -0.1804
  519MPD2    H3 7714   3.053   2.150  14.528 -0.5059  0.3011 -0.9521
  519MPD2     N 7715   3.003   1.809  14.240 -0.5521  0.0443  0.5286
  519MPD2    H5 7716   3.090   1.780  14.285 -1.5127  0.0198  2.3923
  519MPD2    N1 7717   2.723   2.218  14.229  0.3069 -0.2353  0.7234
  519MPD2    H7 7718   2.696   2.289  14.296  1.3977 -1.3293  2.3307
  520TMC3    C1 7719   2.981   1.588  14.158 -0.4372 -0.0651  0.3479
  520TMC3    C2 7720   2.876   1.498  14.163  0.3668  0.3029  0.2388
  520TMC3    C3 7721   2.903   1.362  14.167  1.0184 -0.5351  0.6183
  520TMC3    C4 7722   3.113   1.561  14.148  0.0960  0.6297  0.2781
  520TMC3    C5 7723   3.134   1.428  14.141  0.1980  0.5444 -0.0729
  520TMC3    C6 7724   3.036   1.327  14.154 -0.2537 -0.2698 -0.2420
  520TMC3     C 7725   2.941   1.730  14.152  0.2230  0.7445  0.8828
  520TMC3     O 7726   2.827   1.755  14.108  0.4091 -0.0539  0.7663
  520TMC3     H 7727   2.776   1.540  14.169 -0.4257 -1.4383 -0.7884
  520TMC3    H1 7728   3.178   1.645  14.125  0.7684  0.3304  1.1298
  520TMC3    H2 7729   3.070   1.224  14.151 -0.7479 -0.4575  0.5955
  520TMC3    C7 7730   3.263   1.385  14.119 -0.0510 -0.1872 -0.5474
  520TMC3    C8 7731   2.811   1.259  14.158  0.0946  0.5101 -0.3486
  520TMC3    O1 7732   3.297   1.268  14.144  0.3563  0.5866 -0.5360
  520TMC3    O2 7733   2.850   1.143  14.130 -0.0984  0.7753  0.6164
  521MPD2     C 7734   3.840   0.429  17.441  0.2523 -0.1925  0.0695
  521MPD2    C1 7735   3.803   0.375  17.320 -0.0758  0.9453  0.1726
  521MPD2    C2 7736   3.896   0.308  17.247 -0.5960  0.0286  0.3322
  521MPD2    C3 7737   4.027   0.297  17.291 -0.2491 -0.0710 -0.1687
  521MPD2    C4 7738   4.053   0.360  17.411 -0.1575  0.2776 -0.6548
  521MPD2    C5 7739   3.965   0.424  17.485 -0.5157  0.0660 -0.4546
  521MPD2     H 7740   3.876   0.268  17.148  0.6414 -0.5453  0.3038
  521MPD2    H1 7741   4.158   0.368  17.437 -0.7177  2.3419  0.9870
  521MPD2    H2 7742   3.761   0.485  17.490  3.6532  3.4055  1.4265
  521MPD2    H3 7743   3.997   0.477  17.574 -2.3056  1.1310 -0.4600
  521MPD2     N 7744   4.115   0.235  17.198 -0.1188 -0.1428 -0.0407
  521MPD2    H5 7745   4.080   0.213  17.105  2.9059 -1.3175 -0.8951
  521MPD2    N1 7746   3.669   0.373  17.275  0.0523 -0.2379  0.0105
  521MPD2    H7 7747   3.595   0.401  17.340 -0.1844 -1.7058  0.3819
  522TMC3    C1 7748   4.308   0.132  17.119 -0.1489 -0.1738  0.4118
  522TMC3    C2 7749   4.400   0.036  17.154  0.2515  0.0767  0.5358
  522TMC3    C3 7750   4.463   4.684  17.050  0.3154 -0.2522  0.0053
  522TMC3    C4 7751   4.254   0.140  16.995 -0.5737  0.1093  0.0508
  522TMC3    C5 7752   4.322   0.068  16.901  0.1906  0.3031 -0.1250
  522TMC3    C6 7753   4.436   4.706  16.923 -0.0201  1.0883  0.4996
  522TMC3     C 7754   4.249   0.205  17.231 -0.7471 -0.5039  0.2565
  522TMC3     O 7755   4.312   0.210  17.338 -0.0347  0.0680 -0.3437
  522TMC3     H 7756   4.418   0.030  17.261 -1.5835 -1.1597  0.7783
  522TMC3    H1 7757   4.186   0.222  16.973  1.5200  1.8942  0.2462
  522TMC3    H2 7758   4.474   4.639  16.847  1.8551  1.4165  1.1392
  522TMC3    C7 7759   4.282   0.073  16.761  0.4290 -0.0077 -0.7764
  522TMC3    C8 7760   4.580   4.610  17.085  0.3276 -0.2217  0.2577
  522TMC3    O1 7761   4.356   0.014  16.683  0.4981 -0.3401 -0.0308
  522TMC3    O2 7762   4.592   4.570  17.200 -0.0670  0.1861  0.1975
  523MPD2     C 7763   0.682   3.610   9.624 -0.4016  0.6514  0.1270
  523MPD2    C1 7764   0.759   3.720   9.651  0.4908 -0.4874  0.0072
  523MPD2    C2 7765   0.713   3.846   9.630 -0.3540 -0.1095 -0.4082
  523MPD2    C3 7766   0.575   3.864   9.601 -0.2100  0.1186 -0.1138
  523MPD2    C4 7767   0.497   3.747   9.587  0.2847  0.4359  0.2685
  523MPD2    C5 7768   0.553   3.625   9.589 -0.2996 -0.1559 -0.1004
  523MPD2     H 7769   0.778   3.932   9.641  0.1578 -0.3244 -1.6781
  523MPD2    H1 7770   0.395   3.744   9.551 -0.1217 -0.7803  1.5518
  523MPD2    H2 7771   0.729   3.513   9.635  0.2657  0.6452 -2.8224
  523MPD2    H3 7772   0.497   3.537   9.558 -1.9052  0.0759  2.1275
  523MPD2     N 7773   0.506   3.986   9.578 -0.1273  0.3248  0.3965
  523MPD2    H5 7774   0.405   3.980   9.571 -0.1313  1.1975 -0.3015
  523MPD2    N1 7775   0.886   3.701   9.707 -0.6535 -0.2649 -0.1204
  523MPD2    H7 7776   0.921   3.605   9.703 -0.3199 -0.0723 -1.7274
  524TMC3    C1 7777   0.477   4.208   9.511 -0.1029 -0.2591 -0.1346
  524TMC3    C2 7778   0.522   4.287   9.410 -0.3477  0.3920 -0.3207
  524TMC3    C3 7779   0.441   4.395   9.384 -0.0173 -0.3912  0.0056
  524TMC3    C4 7780   0.373   4.245   9.602  0.9161  0.0134 -0.0433
  524TMC3    C5 7781   0.305   4.360   9.572 -0.0876  0.3368 -0.2171
  524TMC3    C6 7782   0.334   4.438   9.465  0.0270 -0.9544 -0.3907
  524TMC3     C 7783   0.569   4.107   9.551  0.7951  0.2380  0.2992
  524TMC3     O 7784   0.685   4.120   9.513 -0.1405 -0.0990 -0.7130
  524TMC3     H 7785   0.609   4.258   9.353 -0.2687 -1.7343  0.8867
  524TMC3    H1 7786   0.344   4.197   9.695  0.7812  1.3610  0.6043
  524TMC3    H2 7787   0.268   4.519   9.435  0.9934  0.1105  0.3798
  524TMC3    C7 7788   0.201   4.404   9.663  0.5322 -0.3671 -0.1889
  524TMC3    C8 7789   0.462   4.480   9.269 -0.4469  0.2206 -0.4215
  524TMC3    O1 7790   0.142   4.318   9.726  0.4732  0.6466 -0.4308
  524TMC3    O2 7791   0.389   4.576   9.243 -0.2719  0.0258 -0.1294
  525MPD2     C 7792   4.323   1.445  14.405  0.7535 -0.1752 -0.3609
  525MPD2    C1 7793   4.425   1.513  14.469  0.0092 -0.4874 -0.0322
  525MPD2    C2 7794   4.445   1.646  14.454  0.6710  0.1308  0.0840
  525MPD2    C3 7795   4.348   1.723  14.392  0.2098 -1.1255 -0.5422
  525MPD2    C4 7796   4.240   1.654  14.337 -0.4472  0.2766  0.1981
  525MPD2    C5 7797   4.232   1.521  14.335  0.4929  0.1278  0.1206
  525MPD2     H 7798   4.518   1.701  14.512 -0.7971  1.7860  0.3912
  525MPD2    H1 7799   4.157   1.715  14.302 -0.0686  0.6514 -0.0464
  525MPD2    H2 7800   4.298   1.340  14.412 -0.2157  0.2544  2.4352
  525MPD2    H3 7801   4.146   1.479  14.284 -0.8660  0.9955  1.6755
  525MPD2     N 7802   4.345   1.865  14.382 -0.1414 -0.2396 -0.2312
  525MPD2    H5 7803   4.265   1.910  14.338  0.9045  2.7262  0.9251
  525MPD2    N1 7804   4.490   1.441  14.575  0.1341  0.5736  0.3534
  525MPD2    H7 7805   4.554   1.491  14.635 -0.0353 -1.5086  2.2774
  526TMC3    C1 7806   4.547   1.273  14.719  0.2357  0.4956 -0.4978
  526TMC3    C2 7807   4.488   1.201  14.823 -0.1228  0.2413 -0.0131
  526TMC3    C3 7808   4.571   1.158  14.924 -0.6631  0.4563 -0.0080
  526TMC3    C4 7809   4.677   1.299  14.712  0.3623 -0.1215 -0.0063
  526TMC3    C5 7810   0.033   1.248  14.811  0.1367  0.0754 -0.5137
  526TMC3    C6 7811   4.701   1.183  14.916 -0.0823 -0.2972 -0.5953
  526TMC3     C 7812   4.453   1.311  14.615  0.0574  0.3302  0.0217
  526TMC3     O 7813   4.352   1.245  14.600  0.1242 -0.1011  0.2973
  526TMC3     H 7814   4.382   1.180  14.819 -0.2358  1.3084 -2.5574
  526TMC3    H1 7815   0.006   1.355  14.631  1.5250 -0.2285  0.5939
  526TMC3    H2 7816   0.050   1.143  14.992 -3.0002  1.4842  2.9448
  526TMC3    C7 7817   0.176   1.236  14.800 -0.3305 -0.1342  0.3904
  526TMC3    C8 7818   4.528   1.153  15.057 -0.4321 -0.2160  0.9298
  526TMC3    O1 7819   0.230   1.247  14.908  0.0619 -0.3754 -0.0476
  526TMC3    O2 7820   4.597   1.205  15.146  0.4170 -0.1138 -0.0407
  527MPD2     C 7821   2.190   3.991   1.193  0.4684 -0.0404 -0.1416
  527MPD2    C1 7822   2.268   3.975   1.305 -0.9182  0.4047 -0.3046
  527MPD2    C2 7823   2.406   3.973   1.290  0.9029 -0.1461 -0.2190
  527MPD2    C3 7824   2.468   3.994   1.169  0.0774  0.2842  0.6224
  527MPD2    C4 7825   2.388   3.983   1.059 -0.3527 -0.1858 -0.2815
  527MPD2    C5 7826   2.249   3.995   1.066 -0.0424  0.5539  0.2756
  527MPD2     H 7827   2.457   3.989   1.384 -2.4018 -2.1580  1.8560
  527MPD2    H1 7828   2.430   3.991   0.959  0.6615 -0.0066  0.1541
  527MPD2    H2 7829   2.081   3.992   1.189  0.3603 -0.9599  2.9242
  527MPD2    H3 7830   2.195   3.992   0.972  1.2880 -1.4959 -0.4242
  527MPD2     N 7831   2.610   4.003   1.167 -0.1892  0.5974 -0.0257
  527MPD2    H5 7832   2.653   3.994   1.259  2.8731  1.7050 -1.3355
  527MPD2    N1 7833   2.212   3.969   1.432  0.3806 -0.2182  0.0575
  527MPD2    H7 7834   2.262   3.973   1.520  0.8387 -0.2070 -0.2033
  528TMC3    C1 7835   2.034   3.966   1.588  0.1624  0.3839 -0.1701
  528TMC3    C2 7836   2.095   4.068   1.662  0.0562  0.5115 -0.1642
  528TMC3    C3 7837   2.079   4.072   1.798  0.0364 -0.0042  0.4676
  528TMC3    C4 7838   1.959   3.875   1.653  0.3225  0.4874 -0.0812
  528TMC3    C5 7839   1.955   3.881   1.791 -0.0755  0.0359  0.3901
  528TMC3    C6 7840   2.014   3.979   1.867  0.5067 -0.1160  0.8255
  528TMC3     C 7841   2.085   3.926   1.452 -0.3999 -0.5707  0.5644
  528TMC3     O 7842   2.015   3.846   1.389  0.2072 -0.1185 -0.1125
  528TMC3     H 7843   2.150   4.150   1.618 -0.8861 -0.3543 -2.9918
  528TMC3    H1 7844   1.922   3.793   1.593  0.9009  0.1234  0.0613
  528TMC3    H2 7845   2.006   3.985   1.975 -0.0458 -0.4100  0.8021
  528TMC3    C7 7846   1.907   3.768   1.872  0.2732 -0.4472  0.2844
  528TMC3    C8 7847   2.193   4.134   1.865  0.4211 -0.4761  0.2949
  528TMC3    O1 7848   1.920   3.785   1.989 -0.1091  0.4649 -0.2446
  528TMC3    O2 7849   2.302   4.157   1.807 -0.9688 -0.3644  0.0290
  529MPD2     C 7850   0.784   3.205   0.716  0.4963 -0.1819  0.5013
  529MPD2    C1 7851   0.673   3.127   0.702 -0.5823 -0.7370 -0.0485
  529MPD2    C2 7852   0.590   3.141   0.595 -1.1891 -0.4960 -0.8239
  529MPD2    C3 7853   0.604   3.244   0.504  0.8070 -0.8941  0.9406
  529MPD2    C4 7854   0.716   3.325   0.525  0.8734  0.3420  0.0214
  529MPD2    C5 7855   0.809   3.301   0.624 -0.2160 -0.3441  0.2282
  529MPD2     H 7856   0.503   3.075   0.590 -1.1856 -0.5214 -0.5663
  529MPD2    H1 7857   0.738   3.406   0.457  0.7549  0.6417  0.3360
  529MPD2    H2 7858   0.859   3.178   0.789  1.4616 -0.6108 -0.6631
  529MPD2    H3 7859   0.905   3.352   0.619  1.1661 -2.9713 -0.1811
  529MPD2     N 7860   0.515   3.271   0.398  0.4648 -0.4982  0.0208
  529MPD2    H5 7861   0.528   3.363   0.358 -1.0158  0.5808  1.9859
  529MPD2    N1 7862   0.638   3.030   0.795  1.0814 -0.1661 -0.5200
  529MPD2    H7 7863   0.556   2.979   0.765  1.6577 -2.0529  1.1296
  530TMC3    C1 7864   0.648   2.876   0.966 -0.6365 -0.5809 -0.5388
  530TMC3    C2 7865   0.642   2.866   1.098 -0.0707  0.0495 -0.3981
  530TMC3    C3 7866   0.599   2.751   1.157 -0.0831  0.0039  0.5094
  530TMC3    C4 7867   0.599   2.776   0.885  0.7109 -0.0688  0.6019
  530TMC3    C5 7868   0.549   2.662   0.944  0.7359 -0.6795  0.2402
  530TMC3    C6 7869   0.549   2.645   1.086  0.2571  0.5083  0.2022
  530TMC3     C 7870   0.694   3.000   0.912 -0.7990 -0.4962 -0.2284
  530TMC3     O 7871   0.771   3.068   0.976 -0.2429 -0.1663  0.4781
  530TMC3     H 7872   0.681   2.935   1.172 -1.0620  2.2727 -1.9582
  530TMC3    H1 7873   0.611   2.779   0.777 -0.0451  1.2322  0.5521
  530TMC3    H2 7874   0.515   2.552   1.129  1.4812 -0.2813 -0.5458
  530TMC3    C7 7875   0.450   2.593   0.863 -0.3132 -0.1846 -0.2198
  530TMC3    C8 7876   0.592   2.753   1.300 -0.2121  0.7814 -0.4655
  530TMC3    O1 7877   0.462   2.601   0.743  0.4518  0.1533 -0.8387
  530TMC3    O2 7878   0.553   2.857   1.351 -0.3555 -0.1782  0.3435
  531MPD2     C 7879   4.040   0.614  13.095 -0.6786  1.0541  0.2554
  531MPD2    C1 7880   3.933   0.630  13.182  0.2620 -0.0210 -0.3865
  531MPD2    C2 7881   3.811   0.614  13.125 -0.4395  0.3752 -0.6951
  531MPD2    C3 7882   3.791   0.553  12.997  0.0452 -0.9267  0.2620
  531MPD2    C4 7883   3.901   0.517  12.924  0.1270  0.0742 -0.2247
  531MPD2    C5 7884   4.023   0.562  12.968  0.0830 -0.0101  0.0296
  531MPD2     H 7885   3.721   0.635  13.183  0.0126  1.8634 -0.5333
  531MPD2    H1 7886   3.890   0.475  12.825  0.8906  0.8972 -0.6553
  531MPD2    H2 7887   4.139   0.647  13.125  0.7209 -1.8937 -1.1067
  531MPD2    H3 7888   4.114   0.551  12.910 -0.5442 -0.1240 -0.9170
  531MPD2     N 7889   3.655   0.519  12.968  0.4527 -0.3272  0.3183
  531MPD2    H5 7890   3.587   0.535  13.042 -0.8988 -2.7405 -0.4108
  531MPD2    N1 7891   3.952   0.670  13.315  0.3132  0.5887 -0.2575
  531MPD2    H7 7892   4.046   0.676  13.352 -0.5374 -1.0423  2.1479
  532TMC3    C1 7893   3.890   0.700  13.546  0.0029 -0.4204 -0.2646
  532TMC3    C2 7894   3.781   0.725  13.627 -0.1852 -0.0617 -0.1237
  532TMC3    C3 7895   3.783   0.691  13.760 -0.5905  0.3123 -0.1619
  532TMC3    C4 7896   3.988   0.621  13.589  0.4140 -0.0864  0.0372
  532TMC3    C5 7897   3.990   0.589  13.726 -0.2210 -0.6030  0.3490
  532TMC3    C6 7898   3.896   0.630  13.810  0.0902 -0.5163 -0.3229
  532TMC3     C 7899   3.851   0.710  13.407  0.2525 -1.0781  0.2796
  532TMC3     O 7900   3.735   0.736  13.381 -0.7630  0.2164 -0.0579
  532TMC3     H 7901   3.713   0.804  13.596 -1.3299 -1.0235 -0.0724
  532TMC3    H1 7902   4.051   0.572  13.516 -0.6440 -0.5539 -0.5613
  532TMC3    H2 7903   3.889   0.584  13.908  0.0804  1.4142  0.5868
  532TMC3    C7 7904   4.108   0.530  13.782 -0.6824  0.8786 -0.0245
  532TMC3    C8 7905   3.667   0.607  13.782 -0.1895  0.7203  0.0570
  532TMC3    O1 7906   4.126   0.552  13.900 -0.2580 -0.4967  0.1801
  532TMC3    O2 7907   3.668   0.536  13.881  0.2685 -0.0065 -0.3444
  533TMC3    C1 7908   4.412   2.082  14.424  0.4899 -0.3996 -0.4201
  533TMC3    C2 7909   4.519   2.166  14.434  0.0564 -0.3187  0.6685
  533TMC3    C3 7910   4.497   2.284  14.500  0.5069  0.5701 -0.1449
  533TMC3    C4 7911   4.293   2.116  14.480  0.0846 -0.7182  0.2212
  533TMC3    C5 7912   4.286   2.216  14.573 -0.4340 -0.7109  0.4318
  533TMC3    C6 7913   4.377   2.310  14.569 -0.8706  0.2289  0.3909
  533TMC3     C 7914   4.455   1.945  14.390 -0.5684 -0.0950  0.0744
  533TMC3     O 7915   4.570   1.902  14.398 -0.2984 -0.5264  0.3122
  533TMC3     H 7916   4.611   2.131  14.389 -0.6206 -0.1627 -0.8746
  533TMC3    H1 7917   4.224   2.033  14.492 -1.6942  0.5202 -1.4571
  533TMC3    H2 7918   4.352   2.400  14.625 -1.4006  0.0159  0.4962
  533TMC3    C7 7919   4.260   2.159  14.703  0.7570 -0.0079 -0.0801
  533TMC3    C8 7920   4.604   2.365  14.526 -0.5096  0.1797  0.2228
  533TMC3    O1 7921   4.274   2.037  14.715  0.5359 -0.1246  0.1239
  533TMC3    O2 7922   4.589   2.438  14.621  0.4202 -0.8301 -0.3135
  534MPD2     C 7923   2.055   3.581   2.503 -0.0292  0.2194 -0.1273
  534MPD2    C1 7924   2.088   3.530   2.374  0.7033  0.4382  0.0902
  534MPD2    C2 7925   2.056   3.398   2.342  0.2380  0.2634  0.4853
  534MPD2    C3 7926   1.986   3.317   2.428 -0.1473  0.2475  0.0112
  534MPD2    C4 7927   1.945   3.370   2.550  1.0438 -0.0883  0.1798
  534MPD2    C5 7928   1.980   3.495   2.583  0.3509  0.2356 -0.0300
  534MPD2     H 7929   2.078   3.364   2.241  0.2878  1.4846  0.0888
  534MPD2    H1 7930   1.881   3.312   2.615  0.3981 -2.6398 -2.7353
  534MPD2    H2 7931   2.083   3.680   2.537  1.6669 -0.4439  0.3637
  534MPD2    H3 7932   1.938   3.531   2.676 -1.2749 -0.1739 -0.6045
  534MPD2     N 7933   1.942   3.186   2.402  0.1170 -0.0685  0.0725
  534MPD2    H5 7934   1.875   3.150   2.469  0.0238  1.3597  0.7393
  534MPD2    N1 7935   2.158   3.610   2.271 -0.3074 -0.3749 -0.7367
  534MPD2    H7 7936   2.178   3.562   2.185 -1.1562  0.7670 -1.5784
  535TMC3    C1 7937   1.979   2.971   2.323 -0.5183  0.6169 -0.0383
  535TMC3    C2 7938   1.845   2.937   2.321 -0.0770  0.5624 -0.3536
  535TMC3    C3 7939   1.805   2.848   2.229  0.6739  0.3121 -1.1541
  535TMC3    C4 7940   2.068   2.899   2.247  0.0906  0.3664  0.8380
  535TMC3    C5 7941   2.020   2.828   2.145  0.2517  0.0509  0.1334
  535TMC3    C6 7942   1.886   2.794   2.137 -0.1525  0.3738 -0.4089
  535TMC3     C 7943   2.011   3.109   2.311  0.1141  0.3469  0.0391
  535TMC3     O 7944   2.116   3.136   2.250 -0.1688  0.0262 -0.3257
  535TMC3     H 7945   1.773   2.993   2.379 -0.4369 -0.3452  0.0893
  535TMC3    H1 7946   2.173   2.916   2.266  0.6810 -0.6212 -1.5933
  535TMC3    H2 7947   1.852   2.733   2.054 -2.0067 -0.8559  1.2552
  535TMC3    C7 7948   2.095   2.814   2.029 -0.5202 -0.1614  0.4750
  535TMC3    C8 7949   1.665   2.826   2.221  0.5148  0.4099  0.7514
  535TMC3    O1 7950   2.047   2.754   1.932 -0.0504 -0.5426 -0.4078
  535TMC3    O2 7951   1.623   2.806   2.112  0.2677 -0.3219 -0.5115
  536MPD2     C 7952   0.779   0.901  16.305  0.6038 -0.5994  0.3815
  536MPD2    C1 7953   0.756   1.018  16.380  0.3986  0.8151 -0.3066
  536MPD2    C2 7954   0.688   1.123  16.327  0.0555 -0.4046  0.0991
  536MPD2    C3 7955   0.676   1.132  16.192 -0.2169 -0.1090 -0.3681
  536MPD2    C4 7956   0.720   1.032  16.111  0.8368 -0.1534 -0.6316
  536MPD2    C5 7957   0.763   0.913  16.172 -0.0231  0.2546  0.5811
  536MPD2     H 7958   0.649   1.200  16.392 -0.6342 -0.1780 -0.5855
  536MPD2    H1 7959   0.695   1.036  16.006 -0.0754 -2.2167 -0.4888
  536MPD2    H2 7960   0.813   0.807  16.348 -0.1731 -0.6264  0.9328
  536MPD2    H3 7961   0.767   0.819  16.119 -1.0702  0.8579 -0.5570
  536MPD2     N 7962   0.617   1.240  16.131  0.5561 -0.2903  0.0332
  536MPD2    H5 7963   0.623   1.237  16.030  0.0755 -1.8523  0.0499
  536MPD2    N1 7964   0.799   1.014  16.514  0.4783  0.0357  0.0458
  536MPD2    H7 7965   0.842   0.926  16.539 -0.1970 -1.3470 -3.5555
  537TMC3    C1 7966   0.887   1.079  16.718 -0.6765 -0.2289 -0.2317
  537TMC3    C2 7967   0.870   1.169  16.820  1.0334 -0.3418  0.5611
  537TMC3    C3 7968   0.951   1.145  16.929 -0.4837 -0.6694 -0.4407
  537TMC3    C4 7969   0.979   0.978  16.715 -0.4429  0.2769  0.7369
  537TMC3    C5 7970   1.067   0.968  16.815 -0.6255 -0.6660  0.6841
  537TMC3    C6 7971   1.052   1.050  16.929  0.4878  0.2117  0.4683
  537TMC3     C 7972   0.816   1.114  16.602  0.1933 -0.4607 -0.2235
  537TMC3     O 7973   0.798   1.233  16.590  0.0662  0.6537 -0.1643
  537TMC3     H 7974   0.785   1.236  16.818  1.3746  0.1203  1.9367
  537TMC3    H1 7975   1.000   0.922  16.624  1.5648  0.6179  0.9861
  537TMC3    H2 7976   1.115   1.039  17.017 -0.6470  0.4828  1.3126
  537TMC3    C7 7977   1.195   0.912  16.794  0.5595 -0.1999  0.0058
  537TMC3    C8 7978   0.992   1.262  17.005 -0.4660  0.4410 -0.2871
  537TMC3    O1 7979   1.224   0.882  16.681  0.5969 -0.0630  0.1814
  537TMC3    O2 7980   1.076   1.247  17.097 -0.9023  0.2078  0.2793
  538TMC3    C1 7981   1.641   0.009  11.563 -0.1598 -0.2025  0.0856
  538TMC3    C2 7982   1.741   0.085  11.517  0.3008 -0.4857 -0.5192
  538TMC3    C3 7983   1.733   0.128  11.389 -0.3426  0.4639  1.1743
  538TMC3    C4 7984   1.530   4.707  11.485 -0.2382 -0.2106  0.4095
  538TMC3    C5 7985   1.518   0.034  11.360 -0.7587  0.6015  0.0959
  538TMC3    C6 7986   1.630   0.100  11.307  0.3147 -0.9394 -0.3089
  538TMC3     C 7987   1.688   4.615  11.651  0.8932  0.3511  0.0400
  538TMC3     O 7988   1.616   4.558  11.732  0.0730 -0.3114  0.2309
  538TMC3     H 7989   1.820   0.113  11.586  0.2694  0.8545 -1.0347
  538TMC3    H1 7990   1.454   4.638  11.520  0.3909 -1.6430 -1.0391
  538TMC3    H2 7991   1.621   0.132  11.204 -4.2454 -1.3932 -0.0509
  538TMC3    C7 7992   1.391   0.020  11.289  0.3821 -1.1745  0.1375
  538TMC3    C8 7993   1.865   0.147  11.336  0.3198  0.0367 -0.6197
  538TMC3    O1 7994   1.311   4.652  11.332 -0.3327 -0.1179  0.0666
  538TMC3    O2 7995   1.952   0.192  11.408  0.0303  0.1732 -0.5648
  539MPD2     C 7996   1.787   3.663  11.594 -0.1148 -0.5031  0.5976
  539MPD2    C1 7997   1.707   3.633  11.482  0.5552 -0.4472 -0.2429
  539MPD2    C2 7998   1.625   3.733  11.429 -0.4943  0.1912  0.3231
  539MPD2    C3 7999   1.635   3.863  11.483 -0.1453 -0.1237 -0.3417
  539MPD2    C4 8000   1.701   3.887  11.599 -0.0172  0.1990 -0.8350
  539MPD2    C5 8001   1.781   3.788  11.645 -0.3713 -0.7173  0.3982
  539MPD2     H 8002   1.573   3.700  11.340  0.0769  1.8994 -0.6451
  539MPD2    H1 8003   1.717   3.982  11.649 -1.7228  0.0173  0.0414
  539MPD2    H2 8004   1.857   3.604  11.653 -0.1721 -0.7067  0.4614
  539MPD2    H3 8005   1.857   3.810  11.719 -1.4940 -0.0363  1.3420
  539MPD2     N 8006   1.565   3.978  11.436 -0.1028 -0.0479  0.1768
  539MPD2    H5 8007   1.596   4.066  11.476 -2.2226  1.4727 -1.5213
  539MPD2    N1 8008   1.702   3.509  11.424 -0.3013  0.4260  0.2885
  539MPD2    H7 8009   1.638   3.500  11.346 -1.0460  2.3813  0.6702
  540TMC3    C1 8010   1.397   4.087  11.318 -0.0780  0.5569 -0.2569
  540TMC3    C2 8011   1.331   4.101  11.200 -0.0607 -0.3186  0.3454
  540TMC3    C3 8012   1.260   4.220  11.185  0.3732  0.0511  0.3923
  540TMC3    C4 8013   1.385   4.177  11.424 -0.0941  0.2298  0.0014
  540TMC3    C5 8014   1.321   4.299  11.404 -0.0648 -0.0382  0.3739
  540TMC3    C6 8015   1.265   4.316  11.280 -0.6675 -0.9203 -0.1417
  540TMC3     C 8016   1.468   3.973  11.333  0.9978 -0.1476 -0.9717
  540TMC3     O 8017   1.424   3.873  11.276 -0.2938 -0.4548  0.1300
  540TMC3     H 8018   1.332   4.027  11.120  0.6398 -0.5057  0.5251
  540TMC3    H1 8019   1.447   4.164  11.511 -2.5310  1.0350  1.8666
  540TMC3    H2 8020   1.212   4.407  11.256  0.5535  0.9467  4.1378
  540TMC3    C7 8021   1.243   4.352  11.524  0.0674 -0.4132 -0.0408
  540TMC3    C8 8022   1.234   4.260  11.047 -0.7802 -0.1364 -0.2340
  540TMC3    O1 8023   1.227   4.268  11.613  0.3066 -0.4866 -0.7600
  540TMC3    O2 8024   1.296   4.357  11.009 -0.0050 -0.6990 -0.1000
  541MPD2     C 8025   0.156   0.350  13.069  0.8349  0.1230  0.5881
  541MPD2    C1 8026   0.120   0.255  12.970 -0.0325  0.6510  0.4147
  541MPD2    C2 8027   0.074   0.303  12.852 -0.0691 -0.2844  0.0253
  541MPD2    C3 8028   0.047   0.438  12.828  0.2086 -0.2256  0.6918
  541MPD2    C4 8029   0.076   0.530  12.927  0.4583  0.2224 -0.5450
  541MPD2    C5 8030   0.141   0.484  13.040 -0.1053  0.0893  0.7666
  541MPD2     H 8031   0.044   0.240  12.769 -1.1420  0.6888 -0.3348
  541MPD2    H1 8032   0.040   0.632  12.921 -0.3320 -0.1383 -1.8624
  541MPD2    H2 8033   0.197   0.323  13.166  0.2087  0.4197  0.9348
  541MPD2    H3 8034   0.159   0.548  13.126 -0.8329  0.8523  0.3497
  541MPD2     N 8035   4.704   0.488  12.714  0.3586 -0.1383  0.6206
  541MPD2    H5 8036   4.704   0.589  12.709  1.2803 -0.1445  0.4991
  541MPD2    N1 8037   0.130   0.112  12.989 -0.2463 -0.6045  0.1378
  541MPD2    H7 8038   0.181   0.075  13.069  0.3988  0.6132  0.3018
  542TMC3    C1 8039   4.668   0.491  12.479  0.0771 -1.2303  0.0370
  542TMC3    C2 8040   0.003   0.420  12.377  0.1291  0.1482  0.4116
  542TMC3    C3 8041   0.020   0.490  12.257  0.0061  0.5594 -0.2116
  542TMC3    C4 8042   4.624   0.615  12.472 -0.2967  0.8263  0.6431
  542TMC3    C5 8043   4.654   0.680  12.355 -0.6521 -0.4318  0.4363
  542TMC3    C6 8044   4.701   0.619  12.246  0.5858  0.1317 -0.4767
  542TMC3     C 8045   4.655   0.417  12.608 -0.0120 -0.6387 -0.4569
  542TMC3     O 8046   4.630   0.295  12.601 -0.2063 -0.1454  0.3658
  542TMC3     H 8047   0.033   0.316  12.385  0.6106  0.3070  0.6928
  542TMC3    H1 8048   4.585   0.657  12.564 -3.4836 -1.6895  0.4571
  542TMC3    H2 8049   0.016   0.671  12.157 -0.0267  0.7903 -0.3137
  542TMC3    C7 8050   4.635   0.826  12.349  0.3575  0.5262  0.5684
  542TMC3    C8 8051   0.084   0.426  12.141 -0.8907  0.4055 -0.2684
  542TMC3    O1 8052   4.658   0.881  12.242  0.1655  0.0245  0.3822
  542TMC3    O2 8053   0.064   0.473  12.032 -0.3858  0.0882  0.2329
  543TMC3    C1 8054   0.325   3.056  17.123  0.5178  0.2188  0.0797
  543TMC3    C2 8055   0.216   2.980  17.130 -0.4772  0.3162  0.1712
  543TMC3    C3 8056   0.178   2.923  17.249 -0.0763 -0.3806 -0.1058
  543TMC3    C4 8057   0.400   3.083  17.237 -0.2211  0.6425 -0.5813
  543TMC3    C5 8058   0.348   3.038  17.367  1.0633 -0.6252  0.5299
  543TMC3    C6 8059   0.240   2.952  17.367 -0.2869  0.1065  0.1106
  543TMC3     C 8060   0.397   3.013  17.007  0.6674  0.1519 -0.9713
  543TMC3     O 8061   0.462   2.909  17.017  0.4248  0.6453  0.0055
  543TMC3     H 8062   0.169   2.949  17.037 -0.8012 -1.6977  1.0163
  543TMC3    H1 8063   0.496   3.131  17.226 -0.4793  1.3131  0.0812
  543TMC3    H2 8064   0.196   2.914  17.459 -1.4131  1.0331 -0.0558
  543TMC3    C7 8065   0.415   3.073  17.494  0.0786  0.1259  0.9007
  543TMC3    C8 8066   0.109   2.793  17.242 -0.2694 -0.3143 -0.2864
  543TMC3    O1 8067   0.383   3.011  17.597  0.2284 -0.3382  0.2881
  543TMC3    O2 8068   0.065   2.772  17.130  0.2822 -0.3996  0.1019
  544MPD2     C 8069   0.112   2.293  17.343 -0.4902 -0.0516 -0.0613
  544MPD2    C1 8070   0.056   2.358  17.232 -0.2395  0.2684  0.2398
  544MPD2    C2 8071   0.061   2.497  17.243 -0.4158 -0.0201 -0.3852
  544MPD2    C3 8072   0.138   2.562  17.339 -0.2688 -0.1109 -0.5925
  544MPD2    C4 8073   0.205   2.497  17.436  0.4431  0.2374  0.0937
  544MPD2    C5 8074   0.188   2.357  17.445  0.0113  0.5280 -0.8226
  544MPD2     H 8075   0.014   2.559  17.167 -0.8244 -0.6843 -0.6816
  544MPD2    H1 8076   0.258   2.551  17.514  0.9828 -0.9412  0.5473
  544MPD2    H2 8077   0.111   2.185  17.352  0.5993 -0.0525  0.0419
  544MPD2    H3 8078   0.242   2.306  17.525 -0.2205  0.1134 -0.9298
  544MPD2     N 8079   0.150   2.705  17.338  0.6401 -0.0853 -0.1436
  544MPD2    H5 8080   0.199   2.742  17.418 -0.9413  1.3431  0.1751
  544MPD2    N1 8081   4.701   2.286  17.130 -0.3627 -0.0310 -0.1215
  544MPD2    H7 8082   4.687   2.188  17.152  0.7210  0.1093  1.2000
  545TMC3    C1 8083   4.550   2.246  16.952 -1.1299 -1.2221 -0.0766
  545TMC3    C2 8084   4.536   2.249  16.818 -0.3527 -0.0991 -0.9816
  545TMC3    C3 8085   4.434   2.173  16.761 -0.2375  0.3191  0.5758
  545TMC3    C4 8086   4.468   2.173  17.032  0.2903  0.0205  0.2463
  545TMC3    C5 8087   4.358   2.117  16.972  0.2688 -0.2621 -0.0437
  545TMC3    C6 8088   4.344   2.102  16.837 -0.1508 -0.5000  0.1312
  545TMC3     C 8089   4.645   2.336  17.015  0.0980 -0.3509 -1.2109
  545TMC3     O 8090   4.686   2.435  16.958  0.4399 -0.1312  0.2169
  545TMC3     H 8091   4.604   2.308  16.758  1.5086 -0.7053  0.5435
  545TMC3    H1 8092   4.482   2.182  17.139  0.4230 -3.3846  0.5078
  545TMC3    H2 8093   4.254   2.053  16.801 -0.3273  0.3975 -0.6572
  545TMC3    C7 8094   4.292   2.020  17.055 -0.5572  0.3188 -0.2767
  545TMC3    C8 8095   4.404   2.173  16.620 -0.1231  0.3407 -0.4550
  545TMC3    O1 8096   4.167   2.006  17.064 -0.2207 -0.2234 -0.9820
  545TMC3    O2 8097   4.326   2.090  16.578 -0.3868 -0.5936  0.2033
  546MPD2     C 8098   1.310   2.186   0.044  0.5202  0.3721 -0.5976
  546MPD2    C1 8099   1.278   2.225  17.588 -0.6878 -0.4306 -0.1865
  546MPD2    C2 8100   1.325   2.345  17.538  0.2750 -0.1219  0.2884
  546MPD2    C3 8101   1.400   2.427  17.617  0.4035  0.1485  0.0604
  546MPD2    C4 8102   1.421   2.383   0.068  0.0264  0.2415  0.3747
  546MPD2    C5 8103   1.387   2.267   0.124  0.9446  0.2252 -0.3773
  546MPD2     H 8104   1.283   2.377  17.443 -0.7390 -0.8196  0.5015
  546MPD2    H1 8105   1.480   2.448   0.132  0.1509 -0.8794  1.3965
  546MPD2    H2 8106   1.284   2.091   0.088  2.5399  0.2483  0.3426
  546MPD2    H3 8107   1.431   2.238   0.219 -0.9976 -0.1261  0.4110
  546MPD2     N 8108   1.439   2.559  17.579  0.4402 -0.3556  0.2083
  546MPD2    H5 8109   1.495   2.612  17.645  0.3468 -0.5016  0.4054
  546MPD2    N1 8110   1.199   2.134  17.516 -0.8933 -0.0269  0.3137
  546MPD2    H7 8111   1.178   2.050  17.570  0.0375 -1.0587 -0.9383
  547TMC3    C1 8112   1.040   2.055  17.364 -0.4716 -0.2713  0.0253
  547TMC3    C2 8113   0.946   2.071  17.263  0.2175  0.2532  0.1925
  547TMC3    C3 8114   0.865   1.966  17.225 -0.2634  0.4633 -0.5055
  547TMC3    C4 8115   1.062   1.932  17.417 -0.0673 -0.0197  0.1624
  547TMC3    C5 8116   0.975   1.835  17.389 -0.1780 -0.1366 -1.0173
  547TMC3    C6 8117   0.877   1.840  17.287 -0.3012  0.1398  0.4495
  547TMC3     C 8118   1.136   2.160  17.391  0.9003  0.1865  0.6359
  547TMC3     O 8119   1.141   2.259  17.319 -0.2068  0.4404 -0.0824
  547TMC3     H 8120   0.942   2.160  17.201  0.5047 -0.5086 -0.9262
  547TMC3    H1 8121   1.153   1.914  17.472  0.3828 -0.1580 -0.6318
  547TMC3    H2 8122   0.795   1.769  17.278  0.9295 -1.2545  0.3188
  547TMC3    C7 8123   0.989   1.703  17.460 -0.3281 -0.0288  0.1054
  547TMC3    C8 8124   0.771   1.994  17.126 -0.4545  0.5614  0.3183
  547TMC3    O1 8125   1.034   1.695  17.576 -0.6563 -0.6811 -0.0463
  547TMC3    O2 8126   0.742   2.109  17.099 -0.0196 -0.1121 -0.5384
  548MPD2     C 8127   0.524   2.448  12.008  0.3244 -0.5203 -0.2964
  548MPD2    C1 8128   0.563   2.342  12.096 -0.1810  0.2028 -0.1172
  548MPD2    C2 8129   0.658   2.254  12.057 -0.3072  0.4392 -0.6109
  548MPD2    C3 8130   0.720   2.279  11.934  0.3611  0.3073 -0.7691
  548MPD2    C4 8131   0.685   2.383  11.848 -0.5196 -0.0247  0.4117
  548MPD2    C5 8132   0.588   2.467  11.890 -0.0818  0.2909 -0.0682
  548MPD2     H 8133   0.672   2.162  12.111 -1.3061  0.3439 -0.5026
  548MPD2    H1 8134   0.735   2.389  11.752 -1.4406 -0.3686 -0.0851
  548MPD2    H2 8135   0.443   2.514  12.035  0.2861 -0.3141 -0.9370
  548MPD2    H3 8136   0.565   2.550  11.823 -0.7212 -2.0004 -2.6993
  548MPD2     N 8137   0.821   2.186  11.895 -0.3886  0.6205 -0.4467
  548MPD2    H5 8138   0.850   2.122  11.968  1.2026  1.0836 -0.6848
  548MPD2    N1 8139   0.491   2.332  12.215 -0.0555  0.0672  0.0879
  548MPD2    H7 8140   0.415   2.399  12.223 -0.5963 -0.5819  0.4305
  549TMC3    C1 8141   0.457   2.278  12.443 -0.3452 -0.6039  0.2747
  549TMC3    C2 8142   0.323   2.321  12.432 -0.3275  0.1091  0.1183
  549TMC3    C3 8143   0.273   2.370  12.550 -0.3060 -0.8996  0.0840
  549TMC3    C4 8144   0.520   2.267  12.562 -0.7372 -0.2526 -0.3803
  549TMC3    C5 8145   0.457   2.313  12.673  0.4313  0.9983  0.0048
  549TMC3    C6 8146   0.339   2.377  12.668  0.0247  0.1845  0.6139
  549TMC3     C 8147   0.518   2.244  12.317 -0.0932  0.4133 -0.5777
  549TMC3     O 8148   0.604   2.163  12.341  0.0377  0.4347  0.4568
  549TMC3     H 8149   0.258   2.310  12.346 -0.3130  0.3235  0.0796
  549TMC3    H1 8150   0.623   2.236  12.560 -0.3223  0.9878  1.6933
  549TMC3    H2 8151   0.297   2.403  12.764 -2.1257  0.0659 -0.3033
  549TMC3    C7 8152   0.475   2.238  12.786 -0.2321  0.6338 -0.1208
  549TMC3    C8 8153   0.172   2.479  12.535 -0.2035  0.5859  0.3972
  549TMC3    O1 8154   0.478   2.297  12.894 -0.0393  0.1759 -0.6549
  549TMC3    O2 8155   0.099   2.473  12.436  0.1603  0.3485 -0.0130
  550TMC3    C1 8156   4.301   0.752  12.048 -0.6077 -0.3914  0.0661
  550TMC3    C2 8157   4.321   0.756  12.184  0.2495  0.0978 -0.1330
  550TMC3    C3 8158   4.228   0.814  12.271 -0.3534 -0.3216  0.5226
  550TMC3    C4 8159   4.183   0.799  11.991  0.4183 -0.3519  0.1695
  550TMC3    C5 8160   4.096   0.855  12.083 -0.5690 -0.2227 -0.4028
  550TMC3    C6 8161   4.117   0.870  12.221 -0.0892 -0.0831 -0.7295
  550TMC3     C 8162   4.331   0.617  12.006  0.3659  0.1049  0.4589
  550TMC3     O 8163   4.448   0.570  12.009 -0.1099  0.4144  0.4929
  550TMC3     H 8164   4.411   0.720  12.232 -0.5089  0.3594  1.5119
  550TMC3    H1 8165   4.162   0.771  11.888  1.1783 -0.9430  0.1773
  550TMC3    H2 8166   4.041   0.909  12.288 -1.2049 -2.4504 -0.6173
  550TMC3    C7 8167   3.956   0.835  12.055  0.0282  0.2082  0.6583
  550TMC3    C8 8168   4.240   0.806  12.412  0.7897  0.9788  0.7608
  550TMC3    O1 8169   3.883   0.772  12.124  0.0476  0.2086  0.6903
  550TMC3    O2 8170   4.180   0.885  12.481 -0.6850 -0.3848 -0.2879
  551TMC3    C1 8171   2.021   2.759  13.303 -0.3336  0.5722  0.4478
  551TMC3    C2 8172   2.140   2.759  13.244  0.6985 -0.2434 -0.4540
  551TMC3    C3 8173   2.228   2.856  13.271 -0.5845 -0.1748  0.1787
  551TMC3    C4 8174   1.992   2.857  13.399 -0.2104  0.4517  0.4793
  551TMC3    C5 8175   2.088   2.954  13.422 -0.3802  0.3909  0.0232
  551TMC3    C6 8176   2.204   2.953  13.362 -0.3397 -0.4256  0.0251
  551TMC3     C 8177   1.922   2.665  13.251 -0.2531  0.0259 -0.0406
  551TMC3     O 8178   1.971   2.569  13.188 -0.6423 -0.3064 -0.2097
  551TMC3     H 8179   2.161   2.686  13.167 -1.5081  0.0768 -1.3508
  551TMC3    H1 8180   1.910   2.840  13.469  0.2635 -0.4166  0.8228
  551TMC3    H2 8181   2.267   3.036  13.389 -0.0964 -0.7771  0.5482
  551TMC3    C7 8182   2.069   3.048  13.536 -1.2934 -0.0142  0.0564
  551TMC3    C8 8183   2.318   2.888  13.163 -0.0270 -0.4460  0.1322
  551TMC3    O1 8184   2.171   3.105  13.578  0.0830 -0.3649 -0.0140
  551TMC3    O2 8185   2.312   2.821  13.059 -0.2849 -0.3636  0.9840
  552MPD2     C 8186   3.891   0.332  14.144 -0.1400 -0.2924 -0.7336
  552MPD2    C1 8187   3.977   0.291  14.047 -0.5403  0.3919 -0.2884
  552MPD2    C2 8188   4.109   0.257  14.073  0.3149  0.5357  0.4386
  552MPD2    C3 8189   4.161   0.269  14.199  0.0105 -0.1913 -0.5055
  552MPD2    C4 8190   4.071   0.305  14.300  0.0581 -0.1111  0.2990
  552MPD2    C5 8191   3.942   0.341  14.272  0.4690  0.5962  0.5602
  552MPD2     H 8192   4.168   0.219  13.991 -2.1654  0.2543 -1.2190
  552MPD2    H1 8193   4.114   0.307  14.399 -0.7924  0.7367  0.6512
  552MPD2    H2 8194   3.786   0.353  14.132  0.3392  0.1200 -4.2325
  552MPD2    H3 8195   3.875   0.367  14.353  0.3652  0.0612  0.6467
  552MPD2     N 8196   4.301   0.245  14.232 -0.0086  0.9704  0.0611
  552MPD2    H5 8197   4.320   0.240  14.332 -1.7222 -0.5227  0.3132
  552MPD2    N1 8198   3.925   0.251  13.917  0.3183 -0.4379  0.3145
  552MPD2    H7 8199   4.000   0.220  13.855 -1.1975 -0.4994 -1.5032
  553TMC3    C1 8200   3.772   0.213  13.745  0.1647 -0.8492 -0.5448
  553TMC3    C2 8201   3.852   0.260  13.652  0.0753 -0.0701  0.6568
  553TMC3    C3 8202   3.859   0.194  13.533 -0.1720 -0.2640 -0.5072
  553TMC3    C4 8203   3.689   0.101  13.722  0.2182  0.7387 -0.6161
  553TMC3    C5 8204   3.709   0.027  13.607 -0.1791 -0.3906 -0.1281
  553TMC3    C6 8205   3.798   0.071  13.511  0.2178 -0.3274  0.6725
  553TMC3     C 8206   3.795   0.246  13.878  0.5631 -0.3500  0.2388
  553TMC3     O 8207   3.695   0.237  13.944  0.2528 -0.5448  0.0387
  553TMC3     H 8208   3.917   0.345  13.670  1.7140 -1.2316  0.2283
  553TMC3    H1 8209   3.617   0.063  13.794  2.2095  1.7855  1.9620
  553TMC3    H2 8210   3.830   0.011  13.427  1.5220  0.6886  0.4536
  553TMC3    C7 8211   3.716   4.604  13.648  0.2757  0.1106 -0.2643
  553TMC3    C8 8212   3.928   0.266  13.423  0.1151  1.0537  0.1131
  553TMC3    O1 8213   3.611   4.557  13.694 -0.4611 -0.3203 -0.4995
  553TMC3    O2 8214   4.026   0.336  13.460  0.1821  0.2345  0.3260
  554TMC3    C1 8215   0.199   3.296  11.543 -0.1624  0.7421  0.6425
  554TMC3    C2 8216   0.089   3.323  11.478 -0.2977 -0.9848  0.1044
  554TMC3    C3 8217   0.067   3.433  11.396  0.1527 -0.5448 -0.6790
  554TMC3    C4 8218   0.301   3.383  11.528  0.4372  0.6098 -0.1012
  554TMC3    C5 8219   0.277   3.500  11.463 -0.3837 -0.1168 -1.0167
  554TMC3    C6 8220   0.163   3.529  11.399  0.5473  0.2757  0.2045
  554TMC3     C 8221   0.202   3.197  11.648  0.0102 -0.6179 -0.0185
  554TMC3     O 8222   0.095   3.139  11.669  0.4935 -0.0184  0.0855
  554TMC3     H 8223   0.015   3.244  11.481 -1.0737 -0.2973 -0.7421
  554TMC3    H1 8224   0.397   3.358  11.571 -0.5822 -0.1077  1.7750
  554TMC3    H2 8225   0.151   3.627  11.355 -3.8218 -0.1629  0.4021
  554TMC3    C7 8226   0.394   3.581  11.423 -0.2513  0.0230 -0.1606
  554TMC3    C8 8227   4.677   3.422  11.299 -0.1786  0.1488  0.2424
  554TMC3    O1 8228   0.370   3.633  11.314 -0.2601 -0.1977 -0.0184
  554TMC3    O2 8229   4.581   3.349  11.324  0.0689  0.8969  0.4242
  555TMC3    C1 8230   0.067   3.370  15.049  0.0972 -0.8090 -0.5850
  555TMC3    C2 8231   0.048   3.451  15.159 -0.2727  0.6083  0.1595
  555TMC3    C3 8232   0.035   3.389  15.277  0.7051  0.3736  0.0910
  555TMC3    C4 8233   0.097   3.235  15.069 -0.3314  0.3017 -0.3524
  555TMC3    C5 8234   0.105   3.181  15.190 -0.7017 -0.2521 -0.4269
  555TMC3    C6 8235   0.057   3.259  15.293 -0.2570 -0.3241  0.2882
  555TMC3     C 8236   0.163   3.425  14.950  0.0107  0.1587  0.8483
  555TMC3     O 8237   0.265   3.361  14.928 -0.1688 -0.0370 -0.3455
  555TMC3     H 8238   0.032   3.558  15.160  0.5442  0.7286  0.3407
  555TMC3    H1 8239   0.122   3.187  14.975  0.0800 -0.1330 -0.0192
  555TMC3    H2 8240   0.046   3.218  15.393 -0.0223 -0.9036  0.0755
  555TMC3    C7 8241   0.106   3.039  15.213 -0.7504 -0.9344 -0.0646
  555TMC3    C8 8242   0.031   3.479  15.393  0.5910  0.4803 -0.2273
  555TMC3    O1 8243   0.119   3.006  15.330 -0.3802 -0.1325  0.5048
  555TMC3    O2 8244   4.681   3.579  15.401  0.1028  0.6772  0.1671
  556MPD2     C 8245   2.467   0.739  10.473  0.5575  0.5503  0.5365
  556MPD2    C1 8246   2.497   0.634  10.549 -1.0422  0.1242 -0.6443
  556MPD2    C2 8247   2.428   0.519  10.540  0.5527 -0.4216  0.4507
  556MPD2    C3 8248   2.328   0.512  10.443  0.7855  0.9441 -0.2671
  556MPD2    C4 8249   2.303   0.618  10.363  0.1598  1.0039 -0.1818
  556MPD2    C5 8250   2.371   0.733  10.374 -0.0236 -0.4759 -0.2368
  556MPD2     H 8251   2.443   0.438  10.610 -0.1585  0.7909  2.0089
  556MPD2    H1 8252   2.210   0.631  10.308 -1.2348 -1.4291  1.5745
  556MPD2    H2 8253   2.518   0.834  10.486  2.8519 -0.7414  1.0781
  556MPD2    H3 8254   2.344   0.822  10.319  3.7986  0.6495 -0.3121
  556MPD2     N 8255   2.242   0.397  10.447  0.2264  0.2380  0.2022
  556MPD2    H5 8256   2.271   0.320  10.507 -0.6619  0.0215  0.3512
  556MPD2    N1 8257   2.577   0.637  10.663  0.1634 -0.2878  0.1861
  556MPD2    H7 8258   2.571   0.564  10.733  0.2211  0.6677  1.1858
  557TMC3    C1 8259   2.072   0.261  10.390 -0.3819  0.6005  0.7371
  557TMC3    C2 8260   2.005   0.195  10.288 -0.1397  0.2741  0.3720
  557TMC3    C3 8261   1.929   0.081  10.318 -0.1706 -0.0743  0.6849
  557TMC3    C4 8262   2.059   0.219  10.518  0.7429 -0.4023  0.7193
  557TMC3    C5 8263   1.974   0.114  10.545  0.1861 -0.3734  0.2548
  557TMC3    C6 8264   1.919   0.036  10.443 -0.1154  0.6511 -0.2148
  557TMC3     C 8265   2.149   0.369  10.352 -0.0176 -0.5374  0.0492
  557TMC3     O 8266   2.097   0.454  10.274  0.6453 -0.0724  0.2025
  557TMC3     H 8267   2.015   0.232  10.186 -0.7905  1.2776  0.6756
  557TMC3    H1 8268   2.105   0.281  10.593  3.2849 -1.3367 -0.0686
  557TMC3    H2 8269   1.880   4.660  10.482  0.0083 -0.3459 -2.5100
  557TMC3    C7 8270   1.977   0.068  10.679  0.4742 -0.0284 -0.0026
  557TMC3    C8 8271   1.907   4.709  10.207 -0.0616 -0.5743 -0.4178
  557TMC3    O1 8272   1.882   0.006  10.715  0.7127 -0.0243  0.1990
  557TMC3    O2 8273   1.845   0.049  10.116  0.1095 -0.3662  0.1518
  558TMC3    C1 8274   0.686   2.625   9.537 -0.8138  0.3035 -0.5617
  558TMC3    C2 8275   0.594   2.551   9.595 -0.1609 -0.2211 -0.9140
  558TMC3    C3 8276   0.486   2.520   9.518 -0.0968 -0.8402 -0.0299
  558TMC3    C4 8277   0.677   2.682   9.419  0.3990 -0.5872  0.4401
  558TMC3    C5 8278   0.567   2.654   9.347  0.1112  0.8392 -0.2081
  558TMC3    C6 8279   0.462   2.569   9.387 -0.7981 -0.6106  0.4534
  558TMC3     C 8280   0.813   2.614   9.602  0.4917 -0.1059 -0.3962
  558TMC3     O 8281   0.825   2.624   9.726 -0.3533 -0.3275 -0.1171
  558TMC3     H 8282   0.622   2.497   9.685 -0.5277  0.4687 -0.3794
  558TMC3    H1 8283   0.758   2.743   9.383 -0.6127 -0.7330 -2.1562
  558TMC3    H2 8284   0.363   2.556   9.343 -0.5950 -0.6568  0.0148
  558TMC3    C7 8285   0.557   2.708   9.215  0.6267 -0.0799 -0.1933
  558TMC3    C8 8286   0.407   2.404   9.549 -0.8520  0.9375  0.4539
  558TMC3    O1 8287   0.653   2.771   9.172 -0.4592  0.3417 -0.2419
  558TMC3    O2 8288   0.334   2.350   9.460  0.5008 -0.1222 -0.2261
  559MPD2     C 8289   0.146   3.429  10.554 -0.0478  0.3669 -0.0304
  559MPD2    C1 8290   0.100   3.335  10.642  0.6926 -0.6228 -0.4884
  559MPD2    C2 8291   0.187   3.267  10.719 -0.4982  0.1378 -0.2279
  559MPD2    C3 8292   0.317   3.308  10.729 -1.0227 -0.2837 -0.4444
  559MPD2    C4 8293   0.371   3.401  10.644 -0.2107 -0.6675  0.3627
  559MPD2    C5 8294   0.279   3.461  10.558 -0.2800  0.5578  0.3128
  559MPD2     H 8295   0.142   3.191  10.782 -1.4720 -1.0633 -2.3463
  559MPD2    H1 8296   0.474   3.435  10.645 -0.3086 -0.3402 -1.5524
  559MPD2    H2 8297   0.075   3.489  10.497  1.3327 -0.7241 -2.9238
  559MPD2    H3 8298   0.314   3.529  10.480 -0.0547 -1.3364 -1.2439
  559MPD2     N 8299   0.402   3.232  10.812  0.4603 -0.1649 -0.0078
  559MPD2    H5 8300   0.363   3.165  10.877  0.2524  1.6169  1.6939
  559MPD2    N1 8301   4.674   3.310  10.632 -0.2953  0.0831 -0.3462
  559MPD2    H7 8302   4.622   3.360  10.561 -0.5607 -1.2580 -1.0938
  560TMC3    C1 8303   0.590   3.148  10.915  0.5470 -0.4888  0.7992
  560TMC3    C2 8304   0.543   3.017  10.892 -0.0991 -0.8796 -0.1454
  560TMC3    C3 8305   0.634   2.919  10.930  0.0043  0.3350 -0.2768
  560TMC3    C4 8306   0.719   3.177  10.958 -0.3001 -0.6000  0.5109
  560TMC3    C5 8307   0.799   3.071  10.999 -0.3170 -0.1175  0.2363
  560TMC3    C6 8308   0.759   2.943  10.985 -0.6679 -0.3066 -0.1978
  560TMC3     C 8309   0.538   3.245  10.818  0.1151  0.1654 -0.7589
  560TMC3     O 8310   0.619   3.323  10.769  0.2228  0.5349 -0.2807
  560TMC3     H 8311   0.459   2.995  10.828  0.5276 -0.8526 -0.9846
  560TMC3    H1 8312   0.753   3.280  10.963 -0.6929 -0.5065  1.1986
  560TMC3    H2 8313   0.832   2.867  11.012  0.1947  0.5756 -0.0453
  560TMC3    C7 8314   0.912   3.091  11.091  0.5607 -0.3586 -0.3833
  560TMC3    C8 8315   0.599   2.777  10.909  0.1501  0.3042  0.3042
  560TMC3    O1 8316   0.955   2.996  11.153  0.0305  0.0104  0.2295
  560TMC3    O2 8317   0.684   2.693  10.898  0.0048 -0.1282 -0.0890
  561TMC3    C1 8318   2.684   2.187  11.168 -0.6412 -0.0581 -0.2104
  561TMC3    C2 8319   2.665   2.146  11.298  0.3034 -0.3110 -0.1826
  561TMC3    C3 8320   2.576   2.220  11.373  0.1420 -1.1695  0.1930
  561TMC3    C4 8321   2.621   2.291  11.110 -1.2099  0.1790 -0.0244
  561TMC3    C5 8322   2.551   2.370  11.192  0.1692  0.5913  0.5273
  561TMC3    C6 8323   2.521   2.329  11.321 -0.1749  0.1140 -0.4337
  561TMC3     C 8324   2.779   2.109  11.077  0.5568 -0.3823  0.5348
  561TMC3     O 8325   2.754   2.110  10.958  0.0500 -0.4068  0.0033
  561TMC3     H 8326   2.719   2.061  11.337 -1.8166 -2.4610 -2.0077
  561TMC3    H1 8327   2.634   2.312  11.004 -3.1290  1.0372 -0.0751
  561TMC3    H2 8328   2.454   2.391  11.380 -0.8146 -0.6307 -0.3690
  561TMC3    C7 8329   2.525   2.506  11.151 -0.3457  0.9482 -0.2586
  561TMC3    C8 8330   2.583   2.206  11.522 -0.5909  0.0368  0.1434
  561TMC3    O1 8331   2.437   2.565  11.210 -0.0683 -0.0404  0.2941
  561TMC3    O2 8332   2.674   2.131  11.561  0.1016 -0.0332 -0.2661
  562TMC3    C1 8333   4.685   3.640  15.976  0.0182 -0.3533  0.0294
  562TMC3    C2 8334   4.627   3.749  15.917 -0.3928 -0.0738  0.2687
  562TMC3    C3 8335   4.553   3.726  15.804  0.1813 -0.3879 -0.1252
  562TMC3    C4 8336   4.674   3.516  15.926  0.1270 -0.2108  0.3473
  562TMC3    C5 8337   4.605   3.508  15.809  0.7050  1.1622 -0.5292
  562TMC3    C6 8338   4.546   3.611  15.736  0.3570  0.2494 -0.9391
  562TMC3     C 8339   0.071   3.658  16.079 -0.1193  0.4009  0.0980
  562TMC3     O 8340   0.115   3.563  16.139  0.4727  0.3267  0.1685
  562TMC3     H 8341   4.625   3.849  15.959 -2.1764  0.8852 -2.1086
  562TMC3    H1 8342   4.714   3.430  15.978  0.0212  0.4169  1.4581
  562TMC3    H2 8343   4.512   3.596  15.634 -0.8109  3.0655 -0.9575
  562TMC3    C7 8344   4.597   3.373  15.748  0.0208  0.7024 -0.5183
  562TMC3    C8 8345   4.442   3.817  15.786  0.0434 -0.0277  0.5217
  562TMC3    O1 8346   4.506   3.348  15.670  0.4289  0.2370 -0.2317
  562TMC3    O2 8347   4.368   3.835  15.881  0.4662 -0.5602  0.5505
  563MPD2     C 8348   1.995   0.340  15.588  0.9376  0.3122 -0.1538
  563MPD2    C1 8349   1.999   0.393  15.714 -0.2153 -0.6315  0.0347
  563MPD2    C2 8350   2.110   0.362  15.784 -0.1047 -1.0139  0.8596
  563MPD2    C3 8351   2.216   0.284  15.741  0.8828  0.5350  0.2350
  563MPD2    C4 8352   2.212   0.242  15.611 -0.4837  0.2451  0.4505
  563MPD2    C5 8353   2.100   0.263  15.534  0.1786 -0.0290  0.2085
  563MPD2     H 8354   2.120   0.383  15.890  1.1750 -1.4193  0.8154
  563MPD2    H1 8355   2.289   0.174  15.576 -1.0667  0.5981 -1.5075
  563MPD2    H2 8356   1.913   0.365  15.522  0.1592  2.0246  1.4755
  563MPD2    H3 8357   2.111   0.235  15.430  0.5094  2.5923 -0.4704
  563MPD2     N 8358   2.325   0.252  15.826 -0.8096 -0.1359  0.1741
  563MPD2    H5 8359   2.318   0.281  15.923 -0.3943 -0.7144  0.3765
  563MPD2    N1 8360   1.877   0.444  15.775 -0.0513  0.2188  0.1546
  563MPD2    H7 8361   1.785   0.429  15.734 -0.7878  3.6556  0.5074
  564TMC3    C1 8362   1.791   0.454  15.986 -0.2343 -0.3300  0.3960
  564TMC3    C2 8363   1.681   0.390  15.929 -0.4504  0.4790 -0.0889
  564TMC3    C3 8364   1.645   0.265  15.983 -0.0545  0.0327 -0.7642
  564TMC3    C4 8365   1.853   0.412  16.101  0.0994 -0.6709 -0.3911
  564TMC3    C5 8366   1.824   0.278  16.135  0.3976 -0.8977 -0.0736
  564TMC3    C6 8367   1.715   0.208  16.083  0.0321 -0.3670 -0.2684
  564TMC3     C 8368   1.885   0.512  15.892 -0.3239  0.1830  0.6034
  564TMC3     O 8369   1.989   0.558  15.942 -0.5075  0.5438 -0.5993
  564TMC3     H 8370   1.616   0.431  15.853  0.6672  1.9575 -0.2438
  564TMC3    H1 8371   1.951   0.453  16.124 -0.2845 -0.0185  0.0770
  564TMC3    H2 8372   1.688   0.109  16.119  1.5613 -1.4620 -2.0583
  564TMC3    C7 8373   1.946   0.199  16.122 -0.9136 -0.0183 -0.0234
  564TMC3    C8 8374   1.587   0.163  15.901  0.1165  0.3133  0.3800
  564TMC3    O1 8375   2.045   0.240  16.180  0.5608  0.4926 -0.3986
  564TMC3    O2 8376   1.521   0.079  15.957  0.9206  0.1716  0.2994
  565TMC3    C1 8377   2.236   1.584   8.817  0.0949 -0.3673  0.7991
  565TMC3    C2 8378   2.216   1.535   8.947  0.6125  0.2949 -0.1989
  565TMC3    C3 8379   2.103   1.462   8.972  0.6224 -0.2027  0.3689
  565TMC3    C4 8380   2.140   1.572   8.720  0.2541  0.8393  0.0748
  565TMC3    C5 8381   2.031   1.502   8.760  0.2856  0.3846 -0.0097
  565TMC3    C6 8382   2.000   1.446   8.880 -0.1323 -0.3086  0.0247
  565TMC3     C 8383   2.367   1.639   8.783  0.5333 -1.2294  0.5421
  565TMC3     O 8384   2.374   1.691   8.675  0.5446 -0.2298 -0.6473
  565TMC3     H 8385   2.286   1.533   9.030  0.0529  0.1655  0.2757
  565TMC3    H1 8386   2.158   1.609   8.620 -0.1298  1.0971  0.1025
  565TMC3    H2 8387   1.921   1.376   8.903 -0.6438  0.6227  1.1000
  565TMC3    C7 8388   1.933   1.482   8.664  0.2140  0.3844  0.2039
  565TMC3    C8 8389   2.092   1.403   9.097  0.4061 -0.2138  0.5349
  565TMC3    O1 8390   1.966   1.491   8.546 -0.0373  0.8492  0.1834
  565TMC3    O2 8391   2.189   1.404   9.175  0.0345  0.1925 -0.5290
  566MPD2     C 8392   3.888   3.494  14.152  0.0894 -0.1416 -0.3130
  566MPD2    C1 8393   3.990   3.429  14.088 -0.3105 -0.2638  0.2586
  566MPD2    C2 8394   3.957   3.340  13.989 -0.7360 -0.6896 -0.2850
  566MPD2    C3 8395   3.828   3.319  13.950 -0.3507  0.4495  0.6477
  566MPD2    C4 8396   3.721   3.384  14.018 -0.8384 -0.3775 -0.6785
  566MPD2    C5 8397   3.756   3.472  14.114  0.7013  0.4770 -0.2305
  566MPD2     H 8398   4.035   3.279  13.944  2.6684  1.3515  2.9015
  566MPD2    H1 8399   3.619   3.371  13.984 -0.7882  2.0131 -1.7488
  566MPD2    H2 8400   3.915   3.559  14.234  1.8489 -0.4641 -0.6360
  566MPD2    H3 8401   3.665   3.517  14.153 -0.6855  0.0866 -3.0758
  566MPD2     N 8402   3.797   3.236  13.841  0.2550 -0.0748 -0.7313
  566MPD2    H5 8403   3.706   3.251  13.800  0.3704  2.7754  0.0271
  566MPD2    N1 8404   4.130   3.458  14.106  0.2198 -1.1030  0.3334
  566MPD2    H7 8405   4.202   3.415  14.050  3.0262 -1.1595  3.9392
  567TMC3    C1 8406   4.305   3.607  14.139  0.0419 -0.4037  0.3678
  567TMC3    C2 8407   4.335   3.587  14.006 -0.1964 -0.1187  0.6944
  567TMC3    C3 8408   4.461   3.623  13.970 -0.5816 -0.4451 -0.4871
  567TMC3    C4 8409   4.393   3.667  14.224 -0.1242  0.4830 -0.7842
  567TMC3    C5 8410   4.518   3.699  14.181 -0.4327 -0.1111  0.3737
  567TMC3    C6 8411   4.550   3.693  14.049 -0.4364 -0.4222 -0.9818
  567TMC3     C 8412   4.174   3.569  14.183 -0.0838 -0.4475  0.6780
  567TMC3     O 8413   4.118   3.644  14.260 -0.6529 -0.0521  0.2538
  567TMC3     H 8414   4.265   3.542  13.937  0.6813  1.8467 -1.4713
  567TMC3    H1 8415   4.376   3.672  14.331 -0.9113 -0.9788 -0.8474
  567TMC3    H2 8416   4.648   3.722  14.014  0.5806 -2.1985  0.4443
  567TMC3    C7 8417   4.636   3.667  14.262 -0.5606 -0.0735  0.2558
  567TMC3    C8 8418   4.467   3.646  13.821 -0.5807 -0.2758 -0.7148
  567TMC3    O1 8419   0.020   3.738  14.260  0.2580 -0.3285 -0.4325
  567TMC3    O2 8420   4.365   3.640  13.755 -0.0059  0.2792 -0.2049
  568MPD2     C 8421   1.840   3.583  16.438  0.3342  0.0480 -0.6900
  568MPD2    C1 8422   1.886   3.686  16.508  0.1730  0.4733 -0.2745
  568MPD2    C2 8423   1.905   3.808  16.444 -0.1570  0.7207 -0.7070
  568MPD2    C3 8424   1.881   3.824  16.310 -0.3528 -0.4138 -0.5451
  568MPD2    C4 8425   1.835   3.716  16.240  0.7791 -0.0678 -0.8097
  568MPD2    C5 8426   1.813   3.596  16.304 -0.7329 -0.1171 -0.1438
  568MPD2     H 8427   1.925   3.898  16.502 -1.6002  0.6356 -0.0754
  568MPD2    H1 8428   1.816   3.710  16.133 -0.6111 -0.4082 -0.5357
  568MPD2    H2 8429   1.818   3.483  16.474 -0.2120  0.2162 -0.5544
  568MPD2    H3 8430   1.767   3.520  16.242  0.3524 -2.5674  2.0764
  568MPD2     N 8431   1.906   3.953  16.255 -0.7370 -0.0682  0.4622
  568MPD2    H5 8432   1.948   4.027  16.309 -1.9740  1.9317 -1.3071
  568MPD2    N1 8433   1.933   3.672  16.644  0.2522 -0.3792  0.1484
  568MPD2    H7 8434   1.914   3.585  16.693 -1.6956  0.0005  0.0516
  569TMC3    C1 8435   1.907   4.120  16.089  0.0026  0.1107  0.0224
  569TMC3    C2 8436   1.913   4.218  16.183  0.8403 -0.4225 -0.0078
  569TMC3    C3 8437   1.937   4.339  16.134  0.5834  0.3101  0.2509
  569TMC3    C4 8438   1.906   4.148  15.953  0.9822 -0.6434 -0.1027
  569TMC3    C5 8439   1.936   4.271  15.907 -0.2318 -0.3959  0.0971
  569TMC3    C6 8440   1.955   4.366  16.004 -0.3991  0.5620  0.4154
  569TMC3     C 8441   1.859   3.990  16.134  0.0225  0.4055 -0.1723
  569TMC3     O 8442   1.790   3.930  16.051 -0.4009  1.0716  0.7546
  569TMC3     H 8443   1.898   4.206  16.290 -1.4999 -0.8299 -0.3866
  569TMC3    H1 8444   1.864   4.073  15.887  0.6688  0.7962 -1.5177
  569TMC3    H2 8445   1.986   4.466  15.976 -0.1258  1.0791  2.5713
  569TMC3    C7 8446   1.874   4.318  15.782  0.0671 -0.4638  0.0084
  569TMC3    C8 8447   1.864   4.453  16.192  0.6586 -0.5749  0.6118
  569TMC3    O1 8448   1.866   4.247  15.682  0.3524  0.6700 -0.1451
  569TMC3    O2 8449   1.783   4.497  16.114  0.1634 -0.2956  0.6719
  570TMC3    C1 8450   1.286   2.843  16.341  0.5475  0.3281 -0.1704
  570TMC3    C2 8451   1.353   2.835  16.223 -0.2057  0.2151 -0.4438
  570TMC3    C3 8452   1.414   2.950  16.177  0.0995  0.1898  0.2535
  570TMC3    C4 8453   1.279   2.968  16.403 -0.2770  0.6216 -0.5778
  570TMC3    C5 8454   1.322   3.087  16.342 -0.1430  0.7836 -0.3940
  570TMC3    C6 8455   1.408   3.069  16.236  0.3598 -0.6948 -0.9490
  570TMC3     C 8456   1.192   2.742  16.376  0.3545 -0.9128  0.4503
  570TMC3     O 8457   1.160   2.660  16.293  0.2909 -0.6809  0.3417
  570TMC3     H 8458   1.358   2.741  16.170  0.0100 -0.8172  1.4244
  570TMC3    H1 8459   1.218   2.972  16.493  0.2647 -3.4863 -0.0395
  570TMC3    H2 8460   1.465   3.145  16.185  0.9613 -0.8247 -0.4734
  570TMC3    C7 8461   1.316   3.215  16.409 -1.0285  0.0382  0.7090
  570TMC3    C8 8462   1.535   2.924  16.094  0.1644 -0.8863 -0.1997
  570TMC3    O1 8463   1.281   3.220  16.528 -0.3174  0.4325  0.1057
  570TMC3    O2 8464   1.635   2.994  16.121 -0.2059 -0.5240 -0.2753
  571MPD2     C 8465   4.313   4.319  16.924  0.2817  0.1369  0.1215
  571MPD2    C1 8466   4.346   4.322  17.059 -0.3786  0.7210  0.3447
  571MPD2    C2 8467   4.269   4.392  17.147  0.2274  0.0098 -0.1927
  571MPD2    C3 8468   4.161   4.461  17.092  0.2290 -0.3879 -0.4237
  571MPD2    C4 8469   4.128   4.454  16.961 -0.2726  0.0226 -0.4597
  571MPD2    C5 8470   4.205   4.381  16.876  0.5659 -0.3221  0.5760
  571MPD2     H 8471   4.302   4.410  17.249  1.1418 -0.1398 -0.4674
  571MPD2    H1 8472   4.048   4.512  16.915 -1.1146 -0.8637 -0.0935
  571MPD2    H2 8473   4.378   4.268  16.854 -1.8498 -0.2309 -1.5831
  571MPD2    H3 8474   4.192   4.381  16.769 -2.3927 -1.4949  0.9511
  571MPD2     N 8475   4.076   4.541  17.163 -0.3566  0.1940 -0.2170
  571MPD2    H5 8476   3.988   4.568  17.120 -2.1799 -1.1773  2.5985
  571MPD2    N1 8477   4.466   4.257  17.099 -0.6863  0.4724  0.2060
  571MPD2    H7 8478   4.527   4.222  17.025 -1.4825 -2.8519  1.1056
  572TMC3    C1 8479   3.979   4.653  17.345  0.5717 -0.3863  0.0069
  572TMC3    C2 8480   3.860   4.642  17.289  0.6966  0.6221 -0.8086
  572TMC3    C3 8481   3.752   4.697  17.353 -0.7695  1.0311  0.4932
  572TMC3    C4 8482   4.003   0.007  17.459 -0.2491  0.0032 -0.3867
  572TMC3    C5 8483   3.894   0.061  17.523  0.2506  0.3863  0.5249
  572TMC3    C6 8484   3.770   0.056  17.463 -0.4489 -0.4423  0.3982
  572TMC3     C 8485   4.086   4.578  17.296  0.4650  0.2101  0.0927
  572TMC3     O 8486   4.183   4.568  17.367 -0.3546  0.5966 -0.3620
  572TMC3     H 8487   3.847   4.573  17.206 -3.8589  0.1187  0.3041
  572TMC3    H1 8488   4.107   0.023  17.483  0.3159 -2.5583 -1.0496
  572TMC3    H2 8489   3.690   0.100  17.521  0.0865 -0.5422  1.2127
  572TMC3    C7 8490   3.913   0.148  17.636 -0.5242 -0.3082  0.4961
  572TMC3    C8 8491   3.612   4.667  17.301  0.1068  0.1862  0.1579
  572TMC3    O1 8492   3.808   0.187   0.016  0.2368 -0.6055 -0.2884
  572TMC3    O2 8493   3.603   4.582  17.211  0.6660 -0.1138  0.0603
  573MPD2     C 8494   0.367   0.616  17.628  0.0316  0.3553 -0.4215
  573MPD2    C1 8495   0.323   0.729   0.019  0.9486 -0.2202  0.4663
  573MPD2    C2 8496   0.276   0.834  17.618  0.0604 -0.1357 -0.1518
  573MPD2    C3 8497   0.263   0.825  17.480  0.1263  0.2016 -0.1366
  573MPD2    C4 8498   0.303   0.712  17.415  0.3991 -0.3414 -0.5003
  573MPD2    C5 8499   0.356   0.612  17.494  0.6038 -0.2080 -0.3078
  573MPD2     H 8500   0.261   0.933  17.660 -1.5834 -0.6939  0.5465
  573MPD2    H1 8501   0.295   0.695  17.309  1.4946  0.9207 -0.7771
  573MPD2    H2 8502   0.410   0.531   0.007  0.1730 -0.2292 -1.4887
  573MPD2    H3 8503   0.377   0.521  17.439 -0.6535  0.1403 -1.3501
  573MPD2     N 8504   0.216   0.928  17.392  0.3006 -0.0234  0.3380
  573MPD2    H5 8505   0.204   0.905  17.293  1.7893  4.3819 -0.8666
  573MPD2    N1 8506   0.328   0.734   0.158 -0.7136 -0.4370  0.4012
  573MPD2    H7 8507   0.341   0.643   0.202 -1.0666 -0.5002  0.3714
  574TMC3    C1 8508   0.093   1.113  17.339  0.0997 -0.7635 -0.6653
  574TMC3    C2 8509   0.002   1.203  17.374 -0.0770  0.0108  0.0210
  574TMC3    C3 8510   4.670   1.288  17.279 -0.2501  0.2972  0.6991
  574TMC3    C4 8511   0.140   1.106  17.213  0.2117  0.1674 -0.2862
  574TMC3    C5 8512   0.097   1.197  17.118 -0.0312 -0.2115  0.4161
  574TMC3    C6 8513   4.717   1.291  17.151  0.4459 -0.5109  0.3111
  574TMC3     C 8514   0.157   1.038  17.444 -0.6396 -1.0289 -0.1590
  574TMC3     O 8515   0.157   1.092  17.552  0.4492 -0.1908 -0.0201
  574TMC3     H 8516   4.684   1.208  17.476  1.3935 -0.4420  0.5582
  574TMC3    H1 8517   0.232   1.055  17.185 -0.4803 -0.9679 -0.4863
  574TMC3    H2 8518   4.686   1.369  17.082 -0.6372 -1.5801 -0.4079
  574TMC3    C7 8519   0.158   1.211  16.985  0.4282  0.2526  0.6322
  574TMC3    C8 8520   4.579   1.393  17.327  0.7965  0.4336 -0.8861
  574TMC3    O1 8521   0.190   1.322  16.947 -0.1629 -0.0997  0.0601
  574TMC3    O2 8522   4.533   1.384  17.444  0.5831 -0.1860 -0.1335
  575TMC3    C1 8523   2.468   0.742   9.512  0.6735  0.0254 -0.0877
  575TMC3    C2 8524   2.385   0.634   9.534 -0.2047  0.1599 -0.1819
  575TMC3    C3 8525   2.246   0.636   9.524 -0.0101  0.1457 -0.0043
  575TMC3    C4 8526   2.413   0.859   9.467  0.5181 -0.2845 -0.0659
  575TMC3    C5 8527   2.279   0.869   9.466  0.6805  0.4530  0.4277
  575TMC3    C6 8528   2.192   0.760   9.491  0.5558 -0.5629  0.6678
  575TMC3     C 8529   2.607   0.732   9.550 -0.0632 -0.0212  0.2716
  575TMC3     O 8530   2.647   0.631   9.598 -0.0337 -0.5126  0.7497
  575TMC3     H 8531   2.441   0.546   9.564  0.4379  0.1867 -1.2737
  575TMC3    H1 8532   2.464   0.954   9.475  1.6655 -0.9842  0.7740
  575TMC3    H2 8533   2.086   0.755   9.469  0.6158 -1.1220  0.5039
  575TMC3    C7 8534   2.217   0.992   9.401  0.2244  0.7317 -0.1892
  575TMC3    C8 8535   2.162   0.520   9.530 -0.6702 -0.5597  0.1765
  575TMC3    O1 8536   2.296   1.072   9.353 -0.5154 -0.4742  0.2376
  575TMC3    O2 8537   2.046   0.528   9.496 -0.0267  0.5887  0.1910
  576MPD2     C 8538   1.773   2.666  12.699 -0.0023  0.3296 -0.3154
  576MPD2    C1 8539   1.845   2.745  12.612  0.0677  0.4430  0.3576
  576MPD2    C2 8540   1.884   2.869  12.652 -0.4745 -0.6714  0.3832
  576MPD2    C3 8541   1.870   2.905  12.789  0.1387  0.4358  0.2401
  576MPD2    C4 8542   1.801   2.823  12.878 -1.2325 -0.2388 -0.1238
  576MPD2    C5 8543   1.754   2.703  12.833 -0.0161  0.5094 -0.0023
  576MPD2     H 8544   1.937   2.943  12.594 -0.3922 -0.1641  1.1116
  576MPD2    H1 8545   1.778   2.844  12.982  1.1610  1.5704  0.0393
  576MPD2    H2 8546   1.743   2.566  12.668  0.3349  0.0581  0.2316
  576MPD2    H3 8547   1.696   2.641  12.900 -1.5188  2.8915  0.9027
  576MPD2     N 8548   1.926   3.025  12.841  0.2645  0.2380  0.3469
  576MPD2    H5 8549   1.963   3.087  12.768  2.2992  0.9177  1.9532
  576MPD2    N1 8550   1.862   2.701  12.479  0.2103 -0.0939  0.5715
  576MPD2    H7 8551   1.894   2.772  12.413 -2.6394  1.2480  0.6031
  577TMC3    C1 8552   1.931   2.566  12.301 -0.4548  0.3855  1.2324
  577TMC3    C2 8553   2.024   2.470  12.268 -0.6950  0.7144  0.3415
  577TMC3    C3 8554   2.107   2.495  12.161 -0.1820  0.1805 -0.4184
  577TMC3    C4 8555   1.905   2.666  12.209 -0.4136  0.4452  0.2594
  577TMC3    C5 8556   1.981   2.680  12.102 -0.8903 -0.8316  0.5676
  577TMC3    C6 8557   2.091   2.607  12.078  0.2556  1.3395  0.0570
  577TMC3     C 8558   1.864   2.569  12.432 -0.9883 -0.2009  0.8669
  577TMC3     O 8559   1.866   2.469  12.500 -0.1571  0.1805  0.2936
  577TMC3     H 8560   2.054   2.399  12.344  1.3229  0.7052 -0.4464
  577TMC3    H1 8561   1.816   2.727  12.205 -0.3320  0.4725 -1.0381
  577TMC3    H2 8562   2.161   2.620  11.997  0.6899 -0.2590  0.1610
  577TMC3    C7 8563   1.915   2.721  11.981 -0.0238  0.0049  0.0007
  577TMC3    C8 8564   2.214   2.397  12.131 -0.1565  0.3307  0.1215
  577TMC3    O1 8565   1.971   2.812  11.921  0.1016 -0.4339  0.1536
  577TMC3    O2 8566   2.262   2.338  12.224  0.1397  0.2487 -0.3310
  578MPD2     C 8567   0.725   3.203   1.411 -0.2341 -0.1120 -0.2929
  578MPD2    C1 8568   0.833   3.127   1.382 -0.1591  0.2406  0.3310
  578MPD2    C2 8569   0.858   3.029   1.476  0.6909 -0.6675 -0.3732
  578MPD2    C3 8570   0.792   3.006   1.591  0.8360 -0.0216 -0.0843
  578MPD2    C4 8571   0.684   3.087   1.611 -0.3996 -0.9383  0.4596
  578MPD2    C5 8572   0.649   3.185   1.522  0.6599 -0.0689  0.1481
  578MPD2     H 8573   0.950   2.971   1.473  0.6321 -0.8023  0.4752
  578MPD2    H1 8574   0.627   3.079   1.703  1.5179 -0.3367  1.6987
  578MPD2    H2 8575   0.690   3.280   1.343 -0.8855 -1.0536 -1.0311
  578MPD2    H3 8576   0.557   3.242   1.531  0.7047 -0.1721  1.2669
  578MPD2     N 8577   0.842   2.901   1.668  0.1729 -0.0405 -0.4961
  578MPD2    H5 8578   0.924   2.849   1.638  2.1639  1.4718  2.2277
  578MPD2    N1 8579   0.895   3.134   1.254  0.3903 -0.3502 -0.1074
  578MPD2    H7 8580   0.880   3.213   1.192 -1.3874 -0.8991 -0.3763
  579TMC3    C1 8581   0.836   2.737   1.833 -0.4793  0.3674 -1.2164
  579TMC3    C2 8582   0.853   2.738   1.967  0.6096 -0.6763 -0.1044
  579TMC3    C3 8583   0.958   2.667   2.009  0.4484 -0.0612  0.0926
  579TMC3    C4 8584   0.895   2.651   1.742  0.3873 -0.4850  0.5473
  579TMC3    C5 8585   0.995   2.575   1.797  0.9021 -0.2162 -0.3772
  579TMC3    C6 8586   1.025   2.579   1.932 -1.0657 -0.3969 -0.2113
  579TMC3     C 8587   0.782   2.859   1.777  0.2110 -0.2976 -0.1911
  579TMC3     O 8588   0.706   2.924   1.846  0.2950 -0.1500  0.4433
  579TMC3     H 8589   0.797   2.800   2.036  0.1281  1.5722 -2.5148
  579TMC3    H1 8590   0.872   2.646   1.636  0.5356  0.4569  0.4689
  579TMC3    H2 8591   1.108   2.520   1.968  0.7620  2.3335  0.0254
  579TMC3    C7 8592   1.060   2.469   1.717 -0.1625  0.6327  0.1360
  579TMC3    C8 8593   1.015   2.701   2.141 -0.8829  0.0472  0.1182
  579TMC3    O1 8594   1.153   2.412   1.775  0.0820  0.0542  0.3228
  579TMC3    O2 8595   0.933   2.740   2.219  0.2247 -0.5082 -0.4053
  580TMC3    C1 8596   4.534   1.914  12.031 -0.4539  0.2329  0.3098
  580TMC3    C2 8597   4.497   1.889  11.901  0.1244  0.0263  0.2563
  580TMC3    C3 8598   4.565   1.797  11.823  0.2858  0.3043 -0.4740
  580TMC3    C4 8599   4.602   1.812  12.099 -0.1790 -0.5284 -0.6962
  580TMC3    C5 8600   4.653   1.711  12.022 -1.0141 -0.3159  1.2177
  580TMC3    C6 8601   4.642   1.700  11.893  0.0731 -0.6467 -0.4809
  580TMC3     C 8602   4.596   2.043  12.052 -0.0979  0.0727  0.6718
  580TMC3     O 8603   4.639   2.066  12.169 -0.4067  0.7926 -0.4723
  580TMC3     H 8604   4.419   1.947  11.853 -2.1405 -2.9012  0.4154
  580TMC3    H1 8605   4.627   1.824  12.204  1.0847  0.4327 -1.1139
  580TMC3    H2 8606   4.686   1.620  11.835 -0.6595 -0.7496 -0.9066
  580TMC3    C7 8607   0.034   1.626  12.090 -1.0776 -0.2381 -0.5277
  580TMC3    C8 8608   4.610   1.854  11.702 -0.3669  0.2954  0.1814
  580TMC3    O1 8609   0.100   1.673  12.177  0.7234 -0.3511 -0.0336
  580TMC3    O2 8610   4.553   1.957  11.665 -0.6255  0.2312 -0.5808
  581MPD2     C 8611   3.411   1.998  15.140 -0.0813  0.2136 -0.5562
  581MPD2    C1 8612   3.313   1.905  15.125 -0.1628 -0.2713  0.6474
  581MPD2    C2 8613   3.199   1.931  15.048  0.2383 -0.2382 -0.0408
  581MPD2    C3 8614   3.178   2.053  14.994 -0.0306  0.4231  0.6755
  581MPD2    C4 8615   3.277   2.146  15.008  0.3080 -0.2246 -0.4650
  581MPD2    C5 8616   3.395   2.113  15.076 -0.3710 -0.2530 -0.2320
  581MPD2     H 8617   3.127   1.850  15.043  0.5686 -0.6718  2.2248
  581MPD2    H1 8618   3.273   2.247  14.968  0.4340 -0.5937 -1.4176
  581MPD2    H2 8619   3.502   1.978  15.195 -0.4644  1.9767  0.7059
  581MPD2    H3 8620   3.469   2.189  15.096 -2.7437  1.6523  1.3224
  581MPD2     N 8621   3.060   2.076  14.924  0.2039 -0.2256 -0.1161
  581MPD2    H5 8622   2.998   2.002  14.896  0.7294 -1.1029  1.0269
  581MPD2    N1 8623   3.342   1.779  15.186 -0.1330 -0.0743  0.4535
  581MPD2    H7 8624   3.423   1.771  15.247 -0.4923 -0.8382  0.8334
  582TMC3    C1 8625   3.334   1.558  15.257 -0.2117  0.3935  0.1436
  582TMC3    C2 8626   3.357   1.584  15.388 -0.1848 -0.6327  0.1075
  582TMC3    C3 8627   3.355   1.486  15.481 -0.5892 -0.5021  0.0175
  582TMC3    C4 8628   3.300   1.435  15.219  0.5718 -0.0632 -0.3281
  582TMC3    C5 8629   3.283   1.333  15.309 -0.0745 -0.2412 -0.2972
  582TMC3    C6 8630   3.321   1.357  15.437  0.0279 -0.1165  1.0309
  582TMC3     C 8631   3.267   1.662  15.177 -0.2843 -0.3512  0.6522
  582TMC3     O 8632   3.176   1.633  15.095  0.8191 -0.1137 -0.0173
  582TMC3     H 8633   3.382   1.680  15.431 -2.2192 -0.3943  0.7743
  582TMC3    H1 8634   3.264   1.417  15.118 -2.1820  1.9193  0.3080
  582TMC3    H2 8635   3.302   1.282  15.513 -3.0609 -0.0282  0.3714
  582TMC3    C7 8636   3.145   1.292  15.313  0.3661 -0.3972 -0.3546
  582TMC3    C8 8637   3.330   1.523  15.621 -0.7932  0.0151  0.2279
  582TMC3    O1 8638   3.109   1.204  15.392 -0.1019  0.3859  0.6227
  582TMC3    O2 8639   3.270   1.630  15.650 -0.3562  0.1984  0.2199
  583MPD2     C 8640   2.984   3.291  16.699 -0.2960  0.3115 -0.4996
  583MPD2    C1 8641   2.992   3.410  16.626 -0.2421 -0.1170  0.1505
  583MPD2    C2 8642   2.955   3.525  16.690  0.1062  0.2528  0.3368
  583MPD2    C3 8643   2.923   3.537  16.824  0.7240 -0.0040 -0.1658
  583MPD2    C4 8644   2.922   3.416  16.892 -1.2548  0.0488 -0.2893
  583MPD2    C5 8645   2.953   3.301  16.828  0.0021 -0.1321 -0.2738
  583MPD2     H 8646   2.944   3.606  16.620  1.0844  0.4379  0.3907
  583MPD2    H1 8647   2.888   3.403  16.994 -0.8914  1.2166 -0.0203
  583MPD2    H2 8648   3.004   3.192  16.659  3.3340  0.1928  1.6229
  583MPD2    H3 8649   2.952   3.212  16.890 -1.5123  0.7054  0.8787
  583MPD2     N 8650   2.891   3.661  16.883  0.4079  0.1732  0.2003
  583MPD2    H5 8651   2.863   3.739  16.825  1.6004  0.2650 -0.2422
  583MPD2    N1 8652   3.027   3.414  16.496  0.4586 -0.1699 -0.8576
  583MPD2    H7 8653   3.010   3.497  16.441  0.0503  0.5113  0.2983
  584TMC3    C1 8654   2.896   3.820  17.066 -0.1042  0.3742  0.0274
  584TMC3    C2 8655   2.901   3.927  16.980 -0.1438 -0.8704  0.2606
  584TMC3    C3 8656   2.937   4.052  17.016 -0.2956 -0.2911 -0.4405
  584TMC3    C4 8657   2.944   3.846  17.192 -0.9119  0.1037 -0.1857
  584TMC3    C5 8658   2.996   3.971  17.223 -0.7485 -0.0847  0.8997
  584TMC3    C6 8659   2.983   4.080  17.141  0.3239  0.0739 -0.3797
  584TMC3     C 8660   2.902   3.682  17.022  0.3158  0.3719  0.2155
  584TMC3     O 8661   2.935   3.608  17.115 -0.0272 -0.1746 -0.1878
  584TMC3     H 8662   2.886   3.913  16.874 -1.3258  1.7270  0.0812
  584TMC3    H1 8663   2.956   3.765  17.262 -0.8030 -0.7405 -1.1780
  584TMC3    H2 8664   3.040   4.167  17.173  0.3239 -0.7790  1.9801
  584TMC3    C7 8665   2.990   3.992  17.365  0.2292  0.8751  0.1111
  584TMC3    C8 8666   2.986   4.140  16.912  0.2369 -0.0161 -0.1801
  584TMC3    O1 8667   3.004   3.895  17.436 -0.4460 -0.0088 -1.0298
  584TMC3    O2 8668   2.981   4.096  16.802 -0.2910  0.2355 -0.6095
  585MPD2     C 8669   1.799   2.421   1.062 -0.5630  0.1808  0.3476
  585MPD2    C1 8670   1.933   2.447   1.033  0.3422  0.2966 -0.5520
  585MPD2    C2 8671   1.982   2.405   0.911  0.1169 -0.2592  0.3035
  585MPD2    C3 8672   1.899   2.365   0.805 -0.4646  0.9367  0.1024
  585MPD2    C4 8673   1.768   2.347   0.840 -0.0929 -0.7808  0.0632
  585MPD2    C5 8674   1.721   2.375   0.965  0.0948 -0.2778 -0.1761
  585MPD2     H 8675   2.088   2.425   0.899 -0.4591  1.1389 -2.3972
  585MPD2    H1 8676   1.689   2.333   0.768  0.1570  2.4305 -0.8385
  585MPD2    H2 8677   1.760   2.447   1.159 -2.1968  0.7764 -0.4702
  585MPD2    H3 8678   1.613   2.371   0.977  0.0004  1.2583 -0.4987
  585MPD2     N 8679   1.941   2.350   0.670  0.1998 -0.5443  0.6199
  585MPD2    H5 8680   1.874   2.315   0.602  1.8318  1.0458 -1.8346
  585MPD2    N1 8681   2.003   2.530   1.125 -0.0148 -0.5117  0.2239
  585MPD2    H7 8682   1.946   2.584   1.190 -0.1178  1.2359 -1.3297
  586TMC3    C1 8683   2.057   2.393   0.471 -0.3463 -0.2374 -0.3760
  586TMC3    C2 8684   2.174   2.398   0.406  0.1321 -0.0366  0.4201
  586TMC3    C3 8685   2.176   2.431   0.271 -0.3184 -0.5091 -0.9614
  586TMC3    C4 8686   1.932   2.420   0.404 -0.3332 -0.6900  0.2235
  586TMC3    C5 8687   1.938   2.433   0.273  0.5038 -0.4447 -0.0118
  586TMC3    C6 8688   2.057   2.441   0.199  0.2992 -0.9500  0.0651
  586TMC3     C 8689   2.064   2.384   0.615 -0.0327  0.0750  0.1915
  586TMC3     O 8690   2.166   2.412   0.675 -0.4182  0.2842  0.2013
  586TMC3     H 8691   2.262   2.402   0.469  0.3130  1.7289  0.0646
  586TMC3    H1 8692   1.835   2.406   0.450 -0.8173 -0.3055 -0.6869
  586TMC3    H2 8693   2.065   2.455   0.092  0.7469  2.9102  0.6060
  586TMC3    C7 8694   1.812   2.398   0.206 -0.0088  0.1069 -0.0892
  586TMC3    C8 8695   2.300   2.385   0.203 -0.7125 -0.1670  0.2923
  586TMC3    O1 8696   1.740   2.315   0.255  0.4324  0.1344 -0.0386
  586TMC3    O2 8697   2.406   2.402   0.261  0.2663  0.5629  0.1620
  587TMC3    C1 8698   0.011   0.989  16.429  0.9910 -0.7426  0.3161
  587TMC3    C2 8699   0.020   1.123  16.434  0.0034 -0.5059 -0.1840
  587TMC3    C3 8700   0.109   1.181  16.345 -0.2841  0.2250 -0.2721
  587TMC3    C4 8701   0.094   0.906  16.361 -0.6060  0.2374 -0.2511
  587TMC3    C5 8702   0.185   0.970  16.281 -0.0392 -0.1380 -0.1471
  587TMC3    C6 8703   0.189   1.107  16.259  0.0987  0.0530  0.2258
  587TMC3     C 8704   4.637   0.923  16.512 -0.1994  0.3266 -0.5283
  587TMC3     O 8705   4.670   0.816  16.561  0.6094 -0.0290  0.1716
  587TMC3     H 8706   4.659   1.184  16.478  1.6905  0.7783  1.0140
  587TMC3    H1 8707   0.073   0.800  16.366 -0.6840  0.1309 -2.7907
  587TMC3    H2 8708   0.264   1.158  16.199 -2.3750  1.7652 -1.3947
  587TMC3    C7 8709   0.298   0.894  16.228  0.1007 -0.1734 -0.0444
  587TMC3    C8 8710   0.100   1.319  16.306  0.9591 -0.9384 -0.4359
  587TMC3    O1 8711   0.374   0.936  16.144  0.1733  0.2738 -0.3425
  587TMC3    O2 8712   0.152   1.348  16.199  0.5236  0.0438 -0.4075
  588TMC3    C1 8713   1.858   3.415   9.721 -0.2256  0.1620 -0.5681
  588TMC3    C2 8714   1.865   3.288   9.684 -0.3808  0.5317 -0.3995
  588TMC3    C3 8715   1.960   3.200   9.735  0.6393 -0.5193 -0.2810
  588TMC3    C4 8716   1.955   3.461   9.813  0.3340 -0.6827 -0.1642
  588TMC3    C5 8717   2.048   3.372   9.867 -0.3370  0.0715 -1.2115
  588TMC3    C6 8718   2.043   3.238   9.838  0.1110 -0.3971 -1.1111
  588TMC3     C 8719   1.770   3.515   9.653  0.2480 -0.3728  0.2186
  588TMC3     O 8720   1.766   3.508   9.528 -0.0783 -0.2172 -0.4725
  588TMC3     H 8721   1.785   3.259   9.616  0.2917  1.4601 -1.5838
  588TMC3    H1 8722   1.959   3.567   9.838  0.0674 -0.8934  0.7985
  588TMC3    H2 8723   2.109   3.170   9.891 -2.0525 -2.0700 -0.5131
  588TMC3    C7 8724   2.105   3.397   9.990 -0.3854  0.1863 -0.2504
  588TMC3    C8 8725   1.965   3.074   9.680  0.4714  0.4561 -0.0628
  588TMC3    O1 8726   2.199   3.331  10.033  0.6891  0.2064 -0.9716
  588TMC3    O2 8727   1.912   3.062   9.571  0.0049 -0.1268 -0.1638
  589TMC3    C1 8728   1.038   1.580   1.859 -0.5206 -0.1179 -0.2812
  589TMC3    C2 8729   1.158   1.540   1.908 -0.4551 -0.2979 -0.9189
  589TMC3    C3 8730   1.226   1.439   1.840 -0.1797 -0.8081  0.0707
  589TMC3    C4 8731   0.979   1.517   1.751 -0.5055  0.2746  0.6206
  589TMC3    C5 8732   1.049   1.429   1.682 -0.4667 -0.9423  0.0401
  589TMC3    C6 8733   1.171   1.383   1.725  0.2917  0.0093  0.4062
  589TMC3     C 8734   0.952   1.679   1.927 -0.2602  0.6669 -0.3526
  589TMC3     O 8735   0.834   1.657   1.912  0.0937 -0.1118 -0.1484
  589TMC3     H 8736   1.211   1.580   1.993 -0.4727 -0.4539 -0.8356
  589TMC3    H1 8737   0.884   1.550   1.710  0.2110  1.9058  0.2834
  589TMC3    H2 8738   1.201   1.286   1.685 -1.6261  0.0870 -1.2383
  589TMC3    C7 8739   1.010   1.389   1.550 -0.4122  0.3041  0.1377
  589TMC3    C8 8740   1.328   1.362   1.913 -0.0116 -0.6351  0.2282
  589TMC3    O1 8741   1.103   1.352   1.485  0.0167 -0.3841 -0.9878
  589TMC3    O2 8742   1.330   1.379   2.037 -0.3586 -0.3662  0.2569
  590MPD2     C 8743   0.872   4.209  16.697 -0.4447 -0.3452  0.6755
  590MPD2    C1 8744   0.845   4.308  16.606 -0.4166 -0.6193  0.0965
  590MPD2    C2 8745   0.948   4.377  16.551  0.2627 -0.0904  0.5873
  590MPD2    C3 8746   1.077   4.346  16.583  0.4287  0.0291 -0.0452
  590MPD2    C4 8747   1.107   4.243  16.668  0.1979 -0.2214 -0.2326
  590MPD2    C5 8748   1.005   4.166  16.720  0.5467 -0.5659 -0.1242
  590MPD2     H 8749   0.930   4.459  16.482  1.7697  0.1491  0.4786
  590MPD2    H1 8750   1.208   4.222  16.701 -1.0591 -2.5465  2.1590
  590MPD2    H2 8751   0.795   4.154  16.749 -1.4709 -0.1091 -0.6008
  590MPD2    H3 8752   1.023   4.088  16.792 -0.3081 -1.0853 -0.4699
  590MPD2     N 8753   1.170   4.425  16.510  0.5397  0.5361 -0.0038
  590MPD2    H5 8754   1.135   4.491  16.442  1.2915 -0.0832 -0.9854
  590MPD2    N1 8755   0.711   4.322  16.565 -0.2818 -0.3020 -1.3559
  590MPD2    H7 8756   0.643   4.272  16.621  1.0589  2.9044  3.1731
  591TMC3    C1 8757   1.346   4.460  16.367 -0.5120 -0.5594 -0.1785
  591TMC3    C2 8758   1.440   4.389  16.290 -0.3656  0.5008 -0.1505
  591TMC3    C3 8759   1.461   4.429  16.162  0.2847  0.1187  0.4462
  591TMC3    C4 8760   1.276   4.560  16.317 -0.1570  0.3934  0.9391
  591TMC3    C5 8761   1.311   4.606  16.188 -0.0436  0.7965 -0.1206
  591TMC3    C6 8762   1.407   4.545  16.116 -1.1279 -0.2995  1.1775
  591TMC3     C 8763   1.300   4.388  16.482  0.4862 -0.2180 -0.4740
  591TMC3     O 8764   1.363   4.288  16.529 -0.6129 -0.4754  0.3432
  591TMC3     H 8765   1.475   4.300  16.340  1.2571  0.6981 -0.9248
  591TMC3    H1 8766   1.200   4.610  16.376 -0.9820 -1.6969  1.6449
  591TMC3    H2 8767   1.430   4.577  16.015 -1.9692  0.1311  1.1181
  591TMC3    C7 8768   1.195   4.653  16.114 -0.4496  0.1186  0.4405
  591TMC3    C8 8769   1.517   4.325  16.076  0.6512 -0.0044  0.4417
  591TMC3    O1 8770   1.088   4.624  16.164 -0.1531  0.1282 -0.1027
  591TMC3    O2 8771   1.585   4.240  16.132  0.3319  0.2446  0.1221
  592MPD2     C 8772   1.086   1.512  10.930  0.8021 -0.7266 -1.0420
  592MPD2    C1 8773   1.144   1.505  11.053 -1.0318  1.2405 -0.0021
  592MPD2    C2 8774   1.117   1.397  11.138  0.7495  0.1063 -1.3374
  592MPD2    C3 8775   1.026   1.303  11.106 -0.4174 -0.0508  0.4293
  592MPD2    C4 8776   0.966   1.305  10.984  1.0329  0.4662 -0.3143
  592MPD2    C5 8777   1.001   1.407  10.897 -0.2063 -0.7908 -0.1362
  592MPD2     H 8778   1.173   1.389  11.230 -1.0536 -1.2357 -0.3627
  592MPD2    H1 8779   0.896   1.232  10.945  1.1538  1.3496 -2.1335
  592MPD2    H2 8780   1.098   1.593  10.860 -1.2579  0.2478 -0.2372
  592MPD2    H3 8781   0.951   1.412  10.801  1.7306  0.5028 -1.0787
  592MPD2     N 8782   1.005   1.214  11.206  0.3994 -0.3902 -0.1421
  592MPD2    H5 8783   1.046   1.244  11.294  1.4621 -1.3854 -0.3093
  592MPD2    N1 8784   1.228   1.620  11.084  0.2710  0.7826  0.1184
  592MPD2    H7 8785   1.235   1.688  11.008  1.5337  0.7771  0.2268
  593TMC3    C1 8786   1.358   1.768  11.208  0.3067 -0.0523  0.2957
  593TMC3    C2 8787   1.370   1.837  11.321  0.3869 -0.1646  0.1247
  593TMC3    C3 8788   1.476   1.928  11.328 -0.1009  0.3991  0.5468
  593TMC3    C4 8789   1.461   1.762  11.114  0.0984 -0.7242 -0.1620
  593TMC3    C5 8790   1.562   1.855  11.118  0.0671 -0.3245  0.3784
  593TMC3    C6 8791   1.566   1.945  11.222  0.6237 -0.3256  1.0616
  593TMC3     C 8792   1.272   1.652  11.213 -0.4727  0.2971  0.2125
  593TMC3     O 8793   1.234   1.604  11.320  0.4992  0.0413  0.1137
  593TMC3     H 8794   1.293   1.837  11.398  1.0508 -1.3366  0.7879
  593TMC3    H1 8795   1.453   1.696  11.029  3.5200 -0.4498 -0.7180
  593TMC3    H2 8796   1.642   2.022  11.225 -1.0409  1.3860 -0.7508
  593TMC3    C7 8797   1.641   1.884  11.000  0.3726 -0.6041  0.0414
  593TMC3    C8 8798   1.484   2.008  11.445  0.5037 -0.0600  1.0664
  593TMC3    O1 8799   1.744   1.941  11.028  1.3053  0.4899 -0.7073
  593TMC3    O2 8800   1.378   2.046  11.487 -0.3147 -0.5734  0.3215
  594MPD2     C 8801   0.234   0.216  13.765 -0.2004 -0.1880 -0.2806
  594MPD2    C1 8802   0.237   0.237  13.900 -0.6789  0.8966  0.9538
  594MPD2    C2 8803   0.319   0.333  13.954 -0.0548  0.6978 -0.1948
  594MPD2    C3 8804   0.383   0.423  13.871  0.2775  0.4091  0.0053
  594MPD2    C4 8805   0.380   0.401  13.734  0.4042  0.1462  0.2445
  594MPD2    C5 8806   0.301   0.303  13.686  0.2105 -0.6562 -0.2992
  594MPD2     H 8807   0.318   0.343  14.062 -0.6876  0.5027 -0.1814
  594MPD2    H1 8808   0.421   0.470  13.661  0.5641 -0.5757 -0.3372
  594MPD2    H2 8809   0.165   0.144  13.722 -1.4476  1.8406 -1.7071
  594MPD2    H3 8810   0.292   0.297  13.578 -1.3897  1.8451 -0.3044
  594MPD2     N 8811   0.450   0.531  13.929  0.1142 -0.8172  0.2228
  594MPD2    H5 8812   0.460   0.528  14.030 -1.9879  0.2153  0.4626
  594MPD2    N1 8813   0.155   0.156  13.986  0.3070  1.2431 -0.2123
  594MPD2    H7 8814   0.098   0.089  13.935  0.2021  1.5461 -0.4991
  595TMC3    C1 8815   0.679   0.920  14.002 -0.4479 -0.3179 -0.0802
  595TMC3    C2 8816   0.649   0.822  13.924 -0.4809  0.3937  0.3796
  595TMC3    C3 8817   0.537   0.752  13.954  0.0772  0.1402  0.5464
  595TMC3    C4 8818   0.623   0.939  14.127  0.0968 -0.0762 -0.2077
  595TMC3    C5 8819   0.515   0.867  14.161  0.6420 -0.4170  0.0587
  595TMC3    C6 8820   0.466   0.782  14.064  0.0830  0.2758  0.0572
  595TMC3     C 8821   0.789   1.000  13.950  0.3979 -0.0897 -0.1589
  595TMC3     O 8822   0.800   1.000  13.830  0.8166  0.1939  0.2426
  595TMC3     H 8823   0.716   0.794  13.844 -0.5138  2.7088 -0.4514
  595TMC3    H1 8824   0.656   1.027  14.182  3.0630 -0.4335 -1.4271
  595TMC3    H2 8825   0.373   0.732  14.089 -1.0054  1.5180 -1.4939
  595TMC3    C7 8826   0.448   0.919  14.278 -0.1724 -0.5689  0.1379
  595TMC3    C8 8827   0.496   0.641  13.860 -0.6659 -0.1920 -0.5049
  595TMC3    O1 8828   0.331   0.945  14.269  0.3062  0.1052  0.4581
  595TMC3    O2 8829   0.550   0.647  13.751 -0.5231 -0.2387 -0.2348
  596MPD2     C 8830   3.739   3.128  16.844  0.3279 -0.0835  0.5180
  596MPD2    C1 8831   3.702   3.210  16.739 -0.7474  0.2347  1.5055
  596MPD2    C2 8832   3.708   3.159  16.603  0.5160  0.1538  0.6488
  596MPD2    C3 8833   3.749   3.032  16.568 -0.1281  0.0976 -0.2508
  596MPD2    C4 8834   3.785   2.951  16.675 -0.1574 -0.0336 -0.0720
  596MPD2    C5 8835   3.778   2.999  16.802  0.2502  0.8038 -0.4332
  596MPD2     H 8836   3.697   3.239  16.531  2.4133 -0.1279  0.0611
  596MPD2    H1 8837   3.811   2.847  16.660  0.8243  0.6013 -2.7813
  596MPD2    H2 8838   3.727   3.158  16.947 -1.9545 -0.9723  0.5071
  596MPD2    H3 8839   3.813   2.927  16.875 -0.3639 -0.4013 -1.3126
  596MPD2     N 8840   3.757   2.995  16.432 -0.3097 -0.1146 -0.0244
  596MPD2    H5 8841   3.770   2.898  16.403 -1.2063  1.3286 -5.2121
  596MPD2    N1 8842   3.673   3.349  16.757 -0.3553 -0.2698  0.5002
  596MPD2    H7 8843   3.663   3.405  16.673 -2.4563  0.1638  1.0544
  597TMC3    C1 8844   3.631   3.556  16.846  0.5702  0.0967  0.3822
  597TMC3    C2 8845   3.674   3.625  16.737  0.3132 -0.0642 -0.9621
  597TMC3    C3 8846   3.663   3.759  16.737  0.2135 -0.7611 -0.0501
  597TMC3    C4 8847   3.563   3.618  16.946  0.0889 -0.2296  0.1416
  597TMC3    C5 8848   3.540   3.756  16.930 -0.5269  0.6070  0.2059
  597TMC3    C6 8849   3.588   3.830  16.828  0.5631  1.3089  0.7121
  597TMC3     C 8850   3.655   3.415  16.878 -0.4491 -0.0520  0.3934
  597TMC3     O 8851   3.646   3.374  16.994 -0.2903  0.2701 -0.2685
  597TMC3     H 8852   3.730   3.573  16.660  0.4144 -1.0489 -0.2188
  597TMC3    H1 8853   3.499   3.561  17.012 -0.5107  2.0378  1.5376
  597TMC3    H2 8854   3.600   3.938  16.829  0.6257  1.3135 -0.5609
  597TMC3    C7 8855   3.460   3.819  17.027 -0.3869  0.2815 -0.1588
  597TMC3    C8 8856   3.738   3.838  16.641 -0.4042 -0.1643 -0.2465
  597TMC3    O1 8857   3.415   3.747  17.115  0.0002  0.1618 -0.2341
  597TMC3    O2 8858   3.709   3.956  16.624 -0.3628 -0.0959  0.4915
  598TMC3    C1 8859   1.772   0.462  15.244  0.2669 -0.0774  0.6607
  598TMC3    C2 8860   1.682   0.354  15.260  0.7726  0.9912  0.1838
  598TMC3    C3 8861   1.732   0.233  15.226 -0.0384 -0.3565 -0.4762
  598TMC3    C4 8862   1.898   0.447  15.199 -0.3447  0.2910 -0.1581
  598TMC3    C5 8863   1.935   0.318  15.159 -0.6389 -0.2332 -0.2603
  598TMC3    C6 8864   1.857   0.214  15.170  0.3130  0.4348 -0.8553
  598TMC3     C 8865   1.750   0.574  15.330 -0.2084  0.0142 -0.4858
  598TMC3     O 8866   1.686   0.556  15.435 -0.0952  0.1852 -0.0276
  598TMC3     H 8867   1.579   0.367  15.290  1.5242  1.6675  2.4824
  598TMC3    H1 8868   1.963   0.533  15.184  0.5630 -0.4516 -0.5226
  598TMC3    H2 8869   1.891   0.113  15.150  1.2883  0.1749  2.1685
  598TMC3    C7 8870   2.076   0.294  15.124  0.0527 -0.0692  0.1552
  598TMC3    C8 8871   1.633   0.125  15.225 -0.0888  0.7187  0.1326
  598TMC3    O1 8872   2.093   0.205  15.046  0.6734  0.5281  0.0628
  598TMC3    O2 8873   1.517   0.158  15.249 -0.7148  0.4046 -0.2547
  599MPD2     C 8874   2.344   2.674  15.937  1.0138  0.2556 -0.1920
  599MPD2    C1 8875   2.302   2.546  15.938  0.3967  0.4728 -0.5512
  599MPD2    C2 8876   2.165   2.526  15.948  0.3702  0.6422  0.1058
  599MPD2    C3 8877   2.075   2.632  15.948  0.4142  0.2923 -0.5953
  599MPD2    C4 8878   2.130   2.756  15.944 -0.8559 -0.5550 -0.2574
  599MPD2    C5 8879   2.264   2.780  15.929 -0.0452 -0.0293  0.7663
  599MPD2     H 8880   2.120   2.428  15.938  0.5450  0.8464 -2.7250
  599MPD2    H1 8881   2.066   2.844  15.943 -0.2775 -0.1276  0.7200
  599MPD2    H2 8882   2.452   2.683  15.929  0.9343  0.3912 -1.1644
  599MPD2    H3 8883   2.314   2.876  15.931 -0.7536  0.3786 -0.7391
  599MPD2     N 8884   1.942   2.618  15.991 -0.7211 -0.4809 -0.0864
  599MPD2    H5 8885   1.892   2.702  16.021  0.0563 -0.4922  1.2484
  599MPD2    N1 8886   2.400   2.445  15.929  0.2259  0.6172  0.2601
  599MPD2    H7 8887   2.492   2.488  15.928  0.4042  0.2457  0.6757
  600TMC3    C1 8888   1.762   2.532  16.107 -0.2683  0.3205 -0.4141
  600TMC3    C2 8889   1.669   2.434  16.127  0.1716  0.3122 -0.5242
  600TMC3    C3 8890   1.568   2.465  16.217 -0.1432  0.3805 -0.4780
  600TMC3    C4 8891   1.763   2.649  16.183  0.0269 -0.0493  0.6413
  600TMC3    C5 8892   1.668   2.664  16.284 -0.7294  0.7283  0.0893
  600TMC3    C6 8893   1.569   2.572  16.294  0.2727 -0.2064  0.1568
  600TMC3     C 8894   1.872   2.503  16.016  0.2662  0.5027 -0.1628
  600TMC3     O 8895   1.892   2.390  15.975 -0.4293  0.1864 -0.2535
  600TMC3     H 8896   1.682   2.353  16.057 -0.0754 -0.5615  0.4438
  600TMC3    H1 8897   1.845   2.719  16.173 -0.9270  0.9372 -0.2000
  600TMC3    H2 8898   1.490   2.575  16.368  0.8214 -0.5273  0.7565
  600TMC3    C7 8899   1.678   2.777  16.380  0.9156  0.7172  0.3630
  600TMC3    C8 8900   1.488   2.349  16.254  0.0535  0.0401 -0.5629
  600TMC3    O1 8901   1.579   2.798  16.445  0.0937 -0.3881  0.8230
  600TMC3    O2 8902   1.372   2.371  16.295  0.1568 -0.4215  0.1617
  601MPD2     C 8903   4.192   0.472   0.239  0.0357 -0.3677 -0.1131
  601MPD2    C1 8904   4.056   0.458   0.219  0.8062 -0.0762 -0.5507
  601MPD2    C2 8905   4.009   0.363   0.133 -0.6828  0.2840 -0.3380
  601MPD2    C3 8906   4.093   0.273   0.077  0.5699 -0.4400 -0.5565
  601MPD2    C4 8907   4.233   0.280   0.097 -0.7028 -0.2975 -0.0486
  601MPD2    C5 8908   4.274   0.386   0.174  0.1000 -0.6602 -0.0452
  601MPD2     H 8909   3.903   0.376   0.111 -1.2939 -0.7470  2.0165
  601MPD2    H1 8910   4.292   0.211   0.037  0.4738 -0.5977  1.4692
  601MPD2    H2 8911   4.235   0.548   0.303 -2.1931  0.8339 -0.0463
  601MPD2    H3 8912   4.381   0.400   0.190  0.3664  0.1298 -2.4205
  601MPD2     N 8913   4.045   0.165  17.665  0.4450  0.3498 -0.1826
  601MPD2    H5 8914   4.115   0.105  17.623 -0.5337  1.5540 -3.4683
  601MPD2    N1 8915   3.965   0.551   0.266  0.2302  0.1293  1.4467
  601MPD2    H7 8916   3.872   0.547   0.227  0.8812 -1.6124  0.0952
  602TMC3    C1 8917   3.856   0.722   0.388  0.0338  0.7713  0.0074
  602TMC3    C2 8918   3.859   0.857   0.393  1.0287  0.4374  0.2928
  602TMC3    C3 8919   3.748   0.922   0.375 -0.6239  0.0423 -0.0554
  602TMC3    C4 8920   3.743   0.655   0.363  0.0331 -0.2621 -0.3338
  602TMC3    C5 8921   3.629   0.728   0.360  0.0286  0.0457 -0.5577
  602TMC3    C6 8922   3.627   0.866   0.350 -0.3404 -0.5750 -0.5180
  602TMC3     C 8923   3.983   0.655   0.360 -0.2235 -0.6108  0.3027
  602TMC3     O 8924   4.086   0.698   0.405  0.3331  0.0407 -0.0228
  602TMC3     H 8925   3.948   0.917   0.409  1.5805 -0.5261  0.8314
  602TMC3    H1 8926   3.747   0.546   0.370 -0.4854 -0.1914  1.1396
  602TMC3    H2 8927   3.533   0.912   0.377 -0.4198 -0.6542 -0.6592
  602TMC3    C7 8928   3.504   0.664   0.302 -0.1461 -0.5462  0.4936
  602TMC3    C8 8929   3.767   1.057   0.321  0.0750  0.3122 -0.9119
  602TMC3    O1 8930   3.520   0.548   0.276  0.0004 -0.1414  0.1689
  602TMC3    O2 8931   3.885   1.092   0.306  0.3017 -0.6046 -0.2610
  603TMC3    C1 8932   1.832   1.131  10.986  0.0647  0.6544 -0.5438
  603TMC3    C2 8933   1.902   1.093  11.096 -0.1936  0.5583  0.1636
  603TMC3    C3 8934   2.028   1.146  11.108 -0.5823  0.4283  0.5173
  603TMC3    C4 8935   1.894   1.197  10.877  0.2287 -0.5515 -0.2916
  603TMC3    C5 8936   2.022   1.231  10.896  0.2486 -0.3033 -0.0997
  603TMC3    C6 8937   2.089   1.223  11.015 -0.1727  0.1206  0.8268
  603TMC3     C 8938   1.689   1.130  10.982  0.0903 -0.6879  0.8301
  603TMC3     O 8939   1.636   1.104  11.089 -0.2500  0.3297  0.1372
  603TMC3     H 8940   1.850   1.038  11.175  1.2917 -0.1437  0.6542
  603TMC3    H1 8941   1.837   1.255  10.805  0.1498  1.1648  1.1572
  603TMC3    H2 8942   2.197   1.229  11.018 -0.0546 -1.7041  0.5349
  603TMC3    C7 8943   2.092   1.287  10.783 -0.1453  0.0016 -0.3134
  603TMC3    C8 8944   2.071   1.143  11.241 -0.4610  0.4763 -0.2210
  603TMC3    O1 8945   2.197   1.342  10.809  0.3279 -0.5872  0.1832
  603TMC3    O2 8946   2.039   1.048  11.313  0.3394 -0.4007 -0.4934
  604MPD2     C 8947   2.939   4.009  16.077  0.4595  0.0291 -0.2075
  604MPD2    C1 8948   2.915   4.130  16.017  0.6246  0.4717  0.4409
  604MPD2    C2 8949   2.980   4.154  15.897  1.2447 -0.7157 -0.1589
  604MPD2    C3 8950   3.071   4.071  15.835  0.5016  0.2286 -0.4187
  604MPD2    C4 8951   3.095   3.950  15.907 -0.0394 -0.5881 -0.4740
  604MPD2    C5 8952   3.025   3.925  16.019  0.6808  0.3335 -0.2455
  604MPD2     H 8953   2.953   4.239  15.835  2.3500 -1.3265 -1.4828
  604MPD2    H1 8954   3.164   3.873  15.872 -0.3636 -0.5645 -1.1523
  604MPD2    H2 8955   2.877   3.988  16.163  0.9699 -0.9177 -0.0746
  604MPD2    H3 8956   3.044   3.825  16.056  2.6534  0.8780  0.2044
  604MPD2     N 8957   3.139   4.103  15.715 -0.1808  0.0070 -0.0114
  604MPD2    H5 8958   3.104   4.184  15.666 -1.3294 -0.8654 -0.6300
  604MPD2    N1 8959   2.819   4.207  16.076  0.0827  0.1674 -0.3637
  604MPD2    H7 8960   2.796   4.185  16.172  2.2319 -1.4043 -0.2086
  605TMC3    C1 8961   2.685   4.376  16.141 -0.7412  0.0597 -0.0728
  605TMC3    C2 8962   2.747   4.407  16.254  0.2554 -0.3306 -0.1663
  605TMC3    C3 8963   2.682   4.486  16.340  0.0676  0.4440  0.3395
  605TMC3    C4 8964   2.563   4.426  16.101 -0.1085 -0.4352  1.2963
  605TMC3    C5 8965   2.505   4.519  16.189 -0.4805  0.5686  0.7051
  605TMC3    C6 8966   2.562   4.541  16.312  0.0722  0.1560 -0.5911
  605TMC3     C 8967   2.761   4.321  16.034 -0.4496 -0.3380  0.4107
  605TMC3     O 8968   2.739   4.354  15.919 -0.3823  0.4294 -0.2082
  605TMC3     H 8969   2.848   4.370  16.267 -0.8138 -2.5499  1.7394
  605TMC3    H1 8970   2.518   4.392  16.008  0.0258 -0.4480  1.2354
  605TMC3    H2 8971   2.503   4.596  16.384 -0.0809 -2.6052  1.4251
  605TMC3    C7 8972   2.377   4.584  16.157  0.3101  0.3484  0.5292
  605TMC3    C8 8973   2.773   4.570  16.414  0.2649 -0.0239  1.2033
  605TMC3    O1 8974   2.358   4.685  16.219 -0.6139  0.1313 -0.2451
  605TMC3    O2 8975   2.893   4.534  16.411  0.3058  1.0868 -0.3529
  606TMC3    C1 8976   4.494   3.021  16.911 -0.3535  0.6635 -0.6493
  606TMC3    C2 8977   4.555   2.993  17.031 -0.3819  0.6769 -0.0590
  606TMC3    C3 8978   4.489   2.915  17.116 -0.4304 -0.2112 -0.3589
  606TMC3    C4 8979   4.367   2.986  16.890  0.4255  0.0390  0.2415
  606TMC3    C5 8980   4.300   2.909  16.986  0.2379 -0.1998  0.0137
  606TMC3    C6 8981   4.363   2.872  17.099  0.2451 -0.8259  0.0565
  606TMC3     C 8982   4.567   3.096  16.811 -0.5826  0.9727  1.1100
  606TMC3     O 8983   4.677   3.140  16.850 -0.0680 -0.4983 -0.0960
  606TMC3     H 8984   4.653   3.035  17.052 -0.6013  2.6702 -2.9657
  606TMC3    H1 8985   4.311   3.012  16.801  0.7422 -0.6947 -0.1782
  606TMC3    H2 8986   4.316   2.818  17.181  1.6322 -0.4575  1.0916
  606TMC3    C7 8987   4.163   2.862  16.957  0.7440 -0.0768 -0.7335
  606TMC3    C8 8988   4.527   2.943  17.257  0.8203  1.0093  0.3615
  606TMC3    O1 8989   4.128   2.884  16.844 -0.2550  0.4298  0.3464
  606TMC3    O2 8990   4.588   3.051  17.274  0.1276 -0.0421  0.3801
  607MPD2     C 8991   1.291   0.819  11.611 -0.3055 -0.3283  0.7581
  607MPD2    C1 8992   1.304   0.944  11.672  0.1941 -0.2833 -0.8034
  607MPD2    C2 8993   1.280   0.952  11.804  0.6233 -0.4698 -0.1851
  607MPD2    C3 8994   1.250   0.842  11.877 -0.7021 -0.3056  0.6309
  607MPD2    C4 8995   1.229   0.720  11.814  0.0921  0.3259  0.1657
  607MPD2    C5 8996   1.262   0.708  11.682  0.2298 -0.7535  0.7167
  607MPD2     H 8997   1.292   1.050  11.850 -0.0424  0.8525 -2.8225
  607MPD2    H1 8998   1.186   0.631  11.860  0.0570  0.2300 -0.0489
  607MPD2    H2 8999   1.304   0.807  11.504 -2.0352  0.4781  0.4542
  607MPD2    H3 9000   1.249   0.615  11.627 -2.5851  0.7106 -1.1244
  607MPD2     N 9001   1.216   0.868  12.010  0.8629  0.1450 -0.3597
  607MPD2    H5 9002   1.228   0.966  12.035  0.5454 -0.0446  0.5343
  607MPD2    N1 9003   1.333   1.066  11.607 -0.3754  0.4888  0.1850
  607MPD2    H7 9004   1.343   1.141  11.674 -0.2558 -1.5235  2.4400
  608TMC3    C1 9005   1.335   1.231  11.439 -0.0452  0.5779 -1.0727
  608TMC3    C2 9006   1.341   1.311  11.548  0.4775  0.2309 -0.2243
  608TMC3    C3 9007   1.422   1.424  11.543 -0.0841  0.3076 -0.6876
  608TMC3    C4 9008   1.395   1.264  11.321  0.2163  0.1319  0.5701
  608TMC3    C5 9009   1.473   1.369  11.323 -0.6171  0.0288  0.1420
  608TMC3    C6 9010   1.487   1.459  11.428  1.1767 -0.0591 -0.1421
  608TMC3     C 9011   1.313   1.090  11.476 -0.5904 -0.6751 -0.3044
  608TMC3     O 9012   1.280   1.017  11.385 -0.2024 -0.6151  0.5296
  608TMC3     H 9013   1.280   1.289  11.635 -1.8879  1.4555 -1.5738
  608TMC3    H1 9014   1.376   1.206  11.232  2.4968  1.5526 -0.8273
  608TMC3    H2 9015   1.544   1.550  11.417 -0.3323  0.8997 -0.0320
  608TMC3    C7 9016   1.563   1.395  11.214 -1.0594  0.2060 -1.0154
  608TMC3    C8 9017   1.448   1.509  11.655  0.2791 -0.0181 -0.3246
  608TMC3    O1 9018   1.509   1.386  11.106 -0.2785  0.0159  0.3322
  608TMC3    O2 9019   1.477   1.626  11.637 -0.4012  0.3698  0.2011
  609TMC3    C1 9020   3.771   3.754   8.713 -0.5424 -0.1903 -0.5903
  609TMC3    C2 9021   3.786   3.739   8.580 -0.2342 -0.4370  1.0338
  609TMC3    C3 9022   3.875   3.828   8.516  0.3783  0.0714  0.0267
  609TMC3    C4 9023   3.834   3.857   8.786 -0.4904 -0.3397  0.2239
  609TMC3    C5 9024   3.915   3.941   8.717 -0.0329 -0.5549 -0.3485
  609TMC3    C6 9025   3.941   3.927   8.580  0.2910 -0.0770 -0.2746
  609TMC3     C 9026   3.680   3.675   8.789 -1.2390 -0.1223  0.5638
  609TMC3     O 9027   3.665   3.699   8.908  0.1609 -0.4027  0.8171
  609TMC3     H 9028   3.729   3.666   8.524  0.0381  1.3574 -1.5995
  609TMC3    H1 9029   3.827   3.867   8.894  0.9922  2.0503  0.1216
  609TMC3    H2 9030   4.015   3.983   8.525  2.1963 -0.2684  2.0879
  609TMC3    C7 9031   4.000   4.031   8.797  0.3918  0.5880  0.3414
  609TMC3    C8 9032   3.886   3.832   8.371  0.0463 -0.5438  1.1689
  609TMC3    O1 9033   4.019   3.998   8.915  0.0107  0.0319  0.0698
  609TMC3    O2 9034   3.979   3.900   8.322  0.5908  0.3542  0.1382
  610TMC3    C1 9035   1.502   1.004  13.075 -0.0719  0.6060  0.8275
  610TMC3    C2 9036   1.489   1.132  13.120 -0.8080 -0.6000 -0.1581
  610TMC3    C3 9037   1.560   1.166  13.226  0.1058 -0.2750  0.8447
  610TMC3    C4 9038   1.580   0.901  13.134  0.0148  0.1764 -0.3888
  610TMC3    C5 9039   1.657   0.951  13.238  0.4956 -0.0807  0.7172
  610TMC3    C6 9040   1.643   1.078  13.288 -0.8362 -0.2407 -0.5637
  610TMC3     C 9041   1.424   0.975  12.959  0.1601  0.0698  0.0249
  610TMC3     O 9042   1.313   1.022  12.944  1.0534  0.3173 -0.0167
  610TMC3     H 9043   1.443   1.204  13.053  3.0828 -0.3569 -2.5856
  610TMC3    H1 9044   1.574   0.794  13.116  1.2810 -0.4420  2.6864
  610TMC3    H2 9045   1.691   1.107  13.381 -2.9924 -0.9915  0.7775
  610TMC3    C7 9046   1.767   0.868  13.278  0.1227  0.3663  0.5769
  610TMC3    C8 9047   1.560   1.298  13.287  0.0917  0.2042 -0.7772
  610TMC3    O1 9048   1.759   0.748  13.275 -0.4236  0.3834 -0.1307
  610TMC3    O2 9049   1.644   1.328  13.368  0.1997  0.0672 -0.2621
  611MPD2     C 9050   1.464   0.790   9.879 -0.4855 -0.4584  0.6114
  611MPD2    C1 9051   1.384   0.896   9.848  0.5775 -0.1528  0.5512
  611MPD2    C2 9052   1.436   1.025   9.852 -0.0719 -0.0213 -0.6860
  611MPD2    C3 9053   1.572   1.050   9.887 -0.3603  0.0791 -0.4952
  611MPD2    C4 9054   1.650   0.937   9.906 -0.0247  0.4209  0.3854
  611MPD2    C5 9055   1.597   0.815   9.913  0.6062  0.2238  0.3601
  611MPD2     H 9056   1.368   1.109   9.849 -0.4782 -0.3796 -1.3867
  611MPD2    H1 9057   1.755   0.941   9.934 -0.0660  0.7414  0.4920
  611MPD2    H2 9058   1.408   0.697   9.883 -1.0178 -0.1125  1.0131
  611MPD2    H3 9059   1.656   0.728   9.940 -0.0204 -0.6280 -0.9814
  611MPD2     N 9060   1.631   1.173   9.916  0.5761  0.1513 -0.6689
  611MPD2    H5 9061   1.724   1.178   9.956  0.9595 -1.3873 -1.3687
  611MPD2    N1 9062   1.252   0.868   9.820 -0.0179  0.0829  0.2018
  611MPD2    H7 9063   1.217   0.773   9.829 -0.7158  0.3164 -0.0600
  612TMC3    C1 9064   1.663   1.399   9.916  0.4369  0.3473 -0.6492
  612TMC3    C2 9065   1.769   1.384  10.001  0.4829 -0.4803 -0.4576
  612TMC3    C3 9066   1.875   1.470   9.992 -0.6495 -0.2655 -0.0681
  612TMC3    C4 9067   1.642   1.513   9.838 -0.5475  0.0063  0.5742
  612TMC3    C5 9068   1.745   1.602   9.847 -0.2581 -0.5203 -0.7266
  612TMC3    C6 9069   1.856   1.590   9.928  0.5339 -0.7157 -0.2845
  612TMC3     C 9070   1.563   1.291   9.910 -0.2712 -0.0642  0.1521
  612TMC3     O 9071   1.460   1.319   9.851 -0.3262  0.2488 -0.1641
  612TMC3     H 9072   1.784   1.295  10.060 -1.9189  0.0790  1.0271
  612TMC3    H1 9073   1.566   1.521   9.760  1.4486  0.3852 -1.3286
  612TMC3    H2 9074   1.938   1.661   9.924 -2.5600  2.9359  1.1345
  612TMC3    C7 9075   1.769   1.705   9.746 -0.3428 -0.4613  0.5365
  612TMC3    C8 9076   1.985   1.463  10.082  0.1302  0.0331  0.5937
  612TMC3    O1 9077   1.839   1.798   9.790  0.1326 -0.7220 -0.0301
  612TMC3    O2 9078   2.077   1.538  10.060  0.2220 -0.3668 -0.1504
  613MPD2     C 9079   0.944   3.124  16.464  0.0633 -0.1000  0.5509
  613MPD2    C1 9080   0.862   3.187  16.371 -0.0281  0.2250 -0.0169
  613MPD2    C2 9081   0.789   3.110  16.279 -0.0470 -0.2297  0.1746
  613MPD2    C3 9082   0.789   2.972  16.291  0.7139 -0.0901 -0.2624
  613MPD2    C4 9083   0.856   2.915  16.394 -0.3207  0.7651  0.4749
  613MPD2    C5 9084   0.932   2.994  16.475  0.3237  0.4996 -1.1573
  613MPD2     H 9085   0.725   3.167  16.213  0.2398  0.1774  0.2462
  613MPD2    H1 9086   0.854   2.808  16.412  0.1692  0.9437  1.5982
  613MPD2    H2 9087   1.007   3.172  16.538 -2.2138  0.8966  1.8700
  613MPD2    H3 9088   0.979   2.940  16.557  1.1537  0.5980 -1.5749
  613MPD2     N 9089   0.719   2.879  16.208 -0.2775 -0.0081  0.1234
  613MPD2    H5 9090   0.738   2.780  16.221  1.2673  0.3182  0.3508
  613MPD2    N1 9091   0.859   3.333  16.372 -1.2182  0.0173 -0.1590
  613MPD2    H7 9092   0.922   3.383  16.434 -0.4286 -2.0947  0.7334
  614TMC3    C1 9093   0.772   3.404  16.166 -0.6706  0.6781 -0.6891
  614TMC3    C2 9094   0.871   3.348  16.085  0.1545 -0.6396  0.4029
  614TMC3    C3 9095   0.844   3.335  15.951  0.3026 -0.0510  0.1183
  614TMC3    C4 9096   0.675   3.471  16.111  0.9678  0.2149  0.4149
  614TMC3    C5 9097   0.643   3.462  15.973  0.8376  0.4396  0.1345
  614TMC3    C6 9098   0.725   3.384  15.891 -0.3295 -0.0227  0.5784
  614TMC3     C 9099   0.779   3.419  16.304  0.2367  0.4752  0.2789
  614TMC3     O 9100   0.719   3.513  16.353 -0.2810  0.0297 -0.2565
  614TMC3     H 9101   0.956   3.306  16.138  2.2867 -0.4338 -2.7961
  614TMC3    H1 9102   0.597   3.524  16.165  1.2768  1.9185 -0.8308
  614TMC3    H2 9103   0.696   3.364  15.789  0.6512  0.0564  0.2854
  614TMC3    C7 9104   0.512   3.510  15.935  0.7812 -0.4923  0.0463
  614TMC3    C8 9105   0.905   3.216  15.893  0.0197 -0.4211  0.7728
  614TMC3    O1 9106   0.445   3.577  16.012 -0.7586  0.4541 -0.2411
  614TMC3    O2 9107   0.934   3.120  15.964  0.4099  0.0022 -0.6127
  615MPD2     C 9108   4.587   0.238  16.084 -0.8362 -0.2819  0.6232
  615MPD2    C1 9109   4.576   0.135  16.181  0.4281 -0.4241 -0.2135
  615MPD2    C2 9110   4.554   0.007  16.138  0.5508  0.0976  0.1927
  615MPD2    C3 9111   4.560   4.685  16.008 -0.9506  0.4907  0.1891
  615MPD2    C4 9112   4.578   0.060  15.910 -0.6793 -0.0256  0.0218
  615MPD2    C5 9113   4.596   0.192  15.955  0.1984 -0.0375 -0.1545
  615MPD2     H 9114   4.545   4.645  16.212 -0.6446  1.7472  1.7952
  615MPD2    H1 9115   4.583   0.041  15.803  1.2788 -0.8038  0.2479
  615MPD2    H2 9116   4.616   0.340  16.103  2.7244 -1.0338 -0.6854
  615MPD2    H3 9117   4.608   0.271  15.881  2.5164 -0.7577 -0.5589
  615MPD2     N 9118   4.559   4.548  15.963  0.3643 -0.8084  0.2744
  615MPD2    H5 9119   4.585   4.534  15.865  0.8063  1.1637  0.1047
  615MPD2    N1 9120   4.567   0.157  16.323 -0.4996  0.4139 -0.5535
  615MPD2    H7 9121   4.559   0.080  16.388  0.2894  0.5936 -0.2437
  616TMC3    C1 9122   4.543   0.285  16.517 -0.3263  0.1720  0.3129
  616TMC3    C2 9123   4.664   0.241  16.559 -0.2028 -0.3388 -0.9110
  616TMC3    C3 9124   4.700   0.277  16.687 -0.1714 -0.0823  0.2232
  616TMC3    C4 9125   4.466   0.372  16.593 -0.3085 -0.5832  0.0415
  616TMC3    C5 9126   4.519   0.406  16.714 -0.3926 -0.0307 -0.1889
  616TMC3    C6 9127   4.636   0.359  16.765  0.4625  0.5940 -0.4206
  616TMC3     C 9128   4.521   0.279  16.374 -0.5981  0.2364 -0.1007
  616TMC3     O 9129   4.461   0.371  16.315  0.2201  0.0158 -0.1072
  616TMC3     H 9130   0.000   0.180  16.488  1.1881 -0.8531  0.5844
  616TMC3    H1 9131   4.374   0.413  16.553 -0.5203 -0.2553  0.8544
  616TMC3    H2 9132   4.682   0.401  16.854  1.8824  0.9298 -1.3102
  616TMC3    C7 9133   4.426   0.457  16.818 -0.4166  0.1055  0.3509
  616TMC3    C8 9134   0.086   0.208  16.754  0.0817 -1.2962 -0.3840
  616TMC3    O1 9135   4.484   0.482  16.924  0.2566 -0.0562 -0.2160
  616TMC3    O2 9136   0.080   0.197  16.877 -0.1973  0.6781  0.1793
  617MPD2     C 9137   2.386   2.527  13.362  0.1209  0.6738  0.0561
  617MPD2    C1 9138   2.398   2.628  13.460 -0.0921  0.5484 -0.3769
  617MPD2    C2 9139   2.330   2.616  13.577  0.0779 -0.4889 -0.0817
  617MPD2    C3 9140   2.242   2.512  13.599 -0.4217  0.6895 -0.2549
  617MPD2    C4 9141   2.207   2.427  13.491 -0.0568  0.0828 -0.2162
  617MPD2    C5 9142   2.291   2.425  13.380 -0.6311  0.0734 -0.3880
  617MPD2     H 9143   2.343   2.694  13.651 -2.2632 -0.0816 -0.1105
  617MPD2    H1 9144   2.136   2.347  13.511  2.6737 -2.5252 -0.9609
  617MPD2    H2 9145   2.438   2.529  13.267 -0.6389 -0.3283 -0.3835
  617MPD2    H3 9146   2.274   2.346  13.307 -0.2137 -0.8544  0.5245
  617MPD2     N 9147   2.182   2.488  13.723  0.4859  1.0643 -0.2925
  617MPD2    H5 9148   2.105   2.423  13.717  0.1569  1.4330 -0.0492
  617MPD2    N1 9149   2.494   2.731  13.437  0.3870 -0.3407  0.6552
  617MPD2    H7 9150   2.556   2.705  13.361  0.2795 -0.4914  0.6195
  618TMC3    C1 9151   2.652   2.897  13.476 -0.0359 -0.1328  0.0576
  618TMC3    C2 9152   2.769   2.880  13.553 -0.2969  0.7809  0.3407
  618TMC3    C3 9153   2.895   2.871  13.501 -0.3619 -0.1116 -0.1552
  618TMC3    C4 9154   2.668   2.888  13.340  0.0244  0.3726  0.3122
  618TMC3    C5 9155   2.786   2.854  13.287  0.5044  0.3707 -0.0660
  618TMC3    C6 9156   2.903   2.860  13.359  0.2959  0.0792  0.5582
  618TMC3     C 9157   2.527   2.836  13.517 -0.0458  0.3546 -0.1847
  618TMC3     O 9158   2.472   2.882  13.613 -0.7638  0.2779 -0.1675
  618TMC3     H 9159   2.757   2.864  13.660 -0.1208  2.1726  0.5680
  618TMC3    H1 9160   2.582   2.898  13.276 -0.7705 -2.3552  0.9518
  618TMC3    H2 9161   2.998   2.853  13.309 -0.7779  1.8154 -1.7228
  618TMC3    C7 9162   2.770   2.762  13.175 -0.1266  0.5684  0.1750
  618TMC3    C8 9163   2.998   2.934  13.578  0.5168  0.3060 -0.4533
  618TMC3    O1 9164   2.657   2.724  13.157 -0.6949  0.0274 -0.1257
  618TMC3    O2 9165   2.957   3.008  13.666 -0.0129  0.0673 -0.4457
  619MPD2     C 9166   4.565   4.250  13.383  0.2258 -0.3235  0.2970
  619MPD2    C1 9167   4.486   4.349  13.332 -0.9887 -0.2236  0.6358
  619MPD2    C2 9168   4.349   4.339  13.345  0.7795 -0.1359 -0.0010
  619MPD2    C3 9169   4.288   4.227  13.399  0.0749 -0.8634 -0.8940
  619MPD2    C4 9170   4.371   4.126  13.444 -0.3657  0.1281 -0.4600
  619MPD2    C5 9171   4.509   4.144  13.436 -0.5278  0.0375  0.0623
  619MPD2     H 9172   4.292   4.428  13.323 -1.0862 -1.4786 -0.5544
  619MPD2    H1 9173   4.320   4.040  13.485 -1.6903  1.2731  0.3080
  619MPD2    H2 9174   4.672   4.259  13.364 -0.2379 -0.8723 -2.6211
  619MPD2    H3 9175   4.577   4.066  13.471 -0.1115  1.3667  2.1979
  619MPD2     N 9176   4.153   4.213  13.415 -0.3616  0.2539 -0.0654
  619MPD2    H5 9177   4.121   4.135  13.472  2.0858  0.5482  1.6877
  619MPD2    N1 9178   4.547   4.458  13.266  0.0372 -0.2615  0.4944
  619MPD2    H7 9179   4.648   4.464  13.277 -0.0626  1.8527  0.2797
  620TMC3    C1 9180   4.568   4.679  13.190  0.1380 -0.9288 -0.1852
  620TMC3    C2 9181   4.509   0.057  13.106 -0.3801  0.6522  0.0504
  620TMC3    C3 9182   4.520   0.190  13.129  0.3732 -0.2113 -0.6586
  620TMC3    C4 9183   4.639   0.006  13.299 -0.2653 -0.5369 -0.4632
  620TMC3    C5 9184   4.658   0.138  13.317 -0.8563  0.5196  0.3304
  620TMC3    C6 9185   4.604   0.228  13.227  0.1749  0.1666  0.2008
  620TMC3     C 9186   4.479   4.568  13.216  0.7705  0.2187  0.5198
  620TMC3     O 9187   4.359   4.593  13.200  0.1925  0.0033 -0.6073
  620TMC3     H 9188   4.435   0.025  13.033 -2.6258  1.0466  2.1481
  620TMC3    H1 9189   4.684   4.648  13.362 -0.5269 -0.3300 -0.0308
  620TMC3    H2 9190   4.620   0.334  13.246  1.0417 -0.2228  1.6724
  620TMC3    C7 9191   4.656   0.177  13.460  0.4454  0.6683  0.4493
  620TMC3    C8 9192   4.390   0.255  13.135  0.4553  0.3966  0.0698
  620TMC3    O1 9193   4.717   0.118  13.547 -0.3496 -0.0646 -0.5404
  620TMC3    O2 9194   4.364   0.312  13.238 -0.3113  0.0288 -0.7552
  621MPD2     C 9195   3.810   3.699   9.983  0.2900  0.2457 -0.3111
  621MPD2    C1 9196   3.918   3.690   9.900  0.6245  0.1075 -0.8259
  621MPD2    C2 9197   3.896   3.743   9.767 -0.4858  0.3731  0.4339
  621MPD2    C3 9198   3.782   3.816   9.733  0.2622  0.2474  1.0416
  621MPD2    C4 9199   3.691   3.841   9.827  0.1061  0.0628  0.0594
  621MPD2    C5 9200   3.710   3.786   9.953 -0.1250  0.4328 -0.0156
  621MPD2     H 9201   3.967   3.739   9.684 -0.7479  2.8363  0.0940
  621MPD2    H1 9202   3.596   3.893   9.817 -0.4076 -1.0321 -0.6670
  621MPD2    H2 9203   3.812   3.650  10.080 -1.2301  2.6209  0.9016
  621MPD2    H3 9204   3.646   3.813  10.036 -0.8331  1.8170 -1.0161
  621MPD2     N 9205   3.762   3.863   9.595 -0.0380  0.1232 -0.4196
  621MPD2    H5 9206   3.837   3.834   9.533 -0.7130  0.0636 -1.1987
  621MPD2    N1 9207   4.036   3.612   9.925  0.0956 -0.8391  0.1707
  621MPD2    H7 9208   4.098   3.608   9.844 -1.0768 -0.4360 -0.7579
  622TMC3    C1 9209   4.195   3.469  10.046 -0.2513  0.1566  0.3981
  622TMC3    C2 9210   4.222   3.384  10.153 -0.0611  0.2729 -0.3353
  622TMC3    C3 9211   4.353   3.331  10.152  0.0136  0.1182 -0.1926
  622TMC3    C4 9212   4.293   3.509   9.953  0.2529  0.0295  0.1735
  622TMC3    C5 9213   4.411   3.441   9.956  0.1787 -0.3229  0.4144
  622TMC3    C6 9214   4.441   3.355  10.053 -0.1289  1.3011  0.1722
  622TMC3     C 9215   4.066   3.534  10.034 -0.1602 -0.4744  0.1654
  622TMC3     O 9216   3.983   3.498  10.116  0.2060  0.2753 -0.3092
  622TMC3     H 9217   4.149   3.368  10.231 -0.5592  0.0241 -0.8453
  622TMC3    H1 9218   4.276   3.597   9.892  0.2300 -0.2866 -0.2836
  622TMC3    H2 9219   4.535   3.300  10.054 -0.8745  0.0359 -0.2864
  622TMC3    C7 9220   4.516   3.479   9.857  0.0764  0.3667 -0.4957
  622TMC3    C8 9221   4.382   3.215  10.231  0.0027  0.1169 -0.3589
  622TMC3    O1 9222   4.628   3.437   9.879 -0.1152 -0.2782 -0.4739
  622TMC3    O2 9223   4.500   3.205  10.264  0.2731 -0.0970 -0.1448
  623MPD2     C 9224   3.085   0.105  15.775  0.1297  0.0775  0.2011
  623MPD2    C1 9225   3.018   0.094  15.894  0.0160 -1.0548  0.0915
  623MPD2    C2 9226   3.091   0.119  16.011  0.5586  0.4049 -0.1177
  623MPD2    C3 9227   3.217   0.173  16.006  0.6282  0.5356 -0.1920
  623MPD2    C4 9228   3.280   0.188  15.888  0.2226 -0.5787 -0.7561
  623MPD2    C5 9229   3.212   0.154  15.774  0.0520 -0.2164  0.0255
  623MPD2     H 9230   3.040   0.123  16.106  0.8410 -1.0553  0.0914
  623MPD2    H1 9231   3.382   0.224  15.875 -0.2204  0.4800 -1.2017
  623MPD2    H2 9232   3.034   0.072  15.685  1.1988 -1.3315  0.1199
  623MPD2    H3 9233   3.273   0.164  15.685 -1.5115 -3.0954 -1.3535
  623MPD2     N 9234   3.270   0.211  16.133  0.2457 -0.7745  0.2685
  623MPD2    H5 9235   3.211   0.191  16.213  0.4531  0.5738  0.7591
  623MPD2    N1 9236   2.879   0.051  15.900 -0.6807 -0.0699 -0.2441
  623MPD2    H7 9237   2.825   0.080  15.819 -1.3687  0.4650  0.4134
  624TMC3    C1 9238   3.537   0.233  16.489  0.6018  0.2983  0.2322
  624TMC3    C2 9239   3.431   0.214  16.565 -0.5098  0.5106 -0.3662
  624TMC3    C3 9240   3.313   0.233  16.500 -0.9546 -0.0795 -0.4021
  624TMC3    C4 9241   3.530   0.267  16.354 -0.4880  0.2222 -0.0778
  624TMC3    C5 9242   3.406   0.283  16.293  0.4860 -0.4785  0.8660
  624TMC3    C6 9243   3.294   0.263  16.365  0.1523  1.0346  0.2130
  624TMC3     C 9244   3.671   0.222  16.546  0.0818  0.5023  0.1169
  624TMC3     O 9245   3.675   0.199  16.668  0.1792  0.2886 -0.5939
  624TMC3     H 9246   3.434   0.215  16.673 -0.2005  0.3717 -0.3745
  624TMC3    H1 9247   3.612   0.283  16.286 -0.3802  0.3642  0.0867
  624TMC3    H2 9248   3.196   0.290  16.326 -0.7110 -1.6452  0.5578
  624TMC3    C7 9249   3.396   0.256  16.153  0.1855 -0.4114  0.2319
  624TMC3    C8 9250   3.214   0.146  16.552 -0.0027 -0.0636 -0.1219
  624TMC3    O1 9251   3.489   0.259  16.080  0.6468 -0.6308 -0.0595
  624TMC3    O2 9252   3.219   0.038  16.494 -0.1717 -0.2366 -0.1314
  625MPD2     C 9253   4.160   1.335   1.062  0.1772  0.8810 -0.1069
  625MPD2    C1 9254   4.141   1.404   0.946 -0.9106 -0.3314 -1.0884
  625MPD2    C2 9255   4.252   1.412   0.860  0.2119  0.3131  0.5363
  625MPD2    C3 9256   4.376   1.362   0.892  1.1794 -0.0759 -0.4414
  625MPD2    C4 9257   4.390   1.289   1.011 -0.3108 -0.0799  0.8451
  625MPD2    C5 9258   4.280   1.277   1.093 -0.2955  0.3489 -0.0361
  625MPD2     H 9259   4.244   1.461   0.763  1.4649 -2.3334 -0.9135
  625MPD2    H1 9260   4.480   1.236   1.042  0.2161  0.8309  0.8761
  625MPD2    H2 9261   4.077   1.321   1.130  0.4638  0.2294  0.1081
  625MPD2    H3 9262   4.280   1.213   1.181 -2.1939  0.6300  0.1726
  625MPD2     N 9263   4.486   1.388   0.806  0.7192 -0.2366  0.1491
  625MPD2    H5 9264   4.471   1.434   0.717 -1.8133 -0.2872  0.5672
  625MPD2    N1 9265   4.017   1.460   0.921 -0.4553  0.1457 -0.6187
  625MPD2    H7 9266   3.952   1.409   0.980 -1.0523  1.2104 -0.3618
  626TMC3    C1 9267   3.854   1.616   0.838  0.0956  0.1947  0.5832
  626TMC3    C2 9268   3.820   1.718   0.765 -0.0431  0.1803  0.2706
  626TMC3    C3 9269   3.693   1.760   0.764 -0.6188  0.3344  0.5854
  626TMC3    C4 9270   3.765   1.549   0.924  0.1560  0.7661  0.1277
  626TMC3    C5 9271   3.635   1.597   0.920 -0.4765  0.1416 -1.2031
  626TMC3    C6 9272   3.598   1.702   0.836  0.4586 -0.5279  0.4249
  626TMC3     C 9273   3.989   1.565   0.831 -0.0816 -0.1002  0.0554
  626TMC3     O 9274   4.058   1.620   0.745 -0.3304  0.0650 -0.0250
  626TMC3     H 9275   3.882   1.761   0.687 -2.1419 -0.8634 -1.9506
  626TMC3    H1 9276   3.786   1.454   0.972  0.8352  0.2678 -1.1547
  626TMC3    H2 9277   3.493   1.722   0.819  0.3783 -0.6318  0.7990
  626TMC3    C7 9278   3.533   1.525   0.990 -0.5163  0.0131 -0.1124
  626TMC3    C8 9279   3.658   1.836   0.641 -0.3609  1.2866  0.4696
  626TMC3    O1 9280   3.573   1.427   1.048  0.1038  0.3137  0.1702
  626TMC3    O2 9281   3.728   1.834   0.539 -0.1706  0.1892 -0.3881
  627MPD2     C 9282   2.817   1.649  14.541  0.4507 -0.2647  0.0581
  627MPD2    C1 9283   2.717   1.734  14.587  0.8717 -0.5693  0.5917
  627MPD2    C2 9284   2.588   1.675  14.584 -0.5748  0.7887  0.1902
  627MPD2    C3 9285   2.562   1.549  14.543 -0.0654  0.3978  0.8502
  627MPD2    C4 9286   2.672   1.469  14.509 -0.2867 -0.0112  0.2824
  627MPD2    C5 9287   2.795   1.518  14.505  0.1166 -0.8826 -0.6369
  627MPD2     H 9288   2.512   1.741  14.625 -1.5709 -0.1249 -0.1995
  627MPD2    H1 9289   2.662   1.363  14.488  3.4897 -0.0350 -1.3502
  627MPD2    H2 9290   2.920   1.683  14.538  0.0188  0.8960 -1.2811
  627MPD2    H3 9291   2.880   1.454  14.485  1.2529 -0.2367  2.0749
  627MPD2     N 9292   2.432   1.494  14.573  0.2480  1.1701  0.2864
  627MPD2    H5 9293   2.366   1.566  14.600  0.1637  0.2751  2.4893
  627MPD2    N1 9294   2.745   1.863  14.634  0.2137  0.0786  0.3609
  627MPD2    H7 9295   2.845   1.877  14.634  0.2156 -0.0366 -3.2947
  628TMC3    C1 9296   2.725   2.090  14.699 -0.5327 -0.2120  0.0232
  628TMC3    C2 9297   2.837   2.079  14.773  1.0397  0.6183 -0.0089
  628TMC3    C3 9298   2.890   2.200  14.819  0.2504 -0.2203  0.8491
  628TMC3    C4 9299   2.660   2.209  14.676  0.6898  0.2359  0.2804
  628TMC3    C5 9300   2.714   2.325  14.719 -0.4716  0.6614 -0.3368
  628TMC3    C6 9301   2.824   2.321  14.795  0.1020  0.9292  0.2317
  628TMC3     C 9302   2.660   1.968  14.649  0.1392  0.3637 -0.5841
  628TMC3     O 9303   2.550   1.978  14.600 -0.0573 -0.3231 -0.2592
  628TMC3     H 9304   2.887   1.982  14.773 -0.2601 -0.0370  1.5460
  628TMC3    H1 9305   2.554   2.200  14.655  0.9245  1.0048 -1.2752
  628TMC3    H2 9306   2.869   2.418  14.815  1.4753  0.2158  0.6247
  628TMC3    C7 9307   2.649   2.458  14.712 -0.9810  0.3063  0.2130
  628TMC3    C8 9308   3.006   2.202  14.902  0.8517  0.4657  0.5350
  628TMC3    O1 9309   2.662   2.533  14.808 -0.1515  0.2871 -0.6997
  628TMC3    O2 9310   3.044   2.308  14.945  0.7415 -0.0608  0.0132
  629MPD2     C 9311   0.513   4.651  16.776 -0.2924 -0.6640 -0.1800
  629MPD2    C1 9312   0.502   4.708  16.656  0.1199 -0.3340  0.6621
  629MPD2    C2 9313   0.384   0.053  16.620  0.3892 -0.3973 -0.3286
  629MPD2    C3 9314   0.277   0.069  16.710 -0.7160  0.2890  0.1422
  629MPD2    C4 9315   0.289   0.011  16.836  0.1724  0.3301 -0.1679
  629MPD2    C5 9316   0.405   4.662  16.862 -0.5863  0.0503  0.2859
  629MPD2     H 9317   0.374   0.081  16.516 -0.5153  0.5189 -0.0028
  629MPD2    H1 9318   0.221   0.019  16.921 -0.0208 -0.1037 -0.2851
  629MPD2    H2 9319   0.599   4.603  16.821 -0.9230 -2.2147 -0.6082
  629MPD2    H3 9320   0.419   4.614  16.958 -0.1143 -0.3075  0.0325
  629MPD2     N 9321   0.170   0.149  16.667 -0.1043 -0.1333  0.8012
  629MPD2    H5 9322   0.176   0.180  16.570 -2.3682 -1.1429  0.3412
  629MPD2    N1 9323   0.621   4.710  16.586 -0.3493  0.3008  0.0488
  629MPD2    H7 9324   0.700   4.688  16.646 -0.0737  1.0671 -0.0251
  630TMC3    C1 9325   0.771   0.053  16.419 -0.2372 -0.2416 -0.2010
  630TMC3    C2 9326   0.794   0.129  16.308  0.3436 -0.6325 -0.1950
  630TMC3    C3 9327   0.922   0.178  16.290  0.5219  0.2287 -0.4474
  630TMC3    C4 9328   0.871   0.026  16.508  0.1732 -0.5216  0.2379
  630TMC3    C5 9329   0.993   0.077  16.482  0.1611 -0.1768  0.3581
  630TMC3    C6 9330   1.023   0.150  16.372 -0.3576  0.6081  0.1157
  630TMC3     C 9331   0.637   0.039  16.462 -0.4123  0.4944 -0.5080
  630TMC3     O 9332   0.550   0.048  16.376 -0.2627 -0.1520  0.2412
  630TMC3     H 9333   0.715   0.157  16.239  0.1591 -1.4193 -0.2975
  630TMC3    H1 9334   0.849   4.703  16.607 -0.8276 -0.6575 -0.0407
  630TMC3    H2 9335   1.121   0.186  16.343  0.4759  0.6324  3.0642
  630TMC3    C7 9336   1.057   0.130  16.602 -0.1520 -0.2274  0.3884
  630TMC3    C8 9337   0.935   0.315  16.241  0.8349  0.0038  0.0015
  630TMC3    O1 9338   1.089   0.057  16.693 -0.3666  0.5701 -0.2072
  630TMC3    O2 9339   1.019   0.378  16.306 -0.7393 -0.2619 -0.4565
  631MPD2     C 9340   3.700   4.337  15.633 -0.0006 -0.1303 -0.0080
  631MPD2    C1 9341   3.785   4.430  15.577 -0.5048  0.8048 -0.6451
  631MPD2    C2 9342   3.929   4.418  15.594  0.4840 -0.6828 -0.1662
  631MPD2    C3 9343   3.977   4.324  15.682  0.2938 -0.0122  0.2672
  631MPD2    C4 9344   3.889   4.246  15.747 -0.3636  0.1694 -0.0975
  631MPD2    C5 9345   3.760   4.249  15.716 -0.3005 -0.7115  0.2392
  631MPD2     H 9346   4.002   4.484  15.549 -0.5432  1.5003  1.3747
  631MPD2    H1 9347   3.926   4.165  15.809 -2.3073 -0.4208  0.3116
  631MPD2    H2 9348   3.593   4.350  15.621  0.2546  1.0675 -0.9471
  631MPD2    H3 9349   3.704   4.165  15.756 -1.2483  1.1323  2.7584
  631MPD2     N 9350   4.115   4.329  15.708  0.1188  0.3279 -0.0842
  631MPD2    H5 9351   4.184   4.381  15.656  0.0878 -0.7284 -1.1687
  631MPD2    N1 9352   3.735   4.534  15.505 -0.3671  0.2165 -0.8957
  631MPD2    H7 9353   3.635   4.552  15.508 -0.2633  0.9252 -1.7495
  632TMC3    C1 9354   3.736   4.706  15.332  0.0282  0.3626  0.3730
  632TMC3    C2 9355   3.647   0.063  15.416  0.0264 -0.6172 -0.5430
  632TMC3    C3 9356   3.676   0.197  15.425  0.1165 -0.1316  0.0742
  632TMC3    C4 9357   3.808   0.048  15.226  0.3288  0.1154  0.5483
  632TMC3    C5 9358   3.824   0.181  15.242  0.5118  0.1484  0.3048
  632TMC3    C6 9359   3.767   0.255  15.343  0.0512  0.1867 -0.5058
  632TMC3     C 9360   3.793   4.582  15.391  0.2853 -0.8168 -0.1539
  632TMC3     O 9361   3.902   4.550  15.340 -0.2072 -0.4187 -0.1135
  632TMC3     H 9362   3.567   0.013  15.470  0.2777 -0.1042  0.2933
  632TMC3    H1 9363   3.862   4.708  15.152  0.0548  3.7273 -2.4500
  632TMC3    H2 9364   3.776   0.362  15.351 -1.3446  0.3434 -1.0862
  632TMC3    C7 9365   3.922   0.240  15.152  0.1711  0.7984 -0.3661
  632TMC3    C8 9366   3.616   0.277  15.528 -0.3993  0.0789  0.0882
  632TMC3    O1 9367   3.927   0.190  15.037 -0.4870 -0.5425  0.2517
  632TMC3    O2 9368   3.522   0.226  15.589 -0.6418  0.1100  0.6147
  633MPD2     C 9369   3.413   3.225  17.371  0.3616  0.0260 -0.1037
  633MPD2    C1 9370   3.365   3.125  17.286 -0.0046  0.1270  0.0316
  633MPD2    C2 9371   3.352   2.999  17.332  0.3829 -0.4763  0.5946
  633MPD2    C3 9372   3.407   2.964  17.452 -1.2106 -0.2111 -0.1213
  633MPD2    C4 9373   3.469   3.065  17.527  0.1008 -0.2134 -0.2842
  633MPD2    C5 9374   3.473   3.194  17.488 -0.1384  0.5781  0.5053
  633MPD2     H 9375   3.312   2.921  17.268  2.2019  0.0094 -1.1297
  633MPD2    H1 9376   3.525   3.049  17.619  0.1558 -1.5197 -0.5371
  633MPD2    H2 9377   3.422   3.325  17.329  0.2543  0.1715  0.2235
  633MPD2    H3 9378   3.527   3.268  17.545  0.4336  0.7079 -0.1961
  633MPD2     N 9379   3.412   2.832  17.492 -0.0132  0.1023  0.2508
  633MPD2    H5 9380   3.461   2.797  17.574 -1.0530  0.5421  1.0696
  633MPD2    N1 9381   3.312   3.143  17.151 -0.4520 -0.3983 -0.1897
  633MPD2    H7 9382   3.303   3.062  17.091  0.9841 -0.4326 -0.3765
  634TMC3    C1 9383   3.286   3.250  16.938 -0.0175  0.4585 -0.5997
  634TMC3    C2 9384   3.307   3.128  16.870  0.0225 -0.4168  0.0532
  634TMC3    C3 9385   3.341   3.142  16.740 -0.5107  0.1812 -0.0978
  634TMC3    C4 9386   3.282   3.372  16.876  0.3424  0.0714  0.0334
  634TMC3    C5 9387   3.317   3.379  16.745 -0.1441  0.3544  0.6392
  634TMC3    C6 9388   3.337   3.265  16.672 -0.5902 -0.5601 -0.1276
  634TMC3     C 9389   3.296   3.262  17.085 -0.3992 -0.1225 -0.2288
  634TMC3     O 9390   3.282   3.378  17.128  0.0222  0.1558 -0.1678
  634TMC3     H 9391   3.296   3.028  16.912 -0.1819  0.6671  2.5732
  634TMC3    H1 9392   3.255   3.464  16.927  1.2068  0.2561  0.1735
  634TMC3    H2 9393   3.361   3.264  16.566  0.9248 -2.1288  0.2249
  634TMC3    C7 9394   3.299   3.496  16.666 -0.6603  0.3670  0.0250
  634TMC3    C8 9395   3.381   3.020  16.675  0.0266 -0.0030 -0.2270
  634TMC3    O1 9396   3.346   3.485  16.553 -0.4878 -0.5252 -0.1916
  634TMC3    O2 9397   3.414   2.920  16.739 -0.5986 -0.4513  0.2849
  635TMC3    C1 9398   4.625   4.153  17.242  0.0984 -0.6122  0.8225
  635TMC3    C2 9399   4.673   4.132  17.373 -0.4265  0.0250  0.2274
  635TMC3    C3 9400   4.716   4.007  17.405 -0.1192 -0.0590 -0.4227
  635TMC3    C4 9401   4.630   4.051  17.150  0.1340  0.2438 -0.0143
  635TMC3    C5 9402   4.684   3.931  17.186 -0.1491  0.0187  0.1409
  635TMC3    C6 9403   0.017   3.908  17.310  0.5610  0.4009 -0.2101
  635TMC3     C 9404   4.511   4.242  17.228  0.3332  0.5171 -0.1802
  635TMC3     O 9405   4.460   4.280  17.334  0.3621 -0.8434 -0.2913
  635TMC3     H 9406   4.654   4.207  17.449  1.1397 -0.9701  1.5978
  635TMC3    H1 9407   4.606   4.073  17.047 -0.5164  0.9783  0.2929
  635TMC3    H2 9408   0.060   3.816  17.347 -1.3412 -0.9083 -1.2533
  635TMC3    C7 9409   4.677   3.813  17.102  0.4173  0.4532  0.0719
  635TMC3    C8 9410   0.053   3.988  17.539  0.2166 -0.0190  0.1389
  635TMC3    O1 9411   4.715   3.706  17.149 -0.2004 -0.2014 -0.1842
  635TMC3    O2 9412   0.077   4.082  17.614  0.4926 -0.2946 -0.1083
  636MPD2     C 9413   4.673   3.096  15.630 -0.4404 -0.3461  0.2072
  636MPD2    C1 9414   0.030   3.169  15.722 -0.2982 -1.0722  0.1607
  636MPD2    C2 9415   0.139   3.101  15.775 -0.3836  0.6224  0.1037
  636MPD2    C3 9416   0.173   2.969  15.739 -0.4747 -1.0664 -0.1908
  636MPD2    C4 9417   0.090   2.904  15.651 -0.0949 -0.2170 -0.6285
  636MPD2    C5 9418   4.703   2.969  15.595 -0.0722  0.1484  0.2419
  636MPD2     H 9419   0.217   3.150  15.834  2.7743 -0.7780 -2.9061
  636MPD2    H1 9420   0.108   2.801  15.622  0.5880 -0.1128 -0.5550
  636MPD2    H2 9421   4.584   3.139  15.584 -0.0023 -0.5046 -0.8032
  636MPD2    H3 9422   4.644   2.925  15.515 -0.4546 -1.4799  1.4053
  636MPD2     N 9423   0.294   2.912  15.784  0.0428 -0.2234  0.0976
  636MPD2    H5 9424   0.340   2.969  15.853  0.4846 -2.4341  1.6283
  636MPD2    N1 9425   4.710   3.295  15.777 -0.4081  0.2512 -0.1534
  636MPD2    H7 9426   0.058   3.332  15.844  0.5396 -1.5948 -0.0563
  637TMC3    C1 9427   0.471   2.782  15.822  0.8632 -0.3079  0.3749
  637TMC3    C2 9428   0.485   2.845  15.941 -0.0604  0.5006  0.1209
  637TMC3    C3 9429   0.591   2.814  16.019 -0.3840  0.3249 -0.9675
  637TMC3    C4 9430   0.566   2.700  15.768 -0.7610  0.6133 -0.1192
  637TMC3    C5 9431   0.683   2.679  15.847  0.1117  0.8642  0.4427
  637TMC3    C6 9432   0.693   2.734  15.972 -0.0437 -0.1923  0.0122
  637TMC3     C 9433   0.351   2.797  15.749  0.2358 -0.0467 -0.2257
  637TMC3     O 9434   0.326   2.712  15.665  0.2530 -0.2377 -0.0687
  637TMC3     H 9435   0.401   2.891  15.991 -0.9091  0.5186 -1.3119
  637TMC3    H1 9436   0.547   2.634  15.684  1.7786  1.0726 -1.0522
  637TMC3    H2 9437   0.787   2.731  16.026 -0.1197 -0.6499  0.1221
  637TMC3    C7 9438   0.800   2.710  15.775 -0.2759  0.3987 -0.3283
  637TMC3    C8 9439   0.626   2.919  16.111 -0.6483  0.0393  1.3068
  637TMC3    O1 9440   0.905   2.726  15.843 -0.2858  0.2429  0.2940
  637TMC3    O2 9441   0.587   3.033  16.086 -0.3246 -0.3598 -0.7551
  638MPD2     C 9442   4.248   2.311  15.042  0.3839 -0.5304 -0.3106
  638MPD2    C1 9443   4.284   2.227  14.939 -0.4663  0.1688 -0.3121
  638MPD2    C2 9444   4.343   2.110  14.982 -0.5627 -0.3734 -0.0029
  638MPD2    C3 9445   4.370   2.078  15.106 -0.0614  0.3948  0.1854
  638MPD2    C4 9446   4.332   2.164  15.210 -0.1857  0.0304 -0.2462
  638MPD2    C5 9447   4.280   2.286  15.173 -0.0761  0.0468 -0.1817
  638MPD2     H 9448   4.386   2.048  14.904 -0.7439  0.6780 -0.9469
  638MPD2    H1 9449   4.344   2.127  15.311  3.0793 -1.5684 -1.2108
  638MPD2    H2 9450   4.197   2.399  15.005 -1.1427 -0.9528  0.7855
  638MPD2    H3 9451   4.230   2.350  15.245  0.4353  1.1424 -0.8025
  638MPD2     N 9452   4.446   1.956  15.126  0.4674  0.3692  0.1129
  638MPD2    H5 9453   4.461   1.896  15.046 -0.7238  3.2042 -2.2589
  638MPD2    N1 9454   4.261   2.255  14.803 -0.1230 -0.0726 -0.5874
  638MPD2    H7 9455   4.221   2.345  14.780  1.2001  0.6543 -0.0591
  639TMC3    C1 9456   4.493   1.761  15.229 -0.0107  0.1129 -0.3462
  639TMC3    C2 9457   4.455   1.695  15.117  0.2193 -0.2391 -0.1045
  639TMC3    C3 9458   4.433   1.560  15.129  0.1249 -0.5135  1.0281
  639TMC3    C4 9459   4.525   1.697  15.347 -0.3392 -0.1196  0.0844
  639TMC3    C5 9460   4.501   1.565  15.354  0.0934 -0.5803 -0.1453
  639TMC3    C6 9461   4.453   1.495  15.247  0.3702 -0.2962 -0.2180
  639TMC3     C 9462   4.478   1.902  15.242 -0.0402 -0.0432 -0.2191
  639TMC3     O 9463   4.483   1.958  15.351 -0.3924 -0.0795 -0.3127
  639TMC3     H 9464   4.425   1.740  15.023 -1.3102  2.3417  1.6250
  639TMC3    H1 9465   4.564   1.751  15.432  2.6408  0.9222 -1.9300
  639TMC3    H2 9466   4.439   1.387  15.246  0.3921 -0.2881 -3.6812
  639TMC3    C7 9467   4.606   1.495  15.426  0.1246 -0.2796 -0.2707
  639TMC3    C8 9468   4.354   1.503  15.025  0.2730  0.1478 -0.2442
  639TMC3    O1 9469   4.573   1.382  15.472 -0.1072 -0.5607  0.3712
  639TMC3    O2 9470   4.368   1.553  14.915 -0.2691 -0.5070 -0.2329
  640MPD2     C 9471   3.892   0.459   9.527 -0.4281  0.2021 -0.4338
  640MPD2    C1 9472   3.975   0.562   9.567 -1.0494 -0.4897 -0.4840
  640MPD2    C2 9473   3.914   0.683   9.606 -0.6253  0.5789  0.3849
  640MPD2    C3 9474   3.773   0.707   9.580 -0.4073  0.0090 -0.3099
  640MPD2    C4 9475   3.703   0.605   9.527  0.2183 -0.0477  0.1502
  640MPD2    C5 9476   3.757   0.478   9.507  0.3447 -0.0334  0.2068
  640MPD2     H 9477   3.973   0.767   9.639  0.1615  1.1197 -2.3545
  640MPD2    H1 9478   3.600   0.622   9.496  0.0796  0.4927  0.9349
  640MPD2    H2 9479   3.924   0.362   9.493 -0.4409 -0.4351  1.3766
  640MPD2    H3 9480   3.694   0.397   9.471  0.1372  0.5301 -0.7127
  640MPD2     N 9481   3.705   0.835   9.582  0.3213 -0.2649  0.9997
  640MPD2    H5 9482   3.627   0.850   9.519  1.5793 -1.0867 -0.7770
  640MPD2    N1 9483   4.112   0.542   9.569 -0.6622 -0.3286  0.8001
  640MPD2    H7 9484   4.148   0.450   9.545 -2.8981 -0.6644 -1.2576
  641TMC3    C1 9485   4.343   0.589   9.607 -0.0327 -0.4923  0.1707
  641TMC3    C2 9486   4.358   0.465   9.671 -0.1125 -0.8714 -0.0925
  641TMC3    C3 9487   4.478   0.403   9.671 -0.5394 -0.2233 -0.1271
  641TMC3    C4 9488   4.449   0.656   9.562 -0.4005  0.1048  0.4768
  641TMC3    C5 9489   4.572   0.591   9.577 -0.4089 -0.1439  0.1514
  641TMC3    C6 9490   4.591   0.463   9.623  0.1496 -0.4721  1.3651
  641TMC3     C 9491   4.210   0.640   9.592 -0.3509  0.4644  0.6288
  641TMC3     O 9492   4.199   0.759   9.604 -0.1806  0.2160 -0.5443
  641TMC3     H 9493   4.274   0.406   9.707 -0.2682  0.1967  1.2665
  641TMC3    H1 9494   4.423   0.751   9.515 -2.1010 -0.4406  0.3300
  641TMC3    H2 9495   4.686   0.412   9.619  0.2669 -0.1784  0.2706
  641TMC3    C7 9496   4.685   0.664   9.528 -0.8868  0.1086 -0.6368
  641TMC3    C8 9497   4.475   0.260   9.666  0.4907 -0.3457 -1.1580
  641TMC3    O1 9498   0.069   0.601   9.505 -1.1226  0.2105  0.0758
  641TMC3    O2 9499   4.528   0.207   9.571  0.1679 -0.2702 -0.2372
  642TMC3    C1 9500   1.010   2.115  11.793  0.0384 -0.4830 -0.1370
  642TMC3    C2 9501   1.100   2.164  11.887  0.8855  0.3057 -1.1740
  642TMC3    C3 9502   1.193   2.070  11.929 -0.1284 -0.2477  0.5846
  642TMC3    C4 9503   1.021   1.985  11.740  0.4348  0.0058  0.5827
  642TMC3    C5 9504   1.119   1.901  11.780  0.2502 -0.0187  0.4267
  642TMC3    C6 9505   1.204   1.942  11.880  0.2781 -0.2617 -0.0788
  642TMC3     C 9506   0.877   2.178  11.773  0.3329 -0.4814 -0.0680
  642TMC3     O 9507   0.833   2.195  11.660  0.1233 -0.0610  0.0212
  642TMC3     H 9508   1.086   2.266  11.921  0.9663  0.2068 -0.8420
  642TMC3    H1 9509   0.940   1.943  11.682  0.8534 -0.2935  0.2172
  642TMC3    H2 9510   1.285   1.874  11.904 -0.7335 -0.2794  3.2678
  642TMC3    C7 9511   1.092   1.755  11.759  0.2638 -0.1825 -0.5353
  642TMC3    C8 9512   1.305   2.111  12.008  0.6883  0.4902  0.0526
  642TMC3    O1 9513   1.042   1.712  11.656  0.5149 -0.1351 -0.1401
  642TMC3    O2 9514   1.367   2.019  12.066  0.1641 -0.5679  0.1898
  643TMC3    C1 9515   0.709   1.509   0.437  0.0425  0.1441  0.1830
  643TMC3    C2 9516   0.592   1.534   0.382 -0.7964 -0.0519 -0.2211
  643TMC3    C3 9517   0.563   1.479   0.258 -0.4929  0.0354 -0.3354
  643TMC3    C4 9518   0.785   1.420   0.372  0.5403  0.6061  0.1531
  643TMC3    C5 9519   0.756   1.365   0.249 -0.1553  0.4271 -0.0147
  643TMC3    C6 9520   0.638   1.389   0.190  0.5108  0.3748  0.0630
  643TMC3     C 9521   0.728   1.551   0.574 -0.1069  0.9470  0.1631
  643TMC3     O 9522   0.646   1.630   0.619 -0.2234  0.2486 -0.6198
  643TMC3     H 9523   0.510   1.586   0.431  0.7514  0.4408  1.8369
  643TMC3    H1 9524   0.882   1.392   0.411  1.1185  0.7021 -1.1917
  643TMC3    H2 9525   0.637   1.390   0.081  2.1853 -1.1529  0.0283
  643TMC3    C7 9526   0.868   1.373   0.163 -0.6443 -0.0127  0.5894
  643TMC3    C8 9527   0.486   1.568   0.174 -0.3726  0.0329  0.9039
  643TMC3    O1 9528   0.950   1.463   0.187  0.2111  0.3577 -0.0398
  643TMC3    O2 9529   0.437   1.507   0.082  0.3081  0.7324 -0.9732
  644MPD2     C 9530   4.549   1.130   9.815 -0.2213  0.2611  1.0905
  644MPD2    C1 9531   4.509   1.000   9.815  0.1974 -0.0803 -0.5281
  644MPD2    C2 9532   4.394   0.971   9.745 -0.6051  0.3639 -0.4914
  644MPD2    C3 9533   4.309   1.074   9.691  0.2036  0.4513 -0.2978
  644MPD2    C4 9534   4.359   1.204   9.690 -0.5598 -0.4102 -0.3647
  644MPD2    C5 9535   4.476   1.232   9.750  0.6330 -0.3055  0.2565
  644MPD2     H 9536   4.361   0.868   9.741  0.0953  0.1573 -0.9417
  644MPD2    H1 9537   4.316   1.290   9.641  0.5125 -1.0125 -2.3481
  644MPD2    H2 9538   4.642   1.167   9.858  0.4814 -1.5248  1.1188
  644MPD2    H3 9539   4.508   1.335   9.750 -0.5360  0.0477 -0.2739
  644MPD2     N 9540   4.191   1.049   9.622  0.2303  0.2582  0.6427
  644MPD2    H5 9541   4.170   0.950   9.617 -1.3386  0.6373 -0.2940
  644MPD2    N1 9542   4.593   0.906   9.873 -0.3328  1.1340  0.0899
  644MPD2    H7 9543   4.676   0.943   9.918  3.1038 -3.9744 -2.0186
  645TMC3    C1 9544   4.046   1.063   9.437  0.8213  0.5510  0.1064
  645TMC3    C2 9545   4.063   0.932   9.400  0.1788  0.6357  0.1789
  645TMC3    C3 9546   3.978   0.876   9.305 -0.2132 -0.2369  0.5887
  645TMC3    C4 9547   3.960   1.142   9.372 -0.4554 -0.0861 -0.1583
  645TMC3    C5 9548   3.873   1.086   9.285  0.0128 -0.2371  0.5629
  645TMC3    C6 9549   3.885   0.957   9.242 -0.7008  0.0312  1.0944
  645TMC3     C 9550   4.138   1.127   9.523 -0.3765  0.5969  0.0468
  645TMC3     O 9551   4.165   1.245   9.493  0.0057  0.4287  0.4308
  645TMC3     H 9552   4.148   0.878   9.439 -1.1348 -1.0870  0.6505
  645TMC3    H1 9553   3.933   1.233   9.423 -1.9778  0.0609 -1.2231
  645TMC3    H2 9554   3.824   0.912   9.164  1.2950  0.8251 -0.9221
  645TMC3    C7 9555   3.760   1.167   9.236  0.3895 -0.6974 -0.0488
  645TMC3    C8 9556   3.988   0.733   9.268 -0.1489  0.4143 -0.2193
  645TMC3    O1 9557   3.769   1.285   9.257 -0.2286 -0.5126  0.1256
  645TMC3    O2 9558   3.889   0.692   9.211 -0.3866  0.3230  0.9431
  646MPD2     C 9559   0.043   0.882  14.404 -0.3080 -0.1660 -0.0787
  646MPD2    C1 9560   4.684   0.894  14.523  0.0470  0.0440  0.0584
  646MPD2    C2 9561   4.559   0.958  14.516 -0.2285  0.6001 -0.1097
  646MPD2    C3 9562   4.492   0.975  14.395 -0.2893  0.1802  0.0221
  646MPD2    C4 9563   4.565   0.953  14.286  0.4517  0.5605 -0.3142
  646MPD2    C5 9564   4.695   0.907  14.282  0.4271  0.1884 -0.4325
  646MPD2     H 9565   4.508   0.994  14.605  1.3860 -1.5032  1.6629
  646MPD2    H1 9566   4.531   0.977  14.186 -1.0938  1.1741  0.3579
  646MPD2    H2 9567   0.140   0.834  14.415  0.5074  1.7924  1.1917
  646MPD2    H3 9568   0.026   0.885  14.188 -2.6966  1.8153 -2.4046
  646MPD2     N 9569   4.363   1.039  14.392  0.1741 -0.5397 -0.3528
  646MPD2    H5 9570   4.326   1.056  14.485  0.5610 -1.5740 -0.0028
  646MPD2    N1 9571   0.038   0.875  14.643 -0.2560  0.5726 -0.1636
  646MPD2    H7 9572   0.133   0.840  14.641  0.6279  2.9436 -0.1288
  647TMC3    C1 9573   0.082   0.843  14.871 -0.0034  0.1977  0.8791
  647TMC3    C2 9574   0.031   0.791  14.987 -0.1119  1.0148 -0.1365
  647TMC3    C3 9575   0.116   0.750  15.090 -0.3079 -0.4946  0.0374
  647TMC3    C4 9576   0.219   0.849  14.850  0.2001 -0.8355 -0.4116
  647TMC3    C5 9577   0.299   0.800  14.951 -0.2564 -0.0050  0.6023
  647TMC3    C6 9578   0.253   0.763  15.072 -0.1292  0.3859  0.4784
  647TMC3     C 9579   4.702   0.867  14.767  0.6650  0.2050  0.0856
  647TMC3     O 9580   4.585   0.889  14.805  0.3106  0.0439 -0.3914
  647TMC3     H 9581   4.643   0.769  14.997  0.4807 -0.3628  3.0967
  647TMC3    H1 9582   0.256   0.887  14.755 -0.7763 -0.9898 -0.8504
  647TMC3    H2 9583   0.316   0.724  15.150  0.6498 -0.2948 -0.5040
  647TMC3    C7 9584   0.439   0.777  14.921 -0.0270  0.4283  0.3726
  647TMC3    C8 9585   0.085   0.637  15.177 -0.3172 -0.1915 -0.4906
  647TMC3    O1 9586   0.510   0.780  15.021  0.4146 -0.2762  0.1899
  647TMC3    O2 9587   4.712   0.567  15.132 -0.7066  0.4202 -0.4381
  648TMC3    C1 9588   3.748   3.025  16.192 -0.2101  0.1865 -0.7568
  648TMC3    C2 9589   3.758   2.892  16.181  0.1412 -0.6012  0.0864
  648TMC3    C3 9590   3.774   2.844  16.050 -0.0565  0.3180 -0.4170
  648TMC3    C4 9591   3.720   3.111  16.079  0.6874 -0.3466 -0.1908
  648TMC3    C5 9592   3.730   3.054  15.956 -0.4499 -0.6837 -0.4423
  648TMC3    C6 9593   3.761   2.919  15.937 -0.1648 -0.5689  0.4230
  648TMC3     C 9594   3.740   3.079  16.330  0.0868  0.0002 -0.0869
  648TMC3     O 9595   3.724   3.197  16.323 -0.3288 -0.1154  0.3084
  648TMC3     H 9596   3.772   2.827  16.267  0.8345 -1.8076 -0.9357
  648TMC3    H1 9597   3.714   3.218  16.095  1.8224  0.0813 -2.6574
  648TMC3    H2 9598   3.767   2.872  15.840 -2.5074  1.2787 -0.6353
  648TMC3    C7 9599   3.717   3.130  15.837 -0.2396 -0.2329 -0.6389
  648TMC3    C8 9600   3.813   2.708  16.042  0.3205 -0.5313 -0.8729
  648TMC3    O1 9601   3.782   3.089  15.743 -0.2395 -0.0429  0.0136
  648TMC3    O2 9602   3.758   2.629  16.118  0.2619  0.4739 -0.3367
  649TMC3    C1 9603   3.281   4.574  12.672 -0.1401  0.2975  0.3773
  649TMC3    C2 9604   3.401   4.549  12.614  0.2973 -0.1233 -0.7926
  649TMC3    C3 9605   3.480   4.439  12.656  0.8757 -0.3664 -0.1539
  649TMC3    C4 9606   3.242   4.488  12.772  0.3229  0.3040 -0.6217
  649TMC3    C5 9607   3.319   4.377  12.804  0.5310 -0.3382 -0.1188
  649TMC3    C6 9608   3.437   4.350  12.751  0.0587 -0.0392  0.1057
  649TMC3     C 9609   3.188   4.676  12.630 -0.5738  0.0699 -0.2675
  649TMC3     O 9610   3.078   4.674  12.680 -0.3018 -0.7546 -0.8771
  649TMC3     H 9611   3.436   4.619  12.540  0.6176 -0.4309 -0.9330
  649TMC3    H1 9612   3.141   4.495  12.811 -0.3624 -0.6305 -2.2276
  649TMC3    H2 9613   3.497   4.270  12.793  0.8340  0.8939  0.7718
  649TMC3    C7 9614   3.250   4.279  12.883  0.1425 -0.1549  0.0810
  649TMC3    C8 9615   3.603   4.396  12.588  0.2404  0.5101  0.2363
  649TMC3    O1 9616   3.303   4.250  12.990 -0.4717  0.1217  0.7524
  649TMC3    O2 9617   3.701   4.358  12.652 -0.2994  0.5862  0.7944
  650TMC3    C1 9618   0.601   1.239  12.732  0.8875  0.0528 -0.8182
  650TMC3    C2 9619   0.607   1.374  12.757 -0.5077  0.6841  0.3873
  650TMC3    C3 9620   0.562   1.462  12.659  0.5943 -0.0761 -0.1758
  650TMC3    C4 9621   0.545   1.190  12.620 -0.0991 -0.0125  0.5835
  650TMC3    C5 9622   0.514   1.276  12.516 -0.4879 -0.1442 -0.1083
  650TMC3    C6 9623   0.525   1.411  12.536 -0.5275  0.0289 -0.3844
  650TMC3     C 9624   0.635   1.146  12.837 -0.4607 -0.2249  0.4476
  650TMC3     O 9625   0.657   1.186  12.951 -0.2365  0.2231 -0.0299
  650TMC3     H 9626   0.656   1.405  12.849 -2.1971 -0.0792  1.5484
  650TMC3    H1 9627   0.524   1.087  12.595 -2.4782  0.7643 -0.5729
  650TMC3    H2 9628   0.510   1.484  12.458  1.5010  1.3493  0.4508
  650TMC3    C7 9629   0.444   1.218  12.402  0.6101 -0.3466  0.5613
  650TMC3    C8 9630   0.563   1.605  12.679  0.5412  0.8270 -0.6462
  650TMC3    O1 9631   0.446   1.097  12.381  0.2398  0.6519  0.0052
  650TMC3    O2 9632   0.534   1.673  12.582  0.0261  0.4175 -0.4532
  651MPD2     C 9633   3.713   2.772  10.691  0.3622 -0.1548  0.0945
  651MPD2    C1 9634   3.695   2.889  10.747  0.2569 -0.3674  0.5824
  651MPD2    C2 9635   3.800   2.976  10.758  0.7903  0.7459 -0.2628
  651MPD2    C3 9636   3.928   2.951  10.713 -0.1557 -0.4458  0.2253
  651MPD2    C4 9637   3.945   2.830  10.643  0.3871  0.7065 -0.1642
  651MPD2    C5 9638   3.841   2.741  10.641 -0.1064  0.0503  0.0731
  651MPD2     H 9639   3.779   3.077  10.793 -1.1773  0.3316 -0.2294
  651MPD2    H1 9640   4.034   2.805  10.586  1.5222 -0.6345  2.2106
  651MPD2    H2 9641   3.635   2.698  10.681 -0.3990  0.8745 -1.6572
  651MPD2    H3 9642   3.858   2.655  10.578 -1.6112 -0.9651  1.0534
  651MPD2     N 9643   4.031   3.050  10.711 -0.1651  0.5692 -0.0197
  651MPD2    H5 9644   4.012   3.142  10.749  0.4293  0.2506  1.0437
  651MPD2    N1 9645   3.570   2.937  10.779 -0.6402 -0.2109  0.0249
  651MPD2    H7 9646   3.559   3.034  10.806  1.1546 -0.1494  0.5326
  652TMC3    C1 9647   4.463   3.230  10.666 -0.4106  0.1588 -0.5002
  652TMC3    C2 9648   4.384   3.124  10.693 -0.6303  0.0948 -0.1332
  652TMC3    C3 9649   4.248   3.139  10.665  0.4073 -0.2620  0.1578
  652TMC3    C4 9650   4.423   3.342  10.601 -0.6336  0.3749  0.3749
  652TMC3    C5 9651   4.292   3.341  10.560  0.0984  0.4264  0.7660
  652TMC3    C6 9652   4.205   3.249  10.599 -0.1503  0.5926 -0.5486
  652TMC3     C 9653   4.597   3.228  10.721  0.2313 -0.0049 -0.0913
  652TMC3     O 9654   4.639   3.160  10.814 -0.2236 -0.2356 -0.0289
  652TMC3     H 9655   4.421   3.054  10.767 -1.0089 -1.6922 -1.6081
  652TMC3    H1 9656   4.480   3.434  10.591 -2.2778  1.6300  2.4790
  652TMC3    H2 9657   4.105   3.241  10.556  0.6617 -2.6650 -1.8430
  652TMC3    C7 9658   4.237   3.466  10.519 -0.5034  0.0060  0.2287
  652TMC3    C8 9659   4.162   3.024  10.687  0.4698 -0.3163 -0.2474
  652TMC3    O1 9660   4.121   3.478  10.554  0.0266  0.1778 -0.0400
  652TMC3    O2 9661   4.222   2.920  10.707 -0.7015  0.3649  0.3949
  653MPD2     C 9662   3.373   3.445   0.174  0.3188 -0.4775  0.6559
  653MPD2    C1 9663   3.316   3.519   0.073  0.2743 -0.1427  0.0200
  653MPD2    C2 9664   3.231   3.453  17.654 -0.2316 -0.1754  0.5165
  653MPD2    C3 9665   3.202   3.320  17.665  0.7578  0.0768 -0.4840
  653MPD2    C4 9666   3.258   3.252   0.101 -0.7476  0.3001  0.1941
  653MPD2    C5 9667   3.347   3.315   0.183  0.4926  0.4261  0.1361
  653MPD2     H 9668   3.194   3.510  17.569 -1.5032 -0.3427  0.9612
  653MPD2    H1 9669   3.226   3.150   0.116  0.8643  0.3786  4.1367
  653MPD2    H2 9670   3.435   3.490   0.250  0.7252 -1.1241  0.7032
  653MPD2    H3 9671   3.392   3.256   0.262 -0.7120 -1.2742 -0.4342
  653MPD2     N 9672   3.118   3.264  17.569  0.4491  0.4577  0.0814
  653MPD2    H5 9673   3.103   3.325  17.490 -0.7766  2.1315  1.5880
  653MPD2    N1 9674   3.320   3.659   0.069  1.0978  0.1744 -0.0620
  653MPD2    H7 9675   3.281   3.707  17.662  2.2175  2.3723  0.7179
  654TMC3    C1 9676   3.001   3.110  17.445  0.1945 -0.1307 -0.3063
  654TMC3    C2 9677   2.940   3.215  17.384 -0.9110 -0.0570 -0.2980
  654TMC3    C3 9678   2.855   3.190  17.276  0.2838 -0.3994  0.4049
  654TMC3    C4 9679   2.976   2.982  17.420 -0.3746  0.0843  0.0730
  654TMC3    C5 9680   2.900   2.960  17.314 -0.0191  0.2034 -0.3058
  654TMC3    C6 9681   2.835   3.057  17.240 -0.0225 -0.6389  0.4311
  654TMC3     C 9682   3.074   3.131  17.568 -0.5671  0.4306 -0.0676
  654TMC3     O 9683   3.087   3.036  17.643  0.5643 -0.3481 -0.4658
  654TMC3     H 9684   2.952   3.314  17.427 -3.6671 -0.0421  0.4905
  654TMC3    H1 9685   3.023   2.898  17.471 -0.0801 -0.9980 -1.9980
  654TMC3    H2 9686   2.769   3.035  17.157  0.5257 -0.4609 -0.0471
  654TMC3    C7 9687   2.863   2.821  17.273 -0.6001  0.0879 -0.4159
  654TMC3    C8 9688   2.762   3.293  17.232  0.2153 -0.3591 -0.2681
  654TMC3    O1 9689   2.784   2.819  17.181 -0.3596 -0.0278  0.0502
  654TMC3    O2 9690   2.690   3.261  17.137  0.1863  0.2747 -0.3285
  655MPD2     C 9691   4.307   2.909  15.589  0.0885  0.3533 -0.3070
  655MPD2    C1 9692   4.307   3.029  15.511 -0.1680  0.2111  0.2945
  655MPD2    C2 9693   4.340   3.031  15.382  0.1598 -0.4896  0.1414
  655MPD2    C3 9694   4.368   2.910  15.311  0.6440  0.2560  0.3127
  655MPD2    C4 9695   4.369   2.797  15.387 -0.0265  0.4294  0.0794
  655MPD2    C5 9696   4.339   2.795  15.527  0.7987  0.3957 -0.1183
  655MPD2     H 9697   4.346   3.124  15.328  1.9115 -0.4568  0.4113
  655MPD2    H1 9698   4.410   2.707  15.341 -0.8965  0.4969 -0.8235
  655MPD2    H2 9699   4.266   2.903  15.688  0.7088  0.9685 -0.0134
  655MPD2    H3 9700   4.347   2.705  15.587 -1.5200 -0.1413 -0.5802
  655MPD2     N 9701   4.400   2.897  15.175  0.1125 -0.1933 -0.2613
  655MPD2    H5 9702   4.421   2.805  15.140 -0.4992 -0.2675 -0.4411
  655MPD2    N1 9703   4.267   3.160  15.560 -0.1636 -0.7210  0.4858
  655MPD2    H7 9704   4.262   3.229  15.486 -0.8021  0.8723  2.0234
  656TMC3    C1 9705   4.182   3.321  15.725 -0.4238  0.3801  0.2444
  656TMC3    C2 9706   4.088   3.326  15.821 -0.3410  0.6416 -0.3640
  656TMC3    C3 9707   4.044   3.451  15.859 -0.2206  0.1098 -0.2680
  656TMC3    C4 9708   4.203   3.424  15.640  0.0909 -0.3176  0.0485
  656TMC3    C5 9709   4.149   3.537  15.670 -0.8201 -0.0101  0.0936
  656TMC3    C6 9710   4.070   3.558  15.783 -0.0753 -0.1583  0.3400
  656TMC3     C 9711   4.219   3.188  15.689  1.0968 -0.3415 -0.0292
  656TMC3     O 9712   4.212   3.101  15.773  0.4124 -0.2769 -0.9096
  656TMC3     H 9713   4.049   3.237  15.868  1.8625  0.3986  0.9817
  656TMC3    H1 9714   4.247   3.412  15.542 -0.2055 -1.6724  0.0755
  656TMC3    H2 9715   4.031   3.657  15.804  2.5684  0.6531  1.3957
  656TMC3    C7 9716   4.120   3.617  15.552 -0.1717 -0.1104 -0.2069
  656TMC3    C8 9717   3.943   3.457  15.957  0.0229  0.4030  0.0118
  656TMC3    O1 9718   4.203   3.612  15.467  0.3441 -0.1222 -0.2636
  656TMC3    O2 9719   3.912   3.349  16.000  0.1293  0.1762 -0.3991
  657TMC3    C1 9720   3.271   2.507  14.645  0.5171  0.0966 -0.2218
  657TMC3    C2 9721   3.258   2.512  14.783 -0.3336 -0.6814 -0.6487
  657TMC3    C3 9722   3.231   2.638  14.832 -0.0120 -0.3120  0.2934
  657TMC3    C4 9723   3.283   2.607  14.556 -0.3324 -0.0910 -0.4234
  657TMC3    C5 9724   3.260   2.729  14.609  0.2615 -0.3773  0.4264
  657TMC3    C6 9725   3.233   2.746  14.743 -0.4058 -0.3335 -0.3604
  657TMC3     C 9726   3.305   2.376  14.588  0.7235 -0.6507 -0.4123
  657TMC3     O 9727   3.262   2.343  14.481  0.4401 -0.7000  0.2467
  657TMC3     H 9728   3.261   2.419  14.837  0.4196 -0.3002 -0.0391
  657TMC3    H1 9729   3.288   2.584  14.451  0.9538  0.1691 -0.4171
  657TMC3    H2 9730   3.210   2.845  14.781  0.5958 -0.6303  1.0274
  657TMC3    C7 9731   3.221   2.833  14.511  0.2139 -0.6424  0.0224
  657TMC3    C8 9732   3.229   2.667  14.972  0.5401 -0.8272  0.2446
  657TMC3    O1 9733   3.182   2.811  14.399  0.6387  0.0760 -0.3881
  657TMC3    O2 9734   3.204   2.779  15.010  0.4103 -0.3294  0.0427
  658MPD2     C 9735   0.084   3.316  14.596 -0.9937  0.2791 -0.0481
  658MPD2    C1 9736   4.669   3.301  14.585 -0.3434  0.0567  0.7454
  658MPD2    C2 9737   4.608   3.371  14.484  0.4779 -0.5777  0.6535
  658MPD2    C3 9738   4.676   3.474  14.424 -0.1534  0.3001 -0.2760
  658MPD2    C4 9739   0.092   3.496  14.450 -0.0125 -0.6284 -0.1166
  658MPD2    C5 9740   0.154   3.415  14.537  0.5810 -0.1229  0.6628
  658MPD2     H 9741   4.503   3.357  14.461  0.3159  0.6495  0.6532
  658MPD2    H1 9742   0.144   3.575  14.398 -0.2342 -0.8866 -0.7251
  658MPD2    H2 9743   0.136   3.255  14.669  0.1725  0.4135 -0.7730
  658MPD2    H3 9744   0.261   3.419  14.558  0.5204  2.3538  0.4460
  658MPD2     N 9745   4.603   3.552  14.330 -0.1175 -0.1346 -0.1289
  658MPD2    H5 9746   4.507   3.521  14.322  0.0746 -0.6125 -0.5905
  658MPD2    N1 9747   4.611   3.186  14.655 -0.1697  0.4379 -0.3036
  658MPD2    H7 9748   4.678   3.136  14.712 -2.4895 -1.2846  0.9467
  659TMC3    C1 9749   4.445   3.040  14.732 -0.5580  0.2789 -0.0054
  659TMC3    C2 9750   4.490   3.037  14.863 -0.6738  0.2782 -0.2827
  659TMC3    C3 9751   4.435   2.948  14.946 -0.2955 -0.3919  0.0298
  659TMC3    C4 9752   4.337   2.973  14.685 -0.3027  0.2261  0.7005
  659TMC3    C5 9753   4.284   2.888  14.776  0.5733 -0.3161  0.7839
  659TMC3    C6 9754   4.331   2.869  14.906  0.0098  0.0414 -0.2832
  659TMC3     C 9755   4.479   3.154  14.650 -0.0767  0.0247 -0.3354
  659TMC3     O 9756   4.390   3.195  14.577 -0.6764  0.0284 -0.3693
  659TMC3     H 9757   4.554   3.115  14.904  0.7209  0.3324 -2.5789
  659TMC3    H1 9758   4.288   2.998  14.592  0.7727 -2.1255 -0.5152
  659TMC3    H2 9759   4.269   2.803  14.966  0.0663 -0.6245 -0.9504
  659TMC3    C7 9760   4.136   2.863  14.766 -0.4739  0.2564 -0.1027
  659TMC3    C8 9761   4.425   2.994  15.085  0.8785 -0.1196  0.3570
  659TMC3    O1 9762   4.083   2.778  14.843 -0.9690  0.1943  0.4353
  659TMC3    O2 9763   4.448   3.115  15.100 -0.3342 -0.0322 -0.3792
  660MPD2     C 9764   2.564   1.687  12.440  0.7608 -0.2535  0.7648
  660MPD2    C1 9765   2.430   1.714  12.408 -0.2817  0.2843  0.5270
  660MPD2    C2 9766   2.339   1.689  12.510  0.3334  0.5564 -0.2818
  660MPD2    C3 9767   2.386   1.658  12.644  0.6382  0.1069 -0.2569
  660MPD2    C4 9768   2.521   1.649  12.667 -0.3380  0.0135  0.4892
  660MPD2    C5 9769   2.610   1.661  12.564 -0.6797 -0.6372  0.8613
  660MPD2     H 9770   2.233   1.684  12.486  1.0140  0.0195 -3.1455
  660MPD2    H1 9771   2.555   1.633  12.769 -0.3272 -1.3675  0.2748
  660MPD2    H2 9772   2.636   1.712  12.362 -1.5954  0.9714 -1.0173
  660MPD2    H3 9773   2.717   1.651  12.578 -0.4811  0.9265  0.4302
  660MPD2     N 9774   2.301   1.649  12.757  0.5364  0.8066  0.1290
  660MPD2    H5 9775   2.343   1.627  12.847 -1.6409  0.9081  1.1652
  660MPD2    N1 9776   2.404   1.755  12.276  0.0285 -0.3488 -0.1626
  660MPD2    H7 9777   2.482   1.763  12.211  0.2023 -1.9426 -0.1529
  661TMC3    C1 9778   2.295   1.895  12.120 -0.2401 -0.1324 -0.3670
  661TMC3    C2 9779   2.390   1.881  12.026 -0.1155  0.0321  1.1044
  661TMC3    C3 9780   2.355   1.933  11.906 -0.0531  0.4018  0.2925
  661TMC3    C4 9781   2.172   1.955  12.103  0.0050  0.8326 -0.3020
  661TMC3    C5 9782   2.134   1.999  11.979  0.2382  0.2450 -0.1189
  661TMC3    C6 9783   2.233   1.993  11.877 -0.6944 -0.0478  0.3949
  661TMC3     C 9784   2.291   1.824  12.246 -0.0026 -1.2174 -0.1664
  661TMC3     O 9785   2.211   1.870  12.327 -0.2327  0.0342 -0.2491
  661TMC3     H 9786   2.488   1.840  12.049  1.4371  2.3514 -1.3893
  661TMC3    H1 9787   2.085   1.949  12.167  0.0283 -0.9876 -0.4580
  661TMC3    H2 9788   2.203   2.025  11.778  0.3531  0.2153  0.1648
  661TMC3    C7 9789   1.999   2.057  11.964 -0.3219 -0.4434  0.2858
  661TMC3    C8 9790   2.436   1.876  11.799 -0.0205 -0.4043  1.0069
  661TMC3    O1 9791   1.947   2.109  12.067  0.2812  0.2498  0.1289
  661TMC3    O2 9792   2.518   1.790  11.834 -0.1003 -0.5892  0.1683
  662MPD2     C 9793   2.545   2.094  17.545 -0.0362 -0.4012  0.9978
  662MPD2    C1 9794   2.416   2.056  17.547  0.5341  0.0205  0.5281
  662MPD2    C2 9795   2.326   2.134  17.612 -0.2234  0.4058 -0.4848
  662MPD2    C3 9796   2.369   2.243   0.013 -0.2123  0.1563  0.5016
  662MPD2    C4 9797   2.499   2.279   0.018  0.3870 -0.7313 -0.8358
  662MPD2    C5 9798   2.586   2.202  17.621 -0.3070  0.4504 -0.0213
  662MPD2     H 9799   2.224   2.100  17.623  0.2479 -1.1310 -0.9615
  662MPD2    H1 9800   2.533   2.369   0.068 -0.6432 -1.2445  0.7968
  662MPD2    H2 9801   2.623   2.037  17.496 -0.4702  1.1112 -1.4193
  662MPD2    H3 9802   2.688   2.238  17.625 -0.1732  0.0507  0.1596
  662MPD2     N 9803   2.276   2.298   0.102  0.7864  0.5846 -0.5520
  662MPD2    H5 9804   2.180   2.267   0.090  0.1840  1.8971  0.7318
  662MPD2    N1 9805   2.368   1.936  17.493  0.2119 -0.5803 -0.0310
  662MPD2    H7 9806   2.267   1.926  17.490  0.0222  1.6675 -1.6722
  663TMC3    C1 9807   2.356   1.731  17.397 -0.1314  0.5096  0.0431
  663TMC3    C2 9808   2.251   1.697  17.464  0.2985 -0.6922 -0.0457
  663TMC3    C3 9809   2.166   1.597  17.428 -0.3196 -0.1526 -0.2789
  663TMC3    C4 9810   2.396   1.667  17.287  0.5283 -0.2076  0.1322
  663TMC3    C5 9811   2.315   1.559  17.249  0.0172  0.7105  0.3919
  663TMC3    C6 9812   2.192   1.538  17.311 -0.0534  0.4229  1.4615
  663TMC3     C 9813   2.443   1.837  17.441 -0.9149  0.3227  0.0174
  663TMC3     O 9814   2.564   1.843  17.419 -0.5214 -0.0577  0.2557
  663TMC3     H 9815   2.255   1.732  17.567 -0.0919  1.8177 -0.8941
  663TMC3    H1 9816   2.497   1.688  17.253  0.6510 -1.3621 -0.1923
  663TMC3    H2 9817   2.143   1.446  17.279 -1.9087  2.2916 -1.1145
  663TMC3    C7 9818   2.374   1.456  17.171  0.4405  0.6982 -0.3898
  663TMC3    C8 9819   2.147   1.496  17.532 -0.2163 -0.1160 -0.5342
  663TMC3    O1 9820   2.467   1.497  17.099  0.5837  0.3585 -1.0108
  663TMC3    O2 9821   2.207   1.390  17.520 -0.2498  0.4039  0.2149
  664MPD2     C 9822   1.167   0.127   0.071  0.0184 -0.7026  0.2851
  664MPD2    C1 9823   1.207   0.257   0.066 -0.1250  0.1243  0.7881
  664MPD2    C2 9824   1.233   0.332   0.178  0.1519  0.0241 -0.5763
  664MPD2    C3 9825   1.214   0.273   0.301  0.1934  0.0790  0.0386
  664MPD2    C4 9826   1.193   0.135   0.303  0.5184  0.2307 -0.4222
  664MPD2    C5 9827   1.165   0.069   0.190 -0.4209 -0.1359  0.8799
  664MPD2     H 9828   1.255   0.436   0.157  2.1417  0.1833  2.3394
  664MPD2    H1 9829   1.180   0.080   0.396  0.8815 -1.0927 -1.1458
  664MPD2    H2 9830   1.134   0.062  17.665  2.2003  1.9067 -2.7631
  664MPD2    H3 9831   1.123   4.687   0.198 -2.3472  0.4682 -1.4368
  664MPD2     N 9832   1.230   0.344   0.422  0.4430 -0.0557  0.2504
  664MPD2    H5 9833   1.236   0.445   0.426 -1.9478 -0.0231  2.6595
  664MPD2    N1 9834   1.230   0.317  17.617  0.2580 -1.1224  0.1014
  664MPD2    H7 9835   1.273   0.409  17.610 -0.1339 -0.9823 -0.5251
  665TMC3    C1 9836   1.209   0.376   0.663  0.6319 -0.5369 -0.1520
  665TMC3    C2 9837   1.227   0.325   0.792  0.2994 -0.1299 -0.3185
  665TMC3    C3 9838   1.169   0.405   0.895  1.0395  0.2404 -0.4083
  665TMC3    C4 9839   1.128   0.487   0.631  0.0157 -0.1829  0.1981
  665TMC3    C5 9840   1.067   0.550   0.741  0.3067  0.1524  0.0945
  665TMC3    C6 9841   1.097   0.516   0.871  0.4668 -0.1099  0.8434
  665TMC3     C 9842   1.246   0.290   0.553  0.6251 -0.9312 -0.2028
  665TMC3     O 9843   1.264   0.176   0.591 -0.4917 -0.3863 -0.2488
  665TMC3     H 9844   1.274   0.230   0.809  3.4595  1.2798 -1.2421
  665TMC3    H1 9845   1.099   0.515   0.531  1.5462 -0.1050 -0.2229
  665TMC3    H2 9846   1.061   0.574   0.956 -2.3522 -1.2054  0.3844
  665TMC3    C7 9847   0.977   0.664   0.717  0.3203  0.0307 -0.5088
  665TMC3    C8 9848   1.166   0.359   1.033  0.4020  0.6533 -0.4772
  665TMC3    O1 9849   0.988   0.717   0.607 -0.1271 -1.0183  0.5481
  665TMC3    O2 9850   1.089   0.429   1.099 -0.6329  0.6930  0.3616
  666TMC3    C1 9851   3.687   3.972   9.403 -0.0779  0.1607 -0.0638
  666TMC3    C2 9852   3.785   3.895   9.342  0.7302 -0.9367 -0.7511
  666TMC3    C3 9853   3.877   3.947   9.258  0.5695 -0.3734  0.1652
  666TMC3    C4 9854   3.696   4.107   9.387 -0.3082 -0.4236  0.6768
  666TMC3    C5 9855   3.792   4.159   9.296 -0.2812 -0.0705  0.1970
  666TMC3    C6 9856   3.879   4.080   9.228 -0.0819 -0.1041  0.0636
  666TMC3     C 9857   3.663   3.938   9.540 -0.4542  0.6933  0.7830
  666TMC3     O 9858   3.581   4.011   9.597  0.0287 -0.1822  0.0650
  666TMC3     H 9859   3.778   3.788   9.357 -1.5542 -0.9723 -2.1323
  666TMC3    H1 9860   3.613   4.161   9.431 -1.1185  1.2927 -2.9618
  666TMC3    H2 9861   3.967   4.117   9.177 -0.6039  1.6451  0.4549
  666TMC3    C7 9862   3.825   4.300   9.319 -0.2593 -0.0339 -0.4155
  666TMC3    C8 9863   4.008   3.883   9.267  0.5840  0.1710 -0.2463
  666TMC3    O1 9864   3.743   4.368   9.382 -0.1395 -0.5608 -1.0105
  666TMC3    O2 9865   4.026   3.832   9.376  0.3928 -0.6704  0.3764
  667MPD2     C 9866   1.881   4.530  14.685 -0.7995 -0.6740  0.1547
  667MPD2    C1 9867   1.772   4.572  14.749  1.1456 -0.0725 -0.1013
  667MPD2    C2 9868   1.668   4.483  14.773 -0.1932  0.2237 -0.9395
  667MPD2    C3 9869   1.675   4.352  14.725 -0.5380  0.1348  0.0185
  667MPD2    C4 9870   1.777   4.315  14.643  0.6261  0.4770 -0.3963
  667MPD2    C5 9871   1.882   4.403  14.630  0.4946  0.0390 -0.3073
  667MPD2     H 9872   1.586   4.516  14.835  1.2710  2.0591  0.0012
  667MPD2    H1 9873   1.790   4.223  14.587 -2.5998  1.3605 -2.5594
  667MPD2    H2 9874   1.969   4.592  14.673 -0.4526 -1.5230 -1.6477
  667MPD2    H3 9875   1.957   4.363  14.562 -0.6494 -1.7144 -0.5556
  667MPD2     N 9876   1.576   4.253  14.742 -0.1595 -0.0512 -0.1991
  667MPD2    H5 9877   1.604   4.166  14.698  1.7684  0.2456  0.4715
  667MPD2    N1 9878   1.750   4.710  14.779  0.2548  0.0577  0.2521
  667MPD2    H7 9879   1.658   0.017  14.815  0.0715 -1.1168  0.5774
  668TMC3    C1 9880   1.787   0.226  14.776  0.0240  0.0432 -0.5504
  668TMC3    C2 9881   1.871   0.320  14.830 -1.1704 -0.7118  0.1629
  668TMC3    C3 9882   1.808   0.432  14.872 -0.2892  0.4569 -0.3442
  668TMC3    C4 9883   1.657   0.247  14.758 -0.2322  0.3390  0.1365
  668TMC3    C5 9884   1.596   0.356  14.803  0.4467 -0.1970  0.1977
  668TMC3    C6 9885   1.671   0.453  14.859  0.1548 -0.0667 -0.3576
  668TMC3     C 9886   1.842   0.091  14.755  0.2866 -0.2775  0.2724
  668TMC3     O 9887   1.963   0.085  14.770 -0.2728  0.2241 -0.2431
  668TMC3     H 9888   1.976   0.300  14.848 -0.6656  0.4812 -1.5666
  668TMC3    H1 9889   1.594   0.169  14.716 -0.8418  0.5628  0.6282
  668TMC3    H2 9890   1.628   0.546  14.894  0.3593 -0.2044  0.2701
  668TMC3    C7 9891   1.459   0.391  14.773  0.6263  0.3222  0.4015
  668TMC3    C8 9892   1.881   0.551  14.907 -0.0758 -0.0452 -0.6617
  668TMC3    O1 9893   1.427   0.507  14.785 -0.2002  0.2921  0.0701
  668TMC3    O2 9894   1.820   0.636  14.971  0.3046  0.0496 -0.1274
  669TMC3    C1 9895   4.639   0.042  14.370 -0.2812  0.4269  0.1969
  669TMC3    C2 9896   4.515   0.088  14.321  0.0876  0.4343  0.0526
  669TMC3    C3 9897   4.517   0.152  14.201 -0.7504 -0.0627 -0.5105
  669TMC3    C4 9898   0.035   0.048  14.297  0.0541  0.7617  0.7076
  669TMC3    C5 9899   0.030   0.106  14.174  1.0534  0.0458 -0.1962
  669TMC3    C6 9900   4.635   0.159  14.126  0.4707  0.5375  0.8463
  669TMC3     C 9901   4.629   4.645  14.460  0.3465 -0.2658 -0.5815
  669TMC3     O 9902   4.516   4.624  14.497 -0.2729  0.0871 -0.2673
  669TMC3     H 9903   4.418   0.080  14.369  0.2189 -0.2698  0.1905
  669TMC3    H1 9904   0.122   4.706  14.321 -0.2909 -0.8577 -2.0376
  669TMC3    H2 9905   4.633   0.207  14.029 -1.9486  1.9443  1.5701
  669TMC3    C7 9906   0.152   0.158  14.118 -0.2709 -0.0130 -0.4531
  669TMC3    C8 9907   4.393   0.204  14.141  0.1055 -0.0658  0.4799
  669TMC3    O1 9908   0.220   0.214  14.203  0.0757  0.3348  0.2641
  669TMC3    O2 9909   4.404   0.239  14.025 -1.0760  0.0397  0.4862
  670MPD2     C 9910   2.115   1.987  13.430  0.0049 -0.0448  0.6244
  670MPD2    C1 9911   2.240   2.042  13.425  0.6205 -0.3336 -0.1227
  670MPD2    C2 9912   2.288   2.102  13.539 -0.0826 -0.5342 -0.3651
  670MPD2    C3 9913   2.226   2.105  13.659  0.6839 -0.1464  0.1311
  670MPD2    C4 9914   2.107   2.033  13.662  0.0856 -0.3005 -0.6424
  670MPD2    C5 9915   2.056   1.970  13.554  0.4418 -0.2222  0.4036
  670MPD2     H 9916   2.387   2.143  13.526 -0.4124  1.4665  3.5966
  670MPD2    H1 9917   2.042   2.029  13.749  0.9884  0.0879  0.0464
  670MPD2    H2 9918   2.064   1.944  13.345 -0.1475  0.8493  0.2686
  670MPD2    H3 9919   1.957   1.926  13.565  0.5230 -0.0121  1.9725
  670MPD2     N 9920   2.278   2.168  13.775 -0.0580  0.0764 -0.1736
  670MPD2    H5 9921   2.366   2.218  13.762 -0.1197  0.2941  0.2659
  670MPD2    N1 9922   2.320   2.040  13.304 -0.3236 -0.1396 -0.4627
  670MPD2    H7 9923   2.411   2.084  13.308 -0.3225 -0.1426 -0.4541
  671TMC3    C1 9924   2.311   2.213  14.009  0.8247 -0.9094 -0.7936
  671TMC3    C2 9925   2.443   2.238  13.997  0.3959  0.4827  0.2728
  671TMC3    C3 9926   2.517   2.257  14.114 -0.2232  0.5720  0.1743
  671TMC3    C4 9927   2.246   2.221  14.132 -0.1656 -0.7526  0.2927
  671TMC3    C5 9928   2.326   2.240  14.243 -0.3221  0.3803 -0.2635
  671TMC3    C6 9929   2.463   2.265  14.243  0.3488  0.4752  0.1307
  671TMC3     C 9930   2.236   2.147  13.905  0.0730 -0.6622  0.8012
  671TMC3     O 9931   2.141   2.082  13.945  0.3578 -0.0759  0.1524
  671TMC3     H 9932   2.499   2.213  13.908 -2.0595 -1.1392 -0.7929
  671TMC3    H1 9933   2.141   2.192  14.136 -0.3952 -0.1019 -1.0109
  671TMC3    H2 9934   2.519   2.271  14.336  0.1624  0.6971  0.2257
  671TMC3    C7 9935   2.282   2.153  14.359 -0.6890 -0.1550 -0.2034
  671TMC3    C8 9936   2.654   2.198  14.114  0.5631  0.4150 -0.5900
  671TMC3    O1 9937   2.327   2.040  14.379 -0.9084 -0.2006 -0.5791
  671TMC3    O2 9938   2.686   2.135  14.013  0.6505  0.1400 -0.1445
  672MPD2     C 9939   2.632   2.627   1.270  0.2019  0.0705 -0.7400
  672MPD2    C1 9940   2.696   2.743   1.221 -0.0963  0.0479 -0.6182
  672MPD2    C2 9941   2.742   2.834   1.313  0.5579 -0.8951 -0.2236
  672MPD2    C3 9942   2.713   2.836   1.450 -0.2495 -0.1220  0.4671
  672MPD2    C4 9943   2.645   2.727   1.490 -0.1880  0.1541 -0.5869
  672MPD2    C5 9944   2.604   2.629   1.405  0.6204  0.1749 -0.1816
  672MPD2     H 9945   2.790   2.926   1.283  1.1531 -1.4597 -0.9991
  672MPD2    H1 9946   2.625   2.714   1.596 -1.8975 -0.5300 -1.0014
  672MPD2    H2 9947   2.586   2.557   1.202 -1.5926  0.3782  0.1669
  672MPD2    H3 9948   2.555   2.539   1.442  0.3859  0.1716 -0.4986
  672MPD2     N 9949   2.754   2.935   1.544 -0.0103  0.3375 -0.1238
  672MPD2    H5 9950   2.755   2.901   1.640  1.1255  0.6487 -0.0322
  672MPD2    N1 9951   2.712   2.761   1.078  0.1182  0.0267 -0.5457
  672MPD2    H7 9952   2.653   2.697   1.026  0.8066 -1.7963  0.8948
  673TMC3    C1 9953   2.803   2.852   0.879  0.5255  0.0829 -0.8365
  673TMC3    C2 9954   2.859   2.730   0.843  0.0580 -0.5927 -0.7268
  673TMC3    C3 9955   2.959   2.746   0.756  0.0986 -0.7541  0.7038
  673TMC3    C4 9956   2.849   2.975   0.830  0.1937  0.1618  0.7686
  673TMC3    C5 9957   2.951   2.981   0.740  0.1993  0.1253 -0.5451
  673TMC3    C6 9958   2.999   2.864   0.696  0.1637 -0.2463 -0.5453
  673TMC3     C 9959   2.776   2.868   1.020  0.4022 -0.1636 -0.9883
  673TMC3     O 9960   2.818   2.967   1.074  0.5037 -0.4635  0.1238
  673TMC3     H 9961   2.837   2.637   0.894 -0.6455 -0.1767 -0.2740
  673TMC3    H1 9962   2.796   3.064   0.860 -0.8723 -0.1032 -0.3325
  673TMC3    H2 9963   3.075   2.859   0.619  1.7495 -1.7084  1.1104
  673TMC3    C7 9964   2.979   3.103   0.677 -0.7213 -0.1570  0.2161
  673TMC3    C8 9965   3.053   2.639   0.744 -0.6416  0.1404  0.0022
  673TMC3    O1 9966   2.883   3.174   0.676  0.6102 -0.1889 -0.1893
  673TMC3    O2 9967   3.166   2.665   0.712  0.5565  0.2808 -0.1766
  674MPD2     C 9968   2.559   3.092   0.595 -1.2325 -0.5555  0.7179
  674MPD2    C1 9969   2.577   2.955   0.617  0.5628 -0.5301  0.0687
  674MPD2    C2 9970   2.542   2.897   0.740  0.5874  0.6813 -0.0984
  674MPD2    C3 9971   2.484   2.980   0.835 -0.3652 -0.5337  0.1352
  674MPD2    C4 9972   2.453   3.114   0.807 -0.1123 -0.3049  0.0329
  674MPD2    C5 9973   2.480   3.163   0.683 -0.6007  0.1351 -0.4117
  674MPD2     H 9974   2.569   2.792   0.751 -1.1958  0.0969 -1.3344
  674MPD2    H1 9975   2.391   3.166   0.880  0.4666 -0.2992  0.5189
  674MPD2    H2 9976   2.576   3.139   0.499 -0.3926 -0.8754  0.7080
  674MPD2    H3 9977   2.454   3.265   0.656  1.4948  1.4974  2.6957
  674MPD2     N 9978   2.425   2.910   0.943  0.1666  0.5791 -0.6264
  674MPD2    H5 9979   2.431   2.809   0.942 -0.2817  0.5586 -1.0238
  674MPD2    N1 9980   2.639   2.882   0.509  0.2313 -0.1919 -0.7288
  674MPD2    H7 9981   2.662   2.939   0.428  1.9319 -0.2596 -0.2908
  675TMC3    C1 9982   2.763   2.708   0.396 -0.0175  0.8668 -0.0300
  675TMC3    C2 9983   2.773   2.571   0.390  0.4785  1.1344  0.3731
  675TMC3    C3 9984   2.898   2.530   0.371 -0.4775 -0.0219 -0.1204
  675TMC3    C4 9985   2.865   2.794   0.376  0.4875 -0.4994  0.3713
  675TMC3    C5 9986   2.988   2.745   0.344 -0.2645  0.0034 -0.5727
  675TMC3    C6 9987   3.005   2.612   0.345  0.0204 -0.1328 -0.3476
  675TMC3     C 9988   2.672   2.749   0.508 -0.7664  0.3104 -0.0576
  675TMC3     O 9989   2.633   2.648   0.569  0.3105  0.0971 -0.2170
  675TMC3     H 9990   2.690   2.501   0.399  0.4383  0.8947 -1.8753
  675TMC3    H1 9991   2.866   2.900   0.401  2.0358 -0.2296 -0.8761
  675TMC3    H2 9992   3.105   2.570   0.338  0.4970  1.3057 -2.5343
  675TMC3    C7 9993   3.102   2.830   0.347  0.2496  0.0993  0.2357
  675TMC3    C8 9994   2.933   2.385   0.370  0.7997  0.1899  0.6274
  675TMC3    O1 9995   3.087   2.952   0.341  0.2882 -0.0183  0.7947
  675TMC3    O2 9996   3.017   2.355   0.285 -0.2778  0.2558 -0.2764
  676MPD2     C 9997   0.691   0.652  10.728 -0.2015 -0.6405  0.2523
  676MPD2    C1 9998   0.625   0.554  10.790 -0.4879  0.0167 -0.1004
  676MPD2    C2 9999   0.535   0.476  10.711  0.2107  0.0815 -0.3174
  676MPD2    C310000   0.504   0.491  10.577 -0.3349 -0.1800  0.9423
  676MPD2    C410001   0.584   0.581  10.513 -0.2911  0.0613  0.2425
  676MPD2    C510002   0.669   0.659  10.590  0.3836 -0.2638  0.0585
  676MPD2     H10003   0.501   0.389  10.767 -1.3765 -0.7686 -2.6375
  676MPD2    H110004   0.581   0.609  10.408 -0.7833  0.0149  0.2455
  676MPD2    H210005   0.770   0.702  10.781 -0.6447  0.7720 -0.4342
  676MPD2    H310006   0.741   0.719  10.535 -0.0470 -2.0169 -2.4133
  676MPD2     N10007   0.413   0.414  10.509  0.2432 -0.5700 -0.3212
  676MPD2    H510008   0.409   0.436  10.410 -2.2853 -0.9011 -0.2859
  676MPD2    N110009   0.633   0.529  10.930  0.5834  0.8248  0.3995
  676MPD2    H710010   0.581   0.449  10.966  0.3431  0.2806 -1.1685
  677TMC3    C110011   0.610   0.597  11.151 -0.2482 -0.5548  0.5107
  677TMC3    C210012   0.575   0.471  11.185 -0.5091 -0.3008  0.2233
  677TMC3    C310013   0.543   0.447  11.310 -0.9963  0.1764  0.4434
  677TMC3    C410014   0.608   0.696  11.243  0.0785  0.5383  0.2207
  677TMC3    C510015   0.550   0.667  11.362  0.2971 -0.4008  0.0960
  677TMC3    C610016   0.526   0.543  11.405 -0.3270  0.1759  0.2492
  677TMC3     C10017   0.681   0.621  11.020 -0.4303 -0.0737 -0.1645
  677TMC3     O10018   0.740   0.726  10.999  0.1626 -0.8630  0.1243
  677TMC3     H10019   0.594   0.384  11.123 -0.0262  1.4102 -2.0330
  677TMC3    H110020   0.642   0.794  11.211  1.5119  1.0359  3.3273
  677TMC3    H210021   0.501   0.517  11.508 -0.0399 -0.8848  0.0538
  677TMC3    C710022   0.562   0.753  11.470 -0.2833  0.4165 -0.1545
  677TMC3    C810023   0.545   0.304  11.347 -0.1622  0.0240  0.3256
  677TMC3    O110024   0.551   0.709  11.584  0.1884 -0.0139 -0.1996
  677TMC3    O210025   0.472   0.234  11.279 -0.1335 -0.4467 -0.2393
  678MPD2     C10026   1.800   1.198   1.960  0.2862 -0.2910 -0.4097
  678MPD2    C110027   1.792   1.236   1.829  0.5260  0.6475  1.1546
  678MPD2    C210028   1.665   1.273   1.793  0.2654 -0.1898 -0.3799
  678MPD2    C310029   1.555   1.268   1.869 -0.1088 -0.5510 -0.0891
  678MPD2    C410030   1.572   1.219   1.994 -0.0453 -0.5694 -0.2834
  678MPD2    C510031   1.692   1.184   2.035 -0.1433 -0.5382 -0.3355
  678MPD2     H10032   1.650   1.320   1.697  2.2442  0.3704 -0.4291
  678MPD2    H110033   1.495   1.216   2.070 -0.5475  1.9489 -0.6736
  678MPD2    H210034   1.893   1.168   2.007  1.8750  2.0317 -2.0660
  678MPD2    H310035   1.718   1.152   2.136  0.6201  0.1785 -0.3058
  678MPD2     N10036   1.428   1.310   1.824  1.1256  0.6447  0.1046
  678MPD2    H510037   1.411   1.312   1.724  0.4638  0.2891  0.2120
  678MPD2    N110038   1.900   1.253   1.739 -0.1280  0.2137 -0.4442
  678MPD2    H710039   1.882   1.283   1.644  1.3091 -1.4722 -1.2516
  679TMC3    C110040   2.317   1.216   1.551 -0.2696 -0.2060  0.3422
  679TMC3    C210041   2.234   1.176   1.649 -0.0520 -0.9209 -0.0062
  679TMC3    C310042   2.120   1.244   1.654 -0.8521  0.8491 -0.0379
  679TMC3    C410043   2.295   1.315   1.457 -0.4003  0.0358  1.2666
  679TMC3    C510044   2.179   1.382   1.468  0.0678 -0.3308  0.4041
  679TMC3    C610045   2.090   1.346   1.566 -0.6912 -0.4912  0.2909
  679TMC3     C10046   2.437   1.147   1.528 -0.2894  0.1502 -0.0366
  679TMC3     O10047   2.445   1.031   1.565  0.0837 -0.4961  0.8712
  679TMC3     H10048   2.271   1.104   1.721 -0.1136 -3.3328 -2.4014
  679TMC3    H110049   2.354   1.307   1.367 -2.2191 -0.2083  0.0921
  679TMC3    H210050   2.006   1.410   1.591 -0.8672 -0.1191 -1.2305
  679TMC3    C710051   2.143   1.482   1.369 -0.0585  0.0050  0.5257
  679TMC3    C810052   2.031   1.216   1.768 -0.6347 -0.1917 -0.5912
  679TMC3    O110053   2.025   1.515   1.358 -0.1287  0.1353 -0.2819
  679TMC3    O210054   2.074   1.148   1.855  0.2327 -0.4104  0.1661
  680MPD2     C10055   3.423   3.955  13.748  0.9954 -0.7925 -0.2072
  680MPD2    C110056   3.313   4.003  13.687 -0.6315 -0.1184  0.0807
  680MPD2    C210057   3.294   4.144  13.688  0.6810 -0.2526  0.3571
  680MPD2    C310058   3.380   4.227  13.765 -0.1388 -0.0418  0.2346
  680MPD2    C410059   3.489   4.171  13.828  0.0872 -0.3391 -0.6167
  680MPD2    C510060   3.509   4.036  13.813  0.2202  0.3204  0.3170
  680MPD2     H10061   3.218   4.184  13.622 -0.9119 -0.6951  1.9265
  680MPD2    H110062   3.564   4.228  13.882  1.3539 -1.7238 -0.9022
  680MPD2    H210063   3.440   3.848  13.758  3.4996 -0.2726  1.1408
  680MPD2    H310064   3.596   3.993  13.861 -0.4245 -0.8037  0.4714
  680MPD2     N10065   3.361   4.365  13.783 -0.4189 -0.9271 -0.7348
  680MPD2    H510066   3.426   4.417  13.841 -1.2303 -1.9341  1.0613
  680MPD2    N110067   3.218   3.928  13.619 -0.1761 -0.1516  0.3889
  680MPD2    H710068   3.134   3.980  13.596 -0.6166 -1.6255 -1.2554
  681TMC3    C110069   3.090   3.759  13.529  0.8564  0.2969 -0.6766
  681TMC3    C210070   3.006   3.680  13.598  0.5816 -0.8276  0.5764
  681TMC3    C310071   2.893   3.646  13.530 -0.3001  0.5637 -0.5417
  681TMC3    C410072   3.059   3.815  13.408  0.2199 -0.3397  0.2481
  681TMC3    C510073   2.950   3.768  13.345 -0.6284 -0.4838  0.3406
  681TMC3    C610074   2.870   3.678  13.398  0.4368 -0.2242 -0.4093
  681TMC3     C10075   3.209   3.794  13.605 -0.0924 -0.3938 -0.1207
  681TMC3     O10076   3.283   3.706  13.653  0.1994 -0.5253 -0.2732
  681TMC3     H10077   3.017   3.653  13.702  1.7713 -3.4254 -0.2237
  681TMC3    H110078   3.137   3.876  13.364  0.9163 -1.3764  0.0340
  681TMC3    H210079   2.771   3.654  13.361  1.0125 -0.3400 -1.8520
  681TMC3    C710080   2.911   3.807  13.209 -0.1555  0.0961  0.6298
  681TMC3    C810081   2.775   3.597  13.599 -0.1356  0.2980  0.1406
  681TMC3    O110082   2.835   3.725  13.156 -0.1737 -0.3752 -0.3579
  681TMC3    O210083   2.696   3.523  13.540  0.3030  0.2964 -0.7122
  682MPD2     C10084   4.328   0.489  10.211 -0.2459  0.2227 -0.3407
  682MPD2    C110085   4.189   0.466  10.228  1.4082  0.4051  0.0428
  682MPD2    C210086   4.122   0.532  10.327 -0.0525 -0.0253  0.0472
  682MPD2    C310087   4.182   0.608  10.418 -0.0099  0.1363  1.1739
  682MPD2    C410088   4.319   0.614  10.411  0.2234 -0.0727 -0.3908
  682MPD2    C510089   4.394   0.550  10.317 -0.6968  0.0200  0.1933
  682MPD2     H10090   4.017   0.509  10.335  0.0286 -0.9711 -1.4771
  682MPD2    H110091   4.377   0.647  10.497 -1.5411 -0.4887  0.9427
  682MPD2    H210092   4.379   0.427  10.139 -0.2098 -0.2661  0.1125
  682MPD2    H310093   4.502   0.535  10.315 -0.6651 -0.2455  3.2001
  682MPD2     N10094   4.115   0.662  10.526 -0.2885 -0.1861  0.1546
  682MPD2    H510095   4.159   0.720  10.597  0.8946 -0.9315  0.0325
  682MPD2    N110096   4.110   0.382  10.149 -0.5716  0.1367 -0.7962
  682MPD2    H710097   4.012   0.381  10.176 -0.4894  2.5795 -0.4757
  683TMC3    C110098   3.989   0.797  10.882 -0.1469  0.4635  0.1550
  683TMC3    C210099   3.864   0.845  10.899  0.3852 -0.4089  0.5099
  683TMC3    C310100   3.776   0.832  10.791 -0.5546 -0.7883  0.8670
  683TMC3    C410101   4.026   0.738  10.769  0.0407  0.2673 -0.0190
  683TMC3    C510102   3.937   0.740  10.660  0.2985  0.3949  0.9530
  683TMC3    C610103   3.810   0.774  10.673 -0.2723 -0.3750  0.2457
  683TMC3     C10104   4.051   0.754  11.003 -1.1063  1.0380 -0.9012
  683TMC3     O10105   4.065   0.636  11.015 -0.2188 -0.3849  0.2476
  683TMC3     H10106   3.835   0.895  10.991 -1.0663 -0.6747  0.1992
  683TMC3    H110107   4.122   0.686  10.769  0.0100  0.2133  0.2769
  683TMC3    H210108   3.740   0.752  10.593  0.5368 -1.1257 -0.2626
  683TMC3    C710109   3.979   0.675  10.532  0.4735  0.3613 -0.7403
  683TMC3    C810110   3.643   0.802  10.830  0.0130  0.0363 -0.3066
  683TMC3    O110111   3.894   0.648  10.450  0.4418 -0.6666 -0.4715
  683TMC3    O210112   3.559   0.783  10.747 -0.0375 -0.6006 -0.3301
  684MPD2     C10113   2.549   0.487  16.457 -0.1803  0.2034  0.2773
  684MPD2    C110114   2.598   0.512  16.328 -0.7880 -0.0816  0.3295
  684MPD2    C210115   2.667   0.625  16.301 -0.4160  0.0784 -0.4314
  684MPD2    C310116   2.684   0.717  16.406  0.2546  0.5768 -0.4717
  684MPD2    C410117   2.630   0.699  16.532  0.0751  0.8566  0.5111
  684MPD2    C510118   2.566   0.581  16.556 -0.2199 -0.1970 -0.6332
  684MPD2     H10119   2.721   0.640  16.209  1.5683 -0.0991  0.7205
  684MPD2    H110120   2.647   0.773  16.609  0.7198  1.2659 -0.0317
  684MPD2    H210121   2.504   0.392  16.481 -1.3660  0.2350 -1.8431
  684MPD2    H310122   2.515   0.559  16.650 -0.4306  1.4964 -0.3529
  684MPD2     N10123   2.756   0.835  16.394  0.3983  0.4599  0.2303
  684MPD2    H510124   2.756   0.895  16.476 -2.2290 -0.0339  0.6097
  684MPD2    N110125   2.598   0.414  16.229  0.1665  0.0504  0.6071
  684MPD2    H710126   2.643   0.446  16.144 -0.0979 -1.1613  0.0150
  685TMC3    C110127   2.587   0.210  16.118  0.3000 -0.4387 -0.2489
  685TMC3    C210128   2.519   0.252  16.012  0.5656 -0.0010 -0.1179
  685TMC3    C310129   2.533   0.173  15.897 -0.0801 -0.3691  0.6535
  685TMC3    C410130   2.665   0.098  16.122 -0.4026 -0.5121 -0.4899
  685TMC3    C510131   2.682   0.020  16.007 -0.1066 -0.0489 -0.2821
  685TMC3    C610132   2.614   0.057  15.895  0.5018 -0.0617  0.6977
  685TMC3     C10133   2.565   0.284  16.240 -0.1372 -0.0862  0.0389
  685TMC3     O10134   2.558   0.213  16.340  0.1361  0.1038  0.8225
  685TMC3     H10135   2.446   0.331  16.022 -0.7325 -1.3437  0.9522
  685TMC3    H110136   2.713   0.072  16.216 -1.4159 -2.3502 -0.4887
  685TMC3    H210137   2.638   0.006  15.802 -0.1214  3.2437 -1.3121
  685TMC3    C710138   2.819   4.706  16.008  0.1048 -0.3575  0.5298
  685TMC3    C810139   2.437   0.182  15.793 -0.4208  0.7639  0.2274
  685TMC3    O110140   2.874   4.669  16.111 -0.1864  0.0321  0.3386
  685TMC3    O210141   2.469   0.122  15.691 -0.3339 -0.1259  0.2852
  686MPD2     C10142   4.380   4.573  15.267 -0.5995  0.0953  0.2854
  686MPD2    C110143   4.356   4.569  15.406  0.6424 -0.7039  0.8037
  686MPD2    C210144   4.433   4.479  15.483  0.2739  0.2150  0.2104
  686MPD2    C310145   4.502   4.377  15.423  0.4147  0.2958  0.3695
  686MPD2    C410146   4.517   4.383  15.279 -0.0613 -0.4201  0.3335
  686MPD2    C510147   4.461   4.486  15.207  0.1529 -0.0288 -0.2702
  686MPD2     H10148   4.434   4.495  15.590 -3.2128  3.0413 -0.1663
  686MPD2    H110149   4.571   4.310  15.220 -2.6505 -3.6042  1.9097
  686MPD2    H210150   4.334   4.642  15.196 -1.0215  0.0858  0.5446
  686MPD2    H310151   4.478   4.492  15.100 -2.5596  4.2205 -0.4639
  686MPD2     N10152   4.584   4.275  15.484  0.5450 -0.3367 -0.7470
  686MPD2    H510153   4.616   4.206  15.417  0.0330 -1.5512  0.2568
  686MPD2    N110154   4.264   4.660  15.469  0.4092  0.0695  0.1855
  686MPD2    H710155   4.225   0.011  15.405  2.9062  1.3943  0.0472
  687TMC3    C110156   4.515   4.319  15.709 -0.7441  0.6517  0.1594
  687TMC3    C210157   4.380   4.285  15.704 -0.3519 -0.2895 -0.2094
  687TMC3    C310158   4.312   4.281  15.820 -0.3263 -0.0803 -0.4058
  687TMC3    C410159   4.574   4.350  15.830 -0.3863 -0.1811 -0.1537
  687TMC3    C510160   4.509   4.333  15.942 -0.6369  0.3059 -0.2690
  687TMC3    C610161   4.376   4.289  15.943 -0.5633  0.0745 -0.7914
  687TMC3     C10162   4.594   4.245  15.620  1.2650 -0.2202 -0.3857
  687TMC3     O10163   4.682   4.171  15.666 -0.2406 -0.5144 -0.6742
  687TMC3     H10164   4.348   4.230  15.617  0.5165 -2.1842  0.6836
  687TMC3    H110165   4.682   4.360  15.823 -0.3552 -1.7051 -1.8457
  687TMC3    H210166   4.322   4.279  16.036  0.8668 -0.8950 -0.0576
  687TMC3    C710167   4.512   4.445  16.035  0.4301  0.2440 -0.2156
  687TMC3    C810168   4.171   4.263  15.817 -0.0331  0.5889  0.4498
  687TMC3    O110169   4.442   4.449  16.138 -0.1033  0.8027 -0.0381
  687TMC3    O210170   4.111   4.213  15.908 -0.1827 -0.0882  0.2130
  688MPD2     C10171   3.287   4.215  17.293 -0.1368  0.1334  1.0954
  688MPD2    C110172   3.323   4.089  17.338  0.1888 -0.8142  0.5097
  688MPD2    C210173   3.375   3.994  17.249 -0.1553  0.4475  0.4305
  688MPD2    C310174   3.405   4.037  17.119 -1.1263  0.1304  0.4320
  688MPD2    C410175   3.371   4.162  17.080  0.0830  0.6599  0.2930
  688MPD2    C510176   3.315   4.256  17.164  0.1741  0.1074 -0.4076
  688MPD2     H10177   3.393   3.891  17.278 -2.7850 -0.6403 -1.7755
  688MPD2    H110178   3.373   4.190  16.976 -2.9699 -1.3863 -0.3179
  688MPD2    H210179   3.237   4.292  17.350  0.6942 -0.0466  2.0683
  688MPD2    H310180   3.292   4.359  17.138 -0.7544  0.2138  0.8442
  688MPD2     N10181   3.444   3.953  17.009  0.3740  0.2830 -0.0927
  688MPD2    H510182   3.457   4.003  16.921 -2.0518 -0.6574 -0.9721
  688MPD2    N110183   3.299   4.044  17.469  0.7451  0.0511 -0.0354
  688MPD2    H710184   3.304   3.944  17.486  0.3264  0.0626  0.1688
  689TMC3    C110185   3.306   4.073   0.036 -0.3753  0.4030 -0.3794
  689TMC3    C210186   3.263   4.148   0.144 -0.0437 -0.3460  1.2452
  689TMC3    C310187   3.235   4.075   0.250  0.2803  0.4302  0.6011
  689TMC3    C410188   3.341   3.938   0.040  0.5961  0.0219  0.1581
  689TMC3    C510189   3.321   3.878   0.159 -0.6855  0.4225 -0.1308
  689TMC3    C610190   3.265   3.941   0.264  0.6605  0.4256  0.3911
  689TMC3     C10191   3.290   4.129  17.577  0.0350 -0.7514 -0.3228
  689TMC3     O10192   3.280   4.251  17.587 -0.2243  0.5727  0.3652
  689TMC3     H10193   3.227   4.250   0.134 -3.6418 -1.7770 -0.3472
  689TMC3    H110194   3.402   3.893  17.636  1.2940 -0.0955  0.7660
  689TMC3    H210195   3.227   3.886   0.349  2.9296 -0.1352  1.0318
  689TMC3    C710196   3.337   3.734   0.180 -0.2939  0.0182 -0.4090
  689TMC3    C810197   3.182   4.146   0.369 -0.4657 -0.4950 -0.6419
  689TMC3    O110198   3.350   3.701   0.298 -0.1518 -0.7250  0.5064
  689TMC3    O210199   3.148   4.067   0.454  0.7278 -0.3225  0.2862
  690MPD2     C10200   1.005   1.064  15.626  0.3388 -0.1838  0.1707
  690MPD2    C110201   0.919   1.030  15.525  0.3986  0.1502 -0.1077
  690MPD2    C210202   0.947   1.059  15.395  0.6471  0.2283  0.2968
  690MPD2    C310203   1.075   1.103  15.363 -0.2497 -0.3307 -0.2531
  690MPD2    C410204   1.166   1.136  15.461  0.7277 -0.4852  0.3399
  690MPD2    C510205   1.135   1.118  15.591 -0.4630  0.2673  0.0886
  690MPD2     H10206   0.884   1.035  15.310 -0.7473  3.2460  0.5038
  690MPD2    H110207   1.263   1.181  15.441  0.0670  1.1488  0.8747
  690MPD2    H210208   0.986   1.039  15.730  1.1945 -0.5720  0.2312
  690MPD2    H310209   1.207   1.139  15.669 -0.6348  2.6990 -0.3926
  690MPD2     N10210   1.097   1.115  15.227  0.7795  0.0690 -0.3163
  690MPD2    H510211   1.015   1.095  15.171 -0.3233 -1.8974  2.0569
  690MPD2    N110212   0.801   0.948  15.546 -0.1326  0.1218  0.1828
  690MPD2    H710213   0.772   0.905  15.459  0.7886  0.7049 -0.4119
  691TMC3    C110214   0.646   0.801  15.637  0.3326 -0.2055 -0.4584
  691TMC3    C210215   0.572   0.757  15.745 -0.5087 -0.3835  0.0188
  691TMC3    C310216   0.493   0.649  15.725 -0.3648  0.5707 -0.0282
  691TMC3    C410217   0.648   0.727  15.520  0.5885 -0.0555 -0.8677
  691TMC3    C510218   0.569   0.616  15.512 -0.3108  0.6161  0.3004
  691TMC3    C610219   0.502   0.564  15.622  0.0439 -0.9973 -0.4304
  691TMC3     C10220   0.746   0.904  15.664 -0.0475 -0.7362 -0.7451
  691TMC3     O10221   0.760   0.956  15.773 -0.1453 -0.0110 -0.0642
  691TMC3     H10222   0.575   0.809  15.840  2.4595  1.3675 -1.0406
  691TMC3    H110223   0.698   0.757  15.429  1.0601  0.3144 -0.4884
  691TMC3    H210224   0.443   0.473  15.618  0.5622 -1.3195 -0.7383
  691TMC3    C710225   0.522   0.596  15.381 -0.1978 -0.6318 -0.2257
  691TMC3    C810226   0.405   0.609  15.835 -0.5544 -0.1662 -0.3700
  691TMC3    O110227   0.517   0.692  15.309  0.2763 -0.4458 -0.1842
  691TMC3    O210228   0.383   0.490  15.848  0.1780  0.1748  0.1350
  692TMC3    C110229   2.497   2.234  15.893  0.9419  0.2598  0.3705
  692TMC3    C210230   2.613   2.278  15.949 -0.0488 -0.1618  0.5179
  692TMC3    C310231   2.719   2.195  15.979 -0.3874  0.1296  0.3894
  692TMC3    C410232   2.470   2.107  15.894  0.8876  0.1149 -0.0458
  692TMC3    C510233   2.564   2.016  15.947  0.0890  0.8830  0.0817
  692TMC3    C610234   2.681   2.065  15.993  0.3476 -0.1612 -0.1295
  692TMC3     C10235   2.374   2.311  15.897 -0.1262  0.2855 -0.3208
  692TMC3     O10236   2.268   2.252  15.885 -0.3474  0.1798 -0.0934
  692TMC3     H10237   2.638   2.381  15.925 -2.5823  0.0317 -1.3040
  692TMC3    H110238   2.393   2.064  15.831  0.3125  0.4427  0.4396
  692TMC3    H210239   2.762   1.994  16.006  0.5467 -0.2164 -1.6655
  692TMC3    C710240   2.574   1.891  15.877 -0.7630 -0.0515 -0.1697
  692TMC3    C810241   2.794   2.246  16.094 -0.9017 -0.0005  0.2961
  692TMC3    O110242   2.501   1.883  15.779 -0.3203 -0.3866 -0.6056
  692TMC3    O210243   2.872   2.174  16.159  0.4247  0.0260 -0.1416
  693MPD2     C10244   1.081   0.025  10.899  0.2234  0.3314 -0.0060
  693MPD2    C110245   1.084   4.656  11.004 -0.2668 -0.3963  1.6204
  693MPD2    C210246   1.189   4.672  11.094 -0.2319 -0.3420  0.1928
  693MPD2    C310247   1.271   0.067  11.084  0.0337 -0.5064 -0.3316
  693MPD2    C410248   1.263   0.159  10.980 -0.8236 -0.4262  0.6333
  693MPD2    C510249   1.164   0.133  10.888  0.1547  0.2992 -0.2800
  693MPD2     H10250   1.193   4.600  11.175 -0.3104 -1.6003 -0.9254
  693MPD2    H110251   1.326   0.246  10.966 -1.8503  0.4363  1.3891
  693MPD2    H210252   0.995   0.028  10.834  0.7072 -0.9512 -0.6929
  693MPD2    H310253   1.146   0.203  10.806  1.1622  2.5624  1.4365
  693MPD2     N10254   1.382   0.093  11.169  0.1102 -0.5583  0.2576
  693MPD2    H510255   1.452   0.158  11.134 -1.6353  1.5829  0.7603
  693MPD2    N110256   0.986   4.553  11.005 -0.0276  0.3820  0.1078
  693MPD2    H710257   0.938   4.538  10.917 -2.0745  3.3691  0.7146
  694TMC3    C110258   0.877   4.371  11.108 -0.0307  0.8138 -0.2355
  694TMC3    C210259   0.856   4.313  10.988 -0.2732 -0.5035 -0.0365
  694TMC3    C310260   0.786   4.194  10.986  0.2500  0.6885  1.0000
  694TMC3    C410261   0.844   4.306  11.220 -0.0706  0.1671 -0.1856
  694TMC3    C510262   0.785   4.181  11.211 -0.0580  0.6367 -0.0190
  694TMC3    C610263   0.757   4.123  11.095 -0.3711  0.4872  1.3410
  694TMC3     C10264   0.953   4.492  11.125 -0.0315 -0.1891 -0.3591
  694TMC3     O10265   0.979   4.524  11.242 -0.2662 -0.6044  0.2084
  694TMC3     H10266   0.874   4.374  10.900 -1.0041 -1.2884 -0.7380
  694TMC3    H110267   0.860   4.350  11.318  1.8630  1.7483 -1.2216
  694TMC3    H210268   0.709   4.026  11.083  0.4575  0.2759 -0.1916
  694TMC3    C710269   0.778   4.106  11.334 -0.2884  0.3072  0.5993
  694TMC3    C810270   0.742   4.131  10.860  0.5297 -0.0473 -0.4215
  694TMC3    O110271   0.818   4.164  11.435  0.8540 -0.0431  0.1243
  694TMC3    O210272   0.708   4.011  10.861 -0.0602  0.6490  0.1942
  695MPD2     C10273   2.551   1.125  14.083  0.1899 -0.2303 -0.8348
  695MPD2    C110274   2.561   1.247  14.148 -0.4274 -0.0239 -0.2118
  695MPD2    C210275   2.441   1.314  14.185  0.2027 -0.9457 -0.0233
  695MPD2    C310276   2.320   1.264  14.149 -0.2416 -0.6888  0.0870
  695MPD2    C410277   2.320   1.146  14.081 -0.5661 -0.1465  0.7603
  695MPD2    C510278   2.431   1.076  14.043 -0.3787 -0.0420 -0.1546
  695MPD2     H10279   2.450   1.406  14.242 -0.4737 -1.3080  0.6732
  695MPD2    H110280   2.226   1.102  14.050 -0.8592  1.3648 -0.5152
  695MPD2    H210281   2.636   1.063  14.058  1.6692  0.8331  1.5405
  695MPD2    H310282   2.418   0.984  13.988 -1.0690 -0.3652  0.5658
  695MPD2     N10283   2.198   1.324  14.180 -0.0549 -0.1971  0.2935
  695MPD2    H510284   2.207   1.420  14.210 -0.3418  0.3792 -1.5239
  695MPD2    N110285   2.682   1.305  14.187  0.0974 -0.1942 -0.4876
  695MPD2    H710286   2.671   1.394  14.236  1.2562 -0.0100 -0.5712
  696TMC3    C110287   1.976   1.388  14.201 -0.3167 -0.8323  1.2638
  696TMC3    C210288   2.001   1.472  14.313 -0.2249  0.4745 -0.8418
  696TMC3    C310289   1.934   1.587  14.330 -0.7692  0.3345  0.1718
  696TMC3    C410290   1.905   1.440  14.094 -0.0445  0.6629  0.0604
  696TMC3    C510291   1.845   1.563  14.119  0.2835 -0.1727 -0.6694
  696TMC3    C610292   1.857   1.637  14.231 -0.1011  0.0400 -0.0552
  696TMC3     C10293   2.066   1.281  14.165  0.2618  0.5222 -0.6234
  696TMC3     O10294   2.013   1.187  14.101 -0.2401  0.5480  0.0165
  696TMC3     H10295   2.071   1.428  14.383 -0.3654  0.1275 -0.9170
  696TMC3    H110296   1.900   1.378  14.006  0.6298  1.2227 -0.3827
  696TMC3    H210297   1.802   1.728  14.251 -1.5482 -0.4984 -1.5908
  696TMC3    C710298   1.800   1.633  14.000 -0.2211  0.2031  0.1448
  696TMC3    C810299   2.000   1.689  14.416  0.1940  0.1068 -1.1420
  696TMC3    O110300   1.778   1.570  13.898 -0.2829  0.8821 -0.1443
  696TMC3    O210301   2.118   1.699  14.419  0.1732  0.8107  0.3149
  697MPD2     C10302   2.166   3.773  15.923 -0.3659 -0.4082 -0.3110
  697MPD2    C110303   2.174   3.721  15.792  0.5748  0.0073 -0.0929
  697MPD2    C210304   2.182   3.809  15.691  0.6260  0.5072 -0.5442
  697MPD2    C310305   2.176   3.947  15.713 -0.2436 -0.0538  0.0890
  697MPD2    C410306   2.162   3.993  15.843  0.3393 -0.3306 -0.3908
  697MPD2    C510307   2.153   3.906  15.944 -0.7702  0.7887 -0.4829
  697MPD2     H10308   2.186   3.767  15.592  0.9760 -1.2528  0.2286
  697MPD2    H110309   2.158   4.097  15.874 -0.3494  0.1628 -2.1562
  697MPD2    H210310   2.150   3.703  16.003 -1.2500 -3.3852 -3.0860
  697MPD2    H310311   2.141   3.952  16.042  1.8566 -2.0789  1.1795
  697MPD2     N10312   2.181   4.037  15.609 -0.2963 -0.1510  0.1184
  697MPD2    H510313   2.173   3.995  15.517  1.1427 -1.1640  0.4426
  697MPD2    N110314   2.184   3.585  15.762 -0.4750  0.3894  0.3652
  697MPD2    H710315   2.203   3.567  15.664  0.0579  0.9033  0.3767
  698TMC3    C110316   2.178   4.246  15.489 -0.2520  0.5700  0.2804
  698TMC3    C210317   2.235   4.372  15.486  0.3866  0.1325 -0.1108
  698TMC3    C310318   2.259   4.420  15.359  0.4763  0.9362  0.8917
  698TMC3    C410319   2.130   4.183  15.373  0.1293 -0.2473  0.3590
  698TMC3    C510320   2.136   4.252  15.255 -0.3176  0.6640  0.3841
  698TMC3    C610321   2.206   4.365  15.246 -0.3385 -0.7823 -1.0917
  698TMC3     C10322   2.191   4.171  15.616  0.0412 -0.1347 -0.0398
  698TMC3     O10323   2.202   4.237  15.717  0.5945 -0.2225  0.2565
  698TMC3     H10324   2.275   4.415  15.577  0.5685  0.0890 -0.1703
  698TMC3    H110325   2.068   4.097  15.392 -0.4818  0.3628  1.1464
  698TMC3    H210326   2.203   4.417  15.151  3.5920  0.6367 -0.4716
  698TMC3    C710327   2.069   4.206  15.135 -0.0246  0.2005 -0.0757
  698TMC3    C810328   2.308   4.556  15.364 -0.4701 -0.0538  0.4449
  698TMC3    O110329   2.127   4.241  15.030  0.2193 -0.9120 -0.2973
  698TMC3    O210330   2.289   4.623  15.464 -0.5770  0.1320  0.0158
  699TMC3    C110331   2.103   1.653  12.884  0.3054  0.4568 -0.1766
  699TMC3    C210332   2.176   1.633  12.995 -0.0551  0.0998  0.0153
  699TMC3    C310333   2.114   1.632  13.114  0.4669  0.0938 -0.0768
  699TMC3    C410334   1.980   1.716  12.889  0.0175 -0.0373 -0.4844
  699TMC3    C510335   1.927   1.731  13.017  0.4019  0.0797  0.3287
  699TMC3    C610336   1.992   1.693  13.133  0.4287  0.3414  0.5711
  699TMC3     C10337   2.171   1.666  12.759  0.0578 -0.7804  0.1507
  699TMC3     O10338   2.099   1.701  12.663  0.2788  0.1555 -0.0194
  699TMC3     H10339   2.260   1.567  12.981  0.0880  0.3456 -0.2784
  699TMC3    H110340   1.922   1.753  12.806 -1.8526 -2.9471 -0.4923
  699TMC3    H210341   1.959   1.710  13.235  1.0274  3.3980  0.2448
  699TMC3    C710342   1.812   1.808  13.045 -0.0448 -0.2903 -0.4525
  699TMC3    C810343   2.195   1.610  13.233  0.4737 -0.7973  0.1998
  699TMC3    O110344   1.812   1.867  13.152 -0.2287 -0.3420  0.1862
  699TMC3    O210345   2.315   1.593  13.210  0.2550 -0.5153  0.1930
  700TMC3    C110346   1.094   4.059  17.355  0.2824  0.2316 -0.0256
  700TMC3    C210347   1.197   3.992  17.301  0.0024  0.5625  0.1791
  700TMC3    C310348   1.273   3.920  17.386  1.1322  0.1185 -0.7036
  700TMC3    C410349   1.084   4.078  17.491 -0.1521  0.3577 -0.8215
  700TMC3    C510350   1.159   4.002  17.570  0.4321  0.4030 -0.7879
  700TMC3    C610351   1.248   3.909  17.523  0.4656 -0.2183  0.3950
  700TMC3     C10352   1.017   4.147  17.276 -0.0140 -0.9543  0.0726
  700TMC3     O10353   0.896   4.158  17.305  0.5714 -0.2414 -0.2111
  700TMC3     H10354   1.222   3.996  17.196 -1.4944 -1.4552 -0.2550
  700TMC3    H110355   1.006   4.141  17.532 -0.2630  0.1106 -0.6525
  700TMC3    H210356   1.314   3.857  17.591  2.1144 -1.0362 -1.8250
  700TMC3    C710357   1.186   4.036   0.035  0.2529 -0.8087 -0.1498
  700TMC3    C810358   1.363   3.835  17.322  0.8213 -0.4321 -0.2925
  700TMC3    O110359   1.197   3.939   0.104  0.1574 -0.5064  0.2355
  700TMC3    O210360   1.411   3.887  17.220  0.5019 -0.2039 -0.1839
  701TMC3    C110361   1.210   2.754  15.436 -0.6761 -0.0241  0.2457
  701TMC3    C210362   1.226   2.780  15.302 -0.0618 -1.0134  0.0312
  701TMC3    C310363   1.299   2.889  15.270 -0.2909 -0.6726 -0.3251
  701TMC3    C410364   1.280   2.813  15.530  0.1317 -1.1751 -0.4385
  701TMC3    C510365   1.373   2.907  15.495 -0.5093  0.5161  0.7489
  701TMC3    C610366   1.388   2.941  15.362 -0.2659 -0.6902 -1.9086
  701TMC3     C10367   1.127   2.638  15.487 -0.6593 -0.4859 -0.5141
  701TMC3     O10368   1.151   2.602  15.602 -0.3886  0.0059 -0.0436
  701TMC3     H10369   1.186   2.715  15.225  1.9138 -1.2506 -0.7825
  701TMC3    H110370   1.285   2.783  15.634 -0.0850 -0.7541 -0.3081
  701TMC3    H210371   1.451   3.029  15.348 -1.3236  0.4208  0.3770
  701TMC3    C710372   1.452   2.981  15.588  0.2010 -0.0836 -0.2521
  701TMC3    C810373   1.259   2.962  15.156 -0.1074 -0.7825  0.1918
  701TMC3    O110374   1.553   3.036  15.547 -0.2383  0.4526  0.1261
  701TMC3    O210375   1.339   3.047  15.112 -0.5796 -0.8888 -1.0566
  702MPD2     C10376   0.559   0.179   9.883 -0.0751  0.4122  0.9664
  702MPD2    C110377   0.513   0.278   9.960  0.3703  0.4349 -0.4375
  702MPD2    C210378   0.576   0.399   9.947  0.7950 -0.1237 -0.5050
  702MPD2    C310379   0.670   0.428   9.855 -0.4276  0.0469 -0.1168
  702MPD2    C410380   0.719   0.326   9.784 -0.0459  0.4389 -0.3542
  702MPD2    C510381   0.663   0.201   9.795  0.3821  0.2607 -0.1969
  702MPD2     H10382   0.549   0.472  10.023  2.4616 -0.3887  0.3362
  702MPD2    H110383   0.796   0.342   9.710  0.7493  0.0364  0.3939
  702MPD2    H210384   0.529   0.076   9.904 -1.3186  0.4982 -0.3951
  702MPD2    H310385   0.699   0.125   9.727 -0.2358  0.2681 -0.5347
  702MPD2     N10386   0.726   0.554   9.856  0.3655 -0.2243  1.2604
  702MPD2    H510387   0.689   0.618   9.925 -1.6662  0.5867 -0.5663
  702MPD2    N110388   0.424   0.267  10.071  0.8814 -0.5099  0.2345
  702MPD2    H710389   0.398   0.355  10.113 -0.1080  0.2987 -2.1021
  703TMC3    C110390   0.868   0.728   9.811 -0.2329  0.1743 -0.6108
  703TMC3    C210391   0.767   0.812   9.843  0.3385  0.2204  1.1766
  703TMC3    C310392   0.794   0.945   9.838  0.1984 -0.9156 -0.9295
  703TMC3    C410393   0.990   0.773   9.766 -0.1490  0.5057 -0.6790
  703TMC3    C510394   1.015   0.906   9.770  0.5579  0.1803 -0.2501
  703TMC3    C610395   0.916   0.993   9.797  0.2395  0.7150 -0.1729
  703TMC3     C10396   0.838   0.586   9.788  0.2462  0.6603 -0.2498
  703TMC3     O10397   0.899   0.529   9.700  0.1665 -0.8784  0.8715
  703TMC3     H10398   0.665   0.786   9.870 -0.5233  0.5593 -1.7277
  703TMC3    H110399   1.062   0.712   9.712  1.3171  0.2028  1.6008
  703TMC3    H210400   0.932   1.100   9.800 -1.6649  0.9803  0.8244
  703TMC3    C710401   1.151   0.964   9.796 -0.2908 -0.1596  0.4868
  703TMC3    C810402   0.699   1.045   9.874  0.5595  0.3181 -0.3502
  703TMC3    O110403   1.161   1.089   9.787 -0.8807  0.2367  0.0992
  703TMC3    O210404   0.701   1.154   9.819  0.2436  0.5527  0.1361
  704TMC3    C110405   3.482   3.738  12.420  0.1673 -0.2046  0.2631
  704TMC3    C210406   3.567   3.692  12.324 -0.3764  0.5617 -0.3314
  704TMC3    C310407   3.682   3.630  12.358 -0.2437 -0.3575  0.2863
  704TMC3    C410408   3.513   3.718  12.552 -0.5596 -0.5420  0.0265
  704TMC3    C510409   3.632   3.654  12.580 -0.1084  0.3587  0.2600
  704TMC3    C610410   3.710   3.600  12.490  0.2060  0.6249  0.4568
  704TMC3     C10411   3.342   3.759  12.389  0.0687 -0.1482  0.2961
  704TMC3     O10412   3.273   3.807  12.477 -0.0836 -0.6026  0.1040
  704TMC3     H10413   3.541   3.685  12.219  1.8726 -5.1893 -0.4966
  704TMC3    H110414   3.441   3.724  12.632 -0.6559  2.3305 -0.2907
  704TMC3    H210415   3.780   3.523  12.520  0.2975  0.6680  0.3592
  704TMC3    C710416   3.628   3.589  12.700 -0.3118 -0.0594  0.0925
  704TMC3    C810417   3.739   3.541  12.257 -0.4848 -0.5027  0.2333
  704TMC3    O110418   3.601   3.657  12.795 -0.6543  0.4270 -0.4446
  704TMC3    O210419   3.665   3.519  12.163 -0.0752 -0.2115  0.5350
  705MPD2     C10420   2.563   1.820  16.246  0.0996  0.2297  0.0645
  705MPD2    C110421   2.623   1.914  16.336  0.0886 -0.2117 -0.4004
  705MPD2    C210422   2.537   2.007  16.397 -0.0012  0.0957 -0.1760
  705MPD2    C310423   2.400   1.995  16.388 -0.0935 -0.0424 -0.5425
  705MPD2    C410424   2.347   1.904  16.308  0.4150 -0.1803 -0.3552
  705MPD2    C510425   2.425   1.830  16.228 -0.6337  0.2031  0.0180
  705MPD2     H10426   2.570   2.093  16.453 -0.8943 -1.6551  3.0810
  705MPD2    H110427   2.239   1.896  16.297  0.4717  0.2594 -1.1670
  705MPD2    H210428   2.626   1.744  16.200  1.5168  0.4998  1.5544
  705MPD2    H310429   2.378   1.748  16.174  0.2024 -1.7789  2.2957
  705MPD2     N10430   2.306   2.071  16.460  0.0773  0.5779  0.1560
  705MPD2    H510431   2.209   2.040  16.456  0.2410  0.1241 -0.4029
  705MPD2    N110432   2.763   1.937  16.354 -1.0190  0.0531 -0.4377
  705MPD2    H710433   2.789   2.000  16.429  0.5365 -0.6502 -0.3753
  706TMC3    C110434   3.205   1.780  16.309 -0.5352 -0.0310  0.0505
  706TMC3    C210435   3.262   1.885  16.371  0.0077  0.5836  0.0680
  706TMC3    C310436   3.173   1.988  16.407 -0.1259 -0.2252  0.4385
  706TMC3    C410437   3.070   1.774  16.284  0.2135  0.0299 -0.0212
  706TMC3    C510438   2.988   1.872  16.339 -0.9741  0.5788  0.0230
  706TMC3    C610439   3.040   1.985  16.396  0.8527 -0.1623 -0.3693
  706TMC3     C10440   3.296   1.681  16.253 -0.3631  0.4096 -0.0870
  706TMC3     O10441   3.412   1.673  16.303 -0.3443 -0.7807 -0.0251
  706TMC3     H10442   3.369   1.898  16.366 -0.2881  3.4571  1.1479
  706TMC3    H110443   3.028   1.694  16.225  0.2843 -0.0988  0.1033
  706TMC3    H210444   2.968   2.059  16.428  0.3674 -0.8190  0.0636
  706TMC3    C710445   2.862   1.887  16.275  0.8429  0.4787  0.0701
  706TMC3    C810446   3.232   2.121  16.390  0.1302  0.1531 -0.4633
  706TMC3    O110447   2.853   1.836  16.165  0.1112 -0.0717  0.0401
  706TMC3    O210448   3.348   2.126  16.424  0.1762 -0.3930 -0.2820
  707TMC3    C110449   4.607   0.993   1.316  0.9153 -0.5177  0.0926
  707TMC3    C210450   4.698   0.947   1.413  0.2460  0.0844 -0.0392
  707TMC3    C310451   4.651   0.911   1.540  0.8095 -0.1482 -0.9093
  707TMC3    C410452   4.473   0.992   1.343  0.3478 -0.1000  0.1568
  707TMC3    C510453   4.433   0.956   1.469 -0.3412  0.4713  0.8935
  707TMC3    C610454   4.517   0.926   1.571  0.5686 -0.6529  0.0869
  707TMC3     C10455   4.657   0.987   1.179  0.3229 -0.6655 -0.4015
  707TMC3     O10456   0.059   1.006   1.153 -0.0273  0.4389 -0.0709
  707TMC3     H10457   0.087   0.936   1.395  0.5660  1.2011  1.2309
  707TMC3    H110458   4.402   1.026   1.268 -0.8223  0.6953  1.6508
  707TMC3    H210459   4.479   0.899   1.669 -1.3793 -2.0199 -1.0433
  707TMC3    C710460   4.296   0.974   1.496 -0.4156  0.4468 -0.3551
  707TMC3    C810461   0.036   0.919   1.647  0.4435  0.3844 -0.5192
  707TMC3    O110462   4.227   1.050   1.426 -0.4624 -0.0976 -0.3479
  707TMC3    O210463   4.709   0.954   1.754 -0.0880 -0.5989  0.4050
  708MPD2     C10464   0.716   0.302  13.557  0.5301  0.3713 -0.6757
  708MPD2    C110465   0.761   0.172  13.584  0.1620  0.0589 -0.0908
  708MPD2    C210466   0.887   0.150  13.637  0.3378 -0.0815 -0.1988
  708MPD2    C310467   0.979   0.249  13.654 -0.3736  0.2113 -0.5315
  708MPD2    C410468   0.928   0.373  13.644 -0.0579 -0.2696  0.4756
  708MPD2    C510469   0.804   0.398  13.598 -1.1030  0.4214 -0.3339
  708MPD2     H10470   0.900   0.051  13.679 -1.3971  0.3801  1.4260
  708MPD2    H110471   1.005   0.450  13.638 -1.9015  1.6194  1.0626
  708MPD2    H210472   0.612   0.325  13.534  1.0684  2.3910 -1.1045
  708MPD2    H310473   0.777   0.501  13.579  0.6451  1.1664  1.2059
  708MPD2     N10474   1.117   0.220  13.686 -0.3107  0.0879  0.4682
  708MPD2    H510475   1.186   0.294  13.700  0.4379 -1.1398  3.1883
  708MPD2    N110476   0.685   0.057  13.570 -0.5460  0.1526  0.2076
  708MPD2    H710477   0.728   4.693  13.612 -1.2959  0.1620  1.0088
  709TMC3    C110478   0.513   4.634  13.532 -0.4012  0.1584 -0.1988
  709TMC3    C210479   0.529   4.574  13.414  0.0594  0.3480 -0.7441
  709TMC3    C310480   0.580   4.447  13.402  0.6027  0.0837  0.6749
  709TMC3    C410481   0.568   4.566  13.645  0.4958 -0.0655 -0.4898
  709TMC3    C510482   0.622   4.439  13.628 -0.6323  0.4484  0.6878
  709TMC3    C610483   0.641   4.378  13.508  0.1837  0.2324 -0.1851
  709TMC3     C10484   0.559   0.050  13.520  0.4471 -0.5539  0.9411
  709TMC3     O10485   0.503   0.131  13.446 -0.2591 -0.1709  0.2547
  709TMC3     H10486   0.515   4.630  13.322  1.4301 -0.3903 -1.4059
  709TMC3    H110487   0.567   4.611  13.744  0.6870 -0.1721 -0.4406
  709TMC3    H210488   0.699   4.288  13.497  0.8497  0.6651 -0.2273
  709TMC3    C710489   0.743   4.438  13.708 -0.2538 -0.4728  0.5682
  709TMC3    C810490   0.620   4.395  13.272  0.1935 -0.0601 -0.6108
  709TMC3    O110491   0.791   4.550  13.726  0.2948  0.2896 -0.0024
  709TMC3    O210492   0.589   4.280  13.262 -0.2589  0.5872 -0.1894
  710TMC3    C110493   1.672   1.844   0.691  0.2374  0.1472 -0.7330
  710TMC3    C210494   1.705   1.799   0.563  0.4574 -0.1464 -0.0232
  710TMC3    C310495   1.831   1.745   0.546 -0.0406 -0.0873 -0.0336
  710TMC3    C410496   1.757   1.830   0.800  0.0322  0.7290  0.1958
  710TMC3    C510497   1.872   1.760   0.777 -0.2601  0.0576  0.2803
  710TMC3    C610498   1.910   1.716   0.652 -0.8753  0.0211  0.5840
  710TMC3     C10499   1.557   1.925   0.711 -0.5530 -0.8201  0.4541
  710TMC3     O10500   1.475   1.937   0.616 -0.9188 -0.0236  0.1498
  710TMC3     H10501   1.632   1.833   0.490  0.0305  0.3497  0.6381
  710TMC3    H110502   1.740   1.857   0.904  1.2285  3.2426 -0.2553
  710TMC3    H210503   2.001   1.658   0.636 -1.3464 -1.8899  4.9577
  710TMC3    C710504   1.948   1.721   0.895 -0.0842 -0.5519  0.3223
  710TMC3    C810505   1.852   1.688   0.413  0.5038 -0.3072  0.6120
  710TMC3    O110506   1.884   1.703   0.995  0.1570 -0.7109 -0.4850
  710TMC3    O210507   1.811   1.751   0.316 -0.0051  0.1552  0.1115
  711TMC3    C110508   1.974   2.707  15.024  0.3225 -0.3625  0.0770
  711TMC3    C210509   2.018   2.808  15.107 -0.6105  0.2617  0.0844
  711TMC3    C310510   2.149   2.828  15.128 -0.1999 -0.0895  0.0688
  711TMC3    C410511   2.054   2.646  14.931  0.5635 -0.3734 -0.4904
  711TMC3    C510512   2.187   2.678  14.939 -0.3205  0.5541  0.2598
  711TMC3    C610513   2.233   2.770  15.036  0.9078 -0.2738  0.1774
  711TMC3     C10514   1.837   2.676  15.020 -0.8053 -0.5712  0.3067
  711TMC3     O10515   1.794   2.607  14.927 -1.2952 -0.1162 -0.1197
  711TMC3     H10516   1.949   2.853  15.177 -1.0084 -0.2746  0.0404
  711TMC3    H110517   2.021   2.565  14.867  0.6388  0.6151 -1.8028
  711TMC3    H210518   2.340   2.784  15.047  1.0147 -2.6297  2.0806
  711TMC3    C710519   2.292   2.597  14.889  0.3307  0.3919  0.1161
  711TMC3    C810520   2.181   2.820  15.275  0.3314 -0.1384 -0.4094
  711TMC3    O110521   2.401   2.616  14.940 -0.1502 -0.1390 -0.0875
  711TMC3    O210522   2.083   2.791  15.346 -0.2928 -0.2202  0.4573
  712MPD2     C10523   3.760   3.531  13.693  0.1563  0.0325 -0.1751
  712MPD2    C110524   3.654   3.595  13.636 -0.5687  1.0229 -0.8851
  712MPD2    C210525   3.661   3.723  13.595  0.1949 -0.3737 -0.6242
  712MPD2    C310526   3.790   3.786  13.603 -0.1725 -0.1588 -0.2446
  712MPD2    C410527   3.901   3.715  13.655  0.0759 -0.4145 -0.2678
  712MPD2    C510528   3.881   3.592  13.707  0.4238  0.2095  0.3776
  712MPD2     H10529   3.570   3.771  13.560  0.8035  0.8069 -0.5691
  712MPD2    H110530   4.000   3.759  13.658  0.5577 -1.3362 -2.5733
  712MPD2    H210531   3.756   3.426  13.719  1.7235  0.5195  2.0565
  712MPD2    H310532   3.963   3.544  13.759  2.3186  1.4825 -1.4288
  712MPD2     N10533   3.810   3.923  13.567  0.0583  0.0521  0.3976
  712MPD2    H510534   3.901   3.961  13.593 -0.0437  0.5417  0.0384
  712MPD2    N110535   3.538   3.524  13.608  0.2737 -0.0404  0.4193
  712MPD2    H710536   3.461   3.573  13.563  1.0613 -0.8360 -1.7672
  713TMC3    C110537   3.760   4.131  13.456 -0.2324 -0.2201 -0.2459
  713TMC3    C210538   3.893   4.153  13.426 -0.0247 -0.6050  0.4119
  713TMC3    C310539   3.924   4.280  13.397 -0.1782  0.9473  0.1732
  713TMC3    C410540   3.662   4.230  13.455 -0.4567 -0.2033  0.2361
  713TMC3    C510541   3.705   4.355  13.415  0.5546 -0.6709 -0.9908
  713TMC3    C610542   3.835   4.378  13.382 -0.5425  0.6133  0.1503
  713TMC3     C10543   3.715   3.999  13.495  0.2818 -0.2664 -0.0745
  713TMC3     O10544   3.591   3.984  13.498 -0.1361  0.0619 -0.3225
  713TMC3     H10545   3.955   4.068  13.399 -0.7030 -1.8439  2.7181
  713TMC3    H110546   3.564   4.200  13.492  0.5517 -2.8510  0.7899
  713TMC3    H210547   3.870   4.477  13.356  0.6252  0.2965  0.5314
  713TMC3    C710548   3.606   4.450  13.388  0.4163  0.1689  0.6428
  713TMC3    C810549   4.063   4.315  13.386  0.5094  0.3166  0.0068
  713TMC3    O110550   3.655   4.553  13.341 -0.2282 -0.8658  0.1676
  713TMC3    O210551   4.078   4.425  13.339 -0.1064  0.0542 -0.4502
  714MPD2     C10552   0.562   2.508   1.749  0.1855  0.4526  1.0782
  714MPD2    C110553   0.633   2.427   1.664  0.0145  0.1998  0.1565
  714MPD2    C210554   0.646   2.472   1.534  0.8163  0.2825 -0.0089
  714MPD2    C310555   0.599   2.593   1.489  0.1176 -0.2708  0.2131
  714MPD2    C410556   0.523   2.665   1.575  0.3284 -0.1188 -0.3512
  714MPD2    C510557   0.500   2.615   1.697  0.6830 -0.2331  0.7428
  714MPD2     H10558   0.684   2.404   1.458 -0.2402  0.7088 -0.9242
  714MPD2    H110559   0.492   2.765   1.551  0.7155  0.7569  2.7368
  714MPD2    H210560   0.546   2.479   1.853 -1.7954  1.7856  1.1270
  714MPD2    H310561   0.437   2.674   1.763  1.0333  0.5889  0.3523
  714MPD2     N10562   0.619   2.637   1.355  0.3441 -0.1952 -0.3282
  714MPD2    H510563   0.652   2.559   1.298 -0.7701 -0.0785 -1.1410
  714MPD2    N110564   0.709   2.323   1.719 -0.0253 -0.7113 -0.2958
  714MPD2    H710565   0.711   2.314   1.820 -1.3452 -1.5650 -0.3481
  715TMC3    C110566   0.857   2.139   1.714  0.2064  0.1769 -0.3009
  715TMC3    C210567   0.925   2.045   1.641  0.1291 -0.4146 -0.0566
  715TMC3    C310568   1.028   1.976   1.704 -0.0078  0.3700 -0.3089
  715TMC3    C410569   0.899   2.176   1.834 -0.0769 -0.6221  0.6206
  715TMC3    C510570   0.997   2.104   1.893 -0.2112 -0.6653  0.1504
  715TMC3    C610571   1.058   1.997   1.832 -0.3144  0.2975  0.0821
  715TMC3     C10572   0.761   2.222   1.645 -0.3234 -0.5388 -0.4772
  715TMC3     O10573   0.738   2.197   1.525 -0.7027 -0.2274 -0.5262
  715TMC3     H10574   0.897   2.028   1.538 -0.8948  0.5927  0.0472
  715TMC3    H110575   0.857   2.263   1.883 -1.3479 -1.2407  0.6312
  715TMC3    H210576   1.130   1.945   1.895 -0.3850  2.0982  1.6525
  715TMC3    C710577   1.043   2.136   2.026 -0.2687 -0.1049  0.2317
  715TMC3    C810578   1.096   1.879   1.628 -0.3651  0.0173 -0.1626
  715TMC3    O110579   1.160   2.107   2.051  0.2927 -0.4451  0.1954
  715TMC3    O210580   1.052   1.834   1.522  0.0725 -0.1127 -0.1079
  716MPD2     C10581   4.344   0.047   9.928  0.1034  0.7518 -0.1025
  716MPD2    C110582   4.379   0.085   9.799 -0.5711  0.8715 -0.3416
  716MPD2    C210583   4.395   4.697   9.718  0.2939  0.0305 -0.3322
  716MPD2    C310584   4.369   4.565   9.739  0.0799 -0.0655 -0.0652
  716MPD2    C410585   4.334   4.536   9.866 -0.4790  0.8201  0.6472
  716MPD2    C510586   4.329   4.637   9.960 -0.4072  0.4549  0.2125
  716MPD2     H10587   4.434   4.713   9.618 -2.0582 -1.0879 -1.4208
  716MPD2    H110588   4.317   4.435   9.902 -0.8051  0.9007  0.7162
  716MPD2    H210589   4.348   0.127  10.001 -0.5903 -0.8588  1.6967
  716MPD2    H310590   4.314   4.612  10.064  0.7855 -0.4924  0.1638
  716MPD2     N10591   4.415   4.471   9.643 -0.1724 -0.5890  0.3942
  716MPD2    H510592   4.471   4.500   9.563 -1.6365  1.0530 -0.0501
  716MPD2    N110593   4.413   0.217   9.776 -0.0966  0.5435  0.4508
  716MPD2    H710594   4.387   0.280   9.851 -0.5980  1.9936 -0.9256
  717TMC3    C110595   4.422   4.278   9.516  0.0914 -1.0861  0.0671
  717TMC3    C210596   4.338   4.279   9.409  0.7223  0.1819 -0.4606
  717TMC3    C310597   4.401   4.266   9.285 -0.7077 -0.4040  1.0627
  717TMC3    C410598   4.555   4.270   9.499  0.7199  0.2657 -0.5136
  717TMC3    C510599   4.616   4.261   9.378  0.2933 -0.4797  0.4277
  717TMC3    C610600   4.537   4.265   9.264 -0.0454 -1.1291 -0.4240
  717TMC3     C10601   4.379   4.341   9.635 -0.4877  0.0056 -0.3358
  717TMC3     O10602   4.288   4.287   9.703  0.1141  0.1393 -0.5336
  717TMC3     H10603   4.232   4.297   9.424  0.8083 -0.0657  0.4424
  717TMC3    H110604   4.611   4.261   9.592 -0.3953  1.3296  0.2663
  717TMC3    H210605   4.580   4.251   9.166  1.1458  2.3020 -0.3782
  717TMC3    C710606   0.014   4.184   9.368  0.0137 -0.2236 -0.3559
  717TMC3    C810607   4.317   4.256   9.172  0.0064 -0.5042 -0.7281
  717TMC3    O110608   0.014   4.075   9.423  0.1386  0.3301 -0.6066
  717TMC3    O210609   4.201   4.225   9.206 -0.5528  0.2791 -0.0641
  718MPD2     C10610   0.325   3.168  12.900  0.3279 -0.3296  0.3874
  718MPD2    C110611   0.397   3.266  12.835  0.7178 -0.3660  0.9042
  718MPD2    C210612   0.347   3.389  12.818 -0.7365 -0.8252  0.2326
  718MPD2    C310613   0.222   3.424  12.865  0.1806  0.3088  0.2541
  718MPD2    C410614   0.154   3.327  12.932  0.3592  0.8546 -0.5111
  718MPD2    C510615   0.196   3.197  12.943  0.4252  0.7461  0.1753
  718MPD2     H10616   0.401   3.454  12.750 -0.5077 -1.6195 -0.3359
  718MPD2    H110617   0.055   3.331  12.975 -0.0464  0.9094 -1.4605
  718MPD2    H210618   0.352   3.064  12.911  3.0209  0.4191  0.7901
  718MPD2    H310619   0.138   3.129  13.005 -1.0934  1.7462 -0.1505
  718MPD2     N10620   0.170   3.558  12.840  0.7848 -0.0136 -0.3245
  718MPD2    H510621   0.232   3.622  12.793 -0.7872  3.5320  2.4270
  718MPD2    N110622   0.524   3.220  12.782  0.3842  0.1577 -0.4629
  718MPD2    H710623   0.538   3.123  12.757 -0.9970  0.1212 -1.1199
  719TMC3    C110624   0.704   3.234  12.636  0.4376 -0.0855 -0.2592
  719TMC3    C210625   0.632   3.147  12.554 -1.2449 -0.1602 -0.4460
  719TMC3    C310626   0.607   3.187  12.423  0.3479  0.1127  0.0929
  719TMC3    C410627   0.783   3.329  12.576 -0.0498  0.1561 -0.2735
  719TMC3    C510628   0.764   3.358  12.438 -0.3568 -0.1979 -0.1291
  719TMC3    C610629   0.671   3.293  12.364 -0.0675  0.3774 -0.4165
  719TMC3     C10630   0.620   3.304  12.737  1.2076 -0.1249  0.4584
  719TMC3     O10631   0.621   3.424  12.749  0.0547 -0.2743 -0.1921
  719TMC3     H10632   0.569   3.067  12.592  0.1230 -0.3157  1.5311
  719TMC3    H110633   0.837   3.396  12.642 -2.7750  1.8992  0.1830
  719TMC3    H210634   0.656   3.323  12.261 -0.7102  3.4893  0.5908
  719TMC3    C710635   0.761   3.501  12.398 -0.0877  0.0410 -1.4307
  719TMC3    C810636   0.462   3.195  12.424 -0.0275 -0.3641  0.6472
  719TMC3    O110637   0.651   3.554  12.364 -0.4838  0.2819  0.1292
  719TMC3    O210638   0.389   3.097  12.417 -0.3133 -1.0780  0.0635
  720MPD2     C10639   3.382   0.645  14.212  0.2438 -0.6663 -0.3446
  720MPD2    C110640   3.469   0.679  14.115  0.7701 -0.5585  0.6020
  720MPD2    C210641   3.610   0.670  14.137 -0.1209  0.7428 -0.1927
  720MPD2    C310642   3.654   0.640  14.266  0.2865 -0.0237  0.2277
  720MPD2    C410643   3.562   0.610  14.367 -0.2460  0.1468  0.6058
  720MPD2    C510644   3.430   0.612  14.337  0.2270  0.2918  0.0812
  720MPD2     H10645   3.675   0.699  14.056 -0.9955  1.1675 -0.7449
  720MPD2    H110646   3.602   0.584  14.464  1.2314  0.2755  0.0239
  720MPD2    H210647   3.277   0.644  14.188  0.2414 -0.1749 -0.3465
  720MPD2    H310648   3.364   0.592  14.420  0.7470  1.7973  0.8609
  720MPD2     N10649   3.791   0.636  14.302 -0.5767 -0.0734  0.8400
  720MPD2    H510650   3.856   0.647  14.224  0.3230 -0.2080  1.5686
  720MPD2    N110651   3.427   0.716  13.992 -0.2399 -0.7099  0.5480
  720MPD2    H710652   3.489   0.779  13.941 -1.9412  0.3677 -0.1827
  721TMC3    C110653   3.985   0.644  14.433 -0.3969  0.0519  0.2877
  721TMC3    C210654   4.034   0.616  14.554  0.7782  0.0907 -0.6428
  721TMC3    C310655   4.171   0.600  14.564 -0.0532 -0.1515 -0.3328
  721TMC3    C410656   4.070   0.680  14.330 -0.1577  0.0028  0.3225
  721TMC3    C510657   4.208   0.671  14.343 -0.5981  0.0059 -0.4286
  721TMC3    C610658   4.255   0.633  14.463  0.6812 -0.0662  0.1816
  721TMC3     C10659   3.842   0.637  14.431  0.1353 -0.3349  0.0346
  721TMC3     O10660   3.790   0.681  14.529 -0.3250  0.0887  0.3865
  721TMC3     H10661   3.975   0.596  14.643  1.9573  0.5823  0.2477
  721TMC3    H110662   4.033   0.713  14.234  1.2802  1.3095  0.2177
  721TMC3    H210663   4.362   0.628  14.479  0.7303 -1.5307 -0.5987
  721TMC3    C710664   4.292   0.686  14.226 -0.0186  0.0481 -0.0109
  721TMC3    C810665   4.230   0.585  14.701 -0.2290 -0.0915  0.2505
  721TMC3    O110666   4.246   0.760  14.138 -0.1174 -0.1339 -0.0559
  721TMC3    O210667   4.337   0.643  14.723 -0.2136 -0.4561 -0.5611
  722MPD2     C10668   2.540   3.892  13.534 -0.2156 -0.4943  0.6883
  722MPD2    C110669   2.482   3.936  13.412  0.8634 -0.4648 -0.8011
  722MPD2    C210670   2.352   3.906  13.382  0.0871 -0.4236 -0.5628
  722MPD2    C310671   2.276   3.848  13.480  0.6993 -0.0778 -1.0993
  722MPD2    C410672   2.329   3.806  13.600 -0.2102  0.4788 -0.5024
  722MPD2    C510673   2.462   3.822  13.624  0.4470 -0.3766 -0.0681
  722MPD2     H10674   2.307   3.930  13.286  0.8713 -1.8111 -1.2788
  722MPD2    H110675   2.266   3.757  13.674  1.3077  0.3104  0.6828
  722MPD2    H210676   2.644   3.910  13.562  0.3930 -1.0308 -1.2489
  722MPD2    H310677   2.507   3.791  13.718  2.5161  0.1803 -0.8853
  722MPD2     N10678   2.142   3.820  13.445 -0.0178  0.7980  0.7123
  722MPD2    H510679   2.125   3.844  13.348 -0.9820  3.9436  1.6709
  722MPD2    N110680   2.557   4.012  13.311 -0.1242  0.2125  0.5752
  722MPD2    H710681   2.507   4.044  13.229  0.7200 -0.8942 -0.3696
  723TMC3    C110682   1.917   3.735  13.444  0.6291 -0.3383  0.0830
  723TMC3    C210683   1.854   3.611  13.464  0.0232 -0.2774 -0.2223
  723TMC3    C310684   1.757   3.578  13.369  0.4019 -0.6056  0.5459
  723TMC3    C410685   1.887   3.822  13.342 -0.4858 -0.2072 -0.5954
  723TMC3    C510686   1.792   3.787  13.256  0.0169  0.5464 -0.1521
  723TMC3    C610687   1.724   3.665  13.270  0.1688  0.0525  0.1010
  723TMC3     C10688   2.044   3.741  13.509 -0.3886 -0.4698 -0.4864
  723TMC3     O10689   2.048   3.687  13.619  0.1340  0.1710  0.0018
  723TMC3     H10690   1.886   3.535  13.533  0.1570 -0.2463 -0.2503
  723TMC3    H110691   1.931   3.921  13.341  0.9272 -0.8241  0.4716
  723TMC3    H210692   1.647   3.634  13.201 -1.0324 -0.8303  1.8158
  723TMC3    C710693   1.751   3.862  13.143  0.3898 -0.1160 -0.2554
  723TMC3    C810694   1.674   3.459  13.403  0.1572  0.2059 -0.4857
  723TMC3    O110695   1.702   3.805  13.045 -0.2262 -0.3688  0.3263
  723TMC3    O210696   1.664   3.438  13.523 -1.0469  0.2769  0.3777
  724TMC3    C110697   1.581   1.989   8.605 -0.4652 -0.2283  0.0026
  724TMC3    C210698   1.647   1.910   8.698  0.6476  0.0738  0.1981
  724TMC3    C310699   1.774   1.953   8.723  0.0060  0.4274 -0.7933
  724TMC3    C410700   1.635   2.094   8.541 -0.2808 -0.5746 -0.0062
  724TMC3    C510701   1.761   2.132   8.584  0.1857  0.9258  0.9699
  724TMC3    C610702   1.834   2.059   8.665  0.2763 -0.3973  0.5995
  724TMC3     C10703   1.448   1.941   8.554 -0.0947  0.1095  0.3710
  724TMC3     O10704   1.427   1.960   8.434  0.1932  0.8259 -0.5784
  724TMC3     H10705   1.611   1.813   8.728 -2.2949  0.7895 -0.9804
  724TMC3    H110706   1.574   2.141   8.465 -0.3019 -1.8178 -0.7598
  724TMC3    H210707   1.930   2.092   8.705  1.7355  0.9428 -3.9959
  724TMC3    C710708   1.808   2.270   8.545  0.8362  0.1005 -0.3237
  724TMC3    C810709   1.832   1.883   8.839  0.2156  0.0522  0.7779
  724TMC3    O110710   1.928   2.286   8.518 -0.0399 -0.0882 -0.2340
  724TMC3    O210711   1.767   1.796   8.908 -0.5288 -0.3077  0.1087
  725TMC3    C110712   4.201   0.938  13.282 -0.5583  0.2355 -0.0065
  725TMC3    C210713   4.129   1.055  13.278 -0.0612 -0.5821 -0.0224
  725TMC3    C310714   4.133   1.125  13.162 -0.0246  0.1565 -0.2292
  725TMC3    C410715   4.277   0.893  13.179 -0.3958 -0.1816  0.1482
  725TMC3    C510716   4.263   0.955  13.057 -0.2871  0.1341 -0.2859
  725TMC3    C610717   4.205   1.080  13.054 -0.0912 -0.6469  0.2179
  725TMC3     C10718   4.223   0.855  13.405 -0.3576 -0.1440 -0.0962
  725TMC3     O10719   4.209   0.736  13.383 -0.2702 -0.3475 -0.0624
  725TMC3     H10720   4.078   1.094  13.365 -0.0782 -0.4248 -0.1045
  725TMC3    H110721   4.349   0.815  13.202  0.4022  0.2357 -0.9440
  725TMC3    H210722   4.227   1.149  12.973 -1.1632 -0.3760  0.1627
  725TMC3    C710723   4.291   0.898  12.928  0.4161  0.1575 -0.0126
  725TMC3    C810724   4.055   1.240  13.139 -0.5488  0.5868  0.3213
  725TMC3    O110725   4.274   0.970  12.830  0.0534  0.3801 -0.4896
  725TMC3    O210726   4.017   1.307  13.237  0.4493  0.1934 -0.4740
  726MPD2     C10727   1.685   2.023  10.027 -0.1280  0.4785 -0.3992
  726MPD2    C110728   1.620   2.148  10.010 -1.0819 -0.3217 -0.1123
  726MPD2    C210729   1.517   2.178  10.096 -0.2646  0.6517  0.2602
  726MPD2    C310730   1.458   2.088  10.181 -0.3036  0.1828 -0.1504
  726MPD2    C410731   1.509   1.960  10.184 -0.0799 -0.9087 -0.6425
  726MPD2    C510732   1.625   1.927  10.113 -0.1243  0.1457 -0.1166
  726MPD2     H10733   1.481   2.280  10.090  0.2855  0.8273 -0.0646
  726MPD2    H110734   1.462   1.886  10.248 -1.9183  0.6348 -0.2058
  726MPD2    H210735   1.774   2.008   9.966  0.2428  0.3657  0.1708
  726MPD2    H310736   1.651   1.821  10.115 -1.0047 -0.1327 -3.4417
  726MPD2     N10737   1.338   2.102  10.257  0.7350 -0.6200 -0.2178
  726MPD2    H510738   1.308   2.020  10.310 -1.2272 -0.4451 -1.0466
  726MPD2    N110739   1.654   2.251   9.915 -0.1266  0.1954  0.3773
  726MPD2    H710740   1.598   2.335   9.913 -0.6811 -0.1703  0.7352
  727TMC3    C110741   1.771   2.370   9.747  0.0799  0.4076  0.0408
  727TMC3    C210742   1.736   2.487   9.803  0.1725  0.4906  0.0304
  727TMC3    C310743   1.719   2.601   9.729  0.1178  0.0814 -0.3807
  727TMC3    C410744   1.781   2.366   9.607 -0.1816 -0.5990  0.6190
  727TMC3    C510745   1.753   2.476   9.531  0.2218 -0.0300 -0.8003
  727TMC3    C610746   1.720   2.596   9.592  0.3533 -0.5196 -0.3223
  727TMC3     C10747   1.755   2.250   9.822 -0.1901  0.4677 -0.1612
  727TMC3     O10748   1.821   2.151   9.785 -0.8535 -0.1353  0.5660
  727TMC3     H10749   1.738   2.497   9.911  0.9673  3.6317 -0.2590
  727TMC3    H110750   1.795   2.268   9.561  0.8107  0.9334 -2.3267
  727TMC3    H210751   1.714   2.684   9.529  0.1764 -0.7029 -0.5616
  727TMC3    C710752   1.798   2.482   9.388  0.5676 -0.0390 -0.6384
  727TMC3    C810753   1.732   2.727   9.798  0.4634  0.7513 -0.4879
  727TMC3    O110754   1.762   2.578   9.319  0.2490 -0.0004  0.0879
  727TMC3    O210755   1.776   2.722   9.910 -0.0389 -0.5804  0.2881
  728TMC3    C110756   1.208   1.165  15.018  0.2195  0.6446 -0.0837
  728TMC3    C210757   1.326   1.178  14.947  0.1993  0.3338 -0.2024
  728TMC3    C310758   1.329   1.237  14.820 -0.5225  0.3374  0.3005
  728TMC3    C410759   1.088   1.197  14.961  0.2043 -0.4018 -0.4542
  728TMC3    C510760   1.095   1.255  14.836 -0.6017  0.1856  0.6532
  728TMC3    C610761   1.209   1.282  14.770  0.9674 -0.0459  0.2375
  728TMC3     C10762   1.218   1.143  15.160  0.5388 -0.0860 -0.0299
  728TMC3     O10763   1.331   1.149  15.208 -0.0949 -0.2428 -0.0310
  728TMC3     H10764   1.414   1.128  14.985 -0.0590 -1.2219 -1.6165
  728TMC3    H110765   0.995   1.178  15.013  0.2864  0.8147  0.1324
  728TMC3    H210766   1.195   1.309  14.666 -0.4630  2.4442  1.0637
  728TMC3    C710767   0.978   1.322  14.772 -0.0401 -0.2680  0.8599
  728TMC3    C810768   1.438   1.210  14.740 -0.4797 -0.5346 -0.1629
  728TMC3    O110769   0.871   1.265  14.749 -0.6605 -0.6355 -0.1018
  728TMC3    O210770   1.510   1.114  14.767  0.1522  0.6441  0.0328
  729MPD2     C10771   3.256   2.247  16.751 -0.0853 -0.5235  0.2708
  729MPD2    C110772   3.386   2.235  16.796 -0.6320  0.1567 -0.2617
  729MPD2    C210773   3.413   2.249  16.934  0.0214 -0.0269 -0.4065
  729MPD2    C310774   3.315   2.276  17.027 -0.4269  0.1758 -0.2816
  729MPD2    C410775   3.183   2.274  16.976 -0.2685 -0.1840 -0.0106
  729MPD2    C510776   3.157   2.254  16.842  0.1552 -0.3468  0.3677
  729MPD2     H10777   3.518   2.248  16.961 -0.4391 -0.6976  1.3917
  729MPD2    H110778   3.111   2.305  17.050  0.5999  1.4607  0.1456
  729MPD2    H210779   3.221   2.240  16.648  2.3370 -2.1831 -0.4418
  729MPD2    H310780   3.053   2.253  16.812  0.9897 -1.3066 -2.4990
  729MPD2     N10781   3.333   2.325  17.157 -0.9340  0.0453  0.1590
  729MPD2    H510782   3.255   2.350  17.218 -0.6109 -1.2647  1.0997
  729MPD2    N110783   3.490   2.231  16.698  0.3935 -0.3882 -0.0252
  729MPD2    H710784   3.463   2.247  16.602  0.9570  1.1964  0.0809
  730TMC3    C110785   3.457   2.391  17.346  0.1377 -0.2914  0.1256
  730TMC3    C210786   3.595   2.402  17.377 -0.1056 -0.1339  0.7299
  730TMC3    C310787   3.637   2.516  17.433  0.3666  0.4339  0.3902
  730TMC3    C410788   3.369   2.495  17.367 -0.1598 -0.0976  0.0719
  730TMC3    C510789   3.426   2.606  17.425  0.1450 -0.0231  0.2908
  730TMC3    C610790   3.553   2.616  17.465 -0.6605  0.3110  0.0240
  730TMC3     C10791   3.455   2.328  17.214  0.5446 -0.4610  0.2151
  730TMC3     O10792   3.562   2.283  17.178 -0.0405 -0.2910 -0.3718
  730TMC3     H10793   3.665   2.319  17.373  1.1205  0.8525  2.0559
  730TMC3    H110794   3.267   2.496  17.330  0.3810  0.2120 -1.4332
  730TMC3    H210795   3.611   2.704  17.494  0.6561 -0.5294 -0.0542
  730TMC3    C710796   3.352   2.731  17.423  0.5926 -0.1115 -0.3312
  730TMC3    C810797   3.754   2.563  17.368  0.1342  0.1720 -0.0620
  730TMC3    O110798   3.243   2.731  17.372 -0.0895 -0.2584 -0.2909
  730TMC3    O210799   3.804   2.664  17.414 -0.0438 -0.0510  0.0026
  731MPD2     C10800   2.882   0.663  12.404 -0.0279  0.3442  0.5086
  731MPD2    C110801   3.012   0.644  12.370 -0.1936 -0.1909  0.3974
  731MPD2    C210802   3.105   0.623  12.466  0.1169  0.0569  0.3982
  731MPD2    C310803   3.072   0.617  12.599  0.6779 -0.0616  0.1821
  731MPD2    C410804   2.938   0.628  12.634 -0.3945 -0.1596  0.7021
  731MPD2    C510805   2.847   0.653  12.540  0.2812 -0.1491  0.0143
  731MPD2     H10806   3.207   0.595  12.444 -0.8088 -1.4174 -2.0446
  731MPD2    H110807   2.896   0.638  12.733 -1.0695  1.8549  0.2189
  731MPD2    H210808   2.807   0.690  12.330 -0.3376 -1.9234 -0.0039
  731MPD2    H310809   2.747   0.663  12.581  0.9339 -2.2175  2.1004
  731MPD2     N10810   3.178   0.594  12.692 -0.5140  0.0492  0.1915
  731MPD2    H510811   3.274   0.591  12.660 -0.3026  0.4483  0.7929
  731MPD2    N110812   3.037   0.644  12.235 -0.1078 -0.1119  0.3681
  731MPD2    H710813   2.951   0.658  12.183 -0.2470 -0.5871  0.4776
  732TMC3    C110814   3.147   0.608  12.032 -0.8331 -1.0604 -0.2733
  732TMC3    C210815   3.057   0.521  11.983  0.2166 -0.7949 -0.6243
  732TMC3    C310816   3.063   0.504  11.847 -0.0990  0.3120  0.0265
  732TMC3    C410817   3.251   0.665  11.957  0.3945  0.0297 -0.0834
  732TMC3    C510818   3.261   0.626  11.827 -0.9150 -0.1595 -0.0609
  732TMC3    C610819   3.172   0.540  11.767 -0.3398 -0.1788 -0.1877
  732TMC3     C10820   3.155   0.650  12.166 -0.7500 -0.0177 -0.2485
  732TMC3     O10821   3.264   0.666  12.212 -0.2397  0.0112 -0.9794
  732TMC3     H10822   2.984   0.480  12.051  1.9215  0.1247  1.7848
  732TMC3    H110823   3.319   0.730  12.010  2.0758 -1.1509 -0.8041
  732TMC3    H210824   3.174   0.528  11.659  0.8848 -0.5591 -0.1223
  732TMC3    C710825   3.382   0.661  11.755 -0.0365 -0.0063  0.2626
  732TMC3    C810826   2.944   0.453  11.779  0.3893  0.3638 -0.0215
  732TMC3    O110827   3.374   0.627  11.636  0.1907  0.3299  0.1096
  732TMC3    O210828   2.959   0.385  11.679 -0.3411 -0.2673 -0.1764
  733TMC3    C110829   4.508   3.766  12.755 -0.2386  0.0069  0.1598
  733TMC3    C210830   4.588   3.728  12.862 -0.4257  0.7034  0.2536
  733TMC3    C310831   0.007   3.723  12.841 -0.0046  0.3378 -0.3817
  733TMC3    C410832   4.565   3.790  12.632  0.0093 -0.2418  0.7332
  733TMC3    C510833   4.702   3.785  12.616 -0.4138  0.5180  0.3482
  733TMC3    C610834   0.066   3.750  12.721 -0.6593  0.5143  0.1615
  733TMC3     C10835   4.372   3.782  12.783 -0.1963 -0.1343  0.0109
  733TMC3     O10836   4.313   3.869  12.722  0.4980  0.2704 -0.2528
  733TMC3     H10837   4.536   3.694  12.951  0.1490 -0.1314  0.2689
  733TMC3    H110838   4.495   3.814  12.553 -0.4796 -1.9215  0.6621
  733TMC3    H210839   0.172   3.771  12.718 -0.3114 -0.9358  2.1644
  733TMC3    C710840   0.023   3.799  12.481 -0.4168  0.5629  0.3700
  733TMC3    C810841   0.052   3.602  12.896  0.3726 -0.1696 -0.4233
  733TMC3    O110842   4.711   3.905  12.432 -0.4785 -0.3848  0.2843
  733TMC3    O210843   4.683   3.528  12.944 -0.4837  0.5435  0.1067
  734MPD2     C10844   1.383   1.542  12.166 -0.7752 -0.3897  0.6332
  734MPD2    C110845   1.393   1.407  12.129  0.2720  0.4192  0.5099
  734MPD2    C210846   1.410   1.374  12.000  0.0190 -1.0146  0.0875
  734MPD2    C310847   1.435   1.471  11.909 -0.2466 -0.6764 -0.6657
  734MPD2    C410848   1.457   1.601  11.948  0.4714  0.2684 -0.6501
  734MPD2    C510849   1.430   1.630  12.076 -0.4023  0.2450 -0.5975
  734MPD2     H10850   1.407   1.272  11.965 -2.9068 -1.7024  2.2345
  734MPD2    H110851   1.488   1.679  11.879  0.8554 -0.1334 -0.9353
  734MPD2    H210852   1.367   1.577  12.267  0.3073 -3.0066  1.7116
  734MPD2    H310853   1.451   1.732  12.105 -1.9298  0.2013  0.6839
  734MPD2     N10854   1.434   1.432  11.774  0.3086 -0.2269  0.1129
  734MPD2    H510855   1.430   1.333  11.754  1.4986 -0.0190 -1.1663
  734MPD2    N110856   1.340   1.306  12.219  0.7505  0.5030 -0.3039
  734MPD2    H710857   1.328   1.336  12.315 -1.7728  0.1812 -0.5343
  735TMC3    C110858   1.276   1.087  12.287  0.1395  0.2002  0.7845
  735TMC3    C210859   1.192   0.987  12.235  0.0797 -0.2978 -0.4677
  735TMC3    C310860   1.212   0.853  12.238 -0.1947 -0.6575  0.1704
  735TMC3    C410861   1.376   1.044  12.371 -0.4134 -0.2113  0.2816
  735TMC3    C510862   1.397   0.904  12.376 -0.2145  0.1886 -0.4128
  735TMC3    C610863   1.322   0.811  12.307 -0.4248 -0.0799 -0.0518
  735TMC3     C10864   1.312   1.176  12.179 -0.2645  0.1579  0.1405
  735TMC3     O10865   1.295   1.123  12.070 -0.9194 -0.0732 -0.6360
  735TMC3     H10866   1.100   1.018  12.186  0.2731 -0.6266 -1.0412
  735TMC3    H110867   1.453   1.113  12.405  1.2704 -0.5164 -2.9774
  735TMC3    H210868   1.347   0.706  12.320  1.3231  0.3317 -0.1921
  735TMC3    C710869   1.537   0.875  12.374  0.2074  0.0799 -0.4003
  735TMC3    C810870   1.203   0.776  12.109 -0.0110  0.2029  0.0498
  735TMC3    O110871   1.563   0.817  12.267 -0.2040  0.2795  0.0344
  735TMC3    O210872   1.197   0.653  12.103 -0.8415 -0.0518  0.4705
  736MPD2     C10873   1.806   1.014  12.601  0.4067 -0.4492 -0.5063
  736MPD2    C110874   1.757   0.948  12.488 -0.2556 -0.7232  0.5950
  736MPD2    C210875   1.852   0.921  12.383  0.3383  0.4336 -0.6145
  736MPD2    C310876   1.981   0.964  12.395  0.0562 -0.0690 -0.0047
  736MPD2    C410877   2.025   1.006  12.521  0.3219  0.1575  0.6488
  736MPD2    C510878   1.940   1.034  12.617  0.4717  0.2575  0.6686
  736MPD2     H10879   1.811   0.877  12.294  2.3844 -2.2548 -0.2317
  736MPD2    H110880   2.128   1.035  12.538 -0.1419  1.3652  1.4707
  736MPD2    H210881   1.748   1.022  12.692 -0.6533 -0.2102 -1.1948
  736MPD2    H310882   1.986   1.069  12.708 -0.3261 -1.1250  1.5945
  736MPD2     N10883   2.077   0.941  12.297 -0.7004  0.3411 -0.2747
  736MPD2    H510884   2.170   0.979  12.308 -1.1488  1.0295  1.0638
  736MPD2    N110885   1.613   0.934  12.475  0.7824 -0.5227  0.2594
  736MPD2    H710886   1.570   0.968  12.561 -0.0068  0.7141 -0.6167
  737TMC3    C110887   2.163   0.880  12.091  0.2812 -0.0416 -0.2150
  737TMC3    C210888   2.214   1.007  12.053 -0.2227 -0.3229  0.0051
  737TMC3    C310889   2.285   1.015  11.937  0.2534 -0.9055  0.0476
  737TMC3    C410890   2.180   0.766  12.018  0.0567  0.0533 -0.0951
  737TMC3    C510891   2.268   0.777  11.912 -0.1171  0.0291 -0.3140
  737TMC3    C610892   2.308   0.902  11.865  1.0352 -0.3635 -0.2036
  737TMC3     C10893   2.052   0.874  12.181  0.0300  0.0604  0.5891
  737TMC3     O10894   1.959   0.800  12.148  0.0974  0.0177  0.2200
  737TMC3     H10895   2.218   1.095  12.116  2.0621 -1.3523  1.3008
  737TMC3    H110896   2.137   0.670  12.044  0.3934 -0.5843 -1.9175
  737TMC3    H210897   2.374   0.912  11.780  0.1330 -1.9221 -1.0648
  737TMC3    C710898   2.255   0.666  11.821 -0.1252  1.0375 -0.2626
  737TMC3    C810899   2.278   1.135  11.869  0.2485  0.1968 -0.3699
  737TMC3    O110900   2.164   0.588  11.841 -0.1400 -0.3252 -0.1910
  737TMC3    O210901   2.249   1.241  11.925  0.3307  0.2766  0.7043
  738MPD2     C10902   2.420   0.113  15.310  0.3502  0.0050 -0.6928
  738MPD2    C110903   2.459   4.712  15.250  0.0694 -0.0260 -0.0110
  738MPD2    C210904   2.574   4.714  15.171 -0.3211 -0.3770 -0.3228
  738MPD2    C310905   2.648   0.110  15.154 -0.5927  0.2065 -0.1332
  738MPD2    C410906   2.613   0.226  15.224  0.2122  0.2034 -0.6884
  738MPD2    C510907   2.507   0.222  15.304 -0.1936  0.6352 -0.2144
  738MPD2     H10908   2.599   4.623  15.117  1.2308 -0.2266  0.1433
  738MPD2    H110909   2.674   0.316  15.229 -0.2160  0.3348  2.6400
  738MPD2    H210910   2.326   0.132  15.360  0.6446  0.0627 -0.1729
  738MPD2    H310911   2.470   0.305  15.363 -0.6868  0.1303  0.1841
  738MPD2     N10912   2.770   0.114  15.086  0.3351  0.0592  0.1479
  738MPD2    H510913   2.819   0.203  15.086 -1.6225  1.1230 -1.9252
  738MPD2    N110914   2.397   4.586  15.267 -0.1636  0.4493 -0.0415
  738MPD2    H710915   2.428   4.503  15.219  0.6140 -0.6508  2.3808
  739TMC3    C110916   2.961   0.031  14.968 -0.0864 -0.9662 -0.4193
  739TMC3    C210917   3.007   4.675  14.862 -0.8166 -0.5161  0.3168
  739TMC3    C310918   3.131   0.000  14.811 -0.3826  0.1004 -0.5696
  739TMC3    C410919   3.035   0.128  15.027  0.8190 -0.5112  0.0600
  739TMC3    C510920   3.162   0.158  14.982 -0.3926  0.1277 -0.0389
  739TMC3    C610921   3.207   0.099  14.866  0.1777  0.1874  0.5455
  739TMC3     C10922   2.826   0.012  15.014  0.1501  1.0906 -0.5220
  739TMC3     O10923   2.781   4.626  14.963 -0.1687  0.0508  0.0331
  739TMC3     H10924   2.946   4.605  14.808 -2.3389  1.4036 -0.4463
  739TMC3    H110925   2.996   0.183  15.112 -0.3415  0.2193 -0.9413
  739TMC3    H210926   3.295   0.142  14.820 -2.2443  3.0451 -1.4154
  739TMC3    C710927   3.234   0.260  15.064 -0.7985 -0.1052  0.8647
  739TMC3    C810928   3.182   4.645  14.699 -0.0798 -0.6654 -0.0854
  739TMC3    O110929   3.171   0.318  15.155 -0.4212 -0.0959  0.0748
  739TMC3    O210930   3.095   4.632  14.612 -0.6867  0.2119 -0.4625
  740TMC3    C110931   3.381   1.073  14.446 -1.0588 -0.4496 -0.2753
  740TMC3    C210932   3.435   1.086  14.568  0.0121 -0.7761 -0.6302
  740TMC3    C310933   3.562   1.036  14.586 -0.0843  0.5303  0.4522
  740TMC3    C410934   3.451   1.016  14.341 -0.1258 -0.3571 -0.6099
  740TMC3    C510935   3.578   0.975  14.358 -0.0424 -0.2138 -0.4608
  740TMC3    C610936   3.635   0.970  14.486 -0.9820  0.2886  0.3833
  740TMC3     C10937   3.238   1.082  14.421 -0.6203  0.7500 -0.2716
  740TMC3     O10938   3.190   1.047  14.314  0.2086 -0.4677 -0.7684
  740TMC3     H10939   3.389   1.139  14.651  0.8905 -1.3412  0.2209
  740TMC3    H110940   3.412   1.009  14.240 -1.5745  2.0547 -0.2186
  740TMC3    H210941   3.725   0.913  14.506 -1.3993 -1.0349 -1.5012
  740TMC3    C710942   3.681   0.978  14.255  0.5836  0.0141 -0.4276
  740TMC3    C810943   3.613   1.046  14.721  0.2191  0.4754  0.5864
  740TMC3    O110944   3.793   0.966  14.306 -0.2224  0.1217 -0.3451
  740TMC3    O210945   3.546   1.110  14.801 -0.2115 -0.3366  0.1049
  741TMC3    C110946   3.075   0.415  14.678  0.2636 -0.3838  0.3323
  741TMC3    C210947   2.966   0.366  14.603  0.5607 -0.1189 -0.4000
  741TMC3    C310948   2.844   0.369  14.661 -0.2160  0.1694 -0.2707
  741TMC3    C410949   3.058   0.453  14.812  0.2087  0.6648 -0.5046
  741TMC3    C510950   2.932   0.450  14.862 -0.5154  0.7488  0.3009
  741TMC3    C610951   2.822   0.407  14.794 -0.2704  0.3776 -0.2543
  741TMC3     C10952   3.207   0.371  14.640  0.5596  0.0626 -0.1400
  741TMC3     O10953   3.282   0.354  14.733 -0.4524 -0.2782 -0.1322
  741TMC3     H10954   2.968   0.350  14.496 -1.4955 -0.9401 -0.3297
  741TMC3    H110955   3.144   0.477  14.874  1.1326 -1.3427 -1.0132
  741TMC3    H210956   2.726   0.400  14.843 -0.0412 -1.2345 -0.0407
  741TMC3    C710957   2.907   0.471  15.007  0.5533  0.7015  0.7232
  741TMC3    C810958   2.728   0.310  14.595 -0.0471 -0.4606  0.6687
  741TMC3    O110959   2.848   0.382  15.067 -0.1245  0.0850  0.4632
  741TMC3    O210960   2.619   0.342  14.636  0.6786 -0.5335 -0.3560
  742TMC3    C110961   2.535   3.526  15.398 -0.5052  0.5506 -0.6299
  742TMC3    C210962   2.462   3.519  15.280 -0.2100  0.6047  0.2834
  742TMC3    C310963   2.517   3.448  15.182 -0.1043  0.5360  0.2594
  742TMC3    C410964   2.666   3.479  15.408 -0.2826 -0.3724 -0.0605
  742TMC3    C510965   2.719   3.423  15.300 -0.1527  0.5839 -0.5409
  742TMC3    C610966   2.647   3.405  15.186  0.3763 -0.3426  0.3744
  742TMC3     C10967   2.505   3.625  15.495 -0.0187 -0.4529  0.9888
  742TMC3     O10968   2.394   3.635  15.551  0.5813  0.0629 -0.0608
  742TMC3     H10969   2.378   3.587  15.272  0.8556  2.0097  1.1974
  742TMC3    H110970   2.708   3.477  15.508 -0.7766 -0.3807  0.1462
  742TMC3    H210971   2.693   3.355  15.102  1.8882 -0.8388  1.4966
  742TMC3    C710972   2.830   3.339  15.316  0.7727 -0.7561  0.0235
  742TMC3    C810973   2.447   3.445  15.058  0.0922 -0.4885  0.4049
  742TMC3    O110974   2.859   3.261  15.228  0.0974  0.7485  0.0174
  742TMC3    O210975   2.509   3.414  14.955 -0.3825  0.2520  0.1667
  743MPD2     C10976   1.195   0.752   2.072 -0.3948  0.7149 -0.0113
  743MPD2    C110977   1.198   0.708   1.941 -0.3643 -0.4236 -0.3766
  743MPD2    C210978   1.319   0.734   1.867 -0.0078  0.8085  0.9565
  743MPD2    C310979   1.429   0.791   1.927  0.8056  0.4629  0.3220
  743MPD2    C410980   1.419   0.839   2.057  0.2036  1.3204  0.1709
  743MPD2    C510981   1.301   0.822   2.124  0.4800  0.4414 -0.0115
  743MPD2     H10982   1.330   0.697   1.766 -0.9244  0.9550  0.7962
  743MPD2    H110983   1.498   0.895   2.107  0.1770  1.7721 -0.2925
  743MPD2    H210984   1.116   0.729   2.142 -0.1352  0.5623  0.2307
  743MPD2    H310985   1.294   0.860   2.226  0.4364 -2.9513  1.2317
  743MPD2     N10986   1.539   0.829   1.844 -0.2369  0.4513  0.4046
  743MPD2    H510987   1.528   0.824   1.743  2.5473  1.5040  0.0390
  743MPD2    N110988   1.086   0.647   1.888  0.1145  0.1668 -0.2065
  743MPD2    H710989   1.000   0.661   1.939 -0.5626  1.1721 -1.6442
  744TMC3    C110990   0.964   0.518   1.733  0.7831 -0.6328 -0.1971
  744TMC3    C210991   0.857   0.596   1.713  0.5115  0.6169 -0.3562
  744TMC3    C310992   0.751   0.553   1.637 -0.3041  0.5845  0.8322
  744TMC3    C410993   0.968   0.394   1.671  0.8388 -0.5898 -0.5480
  744TMC3    C510994   0.867   0.352   1.594  0.3318  0.0541 -0.3227
  744TMC3    C610995   0.757   0.431   1.576 -0.2287 -0.3292  0.0564
  744TMC3     C10996   1.088   0.577   1.768  0.2774  0.4001  0.1700
  744TMC3     O10997   1.182   0.531   1.702  0.3046  0.3499  0.2875
  744TMC3     H10998   0.873   0.702   1.730  3.0389  0.2442 -0.4034
  744TMC3    H110999   1.057   0.333   1.683  1.2764 -0.3710 -2.5996
  744TMC3    H211000   0.681   0.402   1.505 -1.3299  0.2289  1.0050
  744TMC3    C711001   0.906   0.276   1.475 -0.3465 -0.1164  0.3012
  744TMC3    C811002   0.635   0.639   1.623 -0.4642  0.2683 -0.0683
  744TMC3    O111003   0.848   0.317   1.377 -0.2327  0.3789  0.2381
  744TMC3    O211004   0.567   0.612   1.522 -0.2080 -0.0400 -0.0992
  745TMC3    C111005   3.372   3.370  13.584 -0.5050  0.5226  0.1821
  745TMC3    C211006   3.289   3.312  13.675 -1.4442  0.2672  0.5137
  745TMC3    C311007   3.158   3.300  13.649  0.0650 -0.7613 -0.4536
  745TMC3    C411008   3.335   3.407  13.459  0.1114 -0.4744  0.1436
  745TMC3    C511009   3.201   3.400  13.435 -0.6998  0.4350  0.4120
  745TMC3    C611010   3.115   3.339  13.524  0.2473  0.0164  0.5858
  745TMC3     C11011   3.502   3.399  13.644 -0.4456  0.3745 -0.4913
  745TMC3     O11012   3.555   3.313  13.715  0.5899  0.4704 -0.0570
  745TMC3     H11013   3.339   3.269  13.761  0.1323 -0.1423 -0.6067
  745TMC3    H111014   3.411   3.446  13.392 -0.1599 -1.1377 -0.5612
  745TMC3    H211015   3.009   3.337  13.500 -0.2442  0.5109  2.7538
  745TMC3    C711016   3.152   3.442  13.301  0.2164 -1.1351  0.2582
  745TMC3    C811017   3.065   3.347  13.747 -0.3795 -0.8835  0.4465
  745TMC3    O111018   3.045   3.396  13.262  0.1474 -0.0767 -0.3587
  745TMC3    O211019   2.945   3.324  13.737 -0.2699  0.1926  0.4030
  746TMC3    C111020   0.273   0.240  10.452  0.5694  0.1957 -0.3640
  746TMC3    C211021   0.319   0.250  10.325 -0.9925 -0.3586 -0.4917
  746TMC3    C311022   0.270   0.172  10.224 -0.5331  0.1874 -0.7080
  746TMC3    C411023   0.166   0.156  10.476 -0.2135  0.1300  0.9412
  746TMC3    C511024   0.120   0.077  10.372  0.2424 -0.5262  0.7308
  746TMC3    C611025   0.166   0.088  10.240  0.2977 -0.3186  0.6806
  746TMC3     C11026   0.334   0.312  10.557 -0.0949  0.2610  0.0476
  746TMC3     O11027   0.307   0.291  10.678  0.3830 -0.5172 -0.2890
  746TMC3     H11028   0.413   0.301  10.304  0.3101 -2.0655  1.2314
  746TMC3    H111029   0.121   0.149  10.575  1.3657 -3.6499  1.3780
  746TMC3    H211030   0.142   0.012  10.167 -0.3022 -1.2758  1.8815
  746TMC3    C711031   0.047   4.668  10.405 -0.4544  0.6641  0.3042
  746TMC3    C811032   0.354   0.153  10.106 -0.6864 -0.1442  0.6372
  746TMC3    O111033   4.689   4.618  10.323 -0.5006 -0.2526  0.0652
  746TMC3    O211034   0.357   0.041  10.053  0.6539  0.7690 -0.3344
  747TMC3    C111035   2.659   0.752  10.849  0.1878  0.1549  0.3872
  747TMC3    C211036   2.571   0.674  10.932 -0.0804  0.5196  0.2140
  747TMC3    C311037   2.605   0.667  11.067  0.6087  0.4854  0.0073
  747TMC3    C411038   2.744   0.842  10.899 -0.6058 -0.7772 -0.2494
  747TMC3    C511039   2.774   0.824  11.031 -0.1912 -0.1826 -0.7123
  747TMC3    C611040   2.708   0.741  11.117  0.1565 -0.3684 -0.5501
  747TMC3     C11041   2.630   0.755  10.711 -0.4033 -0.1938  0.2057
  747TMC3     O11042   2.659   0.863  10.656  0.4887 -0.1193 -0.5852
  747TMC3     H11043   2.483   0.628  10.888  0.7546 -0.8852  0.0337
  747TMC3    H111044   2.788   0.918  10.836 -2.1685  0.1051 -0.2828
  747TMC3    H211045   2.739   0.731  11.220  0.5563  1.2962 -0.5110
  747TMC3    C711046   2.893   0.875  11.080  0.1475  0.5879  0.2400
  747TMC3    C811047   2.514   0.586  11.149 -0.2036  0.6190 -0.0999
  747TMC3    O111048   2.921   0.863  11.201  0.3594  0.9505  0.3932
  747TMC3    O211049   2.436   0.514  11.086 -0.2794  0.6619  0.4922
  748MPD2     C11050   3.699   1.893   1.124 -0.3577 -0.4446 -0.0877
  748MPD2    C111051   3.727   1.792   1.213  0.0052 -0.9728 -0.3472
  748MPD2    C211052   3.856   1.737   1.210 -0.3119  0.7102  0.0275
  748MPD2    C311053   3.963   1.795   1.138  0.8084 -0.0294  0.0725
  748MPD2    C411054   3.935   1.901   1.063 -0.3780 -1.1710 -0.0663
  748MPD2    C511055   3.805   1.944   1.058  0.2405  0.6243  0.2596
  748MPD2     H11056   3.872   1.657   1.281 -1.8623  0.4860  0.1219
  748MPD2    H111057   4.011   1.955   1.008 -0.7257 -1.0517 -0.4386
  748MPD2    H211058   3.603   1.943   1.120  0.1183  0.4459 -0.4826
  748MPD2    H311059   3.786   2.024   0.987 -1.0645 -1.6528 -1.9615
  748MPD2     N11060   4.090   1.738   1.149  0.0153  0.2370 -0.1939
  748MPD2    H511061   4.105   1.664   1.217  1.6714  0.4031 -0.3715
  748MPD2    N111062   3.614   1.747   1.289  0.7152  0.0449  0.4466
  748MPD2    H711063   3.529   1.801   1.278 -0.3598 -1.6067  0.5578
  749TMC3    C111064   4.316   1.688   1.118 -0.3138  0.7948 -0.4716
  749TMC3    C211065   4.318   1.625   1.241 -0.2866  0.2963  0.2767
  749TMC3    C311066   4.431   1.559   1.281  0.0689 -0.0055  0.4132
  749TMC3    C411067   4.427   1.701   1.049  0.0147 -0.2716 -0.4698
  749TMC3    C511068   4.541   1.634   1.085 -0.7341 -0.1110  0.0334
  749TMC3    C611069   4.546   1.563   1.204 -0.0197  0.1061  0.4650
  749TMC3     C11070   4.197   1.764   1.074  0.2938 -1.0488  0.5709
  749TMC3     O11071   4.230   1.870   1.013 -0.2400  0.1984  0.2996
  749TMC3     H11072   4.236   1.605   1.310  0.2572 -0.0144  0.8333
  749TMC3    H111073   4.420   1.733   0.946 -1.1414 -0.0220 -0.3090
  749TMC3    H211074   4.646   1.542   1.240  0.1512  0.5168  0.2302
  749TMC3    C711075   4.661   1.659   1.007 -0.5747  0.3265  0.7576
  749TMC3    C811076   4.447   1.492   1.407  0.6348 -0.7131 -0.3091
  749TMC3    O111077   4.650   1.760   0.933 -0.1384  0.2276 -0.1861
  749TMC3    O211078   4.348   1.503   1.481 -0.1030 -0.0671  0.1601
  750MPD2     C11079   0.678   2.314  11.013  0.0997 -0.2283  0.0988
  750MPD2    C111080   0.561   2.270  11.071 -0.9546 -0.4766 -0.5871
  750MPD2    C211081   0.517   2.144  11.060 -0.1169  0.1209 -0.7252
  750MPD2    C311082   0.593   2.060  10.977  0.4430  0.2421 -0.1748
  750MPD2    C411083   0.711   2.104  10.916 -0.0248 -0.8885 -0.2985
  750MPD2    C511084   0.755   2.235  10.929  0.3931 -0.3692  0.2475
  750MPD2     H11085   0.426   2.121  11.115  0.0440 -1.0697 -0.9491
  750MPD2    H111086   0.781   2.038  10.864  2.1890  0.7465  0.6081
  750MPD2    H211087   0.706   2.417  11.030  0.0377 -0.1572 -0.2251
  750MPD2    H311088   0.847   2.269  10.884 -0.8616  3.7744  0.7643
  750MPD2     N11089   0.561   1.922  10.970 -0.5959  0.1378  0.1331
  750MPD2    H511090   0.627   1.857  10.929  1.6559  2.1105  0.6528
  750MPD2    N111091   0.501   2.362  11.156 -0.7820  0.1462  0.1923
  750MPD2    H711092   0.552   2.449  11.168 -1.7233  0.5729  1.1402
  751TMC3    C111093   0.463   1.715  11.013  0.4860 -0.4632 -1.2445
  751TMC3    C211094   0.366   1.655  11.094  0.0216  0.8260  0.4136
  751TMC3    C311095   0.363   1.513  11.095 -0.3008 -0.5511  0.3199
  751TMC3    C411096   0.550   1.646  10.940  0.4324  0.5881  0.1641
  751TMC3    C511097   0.549   1.510  10.949  0.2198 -0.0663  0.0841
  751TMC3    C611098   0.451   1.448  11.020  0.1820 -0.2876  0.1985
  751TMC3     C11099   0.451   1.863  11.021 -0.4787 -0.7046 -0.3254
  751TMC3     O11100   0.342   1.912  11.046 -0.6478 -0.2903 -0.7228
  751TMC3     H11101   0.300   1.708  11.161 -0.7030 -2.4206  2.2488
  751TMC3    H111102   0.629   1.696  10.885 -0.6869 -1.1073 -2.9405
  751TMC3    H211103   0.433   1.341  11.026 -0.1850 -0.2462 -0.1585
  751TMC3    C711104   0.612   1.437  10.835 -0.1165  0.8451  0.0612
  751TMC3    C811105   0.241   1.430  11.100 -0.2529  0.2975  0.1781
  751TMC3    O111106   0.673   1.507  10.753 -0.4071  0.7908 -0.1023
  751TMC3    O211107   0.169   1.438  11.001  0.2813  0.1144 -0.3718
  752TMC3    C111108   4.328   2.439  17.426 -0.2027 -0.3436 -0.0161
  752TMC3    C211109   4.204   2.432  17.474  0.7872  0.1086 -0.2212
  752TMC3    C311110   4.183   2.405  17.602 -0.7179 -0.0025  0.1818
  752TMC3    C411111   4.437   2.418  17.506  0.2222  0.3740 -0.3275
  752TMC3    C511112   4.407   2.389  17.634 -0.5018  0.8860 -0.2978
  752TMC3    C611113   4.286   2.377   0.016 -0.4997  0.5052 -0.2957
  752TMC3     C11114   4.346   2.490  17.295 -0.5477 -0.0806  0.3885
  752TMC3     O11115   4.434   2.572  17.280  0.0428  0.5841 -0.5557
  752TMC3     H11116   4.118   2.447  17.409  1.4312 -0.2315 -1.1466
  752TMC3    H111117   4.531   2.436  17.456  0.4551  0.6789  0.2156
  752TMC3    H211118   4.278   2.360   0.123  2.0264  1.7480  0.0772
  752TMC3    C711119   4.525   2.358   0.037  1.0146 -0.1874  0.4008
  752TMC3    C811120   4.043   2.419  17.651  0.2127 -0.6377  0.1863
  752TMC3    O111121   4.515   2.265   0.116  0.3560 -0.0625  0.3161
  752TMC3    O211122   3.962   2.472  17.577  0.1401  0.4324  0.5573
  753TMC3    C111123   1.370   3.591  13.565  0.3345 -0.7730  0.4156
  753TMC3    C211124   1.417   3.544  13.684 -0.3419  0.1235  0.1257
  753TMC3    C311125   1.324   3.480  13.761  0.0503 -0.0153 -0.3187
  753TMC3    C411126   1.241   3.574  13.524 -0.4275 -0.2481 -0.0195
  753TMC3    C511127   1.162   3.493  13.599 -0.1792 -0.0275 -0.2099
  753TMC3    C611128   1.192   3.457  13.721  0.5027 -0.2802 -0.4171
  753TMC3     C11129   1.426   3.708  13.494 -0.6734 -0.0797 -0.6539
  753TMC3     O11130   1.371   3.745  13.391 -0.2106  0.0822 -0.3208
  753TMC3     H11131   1.522   3.555  13.709 -0.5805 -1.3406  1.7987
  753TMC3    H111132   1.211   3.579  13.420  1.4541 -0.7588 -0.5895
  753TMC3    H211133   1.121   3.413  13.790  1.5626 -0.7134  0.4096
  753TMC3    C711134   1.029   3.455  13.544 -1.0313  0.0467 -0.2171
  753TMC3    C811135   1.376   3.407  13.872  0.1695  0.4568  0.0569
  753TMC3    O111136   0.995   3.508  13.437  0.3897 -0.2292 -0.0478
  753TMC3    O211137   1.332   3.296  13.887 -0.1967  0.0544 -0.4792
  754MPD2     C11138   4.624   1.839  12.473 -0.0250 -0.0358  0.0250
  754MPD2    C111139   4.693   1.742  12.532 -0.3711 -0.6674  0.2751
  754MPD2    C211140   4.633   1.682  12.642 -0.3145 -0.0114  0.2629
  754MPD2    C311141   4.520   1.729  12.703 -0.0336  0.2373 -0.3463
  754MPD2    C411142   4.465   1.839  12.641  0.1220 -0.8064 -0.4745
  754MPD2    C511143   4.513   1.891  12.531  0.1563  1.1430 -0.1480
  754MPD2     H11144   4.667   1.589  12.685  0.3370  0.5784  1.0450
  754MPD2    H111145   4.373   1.875  12.686  0.7123 -2.0296  1.7481
  754MPD2    H211146   4.663   1.893  12.388 -1.0806 -2.5473 -2.0199
  754MPD2    H311147   4.477   1.976  12.474  0.7275  0.8190 -1.0004
  754MPD2     N11148   4.468   1.685  12.821 -0.3838 -0.4357  0.2555
  754MPD2    H511149   4.382   1.734  12.843 -0.3859  0.7235 -2.3224
  754MPD2    N111150   0.096   1.706  12.471 -0.1825  0.6958  0.2939
  754MPD2    H711151   0.103   1.746  12.378 -1.6508 -1.9727 -0.9673
  755MPD2     C11152   3.797   2.031  13.134 -0.6062 -0.0267  0.0401
  755MPD2    C111153   3.889   2.048  13.238  0.4513 -0.5275  0.1590
  755MPD2    C211154   4.003   1.963  13.241 -0.5591 -0.2554  0.2050
  755MPD2    C311155   4.025   1.875  13.137  0.1003  0.7644 -0.5164
  755MPD2    C411156   3.937   1.877  13.030  0.1336  0.1635 -0.3660
  755MPD2    C511157   3.829   1.952  13.031  0.1562 -0.4500  0.2978
  755MPD2     H11158   4.074   1.960  13.323  0.5640  1.4213 -0.6981
  755MPD2    H111159   3.954   1.802  12.953 -2.0615  0.1090 -0.7870
  755MPD2    H211160   3.700   2.079  13.131 -1.1085 -1.0406  0.0329
  755MPD2    H311161   3.747   1.941  12.960  0.2886  3.8495 -0.5383
  755MPD2     N11162   4.126   1.783  13.132  0.2580  0.2722 -0.2665
  755MPD2    H511163   4.139   1.730  13.047 -1.1646 -1.3449  0.5325
  755MPD2    N111164   3.864   2.138  13.346 -0.1869  0.1336  0.1674
  755MPD2    H711165   3.935   2.155  13.416  0.4639  0.9440 -0.6933
  756MPD2     C11166   0.485   2.747   8.934  0.3820 -0.8893  0.3277
  756MPD2    C111167   0.427   2.653   9.014 -0.2166 -0.3016  0.0401
  756MPD2    C211168   0.337   2.559   8.960 -1.3004  0.4005  0.1184
  756MPD2    C311169   0.312   2.564   8.824 -0.4894 -0.0609  0.5945
  756MPD2    C411170   0.358   2.669   8.751  0.5236  1.2962 -0.4513
  756MPD2    C511171   0.454   2.750   8.806  0.3560  0.2913 -0.2173
  756MPD2     H11172   0.301   2.480   9.024  0.1701 -0.7736 -0.4929
  756MPD2    H111173   0.337   2.688   8.647 -0.4581  1.1567 -0.2794
  756MPD2    H211174   0.554   2.822   8.970 -2.0374 -0.8059  4.8392
  756MPD2    H311175   0.493   2.836   8.752 -2.2950  0.5498 -1.7642
  756MPD2     N11176   0.228   2.457   8.770 -0.2025  0.0332  0.0643
  756MPD2    H511177   0.198   2.389   8.839 -2.1609  0.0745 -0.7652
  756MPD2    N111178   0.456   2.635   9.153  0.0119 -0.6571  0.4101
  756MPD2    H711179   0.398   2.577   9.213  0.2425 -0.5642  0.7244
  757MPD2     C11180   4.379   1.745   9.091  0.9058 -0.3996  0.0761
  757MPD2    C111181   4.292   1.824   9.018  0.2145  0.3022  0.3500
  757MPD2    C211182   4.341   1.912   8.924 -0.3171  0.0887  0.2475
  757MPD2    C311183   4.475   1.936   8.904 -0.6375 -0.3965 -0.2721
  757MPD2    C411184   4.558   1.863   8.991  0.4373  0.4087  0.1901
  757MPD2    C511185   4.513   1.766   9.074  0.2481  0.3783  0.2361
  757MPD2     H11186   4.272   1.964   8.858  1.3311  0.9575 -0.7761
  757MPD2    H111187   4.664   1.882   9.001  0.3764  1.1412 -0.6273
  757MPD2    H211188   4.332   1.684   9.168  2.4984 -1.7616 -0.0402
  757MPD2    H311189   4.582   1.727   9.148  2.1439  0.8288 -1.2780
  757MPD2     N11190   4.525   2.035   8.824 -0.3377  0.1074 -0.0386
  757MPD2    H511191   4.457   2.084   8.767  0.4825 -2.3323 -3.1699
  757MPD2    N111192   4.158   1.800   9.037 -0.5649  0.1972  0.0949
  757MPD2    H711193   4.134   1.720   9.095 -0.6392  0.0790 -0.0968
  758MPD2     C11194   0.157   2.049  15.978 -0.9815 -0.1401 -0.1889
  758MPD2    C111195   0.192   1.971  16.085 -0.1244  0.1563 -0.0823
  758MPD2    C211196   0.165   2.015  16.211  0.6246 -0.1158  0.1240
  758MPD2    C311197   0.097   2.130  16.224 -0.3837 -0.5255  0.0495
  758MPD2    C411198   0.067   2.208  16.121  0.4547  0.2933 -0.6435
  758MPD2    C511199   0.097   2.169  15.989  0.5627 -1.1301  0.0975
  758MPD2     H11200   0.181   1.944  16.291 -0.9950 -1.2683 -0.5670
  758MPD2    H111201   0.018   2.304  16.134  0.6261  0.2422  0.4343
  758MPD2    H211202   0.183   2.011  15.879 -0.4096 -0.3535  0.0437
  758MPD2    H311203   0.074   2.229  15.902 -1.0558 -3.4231 -1.0428
  758MPD2     N11204   0.049   2.181  16.347  0.7458  0.1506 -0.4972
  758MPD2    H511205   4.717   2.269  16.346  1.0294  0.3206  1.8656
  758MPD2    N111206   0.261   1.848  16.052 -0.1154  0.4867 -0.6039
  758MPD2    H711207   0.265   1.826  15.953  2.1990 -0.6623 -0.2504
  759MPD2     C11208   3.233   2.836  10.029 -0.3894 -0.3509 -0.7588
  759MPD2    C111209   3.366   2.833   9.986 -0.0404 -0.1395 -0.0381
  759MPD2    C211210   3.394   2.890   9.863 -0.5941  0.1692 -0.5994
  759MPD2    C311211   3.298   2.956   9.787  0.6643  0.2430  0.3919
  759MPD2    C411212   3.167   2.954   9.826 -0.1173 -0.5279  0.0681
  759MPD2    C511213   3.134   2.885   9.946  0.7650  0.1349 -0.1844
  759MPD2     H11214   3.498   2.878   9.834 -0.4080  1.5584 -0.5042
  759MPD2    H111215   3.088   3.002   9.770  0.4150  1.3328  0.9091
  759MPD2    H211216   3.205   2.809  10.131  0.5351 -0.7363 -0.6115
  759MPD2    H311217   3.033   2.882   9.983  0.7293  0.7750 -0.2405
  759MPD2     N11218   3.352   3.027   9.675 -0.0736  0.1322  0.7897
  759MPD2    H511219   3.454   3.022   9.670 -0.0727  1.0929 -0.0047
  759MPD2    N111220   3.469   2.787  10.067 -0.2363 -1.1235 -0.2132
  759MPD2    H711221   3.563   2.813  10.040 -0.7269 -0.3018 -1.1061
  760MPD2     C11222   3.246   2.098  12.414 -0.6929 -0.0447 -0.4988
  760MPD2    C111223   3.339   2.121  12.314  0.3815  0.7090  0.3549
  760MPD2    C211224   3.450   2.045  12.314  0.7385 -0.0031  0.3078
  760MPD2    C311225   3.457   1.926  12.392  0.4434  0.8295  0.2998
  760MPD2    C411226   3.355   1.896  12.479 -0.3529  0.6322  0.9133
  760MPD2    C511227   3.251   1.983  12.492 -0.2265 -0.3110  0.2173
  760MPD2     H11228   3.521   2.067  12.236  0.6150 -0.4166  0.0783
  760MPD2    H111229   3.354   1.803  12.535 -2.7022  0.6304  0.9047
  760MPD2    H211230   3.162   2.167  12.422 -0.0181  0.7784 -0.5657
  760MPD2    H311231   3.180   1.964  12.571 -1.4529 -1.0224 -1.0516
  760MPD2     N11232   3.558   1.830  12.392  0.5276  0.3295  0.1160
  760MPD2    H511233   3.544   1.746  12.448 -0.4424  0.6328  0.3211
  760MPD2    N111234   3.338   2.242  12.238 -0.1807 -0.4641 -0.0662
  760MPD2    H711235   3.422   2.253  12.183  0.9899 -0.4217  1.7506
  761MPD2     C11236   0.141   0.943  11.157 -0.0144  0.0101 -0.1897
  761MPD2    C111237   0.159   1.019  11.043 -0.9785  0.2826 -0.1680
  761MPD2    C211238   0.178   1.153  11.063 -0.1474  0.0049  0.3541
  761MPD2    C311239   0.208   1.207  11.184 -0.1797  0.0317  0.6009
  761MPD2    C411240   0.203   1.125  11.300  0.1246  0.1357  0.1622
  761MPD2    C511241   0.158   0.993  11.280 -0.0719 -0.6297 -0.9124
  761MPD2     H11242   0.198   1.216  10.977 -1.7348  0.2029  0.1220
  761MPD2    H111243   0.229   1.157  11.400  1.3442  1.0477 -0.4342
  761MPD2    H211244   0.123   0.836  11.151  0.1670 -0.1061  1.3230
  761MPD2    H311245   0.160   0.923  11.361 -0.7987  2.9901  2.2385
  761MPD2     N11246   0.253   1.338  11.199  0.7669  0.4774  0.1921
  761MPD2    H511247   0.303   1.356  11.285 -0.5473 -1.6922  1.3934
  761MPD2    N111248   0.144   0.952  10.922  0.3578 -0.1129  0.3547
  761MPD2    H711249   0.147   0.851  10.928 -0.7226 -0.2944 -2.0753
  762MPD2     C11250   0.310   1.196  10.167 -0.2139  0.1987 -0.5984
  762MPD2    C111251   0.354   1.072  10.208 -0.4073  0.4113 -0.5135
  762MPD2    C211252   0.460   1.011  10.151  0.6653  0.0850 -0.3179
  762MPD2    C311253   0.521   1.071  10.041 -0.0013 -0.0106 -0.3617
  762MPD2    C411254   0.485   1.194   9.999  0.8495  0.2036 -0.0794
  762MPD2    C511255   0.377   1.261  10.055  0.1806 -0.2283  0.3782
  762MPD2     H11256   0.485   0.912  10.185 -2.0982 -1.2890 -2.2376
  762MPD2    H111257   0.542   1.243   9.921  1.1645 -1.6627 -1.0194
  762MPD2    H211258   0.234   1.243  10.227  1.3228  2.0539 -0.0894
  762MPD2    H311259   0.345   1.357  10.017  0.3729  0.0157  0.8365
  762MPD2     N11260   0.626   0.999   9.980  0.0311  0.2735  0.2270
  762MPD2    H511261   0.653   0.911  10.023 -0.9439 -0.4623 -0.6483
  762MPD2    N111262   0.278   1.014  10.312  0.9891 -0.6628  0.3489
  762MPD2    H711263   0.199   1.058  10.359  1.2123  0.8862 -0.7298
  763MPD2     C11264   1.960   2.114  16.230  0.2695  0.0235  0.3345
  763MPD2    C111265   2.075   2.155  16.165  0.5801  0.0884 -0.7241
  763MPD2    C211266   2.126   2.282  16.191  0.2945 -0.0217 -0.1631
  763MPD2    C311267   2.059   2.367  16.280 -0.8699  0.5730  0.6511
  763MPD2    C411268   1.940   2.328  16.335  0.9300 -0.0835  0.0448
  763MPD2    C511269   1.899   2.198  16.323 -0.4823 -0.3814 -0.4044
  763MPD2     H11270   2.219   2.314  16.147  0.3693 -0.8405 -0.6056
  763MPD2    H111271   1.880   2.401  16.390  0.0557 -2.1844  1.8472
  763MPD2    H211272   1.924   2.016  16.200  1.6465  0.1284 -1.6537
  763MPD2    H311273   1.800   2.177  16.362  0.4641 -1.7042  1.3033
  763MPD2     N11274   2.120   2.488  16.306  0.2480 -0.0409  0.3336
  763MPD2    H511275   2.212   2.500  16.266 -0.7797  3.6315 -0.9241
  763MPD2    N111276   2.136   2.081  16.065  0.0118 -0.0612 -0.0464
  763MPD2    H711277   2.197   2.135  16.005  1.6183 -1.6216  0.1802
  764MPD2     C11278   0.391   3.904  17.337 -0.6819  0.6469 -0.1882
  764MPD2    C111279   0.342   3.786  17.273  0.1720  0.2377  0.3375
  764MPD2    C211280   0.313   3.678  17.357  0.1049 -0.4460 -0.1252
  764MPD2    C311281   0.331   3.680  17.496 -0.2358  0.0897  0.0112
  764MPD2    C411282   0.370   3.800  17.552  0.3030  0.1745 -0.2519
  764MPD2    C511283   0.403   3.906  17.474  0.0004 -0.7604 -0.7984
  764MPD2     H11284   0.266   3.592  17.310 -0.1295 -0.1035 -0.5197
  764MPD2    H111285   0.380   3.812  17.659 -1.7592  0.2407 -0.0719
  764MPD2    H211286   0.417   3.996  17.287 -2.7808  0.8222 -0.9438
  764MPD2    H311287   0.453   3.993  17.515 -0.0202 -2.0769  1.9931
  764MPD2     N11288   0.309   3.561  17.571  0.2743 -0.0329  0.4428
  764MPD2    H511289   0.271   3.485  17.515  1.2911 -1.1126  1.2267
  764MPD2    N111290   0.325   3.770  17.134  0.0615  0.1064 -0.6347
  764MPD2    H711291   0.293   3.676  17.112 -0.1131 -0.6974  3.0081
  765MPD2     C11292   4.677   0.728  16.080 -0.4131 -0.2572  0.6762
  765MPD2    C111293   0.012   0.839  16.025 -0.0618 -0.8851 -0.0453
  765MPD2    C211294   0.125   0.825  15.951 -0.9224 -0.5406  0.1466
  765MPD2    C311295   0.203   0.714  15.947 -0.1210 -0.1616  0.0833
  765MPD2    C411296   0.147   0.596  16.004 -0.0836 -0.0238  0.2603
  765MPD2    C511297   0.029   0.607  16.074  0.5789 -0.0121 -0.8648
  765MPD2     H11298   0.172   0.911  15.905 -0.3942 -0.8598  0.0836
  765MPD2    H111299   0.189   0.497  15.999  2.7475  1.2905 -2.0303
  765MPD2    H211300   4.595   0.739  16.150  0.0160  1.2872  0.9306
  765MPD2    H311301   4.703   0.516  16.115 -0.1330 -0.1045 -1.8188
  765MPD2     N11302   0.323   0.715  15.871  0.3224 -0.7495 -0.9729
  765MPD2    H511303   0.351   0.803  15.829  1.1798 -0.1466  0.8615
  765MPD2    N111304   4.644   0.957  16.023  0.3879  0.0454 -0.2504
  765MPD2    H711305   4.548   0.936  16.049  0.8558 -3.0502 -1.0122
  766MPD2     C11306   4.175   1.074  15.425  0.2648  0.0586  0.0745
  766MPD2    C111307   4.299   1.131  15.431 -0.3794  1.0442 -0.9105
  766MPD2    C211308   4.380   1.137  15.316  0.4551  0.3396 -0.3347
  766MPD2    C311309   4.331   1.096  15.194 -0.1801  0.0259 -1.1346
  766MPD2    C411310   4.206   1.047  15.190 -0.7179 -0.3467  0.4841
  766MPD2    C511311   4.132   1.027  15.298  0.1298 -0.2768 -0.0032
  766MPD2     H11312   4.484   1.164  15.330 -0.0681  2.5482 -0.8065
  766MPD2    H111313   4.168   1.009  15.095  1.8778  0.0333 -0.7047
  766MPD2    H211314   4.110   1.050  15.508 -0.8515 -2.0353 -1.3972
  766MPD2    H311315   4.029   0.995  15.290  0.1122 -0.4443  0.9074
  766MPD2     N11316   4.401   1.106  15.068 -0.3136 -0.2168  0.5291
  766MPD2    H511317   4.357   1.078  14.981 -3.3139  2.8002  1.0799
  766MPD2    N111318   4.361   1.167  15.555 -0.1927  0.3874  0.1179
  766MPD2    H711319   4.454   1.206  15.544  1.1138 -1.7668  3.6700
  767MPD2     C11320   4.072   1.289  15.070  0.1489 -1.0582  0.1789
  767MPD2    C111321   4.169   1.351  15.001  0.5783  0.6598 -0.0250
  767MPD2    C211322   4.151   1.356  14.863  0.1001 -0.4808 -0.6901
  767MPD2    C311323   4.045   1.286  14.803 -0.4200  0.3436  0.6206
  767MPD2    C411324   3.949   1.226  14.878 -0.0823 -0.3433  0.8174
  767MPD2    C511325   3.959   1.238  15.013 -0.6632 -0.2585 -0.0816
  767MPD2     H11326   4.226   1.413  14.810  1.2631  0.3058  1.7933
  767MPD2    H111327   3.862   1.176  14.836  0.2915  1.6706 -2.3496
  767MPD2    H211328   4.084   1.284  15.178 -0.0138  1.6407  0.3277
  767MPD2    H311329   3.892   1.185  15.080 -1.7747  0.1224 -0.8837
  767MPD2     N11330   4.054   1.269  14.663  0.0633 -0.1103 -0.5071
  767MPD2    H511331   4.143   1.291  14.620 -0.2001  2.8367  0.4731
  767MPD2    N111332   4.267   1.414  15.075  0.3389  0.4103  1.0341
  767MPD2    H711333   4.271   1.404  15.176  1.1119 -2.5038  0.6929
  768MPD2     C11334   4.158   3.880  11.023 -0.2221 -0.1829 -0.0329
  768MPD2    C111335   4.269   3.889  10.937 -0.5348  0.5470 -0.5706
  768MPD2    C211336   4.397   3.893  10.998  0.2089  0.2407 -0.0153
  768MPD2    C311337   4.413   3.894  11.133 -0.3529  0.4591 -0.0230
  768MPD2    C411338   4.300   3.888  11.216  0.1531  0.4317  0.2043
  768MPD2    C511339   4.179   3.873  11.156 -0.2956 -0.5312 -0.0490
  768MPD2     H11340   4.478   3.881  10.927 -0.4249  0.0648 -0.7088
  768MPD2    H111341   4.306   3.894  11.324 -1.2948  0.8174  0.2733
  768MPD2    H211342   4.056   3.874  10.986 -0.2973  0.9491  0.0142
  768MPD2    H311343   4.095   3.863  11.224 -0.1721 -1.4426 -0.0316
  768MPD2     N11344   4.538   3.897  11.194  0.1411 -0.3006 -0.5436
  768MPD2    H511345   4.538   3.885  11.295 -1.0848  1.1257 -0.3642
  768MPD2    N111346   4.260   3.894  10.793 -0.2354  0.0970 -0.2697
  768MPD2    H711347   4.343   3.910  10.736 -0.0737  1.2080  0.2602
  769MPD2     C11348   0.864   3.155  14.903  0.2418  0.4764 -0.3264
  769MPD2    C111349   0.817   3.055  14.980 -0.3052 -0.0980  0.0272
  769MPD2    C211350   0.910   2.984  15.057 -1.0877  0.4565 -0.5668
  769MPD2    C311351   1.036   3.022  15.055  0.6493  0.3102  0.5319
  769MPD2    C411352   1.087   3.125  14.986 -0.4719  0.6038  0.5129
  769MPD2    C511353   0.999   3.195  14.905 -0.2532 -0.5860  0.7406
  769MPD2     H11354   0.889   2.894  15.113  2.5320 -1.2761 -2.0091
  769MPD2    H111355   1.192   3.147  14.971 -0.6022  0.0864 -1.1413
  769MPD2    H211356   0.798   3.205  14.834 -0.4987  1.1750  0.8785
  769MPD2    H311357   1.042   3.279  14.852 -1.0705 -0.3266  0.4821
  769MPD2     N11358   1.124   2.945  15.134 -0.5039 -0.5398 -0.3443
  769MPD2    H511359   1.078   2.868  15.182 -0.2657  0.2121  1.1067
  769MPD2    N111360   0.682   3.006  14.971  0.4068 -0.0834  0.1077
  769MPD2    H711361   0.621   3.042  14.899  1.2479  3.1268  1.0022
  770MPD2     C11362   0.404   2.029  15.311  0.0225 -0.3219 -0.1638
  770MPD2    C111363   0.503   2.045  15.216 -0.5019  0.1785  0.2480
  770MPD2    C211364   0.502   2.161  15.135  0.3842 -0.1929  0.4156
  770MPD2    C311365   0.423   2.268  15.168 -1.3713 -0.2123  0.0634
  770MPD2    C411366   0.328   2.248  15.269  0.4019  0.0025  0.0567
  770MPD2    C511367   0.321   2.129  15.335 -0.4902  0.6363 -0.3328
  770MPD2     H11368   0.567   2.164  15.049  0.2741 -1.1340  0.3001
  770MPD2    H111369   0.260   2.326  15.302  0.1595 -0.2341  0.1126
  770MPD2    H211370   0.392   1.940  15.371 -0.7063 -0.0239  0.1263
  770MPD2    H311371   0.244   2.123  15.411  0.5353  1.4280  0.7699
  770MPD2     N11372   0.449   2.389  15.100  0.1157  0.7267  0.6955
  770MPD2    H511373   0.512   2.392  15.020 -0.1563 -0.8516  0.4087
  770MPD2    N111374   0.582   1.932  15.193  0.8620  0.5706 -0.2419
  770MPD2    H711375   0.546   1.848  15.236 -1.0341  1.9113  0.7653
  771MPD2     C11376   2.013   0.408  13.711 -0.3071  0.6471 -0.1191
  771MPD2    C111377   1.932   0.490  13.632 -0.3989  0.2902  0.3344
  771MPD2    C211378   1.884   0.431  13.512 -0.4582 -0.6724  0.2225
  771MPD2    C311379   1.917   0.305  13.468  0.3218 -0.8195  0.5622
  771MPD2    C411380   2.009   0.236  13.543  1.1675 -0.1367 -0.8839
  771MPD2    C511381   2.049   0.287  13.662 -0.0439 -0.1388 -0.5917
  771MPD2     H11382   1.832   0.492  13.439  0.7245 -1.3159 -1.1683
  771MPD2    H111383   2.049   0.139  13.518  2.1461 -0.5883  2.3424
  771MPD2    H211384   2.065   0.428  13.804 -2.3635  2.4766  0.6121
  771MPD2    H311385   2.113   0.229  13.728 -0.6760  0.5833  0.6389
  771MPD2     N11386   1.866   0.251  13.348  0.7314  0.5326  0.3815
  771MPD2    H511387   1.821   0.319  13.287  0.2333 -1.1816 -1.1692
  771MPD2    N111388   1.896   0.621  13.665  0.1307  0.0227  0.1867
  771MPD2    H711389   1.836   0.675  13.603  1.7600 -0.8296 -2.1391
  772MPD2     C11390   1.380   1.076  13.500 -0.0186 -0.2634  0.0353
  772MPD2    C111391   1.435   1.153  13.594 -0.3622 -0.2563  0.9911
  772MPD2    C211392   1.368   1.268  13.646 -0.0414 -0.2232 -0.0637
  772MPD2    C311393   1.242   1.299  13.594 -0.1541 -1.2823  0.2805
  772MPD2    C411394   1.186   1.217  13.495  0.2844 -0.0812 -0.2821
  772MPD2    C511395   1.254   1.106  13.453 -0.2837  0.0828  0.0243
  772MPD2     H11396   1.416   1.316  13.730 -0.1588  0.6179 -0.4805
  772MPD2    H111397   1.087   1.230  13.454  0.0677 -2.1807 -0.4270
  772MPD2    H211398   1.424   0.987  13.455  2.3486  0.7143  0.4055
  772MPD2    H311399   1.213   1.046  13.372  0.4439  1.4123 -1.3163
  772MPD2     N11400   1.151   1.389  13.651 -0.7121  0.1498 -0.1101
  772MPD2    H511401   1.057   1.386  13.611 -0.5808  1.6619 -0.5310
  772MPD2    N111402   1.553   1.114  13.667 -0.0449  0.2365 -0.6731
  772MPD2    H711403   1.575   1.171  13.749  0.5187 -1.0870  0.0908
  773MPD2     C11404   0.778   2.414   0.701  0.1189 -0.3586 -0.1096
  773MPD2    C111405   0.789   2.324   0.597  0.3087  0.3042  0.6147
  773MPD2    C211406   0.832   2.199   0.625 -0.3935  0.2992  0.2219
  773MPD2    C311407   0.882   2.157   0.751 -0.1668 -0.5112 -0.1250
  773MPD2    C411408   0.862   2.247   0.856  0.6655  0.0664 -0.2234
  773MPD2    C511409   0.812   2.372   0.823  0.0440  0.4178  0.2489
  773MPD2     H11410   0.833   2.139   0.535  2.8292  1.5918 -0.6056
  773MPD2    H111411   0.889   2.227   0.958 -0.6227 -1.1671 -0.1081
  773MPD2    H211412   0.748   2.516   0.679  2.7130  0.3287 -0.5441
  773MPD2    H311413   0.811   2.447   0.901  0.9711 -0.3305  0.9804
  773MPD2     N11414   0.953   2.040   0.759  0.2548 -0.5567 -0.7308
  773MPD2    H511415   0.968   1.987   0.674  0.8614  0.1815 -1.0789
  773MPD2    N111416   0.755   2.357   0.465 -0.3129 -0.2278 -0.1032
  773MPD2    H711417   0.766   2.283   0.397 -0.0068  1.3176 -1.7225
  774MPD2     C11418   0.133   0.961  13.213 -0.4224 -0.2788  0.0095
  774MPD2    C111419   0.109   1.089  13.265  1.2018  0.1212 -0.3194
  774MPD2    C211420   0.138   1.191  13.181 -0.5018  0.4982 -0.2848
  774MPD2    C311421   0.210   1.176  13.061  0.3482 -0.0147  0.1901
  774MPD2    C411422   0.252   1.049  13.015  0.0798  0.8280 -0.1803
  774MPD2    C511423   0.211   0.947  13.100  0.0692  0.9877  0.8657
  774MPD2     H11424   0.115   1.292  13.210 -0.0693  0.3720  0.4966
  774MPD2    H111425   0.313   1.025  12.929 -1.1549 -0.0535 -0.8122
  774MPD2    H211426   0.114   0.868  13.264  2.3662 -0.6228  0.4316
  774MPD2    H311427   0.245   0.847  13.076 -2.1699  0.2827  0.5848
  774MPD2     N11428   0.225   1.295  12.986 -0.9241 -0.5440  0.2997
  774MPD2    H511429   0.202   1.383  13.030  2.1880 -0.7214  2.2796
  774MPD2    N111430   0.049   1.103  13.387 -0.0249  0.1798  0.2352
  774MPD2    H711431   4.714   1.024  13.425 -0.5071  0.9340  1.1367
  775MPD2     C11432   1.582   2.710  15.792  0.4820  0.0648  0.8154
  775MPD2    C111433   1.612   2.801  15.888 -0.5575 -0.4237  0.0776
  775MPD2    C211434   1.716   2.886  15.866 -0.5676  0.3000  0.5270
  775MPD2    C311435   1.813   2.862  15.762 -0.6443 -0.4531 -0.2895
  775MPD2    C411436   1.790   2.754  15.679  0.2039  0.3070  0.2403
  775MPD2    C511437   1.667   2.694  15.687  0.8467  0.5739 -0.5961
  775MPD2     H11438   1.718   2.982  15.918 -1.1114  1.1905 -1.0889
  775MPD2    H111439   1.855   2.730  15.595  0.0637 -0.4434  0.3454
  775MPD2    H211440   1.483   2.665  15.789 -0.5189  2.3186 -0.1092
  775MPD2    H311441   1.635   2.624  15.611 -0.4482  0.9020 -0.3540
  775MPD2     N11442   1.919   2.950  15.739 -0.0330 -0.5254 -0.0029
  775MPD2    H511443   1.989   2.914  15.674  0.2007 -0.1262  0.0239
  775MPD2    N111444   1.523   2.822  15.998  0.0204 -0.2897  0.2312
  775MPD2    H711445   1.437   2.770  15.991 -0.4086  0.8088 -2.5157
  776MPD2     C11446   0.174   3.111  11.175 -0.9677  0.5458  0.5072
  776MPD2    C111447   0.296   3.054  11.212  0.0650  0.5352  0.2293
  776MPD2    C211448   0.415   3.123  11.220  0.1221  0.7293 -0.5424
  776MPD2    C311449   0.412   3.257  11.186 -0.4482  0.8064  0.1839
  776MPD2    C411450   0.295   3.312  11.144 -0.1720 -0.4960  0.1677
  776MPD2    C511451   0.178   3.237  11.131 -0.4022 -0.2295  0.5199
  776MPD2     H11452   0.508   3.083  11.260 -0.9161 -1.0914  0.0440
  776MPD2    H111453   0.287   3.415  11.113  0.6758 -0.0366  1.5115
  776MPD2    H211454   0.083   3.052  11.166 -0.4251  0.3793 -3.9467
  776MPD2    H311455   0.085   3.277  11.091  0.4043  0.9888 -0.1474
  776MPD2     N11456   0.525   3.347  11.206  0.4404 -0.9482  0.0766
  776MPD2    H511457   0.509   3.447  11.196  2.7291 -0.7147 -1.4149
  776MPD2    N111458   0.286   2.931  11.266 -0.6547 -0.2572 -0.1694
  776MPD2    H711459   0.195   2.886  11.275 -1.0353  0.3767 -0.8398
  777MPD2     C11460   0.587   0.956   0.859  0.9039 -0.2151  0.4451
  777MPD2    C111461   0.631   0.887   0.968 -0.2187 -0.0065  0.1308
  777MPD2    C211462   0.734   0.796   0.950  0.4412  0.4418 -0.3280
  777MPD2    C311463   0.795   0.782   0.830  0.1371 -0.1409 -0.7004
  777MPD2    C411464   0.741   0.846   0.717 -0.8471 -0.3923 -0.6140
  777MPD2    C511465   0.636   0.925   0.735  1.1676  0.4306 -0.3986
  777MPD2     H11466   0.776   0.738   1.031  1.2455  1.7704  0.2011
  777MPD2    H111467   0.783   0.820   0.621  0.0031  1.2960 -0.6891
  777MPD2    H211468   0.518   1.039   0.863  0.2890 -0.6378 -1.3789
  777MPD2    H311469   0.601   0.982   0.650  0.8998  1.7589  0.5978
  777MPD2     N11470   0.898   0.686   0.824  0.2950 -0.3588  1.0219
  777MPD2    H511471   0.906   0.630   0.908 -0.2926 -1.3431  0.4129
  777MPD2    N111472   0.567   0.924   1.092 -0.1546 -0.4524 -0.5761
  777MPD2    H711473   0.490   0.990   1.089  1.8431  1.7966 -3.0244
  778MPD2     C11474   2.046   0.802  14.882 -0.2889 -0.2848  0.3160
  778MPD2    C111475   2.087   0.675  14.851  0.6402 -0.2077  0.0762
  778MPD2    C211476   2.212   0.665  14.791  0.3107  0.4737  0.2122
  778MPD2    C311477   2.284   0.779  14.769 -0.0153  0.6737 -1.4837
  778MPD2    C411478   2.240   0.907  14.812 -0.3104  0.8517  0.7807
  778MPD2    C511479   2.122   0.912  14.878  0.7207 -0.2579 -0.5514
  778MPD2     H11480   2.251   0.568  14.762  0.9008  0.9432 -0.5688
  778MPD2    H111481   2.289   1.002  14.795  1.8112 -0.3161  0.3326
  778MPD2    H211482   1.946   0.814  14.922 -0.6812  0.0956 -0.7760
  778MPD2    H311483   2.076   1.010  14.883 -0.2060 -0.7072 -0.2875
  778MPD2     N11484   2.404   0.760  14.707  0.5859 -0.2274  0.4209
  778MPD2    H511485   2.427   0.666  14.677 -4.4819 -0.9540 -1.1934
  778MPD2    N111486   2.006   0.560  14.861 -0.4807  0.4035 -0.6550
  778MPD2    H711487   2.031   0.488  14.795  1.7027 -0.2295  0.8914
  779MPD2     C11488   1.769   4.216  14.185 -0.1236  0.9256 -1.1981
  779MPD2    C111489   1.884   4.235  14.266  0.3965  0.0539 -0.3467
  779MPD2    C211490   1.914   4.365  14.304 -0.1436 -0.7438  0.4606
  779MPD2    C311491   1.847   4.477  14.252  0.2027  0.0565  0.6392
  779MPD2    C411492   1.745   4.461  14.162 -0.2972 -0.0337  0.6465
  779MPD2    C511493   1.703   4.331  14.136  0.1237 -0.2078 -0.6090
  779MPD2     H11494   1.993   4.388  14.374 -0.0338  2.7259 -0.7655
  779MPD2    H111495   1.688   4.549  14.136  1.1301 -0.0531 -2.4615
  779MPD2    H211496   1.734   4.118  14.155  2.0419  0.3692 -1.9056
  779MPD2    H311497   1.627   4.323  14.059 -0.4406  1.1073 -0.1862
  779MPD2     N11498   1.892   4.602  14.291 -0.1836 -0.2825  0.3779
  779MPD2    H511499   1.981   4.609  14.339 -0.3340 -0.9970  0.7605
  779MPD2    N111500   1.945   4.134  14.341 -1.0100  0.3118 -0.1889
  779MPD2    H711501   2.011   4.151  14.417 -2.3207 -0.3805  1.1054
  780MPD2     C11502   1.631   4.572   1.539  0.0965  1.0186 -0.6514
  780MPD2    C111503   1.585   4.528   1.422 -0.3323  0.9396  0.3384
  780MPD2    C211504   1.637   4.579   1.302  0.2934 -0.2439  1.2370
  780MPD2    C311505   1.740   4.676   1.306  0.5050  1.3117  0.3639
  780MPD2    C411506   1.781   0.004   1.427 -0.0088 -0.3763  0.3625
  780MPD2    C511507   1.724   4.672   1.545  0.0214 -0.0531  0.0506
  780MPD2     H11508   1.605   4.534   1.209 -1.9626 -1.3305  2.5432
  780MPD2    H111509   1.851   0.086   1.438  0.0270 -0.7274  2.8808
  780MPD2    H211510   1.583   4.536   1.629 -0.5033  2.1208 -0.5265
  780MPD2    H311511   1.742   0.007   1.637  0.5944  0.4516 -0.3526
  780MPD2     N11512   1.794   4.712   1.179  0.2161 -0.1543  0.0533
  780MPD2    H511513   1.743   4.666   1.104 -0.8948  0.5269  0.3846
  780MPD2    N111514   1.502   4.416   1.428 -0.2276  0.2262  0.1550
  780MPD2    H711515   1.493   4.374   1.520  3.1841 -0.2514  0.2505
  781MPD2     C11516   2.949   0.930  11.957 -0.1578  0.0300  0.7258
  781MPD2    C111517   3.065   0.974  12.024 -0.7189  0.5901 -0.4876
  781MPD2    C211518   3.179   0.998  11.949  0.1610 -0.5133  0.3399
  781MPD2    C311519   3.181   0.970  11.812 -1.0487  0.5091 -0.4004
  781MPD2    C411520   3.067   0.923  11.752  0.1816  0.2101  0.4256
  781MPD2    C511521   2.950   0.898  11.820 -0.5113 -0.6324 -0.0645
  781MPD2     H11522   3.265   1.052  11.989  1.1095 -1.9169  0.1716
  781MPD2    H111523   3.072   0.915  11.644  0.3101 -0.1823  0.4586
  781MPD2    H211524   2.852   0.922  12.005 -0.8456  0.2218 -0.6145
  781MPD2    H311525   2.861   0.856  11.775 -1.2470  1.4081 -0.4998
  781MPD2     N11526   3.299   0.982  11.732 -0.1210  0.7760 -0.0452
  781MPD2    H511527   3.287   0.959  11.634 -0.4434  1.1334 -0.0897
  781MPD2    N111528   3.061   0.997  12.160  0.1568 -0.1696  0.6104
  781MPD2    H711529   3.137   1.052  12.199  0.4905 -0.3522  0.2079
  782MPD2     C11530   0.682   1.774   9.946 -0.2945  0.5225  0.4288
  782MPD2    C111531   0.741   1.723  10.060  0.4868 -0.5670  0.0312
  782MPD2    C211532   0.763   1.806  10.166  0.0354  0.3846  0.0822
  782MPD2    C311533   0.748   1.941  10.151 -0.3565 -0.0571 -0.0234
  782MPD2    C411534   0.702   1.995  10.034  0.0946 -0.4850 -0.5263
  782MPD2    C511535   0.668   1.906   9.934  0.5815 -0.1404 -0.1512
  782MPD2     H11536   0.796   1.765  10.260  1.5264 -0.4014 -0.7816
  782MPD2    H111537   0.684   2.101  10.019  1.1325  0.1453  2.6260
  782MPD2    H211538   0.654   1.722   9.855 -1.2131  1.9136 -0.0848
  782MPD2    H311539   0.628   1.942   9.840  2.0368 -0.7838 -1.0198
  782MPD2     N11540   0.800   2.024  10.261 -0.2856  0.7340 -0.1130
  782MPD2    H511541   0.833   1.978  10.345 -0.1332  1.5047  0.2476
  782MPD2    N111542   0.762   1.588  10.071  0.2100 -0.1433 -0.1033
  782MPD2    H711543   0.771   1.562  10.169 -2.1002 -1.4641 -0.2466
  783MPD2     C11544   0.544   1.093  10.713 -0.1576  0.1667  0.6575
  783MPD2    C111545   0.608   1.213  10.721 -0.0490 -0.0704  0.0338
  783MPD2    C211546   0.683   1.250  10.612  0.6483 -1.0746 -0.1945
  783MPD2    C311547   0.690   1.169  10.501  0.6261  0.9394 -0.4011
  783MPD2    C411548   0.640   1.040  10.504  0.0243  0.2411 -0.1308
  783MPD2    C511549   0.563   1.000  10.607  0.2709  0.6112  0.3190
  783MPD2     H11550   0.753   1.332  10.617  1.1629 -1.4500 -1.3002
  783MPD2    H111551   0.653   0.977  10.418  0.2562  0.5484 -0.3198
  783MPD2    H211552   0.499   1.040  10.796 -1.2167 -0.4799 -0.3470
  783MPD2    H311553   0.536   0.895  10.618  0.7097  0.7110  2.3725
  783MPD2     N11554   0.765   1.210  10.392 -0.0379  0.7908 -0.2780
  783MPD2    H511555   0.789   1.309  10.393  3.0662  0.0056 -0.0048
  783MPD2    N111556   0.581   1.299  10.831  0.1887  0.0367  0.6391
  783MPD2    H711557   0.529   1.255  10.907 -1.7949 -0.4845 -1.0171
  784MPD2     C11558   3.238   2.213   0.919  0.2999  0.9777 -0.4258
  784MPD2    C111559   3.265   2.339   0.961 -0.4869 -0.4340  0.2298
  784MPD2    C211560   3.191   2.440   0.911 -0.1533  0.2549 -0.5281
  784MPD2    C311561   3.081   2.422   0.835  0.6651  0.0505  0.2434
  784MPD2    C411562   3.047   2.292   0.801 -0.0114 -0.2744 -0.1319
  784MPD2    C511563   3.133   2.193   0.835  0.7087  0.0744  0.0413
  784MPD2     H11564   3.218   2.538   0.949  0.5002 -0.9626  2.1551
  784MPD2    H111565   2.955   2.273   0.747  1.3714 -1.2494 -2.1471
  784MPD2    H211566   3.290   2.122   0.946  0.0178  1.2127  0.9035
  784MPD2    H311567   3.111   2.090   0.806 -0.7454  0.1121  0.9580
  784MPD2     N11568   3.001   2.521   0.788 -0.0292 -0.6282  0.1715
  784MPD2    H511569   2.905   2.499   0.761 -0.5596  1.2559  0.5056
  784MPD2    N111570   3.357   2.367   1.067 -0.5133  0.5570 -0.7302
  784MPD2    H711571   3.379   2.464   1.087  1.2172  0.2946 -1.3741
  785MPD2     C11572   3.023   0.283   9.557 -0.2153  0.2100 -0.4237
  785MPD2    C111573   3.035   0.328   9.692  0.2001 -0.3052  0.1157
  785MPD2    C211574   2.919   0.338   9.770 -0.9400 -0.3219  0.6294
  785MPD2    C311575   2.799   0.315   9.719  0.7445  0.4210  1.0143
  785MPD2    C411576   2.785   0.274   9.587 -0.0379 -0.2207 -0.0108
  785MPD2    C511577   2.897   0.264   9.504  0.6572  0.3264  0.0865
  785MPD2     H11578   2.926   0.388   9.866  1.5502 -1.3517  0.9701
  785MPD2    H111579   2.685   0.264   9.544  0.4536  1.1098 -1.4918
  785MPD2    H211580   3.108   0.286   9.490 -0.2643 -1.0728 -0.5492
  785MPD2    H311581   2.869   0.240   9.402  1.8824 -2.3757  0.3914
  785MPD2     N11582   2.686   0.339   9.803  0.2385  0.2493  0.3643
  785MPD2    H511583   2.713   0.368   9.897 -1.5959 -0.2342  1.0302
  785MPD2    N111584   3.161   0.356   9.754  0.5673  0.0295  0.3673
  785MPD2    H711585   3.147   0.373   9.853 -0.9783 -1.1216  0.3435
  786MPD2     C11586   2.017   3.481  14.774 -0.3097  0.2872 -0.2016
  786MPD2    C111587   2.149   3.441  14.731  0.1799 -0.1336  0.1020
  786MPD2    C211588   2.246   3.431  14.830  0.8706 -0.2663  0.5583
  786MPD2    C311589   2.220   3.465  14.959 -0.5183 -0.7838  0.3415
  786MPD2    C411590   2.092   3.498  14.997  0.2417  0.0424  0.0527
  786MPD2    C511591   1.990   3.506  14.907 -0.0180 -0.3902  0.1764
  786MPD2     H11592   2.342   3.392  14.798  0.1025 -0.7010 -1.2118
  786MPD2    H111593   2.072   3.510  15.103 -0.5163  1.6354 -0.2681
  786MPD2    H211594   1.940   3.473  14.699 -0.0832 -3.7861 -0.0195
  786MPD2    H311595   1.886   3.518  14.936 -1.0801 -3.2183 -2.5645
  786MPD2     N11596   2.307   3.465  15.069 -0.0309  0.0268  0.1185
  786MPD2    H511597   2.264   3.478  15.160 -0.1972 -1.1104  0.2021
  786MPD2    N111598   2.186   3.393  14.606  0.3158 -0.8732  0.2415
  786MPD2    H711599   2.279   3.353  14.599  0.8476  0.1639  1.4204
  787MPD2     C11600   2.761   3.553  14.445 -0.9781 -0.6033 -0.3036
  787MPD2    C111601   2.697   3.441  14.391 -0.4414  0.4378  0.1577
  787MPD2    C211602   2.745   3.313  14.425 -0.4509 -0.1378 -0.2208
  787MPD2    C311603   2.843   3.299  14.515 -0.0013 -0.1909  0.4690
  787MPD2    C411604   2.911   3.408  14.563  0.1210  0.1732  0.3581
  787MPD2    C511605   2.863   3.530  14.530  0.5911 -0.7072 -0.2085
  787MPD2     H11606   2.690   3.228  14.385 -2.0116  0.7170  0.1041
  787MPD2    H111607   2.994   3.404  14.634 -1.0549  0.2148  1.7405
  787MPD2    H211608   2.729   3.654  14.422  0.0911 -0.6410 -1.9544
  787MPD2    H311609   2.914   3.620  14.561  2.0404 -1.9580  1.0529
  787MPD2     N11610   2.880   3.168  14.560 -0.1512  0.1073 -0.1068
  787MPD2    H511611   2.836   3.086  14.520  0.5531 -0.7264  0.8401
  787MPD2    N111612   2.575   3.464  14.312 -0.0923 -0.5054 -0.1139
  787MPD2    H711613   2.528   3.554  14.309  0.5969 -0.0633  2.2194
  788MPD2     C11614   4.619   1.977   0.634  0.0779 -0.6624  0.3510
  788MPD2    C111615   4.676   1.876   0.560  0.2620  0.3286  0.3905
  788MPD2    C211616   4.698   1.898   0.424  0.4785  0.3971 -0.0724
  788MPD2    C311617   4.630   2.008   0.359 -0.7344  0.1071 -0.3918
  788MPD2    C411618   4.558   2.099   0.433 -0.1655  0.2655  0.0967
  788MPD2    C511619   4.552   2.079   0.566  0.5369 -0.1969 -0.0562
  788MPD2     H11620   0.014   1.814   0.364 -0.7157  1.0740 -1.7079
  788MPD2    H111621   4.500   2.182   0.395  0.3507 -0.0384 -1.3539
  788MPD2    H211622   4.598   1.970   0.740 -1.6767 -0.3171  0.0319
  788MPD2    H311623   4.489   2.154   0.613  0.5679 -0.3822  0.2807
  788MPD2     N11624   4.604   2.012   0.220 -0.0826 -0.2480 -0.2433
  788MPD2    H511625   4.532   2.074   0.183 -1.7789 -0.9334  1.9291
  788MPD2    N111626   0.009   1.762   0.633 -0.2190 -0.0507  0.2287
  788MPD2    H711627   4.683   1.755   0.725  0.7086  0.6855  0.7274
  789MPD2     C11628   0.006   1.612  16.282 -0.1880  0.0014 -0.0075
  789MPD2    C111629   4.702   1.536  16.393  0.1075 -0.0979 -0.0300
  789MPD2    C211630   4.625   1.583  16.499 -0.3286 -0.1540  0.4435
  789MPD2    C311631   4.556   1.709  16.487 -0.5062  0.7197 -0.5881
  789MPD2    C411632   4.593   1.785  16.376  0.0210  1.1360  1.0116
  789MPD2    C511633   4.673   1.734  16.280  0.0073 -0.1236  0.0674
  789MPD2     H11634   4.599   1.515  16.579 -1.0660  3.1963  3.0527
  789MPD2    H111635   4.556   1.887  16.370 -1.1783  0.6713  0.5329
  789MPD2    H211636   0.059   1.577  16.193 -0.1120  1.0583 -0.3824
  789MPD2    H311637   4.703   1.790  16.192 -1.4478  0.4539 -0.0595
  789MPD2     N11638   4.466   1.761  16.582  0.1380  0.1209  0.1715
  789MPD2    H511639   4.435   1.856  16.563 -2.4770 -0.9499 -0.9030
  789MPD2    N111640   0.033   1.396  16.399 -0.2624 -0.5082 -0.6339
  789MPD2    H711641   0.027   1.358  16.493  0.2339  1.2567  0.1176
  790MPD2     C11642   0.579   2.615  13.951  0.2958 -0.6495 -0.7557
  790MPD2    C111643   0.663   2.699  13.882 -0.2449  0.4650 -0.0614
  790MPD2    C211644   0.636   2.717  13.746 -0.2568  0.3169  0.5246
  790MPD2    C311645   0.541   2.646  13.681 -0.2653 -0.8112 -0.3696
  790MPD2    C411646   0.470   2.546  13.749 -0.0630  0.3689  0.2791
  790MPD2    C511647   0.494   2.533  13.882 -0.1809 -0.2255  0.0793
  790MPD2     H11648   0.692   2.797  13.699 -0.2849 -1.0875 -1.9192
  790MPD2    H111649   0.385   2.487  13.718  2.6891 -2.8101 -1.3491
  790MPD2    H211650   0.580   2.603  14.059 -0.8751  1.5167 -0.5082
  790MPD2    H311651   0.427   2.470  13.940  1.4186 -0.9823  1.1037
  790MPD2     N11652   0.509   2.678  13.547  0.2464 -0.1204 -0.1652
  790MPD2    H511653   0.556   2.759  13.508  1.0002 -1.3952 -1.9081
  790MPD2    N111654   0.743   2.780  13.965 -0.4275 -0.2979  0.1823
  790MPD2    H711655   0.722   2.786  14.065  1.0347 -3.8900  0.6977
  791MPD2     C11656   0.011   2.927  13.128  0.2954  0.5979  0.4046
  791MPD2    C111657   0.063   2.836  13.043  0.3716  0.2242  0.4042
  791MPD2    C211658   4.704   2.802  12.932 -0.4142  0.4258 -0.7112
  791MPD2    C311659   4.580   2.863  12.905  0.0166  0.2425  0.0841
  791MPD2    C411660   4.537   2.954  12.999 -0.2974  0.0618  0.3112
  791MPD2    C511661   4.611   2.993  13.104 -1.0329 -0.1089  0.8638
  791MPD2     H11662   0.017   2.722  12.866  0.5392 -0.2230  0.5195
  791MPD2    H111663   4.443   3.006  12.994 -0.8290 -1.1079 -2.0415
  791MPD2    H211664   0.066   2.961  13.215 -1.5974 -0.4232  1.9836
  791MPD2    H311665   4.576   3.070  13.173 -0.9424  2.0561 -1.5071
  791MPD2     N11666   4.491   2.823  12.802 -0.6133 -0.2889  0.8360
  791MPD2    H511667   4.512   2.741  12.746  0.6824  1.2054 -0.8629
  791MPD2    N111668   0.181   2.782  13.089 -0.0507  0.0984 -0.2891
  791MPD2    H711669   0.226   2.843  13.157  0.4780  0.1378 -0.6730
  792MPD2     C11670   0.273   2.614  10.944 -0.0196 -0.5317 -0.2445
  792MPD2    C111671   0.398   2.634  10.889 -0.5086  0.1743 -0.5363
  792MPD2    C211672   0.460   2.525  10.825 -1.2738  0.2222 -0.2192
  792MPD2    C311673   0.390   2.407  10.807  0.1364  0.1593 -0.3805
  792MPD2    C411674   0.267   2.385  10.868 -0.4189 -0.0201 -0.7734
  792MPD2    C511675   0.216   2.486  10.937  0.6522  0.0789  1.0827
  792MPD2     H11676   0.561   2.537  10.788 -0.0516  0.1627  3.0815
  792MPD2    H111677   0.197   2.306  10.846  0.0423 -0.1524 -1.7371
  792MPD2    H211678   0.235   2.694  11.007 -0.0396  0.7526 -1.8866
  792MPD2    H311679   0.120   2.481  10.987 -1.6966  0.1445 -3.4199
  792MPD2     N11680   0.427   2.299  10.723  0.1062  0.5091  0.2274
  792MPD2    H511681   0.375   2.212  10.730  0.7072  0.1929  0.8279
  792MPD2    N111682   0.459   2.755  10.909 -0.1342  0.1852  0.2986
  792MPD2    H711683   0.400   2.831  10.941 -1.7075  0.6073 -3.5887
  793MPD2     C11684   0.309   2.153   9.692  0.4083  0.0026 -0.2056
  793MPD2    C111685   0.367   2.256   9.751  0.4845 -0.1516  0.4843
  793MPD2    C211686   0.400   2.246   9.885 -0.4393 -0.5287 -0.2761
  793MPD2    C311687   0.372   2.132   9.960  0.3529 -1.2395  0.5777
  793MPD2    C411688   0.307   2.031   9.902  0.5175 -0.0473  0.5688
  793MPD2    C511689   0.277   2.040   9.764  0.7422 -0.3138 -0.7253
  793MPD2     H11690   0.448   2.333   9.929  1.0144 -0.6972 -1.5484
  793MPD2    H111691   0.284   1.937   9.950 -0.3611 -0.0964  0.0539
  793MPD2    H211692   0.266   2.167   9.593 -0.2435  0.2458  0.1164
  793MPD2    H311693   0.226   1.959   9.714 -1.5721  1.6301 -1.5226
  793MPD2     N11694   0.403   2.116  10.104  0.1815  0.5504 -0.4963
  793MPD2    H511695   0.340   2.052  10.151  1.5418 -1.9510 -2.1299
  793MPD2    N111696   0.418   2.375   9.684 -0.2185  0.0276  0.0938
  793MPD2    H711697   0.463   2.444   9.744 -0.1806 -2.0125  2.4440
  794MPD2     C11698   0.758   2.947  17.502  0.3498 -0.7439  0.1157
  794MPD2    C111699   0.747   2.822  17.457  0.6773 -0.1638  0.2197
  794MPD2    C211700   0.742   2.806  17.319 -0.2890 -0.6828  0.0715
  794MPD2    C311701   0.777   2.907  17.234 -0.3985  0.8295  0.6310
  794MPD2    C411702   0.792   3.036  17.278 -0.5595 -0.4854 -1.0723
  794MPD2    C511703   0.780   3.050  17.414  0.0269 -0.2652  0.0805
  794MPD2     H11704   0.736   2.703  17.287 -1.5382 -0.6844  0.3195
  794MPD2    H111705   0.828   3.121  17.221 -2.2261  1.0536  0.1353
  794MPD2    H211706   0.758   2.971  17.607 -0.0964 -0.6663  0.0983
  794MPD2    H311707   0.797   3.148  17.456  0.0812 -0.6154  0.8654
  794MPD2     N11708   0.782   2.889  17.096 -0.3015 -0.7001 -0.3248
  794MPD2    H511709   0.790   2.975  17.043 -0.7289 -0.3587  0.1663
  794MPD2    N111710   0.718   2.714  17.546 -0.4953  0.2662  0.4612
  794MPD2    H711711   0.706   2.625  17.499  3.5729 -0.3919  0.6634
  795MPD2     C11712   3.156   4.611  13.257  0.4166  0.0738 -0.0743
  795MPD2    C111713   3.159   4.471  13.253 -0.5525  0.1962  0.3693
  795MPD2    C211714   3.269   4.398  13.280  0.4446 -0.2079 -0.0012
  795MPD2    C311715   3.376   4.468  13.326  0.0659 -0.1723  0.6862
  795MPD2    C411716   3.384   4.606  13.332  0.5305 -0.5834  0.1946
  795MPD2    C511717   3.274   4.677  13.294  0.2325 -0.1889  0.3958
  795MPD2     H11718   3.276   4.290  13.281  2.2806 -0.0565  2.2394
  795MPD2    H111719   3.467   4.663  13.374 -0.2490  1.2354 -0.7659
  795MPD2    H211720   3.062   4.660  13.234  0.2585 -0.3511 -0.3299
  795MPD2    H311721   3.274   0.068  13.291 -1.6574 -0.1984  0.0311
  795MPD2     N11722   3.484   4.396  13.361  0.8627  0.3862 -0.6010
  795MPD2    H511723   3.472   4.296  13.371 -1.7983  0.5965 -1.6474
  795MPD2    N111724   3.042   4.398  13.220  0.0218  0.4453  1.1442
  795MPD2    H711725   3.064   4.299  13.230 -4.0395 -0.4954  0.5376
  796MPD2     C11726   2.685   1.408  15.843 -0.0749 -0.2634  0.0472
  796MPD2    C111727   2.748   1.439  15.956  0.1884 -1.2598 -0.8636
  796MPD2    C211728   2.735   1.575  15.985  0.2941 -0.1803 -0.4516
  796MPD2    C311729   2.666   1.663  15.898 -0.3904  0.7037 -0.1946
  796MPD2    C411730   2.628   1.621  15.773 -0.2489 -0.9608 -0.6009
  796MPD2    C511731   2.627   1.487  15.749 -0.9010 -0.3104  0.1531
  796MPD2     H11732   2.763   1.617  16.081  0.3945  1.6933 -1.3122
  796MPD2    H111733   2.585   1.677  15.692  0.3521 -0.7693 -0.7911
  796MPD2    H211734   2.678   1.303  15.817 -1.1503  0.2657 -1.7732
  796MPD2    H311735   2.590   1.442  15.657  0.1285 -1.3407  0.2347
  796MPD2     N11736   2.652   1.795  15.938  0.2927 -0.2477  0.0069
  796MPD2    H511737   2.702   1.821  16.023  0.7225 -0.4823 -0.1729
  796MPD2    N111738   2.795   1.333  16.044  0.4812  0.0444 -0.6369
  796MPD2    H711739   2.790   1.238  16.009  0.0110 -0.4946  0.9027
  797MPD2     C11740   3.299   0.596   0.092  0.3558 -0.5438  0.4556
  797MPD2    C111741   3.320   0.724   0.143 -0.3645 -0.3135  0.6270
  797MPD2    C211742   3.258   0.830   0.080  0.1968  0.4870 -0.2409
  797MPD2    C311743   3.188   0.815  17.638 -0.6428  0.3906  0.8066
  797MPD2    C411744   3.162   0.692  17.591 -0.7194 -0.3565 -0.0233
  797MPD2    C511745   3.222   0.582  17.654  0.0653 -0.6669  0.3854
  797MPD2     H11746   3.259   0.930   0.121  2.0711  0.0504  0.7718
  797MPD2    H111747   3.114   0.686  17.494  1.3076  1.3544 -1.1130
  797MPD2    H211748   3.355   0.512   0.132  2.5737  0.8492  0.2646
  797MPD2    H311749   3.199   0.482  17.620 -0.7315 -0.7831  1.2708
  797MPD2     N11750   3.148   0.932  17.567 -0.1326  0.0146 -0.4160
  797MPD2    H511751   3.167   1.020  17.614 -3.8173  0.5584  0.0604
  797MPD2    N111752   3.419   0.756   0.240 -0.1304  0.5230 -0.2564
  797MPD2    H711753   3.424   0.851   0.276 -2.9714 -0.9287  3.9728
  798MPD2     C11754   3.620   1.412  17.644 -0.4723  0.5797 -0.2946
  798MPD2    C111755   3.518   1.323  17.662  0.0246 -0.1031  0.7163
  798MPD2    C211756   3.526   1.221   0.082 -0.1376  0.4435 -0.5477
  798MPD2    C311757   3.643   1.197   0.154 -0.0375 -0.4020  0.0725
  798MPD2    C411758   3.750   1.287   0.131  0.2599 -0.0468  0.3734
  798MPD2    C511759   3.736   1.387   0.035 -0.0002  0.2516 -0.6136
  798MPD2     H11760   3.447   1.150   0.106 -0.0808 -0.2495 -2.3942
  798MPD2    H111761   3.845   1.276   0.183  1.3547 -0.0721 -1.6261
  798MPD2    H211762   3.613   1.492  17.571 -0.7843  0.9877  0.1828
  798MPD2    H311763   3.819   1.449   0.005  0.4958 -0.8607 -1.5464
  798MPD2     N11764   3.654   1.094   0.252  0.1658  0.6295 -0.6141
  798MPD2    H511765   3.570   1.052   0.290  1.0214 -0.6692 -0.1642
  798MPD2    N111766   3.399   1.342  17.593  0.0080 -0.1166 -0.5776
  798MPD2    H711767   3.393   1.433  17.548  1.1754 -0.9234 -2.3501
  799MPD2     C11768   2.518   2.708  14.615 -0.1934  0.7422 -1.2596
  799MPD2    C111769   2.478   2.582  14.578  0.9695  0.2973  0.6748
  799MPD2    C211770   2.372   2.570  14.486  0.0366 -0.8505  0.5808
  799MPD2    C311771   2.301   2.685  14.447  0.2794  0.1627 -0.3982
  799MPD2    C411772   2.342   2.809  14.486  0.1197 -0.5678  0.1675
  799MPD2    C511773   2.450   2.820  14.572 -1.1004 -0.2948  0.0977
  799MPD2     H11774   2.342   2.475  14.442  2.4241 -1.0753 -0.5938
  799MPD2    H111775   2.299   2.900  14.443  0.0805 -0.9956 -0.6849
  799MPD2    H211776   2.598   2.724  14.686 -0.8389 -4.0362  0.5618
  799MPD2    H311777   2.484   2.917  14.606  2.1006 -1.7709  1.1896
  799MPD2     N11778   2.205   2.689  14.345 -0.0981 -0.6091  0.2634
  799MPD2    H511779   2.184   2.776  14.297 -0.9007  0.1949  2.0922
  799MPD2    N111780   2.551   2.467  14.610  0.0312 -0.6374  0.7408
  799MPD2    H711781   2.527   2.388  14.550 -1.5774  0.9607 -0.7121
  800MPD2     C11782   3.036   3.623  14.176 -0.6011  0.3430  0.4293
  800MPD2    C111783   3.154   3.648  14.118 -0.3316 -0.1651 -0.3530
  800MPD2    C211784   3.181   3.594  13.995  0.1711 -0.3777  0.2595
  800MPD2    C311785   3.090   3.502  13.938  0.5350 -0.1580  1.0443
  800MPD2    C411786   2.971   3.473  13.996  0.0260 -0.6667  0.6449
  800MPD2    C511787   2.940   3.546  14.112 -0.3117 -0.3775  0.1154
  800MPD2     H11788   3.267   3.615  13.933  0.0710  2.9538  1.2574
  800MPD2    H111789   2.898   3.404  13.956 -0.0697 -1.3485  1.9917
  800MPD2    H211790   3.009   3.658  14.275 -0.8533  0.2353  0.3978
  800MPD2    H311791   2.855   3.522  14.175  0.8153  0.3557  1.9512
  800MPD2     N11792   3.136   3.442  13.824 -0.0707 -0.2573 -0.3061
  800MPD2    H511793   3.230   3.459  13.791  0.0530 -2.5487 -1.1017
  800MPD2    N111794   3.241   3.727  14.197  0.2488 -0.1947 -0.0109
  800MPD2    H711795   3.205   3.774  14.280 -1.1054  0.3279 -0.8958
  801MPD2     C11796   3.180   4.231  14.681  0.2801 -0.4776 -0.3719
  801MPD2    C111797   3.162   4.123  14.591 -0.8778  0.6744  0.1636
  801MPD2    C211798   3.035   4.089  14.573  0.6226  0.0690 -0.2992
  801MPD2    C311799   2.923   4.154  14.627 -0.1130 -0.0524 -0.2203
  801MPD2    C411800   2.945   4.243  14.730  0.6373  0.4031  0.2055
  801MPD2    C511801   3.074   4.284  14.753  0.4082 -0.9019  0.6718
  801MPD2     H11802   3.031   4.002  14.508 -0.6323  2.0555 -2.8961
  801MPD2    H111803   2.870   4.299  14.784 -0.9485 -2.6549  1.1443
  801MPD2    H211804   3.280   4.265  14.704 -0.0241  0.1753 -0.0046
  801MPD2    H311805   3.091   4.358  14.831 -0.1382  2.8926 -2.8005
  801MPD2     N11806   2.788   4.129  14.586  1.0415 -0.0155 -0.2662
  801MPD2    H511807   2.715   4.178  14.636  1.5466  0.6324 -0.1528
  801MPD2    N111808   3.260   4.066  14.504 -0.7176  0.0945  0.0476
  801MPD2    H711809   3.231   3.989  14.444 -2.5655  1.4567 -0.8272
  802MPD2     C11810   1.785   0.255  17.418 -0.6086  0.0022 -0.3597
  802MPD2    C111811   1.902   0.256  17.481 -0.2692  0.0848  0.0208
  802MPD2    C211812   1.983   0.143  17.499 -0.6690 -0.0629  0.4742
  802MPD2    C311813   1.960   0.032  17.419  0.0203 -0.1198  0.3584
  802MPD2    C411814   1.850   0.042  17.325  0.8566  0.1250  0.2153
  802MPD2    C511815   1.767   0.153  17.338  1.1871 -0.1874  0.4790
  802MPD2     H11816   2.072   0.143  17.563  0.5140 -0.3704 -1.1790
  802MPD2    H111817   1.825   4.684  17.252 -0.3069  0.4642  0.2624
  802MPD2    H211818   1.726   0.341  17.390  1.5074  1.5189 -0.1199
  802MPD2    H311819   1.683   0.152  17.270 -0.5667 -1.3383  2.6935
  802MPD2     N11820   2.042   4.638  17.423  0.0346  0.1282  0.2059
  802MPD2    H511821   2.121   4.632  17.487 -1.9206 -0.0805  2.5926
  802MPD2    N111822   1.954   0.373  17.541 -0.5055 -0.1814  0.1295
  802MPD2    H711823   2.037   0.356  17.597 -0.1820 -0.9578 -0.5790
  803MPD2     C11824   3.276   2.831  11.794 -0.4361 -0.1240 -0.2500
  803MPD2    C111825   3.369   2.888  11.882 -0.6707 -0.1339  0.5146
  803MPD2    C211826   3.349   2.889  12.021 -0.0072 -0.0489  0.3489
  803MPD2    C311827   3.227   2.839  12.071  1.1049 -0.6568  0.6601
  803MPD2    C411828   3.128   2.802  11.979  0.5665  0.6204  0.1938
  803MPD2    C511829   3.156   2.803  11.846  0.7832  0.5778  0.6134
  803MPD2     H11830   3.429   2.932  12.081 -0.2427 -1.0367  1.3591
  803MPD2    H111831   3.032   2.761  12.010  1.4474 -0.5662  1.3683
  803MPD2    H211832   3.293   2.829  11.687 -1.0192 -1.9351 -0.3143
  803MPD2    H311833   3.081   2.763  11.779  1.1445 -0.7543  1.0010
  803MPD2     N11834   3.217   2.792  12.205  0.0253 -0.3409 -0.2707
  803MPD2    H511835   3.149   2.718  12.223 -1.4917  1.5607  1.8540
  803MPD2    N111836   3.503   2.923  11.843 -0.1788 -0.8267  0.7093
  803MPD2    H711837   3.558   2.975  11.911 -1.1779  1.4926 -0.2785
  804MPD2     C11838   3.116   4.357  16.756  0.2859 -0.0015  0.1870
  804MPD2    C111839   3.077   4.373  16.883 -0.1373 -0.4401  0.0898
  804MPD2    C211840   3.096   4.496  16.947 -0.2497 -0.1444  0.2116
  804MPD2    C311841   3.177   4.592  16.891  0.4272 -0.1328  0.2478
  804MPD2    C411842   3.231   4.563  16.764  0.0087  0.2505 -0.1332
  804MPD2    C511843   3.202   4.447  16.698  0.4047 -0.2275 -0.1826
  804MPD2     H11844   3.059   4.507  17.048  1.1230  2.7106  0.4166
  804MPD2    H111845   3.287   4.640  16.713 -0.1101  0.4474  0.0293
  804MPD2    H211846   3.095   4.265  16.703 -2.4450  1.6288 -1.5686
  804MPD2    H311847   3.238   4.438  16.596  0.5536  1.6179 -0.2900
  804MPD2     N11848   3.202   4.713  16.962  0.3858  0.6664  0.2052
  804MPD2    H511849   3.152   0.001  17.050  0.6587  0.3291  0.3764
  804MPD2    N111850   3.017   4.268  16.958 -0.9235  0.1115  0.0011
  804MPD2    H711851   2.990   4.285  17.054  0.9042 -1.5562  0.8263
  805MPD2     C11852   2.309   2.609  15.442  0.0339  0.3269  0.5108
  805MPD2    C111853   2.361   2.734  15.411 -0.9000 -0.7848 -0.9551
  805MPD2    C211854   2.473   2.780  15.487  0.1598 -0.5443 -0.4060
  805MPD2    C311855   2.527   2.704  15.586  0.7905  0.6942 -0.1469
  805MPD2    C411856   2.485   2.576  15.605  0.0675 -0.4655  0.1670
  805MPD2    C511857   2.367   2.533  15.538  0.2544 -0.3752  0.0323
  805MPD2     H11858   2.494   2.885  15.471  0.3860 -0.3059  1.4844
  805MPD2    H111859   2.518   2.520  15.691 -0.5214 -0.2544  0.5332
  805MPD2    H211860   2.224   2.570  15.387 -1.0991 -0.5734  2.9142
  805MPD2    H311861   2.311   2.445  15.570 -2.0953  1.2447  0.4250
  805MPD2     N11862   2.622   2.768  15.670  0.1154  0.1973 -0.3295
  805MPD2    H511863   2.646   2.864  15.650 -0.5630  0.7884  1.7777
  805MPD2    N111864   2.314   2.812  15.298 -0.2200  0.2534 -0.3265
  805MPD2    H711865   2.378   2.873  15.246  0.2297 -0.3111 -0.4339
  806MPD2     C11866   2.939   1.916   0.579  0.1704 -0.1627  1.0593
  806MPD2    C111867   2.852   1.985   0.651 -0.4509  0.2216 -0.3610
  806MPD2    C211868   2.828   2.117   0.608 -0.6609 -0.7889  0.1934
  806MPD2    C311869   2.895   2.176   0.497 -0.6025  0.2966  0.4205
  806MPD2    C411870   2.981   2.100   0.426 -0.1497 -0.3385 -0.6192
  806MPD2    C511871   3.007   1.969   0.466  0.3065  0.1520  0.2752
  806MPD2     H11872   2.750   2.170   0.662 -1.4411  0.0218 -1.7373
  806MPD2    H111873   3.023   2.138   0.333  0.6110 -1.3970 -0.7080
  806MPD2    H211874   2.961   1.814   0.608 -1.1852 -0.8602 -0.3316
  806MPD2    H311875   3.081   1.907   0.418 -0.1600 -1.2764  1.3968
  806MPD2     N11876   2.870   2.317   0.471 -0.0123  0.1976 -0.0249
  806MPD2    H511877   2.836   2.374   0.548  2.1413  1.5923 -0.1199
  806MPD2    N111878   2.797   1.927   0.774  0.0231  0.6817  0.4480
  806MPD2    H711879   2.810   1.830   0.799 -1.0854  0.3568 -0.2352
  807MPD2     C11880   2.201   1.948   1.403 -0.5136 -0.2861 -0.0014
  807MPD2    C111881   2.305   1.861   1.439  0.3198 -0.4502 -0.0953
  807MPD2    C211882   2.301   1.783   1.551 -0.3039 -0.1970 -0.7843
  807MPD2    C311883   2.181   1.769   1.616 -0.1493  0.9394  0.3595
  807MPD2    C411884   2.072   1.849   1.589 -0.0237  0.7320  0.4975
  807MPD2    C511885   2.087   1.938   1.482 -0.8027  0.0367  0.6610
  807MPD2     H11886   2.384   1.716   1.572 -2.7116 -2.5986  1.1494
  807MPD2    H111887   1.974   1.847   1.636 -0.0625 -1.1735  0.3059
  807MPD2    H211888   2.199   2.007   1.312  1.2450 -0.9925 -0.5083
  807MPD2    H311889   2.001   2.000   1.459  0.0847  1.4977  1.2584
  807MPD2     N11890   2.178   1.664   1.717 -0.5879  0.2482 -0.2774
  807MPD2    H511891   2.265   1.618   1.738  1.0284  2.5987 -1.8729
  807MPD2    N111892   2.423   1.849   1.361 -0.3402  0.1304 -0.2968
  807MPD2    H711893   2.501   1.795   1.399 -1.5653 -0.2193  1.7493
  808MPD2     C11894   3.017   2.569   8.857 -0.0563 -0.5849  0.0353
  808MPD2    C111895   3.058   2.455   8.932 -0.2795 -0.1556  0.1746
  808MPD2    C211896   3.176   2.470   8.991  0.5177 -0.6563 -0.3497
  808MPD2    C311897   3.261   2.577   8.984  0.0763 -0.4485 -0.0631
  808MPD2    C411898   3.224   2.682   8.901  0.9318  0.0647  0.0622
  808MPD2    C511899   3.096   2.682   8.848  0.3746  0.0752 -0.1483
  808MPD2     H11900   3.214   2.381   9.040 -0.7779 -0.1283  1.5736
  808MPD2    H111901   3.283   2.769   8.875  1.6512 -0.1907  0.8597
  808MPD2    H211902   2.922   2.571   8.805 -0.8317  0.6319  1.5090
  808MPD2    H311903   3.067   2.767   8.787 -1.9579 -0.0436  0.8001
  808MPD2     N11904   3.394   2.581   9.046 -0.6404 -0.0656 -0.2529
  808MPD2    H511905   3.440   2.670   9.032  1.3883 -0.6705  2.5816
  808MPD2    N111906   2.984   2.336   8.944  0.1855  0.4430  0.3425
  808MPD2    H711907   3.033   2.261   8.993 -0.5503  0.3569  0.9399
  809MPD2     C11908   3.995   3.006   8.749  0.3987 -0.2310  0.7135
  809MPD2    C111909   4.032   3.013   8.881  0.1952 -0.0074 -0.2796
  809MPD2    C211910   3.978   2.915   8.968  0.1583 -0.7369 -0.2122
  809MPD2    C311911   3.905   2.808   8.921 -0.2141 -0.1001  0.0556
  809MPD2    C411912   3.882   2.800   8.783  0.5909  0.1055 -0.1312
  809MPD2    C511913   3.929   2.896   8.700  0.6120  0.1617 -0.7079
  809MPD2     H11914   3.998   2.930   9.074 -1.8262 -2.4776  0.4118
  809MPD2    H111915   3.819   2.722   8.742  1.5669 -0.4887 -0.5072
  809MPD2    H211916   4.028   3.075   8.671  2.8265 -1.4047  0.6857
  809MPD2    H311917   3.920   2.881   8.593 -2.7899  0.2194 -0.4452
  809MPD2     N11918   3.856   2.703   8.995 -0.4217 -0.3320 -0.5379
  809MPD2    H511919   3.800   2.642   8.936  0.0003 -0.2380 -1.0266
  809MPD2    N111920   4.121   3.118   8.927  0.0068  0.3721 -0.4841
  809MPD2    H711921   4.137   3.126   9.026  1.2789 -1.1316 -0.5757
  810MPD2     C11922   2.491   2.780  10.548  0.2759  0.4507  0.0438
  810MPD2    C111923   2.419   2.773  10.438 -0.3640 -0.6058 -0.0278
  810MPD2    C211924   2.331   2.876  10.408 -0.7126 -1.4036 -0.2858
  810MPD2    C311925   2.303   2.974  10.500 -0.2506  0.0165 -0.4376
  810MPD2    C411926   2.355   2.960  10.631 -0.4443  0.0206  0.8383
  810MPD2    C511927   2.462   2.870  10.645 -0.4086  0.1003 -1.0039
  810MPD2     H11928   2.282   2.883  10.312 -1.3649  1.0112  0.2244
  810MPD2    H111929   2.331   3.032  10.708  1.0119  1.4624 -0.0460
  810MPD2    H211930   2.573   2.714  10.574  0.1507 -0.0438 -0.8271
  810MPD2    H311931   2.512   2.859  10.741  0.4080  2.3280 -1.1715
  810MPD2     N11932   2.214   3.073  10.483  0.2399 -0.4357  0.6036
  810MPD2    H511933   2.184   3.120  10.568 -1.9305 -0.6328 -0.0434
  810MPD2    N111934   2.446   2.679  10.342  0.6155 -0.1552  1.3117
  810MPD2    H711935   2.395   2.687  10.255  2.7246  1.6740  0.2132
  811MPD2     C11936   2.130   2.592   9.645 -0.0491  0.5110 -1.2553
  811MPD2    C111937   2.171   2.639   9.769 -0.0733  0.2938 -0.4873
  811MPD2    C211938   2.128   2.762   9.802  0.1196  0.4579 -0.0474
  811MPD2    C311939   2.065   2.847   9.714  0.3307 -0.2353  0.1552
  811MPD2    C411940   2.032   2.791   9.591  0.1787  0.1872  0.3973
  811MPD2    C511941   2.055   2.662   9.558 -0.3679  0.3236 -0.6071
  811MPD2     H11942   2.153   2.800   9.900 -1.2829  0.4304  0.3172
  811MPD2    H111943   1.985   2.853   9.516 -0.0066 -0.0148  0.3475
  811MPD2    H211944   2.149   2.489   9.616  1.6952  0.6967 -0.7937
  811MPD2    H311945   2.023   2.625   9.462  0.2058 -0.8665 -0.3374
  811MPD2     N11946   2.037   2.981   9.750  0.4668  0.6200  0.3836
  811MPD2    H511947   2.057   3.003   9.848  1.2809  0.2811  0.2901
  811MPD2    N111948   2.251   2.557   9.860 -0.0207  0.2863  0.4641
  811MPD2    H711949   2.273   2.470   9.813  2.2523  2.2301 -2.0572
  812MPD2     C11950   0.995   2.390  12.211  0.5410 -0.0322 -0.2497
  812MPD2    C111951   1.064   2.490  12.271 -0.2033 -0.3195 -0.4728
  812MPD2    C211952   1.165   2.457  12.364  0.2915  0.2006  0.4541
  812MPD2    C311953   1.195   2.321  12.378 -0.3065  0.2993  0.6237
  812MPD2    C411954   1.128   2.220  12.314 -0.2262 -0.6591 -0.1816
  812MPD2    C511955   1.027   2.259  12.232  0.8483  0.5253  0.1607
  812MPD2     H11956   1.226   2.528  12.418 -0.4161  0.8346  0.4190
  812MPD2    H111957   1.156   2.116  12.320 -0.1228 -0.6590 -0.6325
  812MPD2    H211958   0.929   2.416  12.130  0.1052 -1.6175 -0.4033
  812MPD2    H311959   0.982   2.179  12.174 -0.4991  0.3029  1.5067
  812MPD2     N11960   1.287   2.287  12.476  0.3889  0.3221  0.5677
  812MPD2    H511961   1.324   2.368  12.524 -1.8597  1.6344  0.1090
  812MPD2    N111962   1.027   2.619  12.246 -0.0055  0.3376  0.1794
  812MPD2    H711963   0.943   2.625  12.188 -1.1157  3.1120  2.0742
  813MPD2     C11964   0.612   4.497  12.341 -0.5049 -0.1646  0.3052
  813MPD2    C111965   0.585   4.611  12.411  0.7253  0.2975  0.5500
  813MPD2    C211966   0.509   4.604  12.527 -0.2768  0.0267 -0.1335
  813MPD2    C311967   0.455   4.483  12.573 -0.0669 -0.1376 -0.0581
  813MPD2    C411968   0.500   4.368  12.512  0.1711 -0.2074  1.1158
  813MPD2    C511969   0.571   4.375  12.394 -0.2302 -0.1595  0.7440
  813MPD2     H11970   0.477   4.691  12.584 -1.0286 -0.9137  0.8873
  813MPD2    H111971   0.481   4.270  12.555  1.1278 -0.7213  0.3555
  813MPD2    H211972   0.664   4.504  12.246  0.6039  0.6603  0.9764
  813MPD2    H311973   0.596   4.277  12.355 -1.4434 -0.2353  0.1854
  813MPD2     N11974   0.384   4.482  12.692  0.3769 -0.2303 -0.3039
  813MPD2    H511975   0.386   4.567  12.748 -1.2263 -0.4838  0.1315
  813MPD2    N111976   0.641   0.013  12.370 -0.3718 -0.3939  0.1013
  813MPD2    H711977   0.713   0.008  12.299  0.3070 -2.0748  0.9124
  814MPD2     C11978   1.037   1.275  11.928  0.9961 -0.3766  0.4584
  814MPD2    C111979   1.035   1.325  11.797 -0.1138 -0.2553  0.3475
  814MPD2    C211980   1.066   1.459  11.781 -0.9708  0.1252  0.7250
  814MPD2    C311981   1.084   1.546  11.890  0.2014  0.2856  0.1472
  814MPD2    C411982   1.083   1.491  12.015 -0.1624 -0.1293  0.8958
  814MPD2    C511983   1.066   1.355  12.029 -0.1222 -0.7062  0.3255
  814MPD2     H11984   1.085   1.496  11.681 -2.1784  1.1229  0.8640
  814MPD2    H111985   1.092   1.541  12.111 -0.8277  0.5829  0.5860
  814MPD2    H211986   1.008   1.175  11.957 -0.2136  0.1500  1.0560
  814MPD2    H311987   1.076   1.302  12.123 -0.2633 -1.4293 -0.0599
  814MPD2     N11988   1.115   1.680  11.875 -0.1939 -0.0399  0.4618
  814MPD2    H511989   1.139   1.732  11.959 -2.5953 -0.4978  1.4479
  814MPD2    N111990   1.020   1.236  11.688 -0.3848  0.0590  0.2853
  814MPD2    H711991   1.010   1.280  11.597  0.5256 -0.3844 -0.0304
  815MPD2     C11992   1.049   4.666  11.551  0.4645 -0.1352  0.2359
  815MPD2    C111993   1.080   4.539  11.580 -0.1836 -0.2067 -0.7173
  815MPD2    C211994   1.014   4.471  11.689 -0.0119 -0.9175  0.1941
  815MPD2    C311995   0.914   4.533  11.757 -0.4056 -0.3945  0.2773
  815MPD2    C411996   0.891   4.669  11.731  0.0809  0.6124  0.8847
  815MPD2    C511997   0.951   0.015  11.626 -0.8279 -0.3454 -0.0194
  815MPD2     H11998   1.027   4.365  11.707 -1.7939 -0.9010  1.6242
  815MPD2    H111999   0.822   0.005  11.794 -1.6508  0.8448 -1.2035
  815MPD2    H212000   1.100   4.714  11.469  0.5068  1.7402  1.3474
  815MPD2    H312001   0.929   0.120  11.612  0.1984 -0.3412 -1.6279
  815MPD2     N12002   0.835   4.458  11.848 -0.2606 -0.4961  0.0834
  815MPD2    H512003   0.877   4.368  11.867 -0.4195 -0.9236 -1.5409
  815MPD2    N112004   1.176   4.474  11.500 -0.1142 -0.0316  0.3337
  815MPD2    H712005   1.195   4.520  11.412  0.5362  0.4073  0.7002
  816MPD2     C12006   1.495   3.498  17.412 -0.8800  0.3248 -0.1063
  816MPD2    C112007   1.484   3.619  17.353  0.7566 -0.0801  0.5851
  816MPD2    C212008   1.576   3.650  17.249  0.0918  0.4524  0.7246
  816MPD2    C312009   1.688   3.569  17.229  0.3572  0.1977 -0.1357
  816MPD2    C412010   1.702   3.453  17.305 -1.1578 -0.5478  0.2110
  816MPD2    C512011   1.601   3.416  17.391 -0.0268  0.7712  0.0496
  816MPD2     H12012   1.582   3.745  17.197  1.5198  0.0215  0.1266
  816MPD2    H112013   1.779   3.377  17.296 -2.0688 -1.5105  0.6252
  816MPD2    H212014   1.423   3.472  17.489 -0.4849  0.6314  0.3606
  816MPD2    H312015   1.624   3.328  17.450  0.3111  0.6878 -0.2045
  816MPD2     N12016   1.782   3.602  17.132 -0.2257 -0.0675  1.1109
  816MPD2    H512017   1.769   3.689  17.081  0.0448 -0.3404  0.5636
  816MPD2    N112018   1.379   3.710  17.383  0.0232  0.0829 -0.1276
  816MPD2    H712019   1.323   3.684  17.463  2.9955 -0.5390  1.7675
  817MPD2     C12020   0.048   4.555   9.868 -0.0513  0.0642  0.4102
  817MPD2    C112021   0.131   4.617   9.779 -0.0285 -0.1051 -0.5143
  817MPD2    C212022   0.145   0.037   9.783  0.5663 -0.3268  0.6375
  817MPD2    C312023   0.071   0.120   9.873  0.3193 -1.0225  0.2624
  817MPD2    C412024   4.703   0.050   9.961  0.2029  0.0096  0.5125
  817MPD2    C512025   4.701   4.626   9.961 -0.1234 -0.2289  0.2653
  817MPD2     H12026   0.214   0.084   9.714 -0.7240 -2.0701 -1.8363
  817MPD2    H112027   4.641   0.100  10.035 -1.7880 -3.6686  1.3588
  817MPD2    H212028   0.042   4.448   9.878  0.5976  0.0450  0.6390
  817MPD2    H312029   4.646   4.566  10.032 -1.3025 -0.8912 -1.1940
  817MPD2     N12030   0.093   0.262   9.879  0.4398  0.0080 -0.4639
  817MPD2    H512031   0.167   0.298   9.820 -0.4632  0.9445 -1.0261
  817MPD2    N112032   0.197   4.540   9.680  0.2891  0.3325  0.1468
  817MPD2    H712033   0.270   4.589   9.630 -0.8693  1.4380 -0.4588
  818MPD2     C12034   4.130   4.701   9.404  0.6938  0.7846 -0.0413
  818MPD2    C112035   4.031   4.645   9.482  0.0991  0.6923  0.0173
  818MPD2    C212036   3.971   4.535   9.429 -0.4187 -0.7685 -0.2007
  818MPD2    C312037   4.002   4.473   9.311 -0.5160 -0.3184 -0.1736
  818MPD2    C412038   4.108   4.527   9.245  0.2114 -0.2431  0.5459
  818MPD2    C512039   4.167   4.639   9.295  0.0838  0.5375 -0.4675
  818MPD2     H12040   3.900   4.488   9.495 -0.5352 -0.4324 -0.0859
  818MPD2    H112041   4.150   4.477   9.158 -1.4548 -1.2945  0.3549
  818MPD2    H212042   4.193   0.065   9.439  0.2426  1.3612 -0.5878
  818MPD2    H312043   4.251   4.678   9.238 -1.3187 -0.4875 -3.2841
  818MPD2     N12044   3.949   4.344   9.279  0.3289  0.3391 -0.1009
  818MPD2    H512045   3.999   4.281   9.217 -3.0200 -0.5807 -1.8646
  818MPD2    N112046   3.998   4.692   9.608  0.5147  0.3976 -0.6427
  818MPD2    H712047   3.945   4.637   9.675 -1.9248  2.1889 -1.1418
  819MPD2     C12048   2.925   2.499  15.635 -0.0702  0.0708 -0.0173
  819MPD2    C112049   2.910   2.363  15.648  0.3615 -0.5944 -0.6009
  819MPD2    C212050   2.997   2.294  15.729 -0.7135 -0.1724  0.3940
  819MPD2    C312051   3.100   2.357  15.802 -0.5921 -0.0198  0.3767
  819MPD2    C412052   3.115   2.493  15.780 -0.5201 -0.1617 -0.2289
  819MPD2    C512053   3.027   2.562  15.706  0.5608 -0.4291  0.1985
  819MPD2     H12054   2.992   2.188  15.749 -1.8301 -0.4550 -1.3784
  819MPD2    H112055   3.190   2.549  15.835 -0.3999  0.4978 -1.0657
  819MPD2    H212056   2.856   2.562  15.580  1.7462  2.7504  0.7780
  819MPD2    H312057   3.037   2.670  15.708 -1.1240 -0.2753  0.7967
  819MPD2     N12058   3.181   2.270  15.875 -0.5563  0.7336 -0.1779
  819MPD2    H512059   3.145   2.176  15.881  1.3681 -0.0938 -1.5551
  819MPD2    N112060   2.799   2.302  15.586  0.2396  0.5339  0.2481
  819MPD2    H712061   2.758   2.343  15.503  1.5781 -1.9903 -1.6793
  820MPD2     C12062   2.248   2.260  14.753 -0.2034 -0.3597 -0.2078
  820MPD2    C112063   2.293   2.353  14.841 -0.2031  0.0980 -0.9488
  820MPD2    C212064   2.378   2.306  14.939 -0.7381  0.5237  0.0265
  820MPD2    C312065   2.427   2.176  14.951 -0.3175 -0.5926  0.2059
  820MPD2    C412066   2.392   2.094  14.851 -0.2372  0.0292  0.1834
  820MPD2    C512067   2.298   2.136  14.757 -0.3091 -0.0158 -0.2644
  820MPD2     H12068   2.403   2.382  15.012 -1.4796  0.3777  0.4387
  820MPD2    H112069   2.422   1.991  14.840 -0.3141  0.0252  0.0105
  820MPD2    H212070   2.186   2.298  14.673 -0.7999  0.6890  0.7317
  820MPD2    H312071   2.263   2.070  14.678 -0.1289  2.1260 -2.1303
  820MPD2     N12072   2.506   2.127  15.057 -0.3061  0.0989 -0.4038
  820MPD2    H512073   2.534   2.030  15.048  0.9474  0.4138  0.1959
  820MPD2    N112074   2.238   2.482  14.839  0.3926  0.0659 -0.2413
  820MPD2    H712075   2.162   2.494  14.773  0.7306  1.4194 -0.3875
  821MPD2     C12076   3.136   3.557  13.022  0.5673 -0.9258 -0.4496
  821MPD2    C112077   3.219   3.598  13.125  0.5085  0.1365 -0.5659
  821MPD2    C212078   3.300   3.704  13.091 -0.8952 -0.1713  0.1510
  821MPD2    C312079   3.293   3.776  12.969 -0.1065 -0.0908 -0.3030
  821MPD2    C412080   3.200   3.731  12.880 -0.0470  0.5130 -0.7287
  821MPD2    C512081   3.126   3.621  12.903  0.1231 -0.6686 -0.1339
  821MPD2     H12082   3.388   3.722  13.152 -1.3025  1.3869  0.2626
  821MPD2    H112083   3.185   3.775  12.782  1.2950 -0.9910 -1.6037
  821MPD2    H212084   3.064   3.478  13.038 -0.9389 -0.0358 -2.7770
  821MPD2    H312085   3.057   3.597  12.823 -1.3405 -0.0014  0.9109
  821MPD2     N12086   3.377   3.888  12.932  0.0528  0.1292  0.7268
  821MPD2    H512087   3.372   3.906  12.832 -1.1657  1.4228  1.0249
  821MPD2    N112088   3.231   3.537  13.248  0.6206 -0.7926  0.6045
  821MPD2    H712089   3.298   3.580  13.310  0.3130  1.3918 -0.6007
  822MPD2     C12090   3.706   3.372  15.676 -0.6197  0.3549 -0.0843
  822MPD2    C112091   3.622   3.355  15.784 -0.0456  0.2394  0.0261
  822MPD2    C212092   3.534   3.452  15.821 -0.5642 -0.1679  0.2594
  822MPD2    C312093   3.555   3.579  15.772 -0.5027 -1.1574  0.7653
  822MPD2    C412094   3.643   3.601  15.664 -0.1243 -0.5616  0.1752
  822MPD2    C512095   3.707   3.490  15.612 -0.5891  0.0538 -0.3359
  822MPD2     H12096   3.466   3.437  15.903 -0.4578 -2.3475 -0.0436
  822MPD2    H112097   3.657   3.696  15.613  3.0030 -1.2537 -0.2127
  822MPD2    H212098   3.753   3.290  15.624  0.1444  0.1108  0.9849
  822MPD2    H312099   3.775   3.496  15.527  2.4060 -1.1500  1.9660
  822MPD2     N12100   3.480   3.683  15.824 -0.0505 -0.1226  0.3441
  822MPD2    H512101   3.423   3.650  15.901 -1.0872  1.8473  0.4237
  822MPD2    N112102   3.637   3.242  15.858 -0.8237 -0.3236 -0.2159
  822MPD2    H712103   3.592   3.248  15.949 -0.6853  0.4007 -0.1954
  823MPD2     C12104   3.288   3.996  16.576 -0.3633 -0.0227  0.4660
  823MPD2    C112105   3.281   3.892  16.488 -0.3476  0.0138 -0.5573
  823MPD2    C212106   3.278   3.760  16.536  0.8109  0.4213  0.5082
  823MPD2    C312107   3.240   3.739  16.673  0.6262  0.4941 -0.3554
  823MPD2    C412108   3.224   3.852  16.757 -0.1600  0.1839 -0.1292
  823MPD2    C512109   3.255   3.975  16.706 -0.2823  0.1656  0.7677
  823MPD2     H12110   3.278   3.676  16.468  0.7841  1.4894 -0.8077
  823MPD2    H112111   3.205   3.841  16.863  1.9872  2.5132  0.4951
  823MPD2    H212112   3.296   4.097  16.538  0.1780  0.1206  0.9459
  823MPD2    H312113   3.237   4.061  16.770  1.0135 -0.5971  2.1850
  823MPD2     N12114   3.248   3.608  16.729  0.0212  0.2266  0.1988
  823MPD2    H512115   3.213   3.594  16.824  1.2674 -1.1481  0.4542
  823MPD2    N112116   3.292   3.922  16.350  0.2555  0.1116  0.0373
  823MPD2    H712117   3.322   4.017  16.333  0.7579  0.0808  0.7774
  824MPD2     C12118   3.925   2.457  15.946  0.0757  0.1710  0.2563
  824MPD2    C112119   3.990   2.579  15.941 -0.0211  0.4538  0.1010
  824MPD2    C212120   4.119   2.575  15.888 -0.1850  0.2425 -0.1832
  824MPD2    C312121   4.175   2.456  15.839  0.0890 -0.3058 -0.2681
  824MPD2    C412122   4.096   2.346  15.832 -0.2645 -0.1201  0.5791
  824MPD2    C512123   3.973   2.340  15.891  0.2974 -0.9978  0.7417
  824MPD2     H12124   4.165   2.670  15.866  1.3378 -0.7072 -1.1123
  824MPD2    H112125   4.119   2.249  15.789 -0.6282  0.2566 -0.4715
  824MPD2    H212126   3.827   2.438  15.989  0.7628  0.2975  1.8738
  824MPD2    H312127   3.906   2.256  15.878 -0.8492 -0.0134  0.4177
  824MPD2     N12128   4.308   2.451  15.787  0.0399  0.6870 -0.0614
  824MPD2    H512129   4.364   2.535  15.799  2.1330 -0.5586 -0.9702
  824MPD2    N112130   3.930   2.698  15.978  0.0120  0.3535  0.1024
  824MPD2    H712131   3.965   2.788  15.946 -0.6898  0.5982  0.0280
  825MPD2     C12132   0.047   2.542  15.079 -0.4121 -0.0672  0.0234
  825MPD2    C112133   0.022   2.599  15.204  0.3265 -0.6883 -0.0310
  825MPD2    C212134   0.039   2.740  15.210 -0.0947 -0.2067  0.1871
  825MPD2    C312135   0.058   2.817  15.101 -0.9197  0.2788 -0.1232
  825MPD2    C412136   0.065   2.753  14.981 -0.5344 -0.2443 -0.0957
  825MPD2    C512137   0.065   2.615  14.969  0.3228  0.7096 -0.0545
  825MPD2     H12138   0.027   2.791  15.305 -1.5459  1.0520 -0.6770
  825MPD2    H112139   0.073   2.805  14.886 -4.4106  1.5949  0.5765
  825MPD2    H212140   0.031   2.436  15.062  1.4688 -0.8673  3.2065
  825MPD2    H312141   0.093   2.567  14.876  0.8935 -1.0709  1.0547
  825MPD2     N12142   0.074   2.959  15.102  0.1603  0.5182 -0.3354
  825MPD2    H512143   0.060   3.005  15.012 -0.4493 -0.4261 -0.7311
  825MPD2    N112144   4.712   2.515  15.313 -0.1012 -0.1971  0.0075
  825MPD2    H712145   4.713   2.415  15.298 -2.0324 -0.2797  0.3811
  826MPD2     C12146   4.235   2.446  13.519  0.6331 -0.0880  0.1625
  826MPD2    C112147   4.150   2.462  13.417  0.4972  0.7106 -0.7159
  826MPD2    C212148   4.067   2.573  13.417  0.0935 -0.5985  0.1204
  826MPD2    C312149   4.067   2.661  13.525  0.3184 -0.7863  0.7327
  826MPD2    C412150   4.145   2.633  13.633  0.0371  0.1719 -0.0407
  826MPD2    C512151   4.236   2.531  13.626 -0.4179 -0.1549 -0.4481
  826MPD2     H12152   4.004   2.591  13.331 -1.2058 -0.4124  1.1146
  826MPD2    H112153   4.145   2.691  13.725 -4.3456  0.9539 -0.5155
  826MPD2    H212154   4.306   2.365  13.534  0.4992 -0.1429  0.5154
  826MPD2    H312155   4.301   2.512  13.711  1.5145 -2.7397 -2.5287
  826MPD2     N12156   3.976   2.765  13.536  0.2094  0.2301  0.3960
  826MPD2    H512157   4.002   2.837  13.602 -0.8066 -0.5654  1.6635
  826MPD2    N112158   4.150   2.376  13.301  0.5075 -0.4815  0.3087
  826MPD2    H712159   4.234   2.319  13.299  0.9034  0.1427 -0.9183
  827MPD2     C12160   0.418   3.644  10.016  0.6969  0.6074 -0.0880
  827MPD2    C112161   0.289   3.623  10.045 -0.1439  0.0597  0.5749
  827MPD2    C212162   0.217   3.532   9.973  0.2665  0.4801 -0.6071
  827MPD2    C312163   0.276   3.471   9.864  0.1918 -0.1308 -0.5440
  827MPD2    C412164   0.406   3.485   9.848  0.2584 -0.6668 -0.1006
  827MPD2    C512165   0.480   3.570   9.925  0.2540 -0.0091 -0.3755
  827MPD2     H12166   0.114   3.512  10.000 -0.4408  0.9985 -3.0042
  827MPD2    H112167   0.468   3.429   9.780 -0.6474  0.0727 -1.5217
  827MPD2    H212168   0.475   3.710  10.081  0.8043  0.4917 -0.0639
  827MPD2    H312169   0.586   3.582   9.910  0.4203 -0.8447  0.1151
  827MPD2     N12170   0.203   3.388   9.780 -0.2241 -0.6351 -0.4508
  827MPD2    H512171   0.104   3.380   9.796  0.2033 -2.4069  1.2551
  827MPD2    N112172   0.235   3.697  10.149  0.2987 -0.4576 -0.1296
  827MPD2    H712173   0.282   3.780  10.186  0.3498 -1.0154  1.0555
  828MPD2     C12174   3.591   4.097  12.446  0.1178 -0.0051  0.4163
  828MPD2    C112175   3.549   4.070  12.313 -0.4402  0.2751  0.5176
  828MPD2    C212176   3.630   4.003  12.220 -0.2373  0.1604 -0.2150
  828MPD2    C312177   3.751   3.949  12.260  0.3647  0.7531 -0.0319
  828MPD2    C412178   3.787   3.970  12.393  0.7192 -0.6572 -0.1254
  828MPD2    C512179   3.712   4.044  12.481 -0.0354 -0.9270  0.5058
  828MPD2     H12180   3.593   3.991  12.119 -1.0233 -0.3128  0.1362
  828MPD2    H112181   3.874   3.914  12.427  0.1852 -1.4996 -0.1515
  828MPD2    H212182   3.533   4.144  12.524  0.3135  0.3290  0.3612
  828MPD2    H312183   3.757   4.057  12.579  0.2522  0.6024  0.1644
  828MPD2     N12184   3.827   3.861  12.177 -0.4896  0.6782  0.0319
  828MPD2    H512185   3.911   3.833  12.227 -1.7518 -0.1288  1.7065
  828MPD2    N112186   3.417   4.102  12.274 -0.8078  0.4466 -0.3303
  828MPD2    H712187   3.408   4.111  12.173 -1.1900  1.9607 -0.1575
  829MPD2     C12188   3.113   4.297  11.498  0.2392  0.1271 -0.2176
  829MPD2    C112189   2.992   4.285  11.563  0.0673 -0.0201  0.3119
  829MPD2    C212190   2.997   4.247  11.695  0.3426 -0.3691 -0.3449
  829MPD2    C312191   3.116   4.195  11.753  0.2846  0.0913 -0.3216
  829MPD2    C412192   3.231   4.198  11.673 -0.2026  0.1003  0.1742
  829MPD2    C512193   3.226   4.247  11.545  0.2528  0.1057 -0.2668
  829MPD2     H12194   2.909   4.238  11.757 -1.0289 -1.9823 -2.5335
  829MPD2    H112195   3.327   4.159  11.705 -0.4500 -0.5339  0.1404
  829MPD2    H212196   3.112   4.333  11.396  0.0261  1.8350  0.3977
  829MPD2    H312197   3.316   4.253  11.484  2.2793  0.6195  2.7966
  829MPD2     N12198   3.128   4.159  11.889 -0.1641 -0.3668 -0.5692
  829MPD2    H512199   3.219   4.121  11.912  0.2942  1.0760 -0.0037
  829MPD2    N112200   2.872   4.309  11.492 -0.2943  0.2581 -0.2673
  829MPD2    H712201   2.887   4.348  11.399 -0.2755 -2.8150 -1.5874
  830MPD2     C12202   3.689   1.589  15.833  0.2376 -0.2759  0.4145
  830MPD2    C112203   3.629   1.704  15.778 -0.3314 -0.4598  0.3457
  830MPD2    C212204   3.658   1.731  15.645  0.5212  0.0058 -0.3095
  830MPD2    C312205   3.752   1.652  15.574 -0.1811 -0.0339 -1.0584
  830MPD2    C412206   3.804   1.540  15.628 -0.4142  0.0399 -0.5026
  830MPD2    C512207   3.770   1.507  15.757 -0.5478  0.0389 -0.0103
  830MPD2     H12208   3.614   1.817  15.596  0.0098 -1.3727 -2.2590
  830MPD2    H112209   3.871   1.475  15.573  0.6036 -0.1307  0.9221
  830MPD2    H212210   3.676   1.569  15.939 -1.3854  0.7447  0.4097
  830MPD2    H312211   3.809   1.416  15.802 -1.0580  0.1651  0.6847
  830MPD2     N12212   3.784   1.692  15.440  0.6892  0.2358 -0.4343
  830MPD2    H512213   3.870   1.657  15.400  1.1828  0.7332  0.2024
  830MPD2    N112214   3.539   1.780  15.855  0.3096 -0.7285  0.1231
  830MPD2    H712215   3.535   1.751  15.952  1.2397  1.5956  0.8597
  831MPD2     C12216   3.814   3.745  16.148  0.3022 -0.7938  0.5927
  831MPD2    C112217   3.812   3.619  16.084  0.1917  0.6944  0.2677
  831MPD2    C212218   3.708   3.537  16.118 -0.5577 -0.9338 -0.6318
  831MPD2    C312219   3.600   3.580  16.201  0.0966 -0.2967  0.1559
  831MPD2    C412220   3.604   3.706  16.257 -0.4916 -0.1622  0.4461
  831MPD2    C512221   3.718   3.782  16.239  0.5863 -0.5814  0.4980
  831MPD2     H12222   3.684   3.442  16.071 -1.1242 -0.6575 -0.8940
  831MPD2    H112223   3.526   3.733  16.327 -2.4456  0.4322 -1.9540
  831MPD2    H212224   3.899   3.813  16.143  0.8099 -1.4538  0.2157
  831MPD2    H312225   3.734   3.874  16.295 -0.4288  0.6743 -1.2617
  831MPD2     N12226   3.479   3.504  16.214  0.4243  0.4016  0.0467
  831MPD2    H512227   3.406   3.552  16.264  0.5701  0.7323 -0.0594
  831MPD2    N112228   3.918   3.580  15.999 -0.2961  0.2576 -0.2847
  831MPD2    H712229   3.981   3.649  15.962 -0.8293  1.1616  0.4958
  832MPD2     C12230   2.180   0.038  17.119 -0.2399 -0.1997 -0.3348
  832MPD2    C112231   2.125   0.162  17.120  0.3947 -0.4545  0.2768
  832MPD2    C212232   2.013   0.181  17.045  0.3091  0.6685 -0.1355
  832MPD2    C312233   1.960   0.078  16.973  0.0984 -0.4062 -0.6620
  832MPD2    C412234   2.025   4.675  16.970  0.2765  0.4200  0.0555
  832MPD2    C512235   2.130   4.652  17.048 -0.8603  0.0401 -0.5506
  832MPD2     H12236   1.957   0.273  17.049  0.1913  0.5283  1.7589
  832MPD2    H112237   1.984   4.591  16.915  2.3844 -1.3330  1.1935
  832MPD2    H212238   2.269   0.013  17.176  0.3404 -0.4486 -1.3677
  832MPD2    H312239   2.192   4.562  17.045  0.1046  0.7254 -1.1741
  832MPD2     N12240   1.836   0.070  16.916  0.2667 -0.0127 -0.4768
  832MPD2    H512241   1.802   4.697  16.887 -3.5671  0.8124  1.5114
  832MPD2    N112242   2.181   0.258  17.208  0.2895  0.5439  0.4510
  832MPD2    H712243   2.243   0.228  17.283  0.1463  0.7392  0.6516
  833MPD2     C12244   4.295   1.312  12.431 -0.8294 -0.3876  0.3668
  833MPD2    C112245   4.292   1.418  12.342  0.0341  0.2421 -0.8521
  833MPD2    C212246   4.321   1.387  12.207 -0.7869 -0.0668 -0.3534
  833MPD2    C312247   4.376   1.266  12.161  0.1506 -0.3043 -0.3173
  833MPD2    C412248   4.365   1.162  12.252 -0.1436 -0.6947  0.1621
  833MPD2    C512249   4.323   1.187  12.381  0.6309  0.1576 -0.4081
  833MPD2     H12250   4.315   1.461  12.129  1.1916 -0.2659 -0.7044
  833MPD2    H112251   4.399   1.061  12.234  0.1184 -0.6923  0.6561
  833MPD2    H212252   4.255   1.333  12.530 -1.1373  1.4567 -0.1575
  833MPD2    H312253   4.317   1.102  12.449  0.0846 -0.0278 -0.6836
  833MPD2     N12254   4.414   1.245  12.024 -0.6004 -0.5379 -0.2301
  833MPD2    H512255   4.442   1.151  11.999  0.2417 -0.9187  2.1589
  833MPD2    N112256   4.271   1.550  12.391 -0.6845 -0.0718  0.7465
  833MPD2    H712257   4.260   1.552  12.492  1.3370  0.1319  0.9666
  834MPD2     C12258   4.117   0.717  11.285  0.2578  0.4260  0.0642
  834MPD2    C112259   4.084   0.834  11.233 -0.8625 -0.1581  0.5133
  834MPD2    C212260   4.098   0.947  11.314  0.7964 -0.1356 -0.8701
  834MPD2    C312261   4.151   0.941  11.438 -0.1849 -0.9018 -1.0079
  834MPD2    C412262   4.181   0.814  11.491  0.3841 -0.1946 -0.9322
  834MPD2    C512263   4.152   0.705  11.414 -0.2000  0.4145 -0.0451
  834MPD2     H12264   4.062   1.042  11.276 -1.1108 -1.2495 -1.9044
  834MPD2    H112265   4.235   0.792  11.582 -3.8832  0.0679  1.6730
  834MPD2    H212266   4.102   0.623  11.232 -2.3664  0.8395  0.0406
  834MPD2    H312267   4.173   0.609  11.459  1.1070  0.0983 -1.3184
  834MPD2     N12268   4.162   1.064  11.513 -0.1642  0.4628 -0.3192
  834MPD2    H512269   4.151   1.153  11.464 -0.4412  1.5474  1.7117
  834MPD2    N112270   4.055   0.852  11.097 -0.4287  0.0362 -0.9912
  834MPD2    H712271   4.037   0.947  11.067  0.0177  0.2891 -0.4381
  835MPD2     C12272   4.181   3.586  11.422 -1.0391 -0.2548 -0.6368
  835MPD2    C112273   4.141   3.686  11.507 -0.4170  0.9822 -0.3231
  835MPD2    C212274   4.231   3.723  11.613 -0.0121 -0.3685 -0.2803
  835MPD2    C312275   4.356   3.679  11.620  0.8170 -0.4091  0.5677
  835MPD2    C412276   4.391   3.579  11.533  0.3364 -1.0625 -0.3248
  835MPD2    C512277   4.307   3.533  11.435  0.6439 -0.3317  0.1663
  835MPD2     H12278   4.186   3.781  11.692  0.2253  0.2711 -0.6212
  835MPD2    H112279   4.487   3.530  11.539  2.1618  2.3264 -2.1966
  835MPD2    H212280   4.129   3.545  11.336 -1.3693 -1.4042  0.1139
  835MPD2    H312281   4.340   3.459  11.363 -0.0777 -0.6810  0.1976
  835MPD2     N12282   4.448   3.728  11.719 -1.0135  0.9386 -0.2167
  835MPD2    H512283   4.539   3.686  11.735  0.0531  3.2009 -0.2882
  835MPD2    N112284   4.007   3.727  11.523  0.0097  0.2039 -0.2483
  835MPD2    H712285   3.986   3.804  11.586 -1.2862  1.5251 -2.2848
  836MPD2     C12286   4.457   4.099  12.522  0.0255  0.5907 -0.6273
  836MPD2    C112287   4.445   4.151  12.398  0.1741 -0.0097 -0.1009
  836MPD2    C212288   4.365   4.264  12.381 -0.0273  0.2771  0.3914
  836MPD2    C312289   4.291   4.311  12.486  0.7962  0.1674 -0.0853
  836MPD2    C412290   4.308   4.256  12.611 -0.0605  0.5934 -0.5151
  836MPD2    C512291   4.393   4.150  12.630  0.2374 -0.0733  0.5345
  836MPD2     H12292   4.368   4.314  12.284  1.3109  0.2073  0.3957
  836MPD2    H112293   4.255   4.285  12.702 -1.4942 -1.0469 -0.8269
  836MPD2    H212294   4.532   4.022  12.537  1.2026  2.3371  2.2686
  836MPD2    H312295   4.390   4.113  12.732  0.1696 -0.0054  0.5573
  836MPD2     N12296   4.198   4.416  12.475 -0.0514  0.7280  0.2060
  836MPD2    H512297   4.154   4.437  12.564 -0.8104  1.1488 -0.2637
  836MPD2    N112298   4.519   4.096  12.293 -0.2268 -0.1247  0.3818
  836MPD2    H712299   4.579   4.017  12.312  0.9842  0.6999 -0.0199
  837MPD2     C12300   2.206   3.608  10.188  0.0381  0.0317  0.3386
  837MPD2    C112301   2.073   3.585  10.154  0.3444  0.5072 -0.4613
  837MPD2    C212302   1.978   3.680  10.192  0.1522 -0.4654 -0.3054
  837MPD2    C312303   2.005   3.786  10.279 -0.0097 -0.0453 -0.7654
  837MPD2    C412304   2.135   3.795  10.323 -0.1401  0.6797 -0.3530
  837MPD2    C512305   2.230   3.705  10.281 -0.3396  0.4720  1.2284
  837MPD2     H12306   1.875   3.671  10.156 -0.1793  1.7762  0.0725
  837MPD2    H112307   2.165   3.878  10.386 -0.6598 -0.7370  1.7641
  837MPD2    H212308   2.282   3.540  10.152 -0.9129  0.3847 -2.3209
  837MPD2    H312309   2.331   3.715  10.319 -0.4020  3.6628  0.5958
  837MPD2     N12310   1.906   3.883  10.289  0.1256 -0.1356  0.2300
  837MPD2    H512311   1.817   3.863  10.244  0.9702 -2.1084 -0.5735
  837MPD2    N112312   2.037   3.497  10.050  0.2390 -0.3818  0.1907
  837MPD2    H712313   1.950   3.527  10.007  1.6227  2.2862 -0.7069
  838MPD2     C12314   0.281   1.993  11.400 -0.0958 -0.4707 -0.4526
  838MPD2    C112315   0.313   1.875  11.469 -0.8313 -0.1602  0.2465
  838MPD2    C212316   0.224   1.817  11.560  0.6725  0.6096  0.0172
  838MPD2    C312317   0.106   1.883  11.587  0.1301 -0.0160 -0.6111
  838MPD2    C412318   0.080   2.011  11.534 -0.2083 -0.2669 -0.7545
  838MPD2    C512319   0.160   2.057  11.433  0.7817 -0.0971 -0.3630
  838MPD2     H12320   0.248   1.720  11.603  1.8201  0.5515 -0.7517
  838MPD2    H112321   4.705   2.064  11.555 -2.2361 -3.7844 -0.7681
  838MPD2    H212322   0.345   2.037  11.325  2.0799 -2.6786  0.0909
  838MPD2    H312323   0.126   2.152  11.393  0.6689 -0.5711 -1.3870
  838MPD2     N12324   0.012   1.806  11.664  0.3873  0.0634 -0.0641
  838MPD2    H512325   0.046   1.724  11.713  0.9857  1.1254  1.2840
  838MPD2    N112326   0.438   1.807  11.459  0.2310 -0.7741 -0.0915
  838MPD2    H712327   0.448   1.726  11.520 -1.0456  0.3191  1.5956
  839MPD2     C12328   0.608   0.996  11.650  0.7157 -0.0456 -0.1598
  839MPD2    C112329   0.602   0.995  11.514 -0.8993  0.4235 -0.0329
  839MPD2    C212330   0.613   1.120  11.451  0.5007  0.0989 -0.4795
  839MPD2    C312331   0.629   1.235  11.525 -0.3308 -0.5969  0.0322
  839MPD2    C412332   0.635   1.232  11.658 -0.2330  0.2280 -0.3014
  839MPD2    C512333   0.630   1.107  11.720 -0.0746  0.1325  0.2119
  839MPD2     H12334   0.590   1.125  11.345  0.1139 -0.5451 -0.4297
  839MPD2    H112335   0.657   1.319  11.718  2.8194 -0.5649 -0.2684
  839MPD2    H212336   0.631   0.908  11.707 -1.9646 -0.9217 -0.4133
  839MPD2    H312337   0.636   1.087  11.827 -1.2846 -1.2034  0.0191
  839MPD2     N12338   0.659   1.363  11.461 -0.5594 -0.2114  0.0682
  839MPD2    H512339   0.674   1.442  11.522 -0.6149  0.2244 -0.4761
  839MPD2    N112340   0.579   0.882  11.432 -0.0545  0.0790 -0.4652
  839MPD2    H712341   0.599   0.897  11.334 -1.7069  1.6316 -0.5662
  840MPD2     C12342   0.551   4.154  10.383  0.3524  0.2856  0.0704
  840MPD2    C112343   0.517   4.075  10.487  0.2569  0.6811 -0.3728
  840MPD2    C212344   0.580   4.096  10.613  0.3420  0.6876 -0.2721
  840MPD2    C312345   0.677   4.188  10.632 -0.0923  0.2006  0.0490
  840MPD2    C412346   0.712   4.266  10.524  0.2001 -0.1755  0.6854
  840MPD2    C512347   0.653   4.248  10.398  0.3611 -0.5495 -0.0143
  840MPD2     H12348   0.539   4.036  10.694 -1.9671  2.5498 -0.0821
  840MPD2    H112349   0.775   4.354  10.530 -1.5231  1.0797  0.1739
  840MPD2    H212350   0.492   4.158  10.292 -0.6251 -0.0124  0.6866
  840MPD2    H312351   0.676   4.316  10.317 -1.0116 -0.6861 -0.5259
  840MPD2     N12352   0.728   4.221  10.762  0.0673 -0.1908 -0.4903
  840MPD2    H512353   0.765   4.314  10.779 -0.9695 -0.0512  1.0209
  840MPD2    N112354   0.400   3.994  10.470 -0.5385 -0.0792  0.3665
  840MPD2    H712355   0.360   4.003  10.377  0.9947 -0.8318 -0.3752
  841MPD2     C12356   0.914   3.792  14.224  0.9952 -0.3920  0.5940
  841MPD2    C112357   0.888   3.724  14.341 -0.1316 -0.1713  0.2051
  841MPD2    C212358   0.980   3.744  14.446  0.0094  0.1197  0.7262
  841MPD2    C312359   1.085   3.833  14.432 -0.0731 -0.2676  0.1035
  841MPD2    C412360   1.102   3.905  14.319 -0.0633 -0.2639 -0.3696
  841MPD2    C512361   1.019   3.882  14.214  0.4102 -0.0353  0.5833
  841MPD2     H12362   0.955   3.700  14.542  0.7992 -0.4653  0.6649
  841MPD2    H112363   1.184   3.975  14.301  0.0806 -0.4870 -0.5854
  841MPD2    H212364   0.853   3.784  14.135  2.7956  1.6123 -0.8471
  841MPD2    H312365   1.024   3.919  14.112  0.4659 -1.2479  0.1508
  841MPD2     N12366   1.162   3.859  14.549  0.1535  0.0860  0.6870
  841MPD2    H512367   1.149   3.812  14.638  0.6716 -0.4990  0.4566
  841MPD2    N112368   0.775   3.640  14.351  0.0470 -0.3340 -0.2127
  841MPD2    H712369   0.770   3.591  14.440 -1.5873  1.9576  0.9466
  842MPD2     C12370   1.212   0.466  16.589  0.6277  0.1663  0.3073
  842MPD2    C112371   1.171   0.349  16.647 -0.6949  0.1461 -0.3329
  842MPD2    C212372   1.218   0.318  16.773 -0.3906  0.3458 -0.0893
  842MPD2    C312373   1.318   0.391  16.833 -0.2353 -0.7852 -0.2421
  842MPD2    C412374   1.357   0.507  16.770 -0.4080 -0.4858  0.1130
  842MPD2    C512375   1.312   0.542  16.650  0.2925  0.7075 -0.0690
  842MPD2     H12376   1.200   0.217  16.807  0.6316 -0.3572 -1.6671
  842MPD2    H112377   1.447   0.553  16.808 -1.2294  2.3267 -1.3492
  842MPD2    H212378   1.185   0.491  16.487 -0.6002 -0.9288  0.3502
  842MPD2    H312379   1.359   0.628  16.603  0.2744  0.8265  0.1328
  842MPD2     N12380   1.370   0.361  16.959  0.2093  0.5089 -0.2712
  842MPD2    H512381   1.436   0.434  16.981  0.2970  0.2240  0.4143
  842MPD2    N112382   1.085   0.261  16.573 -0.1438 -0.5141  0.1431
  842MPD2    H712383   1.050   0.299  16.486 -1.5744 -1.8762  0.1365
  843MPD2     C12384   2.915   1.345   0.065  0.1573 -0.3307 -0.0927
  843MPD2    C112385   2.990   1.253   0.145  0.5606 -0.3291 -0.0459
  843MPD2    C212386   3.112   1.295   0.200 -0.4116  0.1169  0.9301
  843MPD2    C312387   3.152   1.426   0.187 -0.0998 -0.3597  0.0692
  843MPD2    C412388   3.067   1.516   0.119 -0.2877 -0.1792  0.7901
  843MPD2    C512389   2.952   1.471   0.056  0.1133 -0.1165 -1.0067
  843MPD2     H12390   3.183   1.229   0.249  0.8104  1.6745  1.2773
  843MPD2    H112391   3.102   1.615   0.092 -1.8953 -0.1998 -1.3782
  843MPD2    H212392   2.820   1.317   0.020 -0.7832 -0.3959  1.9039
  843MPD2    H312393   2.904   1.542  17.663  1.7129  1.9299 -0.0003
  843MPD2     N12394   3.276   1.481   0.228  0.2930 -0.1922 -0.2456
  843MPD2    H512395   3.289   1.577   0.200 -0.2941 -0.2393 -0.6908
  843MPD2    N112396   2.935   1.124   0.159  0.0554  0.6312 -0.1587
  843MPD2    H712397   2.852   1.090   0.111  0.4264 -0.8159  0.2075
  844MPD2     C12398   1.757   4.681  16.340  0.3138 -0.1563  0.1436
  844MPD2    C112399   1.885   4.622  16.360 -0.0010 -0.1661 -0.0061
  844MPD2    C212400   1.986   4.684  16.428  0.2627  0.1232 -0.5415
  844MPD2    C312401   1.966   0.086  16.497  0.3841  0.2542  0.3402
  844MPD2    C412402   1.846   0.143  16.471  0.1373 -0.0250 -0.3273
  844MPD2    C512403   1.744   0.087  16.399 -0.6456  0.3685  0.5627
  844MPD2     H12404   2.082   4.635  16.441 -0.1319  0.1199  2.1911
  844MPD2    H112405   1.832   0.245  16.504 -2.4468 -0.9694  1.5245
  844MPD2    H212406   1.672   4.636  16.290  0.3014  0.0103  0.0134
  844MPD2    H312407   1.651   0.142  16.391  0.5109  2.2783  0.1588
  844MPD2     N12408   2.072   0.139  16.572 -0.3381  0.3357 -0.0752
  844MPD2    H512409   2.162   0.095  16.556 -1.8556 -2.4751 -0.9144
  844MPD2    N112410   1.925   4.506  16.298 -0.3275 -1.0285  0.1122
  844MPD2    H712411   2.018   4.470  16.318 -0.0503 -0.7813 -0.7243
  845MPD2     C12412   2.081   1.032  16.955  0.9214  0.2112  0.3889
  845MPD2    C112413   2.014   0.927  17.001 -0.1029  0.3523  0.0407
  845MPD2    C212414   2.054   0.800  16.981  0.0172  0.0822 -0.6564
  845MPD2    C312415   2.174   0.774  16.923 -0.4804  0.0044  0.3690
  845MPD2    C412416   2.252   0.881  16.886  0.6233 -0.6392 -0.5971
  845MPD2    C512417   2.199   1.002  16.897  0.2472  0.8988  0.2269
  845MPD2     H12418   1.991   0.718  17.013 -1.2734  1.2319 -0.2717
  845MPD2    H112419   2.357   0.865  16.865  0.5138  0.1012 -1.6398
  845MPD2    H212420   2.043   1.132  16.970  0.3345 -0.0402  0.5678
  845MPD2    H312421   2.264   1.086  16.873  0.9491  0.5204  0.7797
  845MPD2     N12422   2.209   0.634  16.910 -0.4512  0.4412  0.3067
  845MPD2    H512423   2.137   0.568  16.939  1.0372 -1.7910 -1.0961
  845MPD2    N112424   1.899   0.949  17.082 -0.2548 -0.3264  0.2388
  845MPD2    H712425   1.856   1.041  17.079  1.7514  0.5667 -1.3329
  846MPD2     C12426   3.907   0.982  13.807  0.0093  0.0741 -0.0780
  846MPD2    C112427   3.779   1.030  13.786  0.5954  0.0774 -1.2023
  846MPD2    C212428   3.694   1.044  13.896  0.0922 -0.5368  0.0031
  846MPD2    C312429   3.737   0.990  14.014 -0.2775  0.2676  0.0937
  846MPD2    C412430   3.857   0.927  14.033 -0.1561  0.2096 -0.0748
  846MPD2    C512431   3.941   0.928  13.924 -0.1219 -0.5507  0.5396
  846MPD2     H12432   3.604   1.104  13.890 -0.0657 -0.7367  0.3963
  846MPD2    H112433   3.896   0.875  14.120  0.3462  0.5049 -0.1225
  846MPD2    H212434   3.980   0.981  13.726 -1.2183  0.0703 -1.1969
  846MPD2    H312435   4.038   0.881  13.932 -1.0253 -2.4482  0.4047
  846MPD2     N12436   3.643   0.992  14.119 -0.2073  0.8737  0.1958
  846MPD2    H512437   3.545   1.006  14.097 -0.7274 -0.4252  1.6880
  846MPD2    N112438   3.730   1.079  13.658  0.0765  0.2775 -0.0616
  846MPD2    H712439   3.643   1.131  13.659  0.7397  1.3896  0.9753
  847MPD2     C12440   3.451   1.561  14.338 -0.1733  0.0762  0.0767
  847MPD2    C112441   3.519   1.667  14.395  0.1339 -0.3719 -0.3060
  847MPD2    C212442   3.603   1.656  14.505 -0.1328 -0.2280  0.4097
  847MPD2    C312443   3.612   1.531  14.555  0.4573 -0.2002 -1.2643
  847MPD2    C412444   3.547   1.420  14.501 -0.0456 -0.0244  0.3350
  847MPD2    C512445   3.469   1.435  14.391  1.0389 -0.3338  0.4240
  847MPD2     H12446   3.661   1.739  14.543  0.6836 -0.3704 -0.5311
  847MPD2    H112447   3.571   1.320  14.533  1.5565 -0.7350 -3.0495
  847MPD2    H212448   3.392   1.582  14.249  1.4364 -1.9624 -1.4877
  847MPD2    H312449   3.425   1.342  14.357 -0.0034 -0.9388  3.5006
  847MPD2     N12450   3.715   1.513  14.650  0.2677 -0.6486  0.8280
  847MPD2    H512451   3.771   1.429  14.648 -0.2584 -0.9311 -1.8703
  847MPD2    N112452   3.503   1.799  14.342 -0.1681  0.2328 -0.3556
  847MPD2    H712453   3.558   1.875  14.382 -1.1855  0.8219 -0.0702
  848MPD2     C12454   1.405   0.258  16.258 -0.7657 -0.2572  0.4201
  848MPD2    C112455   1.449   0.329  16.362 -0.4991  0.2557  0.6151
  848MPD2    C212456   1.480   0.460  16.343 -0.2072  0.3970  0.1070
  848MPD2    C312457   1.456   0.520  16.220  0.7849  0.5249  0.1058
  848MPD2    C412458   1.411   0.446  16.113 -0.2852 -0.6531 -0.2725
  848MPD2    C512459   1.381   0.317  16.137 -0.0111  0.5139 -0.1408
  848MPD2     H12460   1.516   0.513  16.430  0.2708  0.9163 -0.4083
  848MPD2    H112461   1.393   0.481  16.013  0.8076 -1.1362 -0.6439
  848MPD2    H212462   1.375   0.155  16.272 -0.3892 -0.7211 -2.2229
  848MPD2    H312463   1.320   0.267  16.063  1.3317  0.1061 -0.9745
  848MPD2     N12464   1.454   0.659  16.198  0.6217 -0.3985 -0.0460
  848MPD2    H512465   1.436   0.690  16.104  0.1888  1.2678  0.5911
  848MPD2    N112466   1.476   0.272  16.493  0.8476 -0.2509 -0.1748
  848MPD2    H712467   1.533   0.330  16.553  2.3905  0.6336 -2.4889
  849MPD2     C12468   0.931   4.181  13.874  0.6032 -0.4044 -0.0579
  849MPD2    C112469   0.912   4.293  13.805 -0.3048  1.1407  0.2940
  849MPD2    C212470   1.008   4.393  13.801  0.0077  0.1188  0.4713
  849MPD2    C312471   1.121   4.385  13.878  0.2475 -0.7330  0.1303
  849MPD2    C412472   1.147   4.268  13.952 -0.2543  0.4194  0.2607
  849MPD2    C512473   1.052   4.169  13.940 -0.4187  1.1728 -0.1313
  849MPD2     H12474   0.987   4.482  13.743 -0.2175  0.2505  0.7505
  849MPD2    H112475   1.238   4.249  14.008  1.2109 -1.1022 -2.6719
  849MPD2    H212476   0.876   4.089  13.859  0.1471 -0.2482  0.6245
  849MPD2    H312477   1.084   4.074  13.982 -1.0255  0.8816 -0.3271
  849MPD2     N12478   1.213   4.488  13.865 -0.1938  0.5488  0.4132
  849MPD2    H512479   1.183   4.558  13.798  1.4408 -0.2061 -1.0924
  849MPD2    N112480   0.782   4.314  13.752  0.0487 -0.0421 -0.0341
  849MPD2    H712481   0.714   4.240  13.741  0.5117 -0.3848 -0.6306
  850MPD2     C12482   3.661   3.006  14.626 -0.1236  0.7517  0.3610
  850MPD2    C112483   3.720   2.964  14.748 -0.2053  0.2335 -0.5603
  850MPD2    C212484   3.852   2.931  14.750 -1.3258  0.8474  0.3269
  850MPD2    C312485   3.936   2.934  14.642 -0.0894  0.2205  0.5670
  850MPD2    C412486   3.876   2.978  14.523  0.3464  0.0092  0.3572
  850MPD2    C512487   3.741   3.004  14.515  0.1882 -0.7247  0.1469
  850MPD2     H12488   3.895   2.910  14.847  0.7610 -0.4043 -0.8862
  850MPD2    H112489   3.937   2.984  14.434  0.5353  0.5064  0.5191
  850MPD2    H212490   3.555   3.029  14.625  0.0118  1.4242  1.5782
  850MPD2    H312491   3.691   3.012  14.419 -0.1243 -2.4829  0.1623
  850MPD2     N12492   4.075   2.907  14.645 -0.9487  0.2169  0.4934
  850MPD2    H512493   4.124   2.923  14.558 -0.0939  1.0860  1.1304
  850MPD2    N112494   3.653   2.945  14.866  0.0947  0.9762  0.2437
  850MPD2    H712495   3.708   2.903  14.940  1.2546  0.8622 -0.6723
  851MPD2     C12496   3.874   2.576  15.488  0.2189  0.0209 -0.3080
  851MPD2    C112497   3.790   2.553  15.378 -0.2169  0.4276  0.8637
  851MPD2    C212498   3.810   2.434  15.312  0.5888  0.2084  0.6459
  851MPD2    C312499   3.903   2.343  15.359 -0.3265  0.4060  0.0955
  851MPD2    C412500   3.979   2.368  15.467  0.0608  0.5274  0.3405
  851MPD2    C512501   3.962   2.484  15.532 -0.1513 -0.2585  0.1050
  851MPD2     H12502   3.751   2.407  15.225 -0.6207  0.3517  1.4286
  851MPD2    H112503   4.053   2.297  15.502 -0.5522  0.1003  0.7540
  851MPD2    H212504   3.864   2.675  15.531 -3.2414  0.1601 -1.4244
  851MPD2    H312505   4.029   2.524  15.608  1.6285 -4.4021  0.7544
  851MPD2     N12506   3.902   2.218  15.294 -0.9040 -0.3802  0.3670
  851MPD2    H512507   3.829   2.210  15.224 -0.7926 -0.4730  0.2634
  851MPD2    N112508   3.710   2.658  15.329  0.6498 -0.2518  0.1625
  851MPD2    H712509   3.713   2.745  15.382  0.5242 -0.9371  1.3001
  852MPD2     C12510   2.326   0.984   9.788  0.4283  0.4550 -0.3808
  852MPD2    C112511   2.449   0.933   9.838  0.1028  0.4763  0.2983
  852MPD2    C212512   2.565   1.010   9.827  0.0201  0.4818  0.9153
  852MPD2    C312513   2.560   1.133   9.777 -0.3956 -0.3215 -0.5045
  852MPD2    C412514   2.445   1.189   9.726 -0.1080 -0.1423  0.2947
  852MPD2    C512515   2.331   1.114   9.733 -1.1563  0.2704 -0.0858
  852MPD2     H12516   2.661   0.973   9.864 -0.3518  0.5712  1.9647
  852MPD2    H112517   2.438   1.281   9.669  0.1724 -0.4812 -0.2948
  852MPD2    H212518   2.232   0.930   9.800  0.7932 -0.0122  0.3559
  852MPD2    H312519   2.243   1.157   9.688 -0.7195  0.0936 -1.1194
  852MPD2     N12520   2.689   1.189   9.758  0.2293 -0.2251 -0.5162
  852MPD2    H512521   2.762   1.143   9.811  2.1602  0.6105 -2.4255
  852MPD2    N112522   2.462   0.795   9.888  0.7078 -0.3270 -0.2905
  852MPD2    H712523   2.557   0.764   9.906  1.4998  2.8294  1.1117
  853MPD2     C12524   0.346   0.170  12.153 -0.0773  0.2837  0.1445
  853MPD2    C112525   0.246   0.246  12.093 -0.7322 -0.2355  0.4980
  853MPD2    C212526   0.232   0.244  11.955  0.0278  0.7720  0.3205
  853MPD2    C312527   0.324   0.182  11.877 -0.6385 -0.4055  0.6002
  853MPD2    C412528   0.427   0.114  11.935 -0.6090 -0.0442 -0.1854
  853MPD2    C512529   0.438   0.106  12.071  0.5791  0.6675  0.8737
  853MPD2     H12530   0.140   0.285  11.914  0.5620  2.6614  1.0224
  853MPD2    H112531   0.508   0.067  11.881 -0.0010  0.3983  0.3451
  853MPD2    H212532   0.369   0.172  12.259  0.0321  0.2247  0.1220
  853MPD2    H312533   0.522   0.049  12.109  0.8115  0.9980  0.8649
  853MPD2     N12534   0.311   0.165  11.736 -0.0250  0.2276 -0.0257
  853MPD2    H512535   0.374   0.092  11.704 -0.2946  0.0864 -0.2266
  853MPD2    N112536   0.160   0.322  12.182 -0.4029  0.5631 -0.1671
  853MPD2    H712537   0.184   0.320  12.280  0.9840 -2.8795 -0.5617
  854MPD2     C12538   2.082   0.990  13.434  0.2411 -0.2386  0.1056
  854MPD2    C112539   1.998   0.898  13.382 -0.3304 -0.4321  1.3070
  854MPD2    C212540   2.042   0.769  13.389  0.3127  0.3889 -0.3837
  854MPD2    C312541   2.167   0.736  13.444 -0.3414 -0.1866  0.0350
  854MPD2    C412542   2.245   0.825  13.515  0.4086  0.0902 -0.1857
  854MPD2    C512543   2.200   0.955  13.495 -0.7882  0.2223  0.1826
  854MPD2     H12544   1.977   0.684  13.369 -1.0127  1.6886 -1.5605
  854MPD2    H112545   2.346   0.806  13.548  0.5554 -0.6894 -1.0690
  854MPD2    H212546   2.056   1.095  13.430  0.8068 -0.1239 -0.6078
  854MPD2    H312547   2.261   1.037  13.532  2.0473 -1.4608 -0.7614
  854MPD2     N12548   2.225   0.608  13.427  0.6930 -0.2989 -0.1505
  854MPD2    H512549   2.309   0.594  13.482 -0.0010  0.7228  1.1877
  854MPD2    N112550   1.872   0.941  13.331  0.5130 -0.5975  0.0127
  854MPD2    H712551   1.858   1.042  13.332 -0.8298 -0.7940 -0.0455
  855MPD2     C12552   2.879   0.437  13.894 -0.3178 -0.2812  0.3887
  855MPD2    C112553   2.887   0.317  13.822 -0.1797 -0.1808  0.7682
  855MPD2    C212554   2.777   0.279  13.739  0.2781 -0.8935 -0.0108
  855MPD2    C312555   2.687   0.377  13.710  0.1056  0.0384 -0.5447
  855MPD2    C412556   2.690   0.497  13.773  0.2348  0.0608  0.9157
  855MPD2    C512557   2.779   0.528  13.876  0.0962 -0.2109 -0.1465
  855MPD2     H12558   2.777   0.186  13.683 -2.0228 -2.5461  2.6783
  855MPD2    H112559   2.605   0.564  13.763 -0.4781 -1.1607 -1.1495
  855MPD2    H212560   2.953   0.468  13.966 -1.4373  0.7472  1.0956
  855MPD2    H312561   2.769   0.618  13.936  1.2888  0.2470 -0.6239
  855MPD2     N12562   2.571   0.360  13.621  0.4101  0.1274  0.1854
  855MPD2    H512563   2.521   0.443  13.593  1.1216  0.8389  1.0040
  855MPD2    N112564   2.997   0.230  13.841 -0.5293 -0.2222 -0.3455
  855MPD2    H712565   3.065   0.248  13.914  0.1191 -3.6865 -0.0755
  856MPD2     C12566   4.562   1.377  14.102  0.1790  0.0447  0.9248
  856MPD2    C112567   4.621   1.502  14.109 -0.2860 -0.2669 -0.1487
  856MPD2    C212568   4.549   1.610  14.066  0.9772 -0.1373  0.3054
  856MPD2    C312569   4.415   1.602  14.025  0.1797  1.6212  0.2538
  856MPD2    C412570   4.362   1.478  14.014 -0.1909 -0.1932  0.5085
  856MPD2    C512571   4.428   1.367  14.054  0.1827  0.7864  0.3423
  856MPD2     H12572   4.598   1.705  14.085  1.0505 -0.1269  0.0638
  856MPD2    H112573   4.262   1.460  13.976 -0.2665  0.6384  0.3090
  856MPD2    H212574   4.619   1.289  14.129 -0.2214 -0.1468  1.1409
  856MPD2    H312575   4.383   1.269  14.044 -0.0880  1.0554 -1.0355
  856MPD2     N12576   4.328   1.714  13.999  0.5440 -0.2249 -0.3043
  856MPD2    H512577   4.230   1.692  13.986 -0.1126  1.5018  1.6460
  856MPD2    N112578   0.043   1.522  14.140 -0.2603 -0.2955  0.3172
  856MPD2    H712579   0.072   1.619  14.126 -1.0147 -0.4253 -2.1202
  857MPD2     C12580   1.398   3.051  13.257  0.8050  0.2042  0.1635
  857MPD2    C112581   1.455   3.095  13.145 -0.5526 -0.1067 -0.0100
  857MPD2    C212582   1.526   3.221  13.155  0.8729 -0.4144  0.3969
  857MPD2    C312583   1.551   3.283  13.276 -0.1869  0.4976  0.3654
  857MPD2    C412584   1.499   3.220  13.392  0.2225  1.0465  0.0610
  857MPD2    C512585   1.417   3.114  13.375 -0.0954 -0.0312  0.3345
  857MPD2     H12586   1.575   3.256  13.066  1.1674  1.8091  1.4250
  857MPD2    H112587   1.517   3.255  13.493  0.9991 -0.6890  0.5337
  857MPD2    H212588   1.338   2.961  13.259  0.7139  0.2603 -0.0075
  857MPD2    H312589   1.370   3.085  13.468 -0.2487  0.5900  0.4515
  857MPD2     N12590   1.640   3.398  13.284 -0.2469 -0.6600 -0.4799
  857MPD2    H512591   1.673   3.438  13.197  2.6227 -0.4357  0.7360
  857MPD2    N112592   1.435   3.026  13.026 -0.5391  1.1203 -0.4746
  857MPD2    H712593   1.385   2.937  13.031  0.3689  0.6502  0.2235
  858MPD2     C12594   1.979   3.012  16.904  0.3554  0.2437 -0.2913
  858MPD2    C112595   2.112   2.983  16.891 -0.4671  0.3108 -0.1533
  858MPD2    C212596   2.202   3.030  16.982 -0.0433 -0.3423 -0.1625
  858MPD2    C312597   2.160   3.101  17.091 -0.4315 -0.1389 -0.3161
  858MPD2    C412598   2.022   3.130  17.104 -0.1122  0.1542 -0.3389
  858MPD2    C512599   1.934   3.078  17.011  0.2022 -0.2344 -0.6784
  858MPD2     H12600   2.308   3.012  16.970 -0.1714  0.3668 -2.5200
  858MPD2    H112601   1.993   3.183  17.193  0.9679  1.2692 -0.6440
  858MPD2    H212602   1.909   2.978  16.828  0.6597  0.7502 -0.7970
  858MPD2    H312603   1.828   3.090  17.029 -0.2258 -2.2420 -1.8970
  858MPD2     N12604   2.237   3.141  17.200 -0.5716  0.6836 -0.3881
  858MPD2    H512605   2.190   3.196  17.271 -0.3287 -0.6856  0.8190
  858MPD2    N112606   2.152   2.916  16.764 -0.6048  0.1562  0.2213
  858MPD2    H712607   2.077   2.891  16.700  2.1713 -1.6100 -2.3547
  859MPD2     C12608   1.314   0.043  15.487 -0.3618  0.0294  0.4737
  859MPD2    C112609   1.200   0.033  15.402  0.6622 -0.0068 -0.5801
  859MPD2    C212610   1.099   4.654  15.430  0.2410  0.5468 -0.0225
  859MPD2    C312611   1.112   4.581  15.547  0.2219  0.2817 -0.0952
  859MPD2    C412612   1.225   4.588  15.627 -0.0625  0.1618  0.2354
  859MPD2    C512613   1.328   4.680  15.596  0.1531 -0.3310 -0.5513
  859MPD2     H12614   1.007   4.644  15.373  0.2709 -1.1452  0.2208
  859MPD2    H112615   1.246   4.512  15.702  0.5874 -1.7176 -1.8699
  859MPD2    H212616   1.397   0.106  15.456 -0.7237 -0.6879 -1.9520
  859MPD2    H312617   1.417   4.660  15.655  1.2695  0.6271 -1.9054
  859MPD2     N12618   1.017   4.491  15.594 -0.0356  0.3256  0.3685
  859MPD2    H512619   1.039   4.440  15.679  0.9699 -2.8714 -1.8059
  859MPD2    N112620   1.190   0.124  15.295 -1.3572 -0.2826  0.2290
  859MPD2    H712621   1.271   0.180  15.269  0.3217 -0.8799  4.2143
  860MPD2     C12622   2.670   0.349  11.711  0.0639 -0.3155 -0.0370
  860MPD2    C112623   2.705   0.419  11.827 -0.1765 -0.3835  0.0648
  860MPD2    C212624   2.602   0.431  11.913  0.0585  0.4407 -0.6587
  860MPD2    C312625   2.483   0.362  11.905  0.5958  0.3743 -0.1604
  860MPD2    C412626   2.446   0.301  11.784 -0.7793 -0.3135  0.5256
  860MPD2    C512627   2.547   0.302  11.692 -0.4148 -0.4532  0.4811
  860MPD2     H12628   2.628   0.478  12.007 -1.0880  0.3796 -0.3038
  860MPD2    H112629   2.347   0.263  11.761 -0.7640  1.1866 -1.9689
  860MPD2    H212630   2.746   0.340  11.634  0.9565  0.6586  0.7309
  860MPD2    H312631   2.527   0.255  11.596  1.9166  0.2540 -0.3670
  860MPD2     N12632   2.392   0.373  12.016 -0.2036 -0.5487 -0.0402
  860MPD2    H512633   2.418   0.426  12.099  1.5896 -0.8831 -0.3907
  860MPD2    N112634   2.834   0.480  11.857  0.4966 -0.0109 -0.4076
  860MPD2    H712635   2.834   0.527  11.947 -0.4111 -2.7624  1.0324
  861MPD2     C12636   1.667   3.233  10.773  0.1197 -0.2617 -0.5437
  861MPD2    C112637   1.557   3.250  10.849 -0.0793  0.2628  0.1072
  861MPD2    C212638   1.448   3.305  10.786  0.2443 -0.7923  0.2530
  861MPD2    C312639   1.445   3.332  10.649 -0.5088 -0.4982 -0.5818
  861MPD2    C412640   1.551   3.284  10.576 -0.2571 -0.4874  0.0063
  861MPD2    C512641   1.664   3.234  10.639 -0.4076  0.2118 -0.0833
  861MPD2     H12642   1.367   3.344  10.848 -1.4435 -0.4569 -2.1554
  861MPD2    H112643   1.549   3.298  10.468  1.2213  0.8378  0.1675
  861MPD2    H212644   1.763   3.202  10.812 -0.5650  1.1732  2.3380
  861MPD2    H312645   1.748   3.220  10.572 -0.8849 -0.1347 -0.6105
  861MPD2     N12646   1.331   3.391  10.582 -0.2768 -0.2631  0.2363
  861MPD2    H512647   1.339   3.418  10.485  2.6869  1.4742  0.9490
  861MPD2    N112648   1.547   3.241  10.989 -0.5998 -0.3065  0.4182
  861MPD2    H712649   1.467   3.282  11.034 -0.1576  0.2857  0.6663
  862MPD2     C12650   1.026   3.376  10.002 -0.1147  0.0301  0.1571
  862MPD2    C112651   1.138   3.380  10.083  0.6371  0.3587 -0.6054
  862MPD2    C212652   1.222   3.266  10.084 -0.5040 -0.2171 -0.4136
  862MPD2    C312653   1.207   3.154   9.999 -0.2864  0.6511 -0.2376
  862MPD2    C412654   1.097   3.162   9.912 -0.2266 -0.1054 -0.6933
  862MPD2    C512655   1.011   3.270   9.921  0.4292  0.3132 -0.3669
  862MPD2     H12656   1.307   3.278  10.149  0.7827 -0.7624 -1.9941
  862MPD2    H112657   1.075   3.081   9.844 -2.1588 -0.7217  0.6881
  862MPD2    H212658   0.964   3.465  10.002 -0.4853 -0.2314  2.1629
  862MPD2    H312659   0.927   3.264   9.853  0.4433 -1.8910 -0.1826
  862MPD2     N12660   1.290   3.042   9.997 -0.4301  0.0158  0.0139
  862MPD2    H512661   1.271   2.961   9.938 -0.4358  1.5657 -2.1043
  862MPD2    N112662   1.170   3.477  10.178 -0.0342  0.2310  0.3349
  862MPD2    H712663   1.261   3.468  10.223  0.0194 -3.3907 -0.4983
  863MPD2     C12664   0.460   1.871  16.726 -0.2749  0.2093 -0.1586
  863MPD2    C112665   0.457   1.980  16.810  0.2094  0.8064 -0.1230
  863MPD2    C212666   0.543   1.992  16.920 -0.3755 -0.3379 -0.4409
  863MPD2    C312667   0.637   1.890  16.950 -0.5673 -0.2788 -0.4016
  863MPD2    C412668   0.636   1.786  16.863  0.0166 -0.6320 -0.2717
  863MPD2    C512669   0.547   1.769  16.757 -0.1068  0.0852  0.4816
  863MPD2     H12670   0.531   2.080  16.982 -2.0630 -0.7072 -0.2452
  863MPD2    H112671   0.700   1.699  16.873 -0.7584 -1.3727 -1.8461
  863MPD2    H212672   0.377   1.861  16.657  0.3663 -0.8632 -0.7664
  863MPD2    H312673   0.547   1.680  16.694 -0.3219  0.6003 -0.2452
  863MPD2     N12674   0.733   1.883  17.057  0.1786  0.5264 -0.5158
  863MPD2    H512675   0.760   1.787  17.077 -3.5029  0.4015  3.7450
  863MPD2    N112676   0.349   2.067  16.775  0.0313  0.1734 -0.0707
  863MPD2    H712677   0.293   2.039  16.696  0.4268  0.5381 -0.4843
  864MPD2     C12678   1.135   3.115  17.470  0.2183  0.5218 -0.7904
  864MPD2    C112679   1.199   3.031  17.384 -0.3313 -0.3881 -0.8821
  864MPD2    C212680   1.299   3.084  17.302  0.4777  0.3919  0.6014
  864MPD2    C312681   1.309   3.220  17.294 -0.5003  0.5536  0.1259
  864MPD2    C412682   1.240   3.305  17.375 -0.0980 -0.2259  0.2935
  864MPD2    C512683   1.160   3.254  17.474  0.8840 -0.2525 -0.2595
  864MPD2     H12684   1.359   3.020  17.238 -2.6142 -0.3949 -1.5203
  864MPD2    H112685   1.249   3.412  17.365 -3.5593  0.0827  0.2348
  864MPD2    H212686   1.068   3.067  17.540 -1.6891  1.1939 -2.1638
  864MPD2    H312687   1.106   3.321  17.540  2.7066  0.3775  0.6062
  864MPD2     N12688   1.394   3.288  17.201 -0.0544 -0.3568 -0.3047
  864MPD2    H512689   1.379   3.388  17.192  0.1139 -0.1764  1.3543
  864MPD2    N112690   1.156   2.894  17.383 -0.4943  0.1205 -0.3960
  864MPD2    H712691   1.085   2.862  17.449 -1.3858  0.1164 -1.3669
  865MPD2     C12692   1.429   3.535  16.294  0.0449  0.3953 -0.2007
  865MPD2    C112693   1.398   3.443  16.384  0.3094 -0.3828  0.3366
  865MPD2    C212694   1.404   3.475  16.514 -0.1615  0.4296  0.3109
  865MPD2    C312695   1.449   3.595  16.562  0.2111  0.6490  0.3047
  865MPD2    C412696   1.489   3.686  16.472  0.0375 -0.3332 -0.2518
  865MPD2    C512697   1.481   3.653  16.340  0.5678 -0.6425 -0.4096
  865MPD2     H12698   1.398   3.396  16.588  1.2785  0.1280  0.1149
  865MPD2    H112699   1.533   3.781  16.499  2.9787 -1.7190 -0.1353
  865MPD2    H212700   1.439   3.517  16.188 -0.5111 -0.1420 -0.1676
  865MPD2    H312701   1.514   3.720  16.261 -1.6897  0.4504 -0.4267
  865MPD2     N12702   1.461   3.628  16.699  0.0777  0.0724  0.8709
  865MPD2    H512703   1.533   3.698  16.715  1.0587 -0.3028 -1.8233
  865MPD2    N112704   1.358   3.315  16.330 -0.3225  0.2134  0.1082
  865MPD2    H712705   1.364   3.303  16.229 -1.2541 -4.0432  0.5667
  866MPD2     C12706   2.029   4.185  11.345  0.0191 -0.1642 -0.1554
  866MPD2    C112707   1.994   4.229  11.219 -0.9759  0.4894 -0.0415
  866MPD2    C212708   1.908   4.150  11.143  0.1787  0.1414 -0.9895
  866MPD2    C312709   1.862   4.031  11.185 -0.3315 -0.1925  0.8239
  866MPD2    C412710   1.903   3.984  11.308  0.3741 -0.3243  0.0574
  866MPD2    C512711   1.988   4.060  11.385 -0.4691 -0.1142  1.1828
  866MPD2     H12712   1.886   4.191  11.045 -3.0730  0.1088 -0.2831
  866MPD2    H112713   1.878   3.885  11.346 -1.0297 -0.2369 -0.6486
  866MPD2    H212714   2.107   4.219  11.412 -0.4815  3.4241 -1.4313
  866MPD2    H312715   2.020   4.021  11.480  1.8432 -0.7500  0.1373
  866MPD2     N12716   1.780   3.944  11.104 -0.2867 -0.6501 -0.2705
  866MPD2    H512717   1.759   3.850  11.136 -0.5869 -0.7834 -0.8639
  866MPD2    N112718   2.071   4.344  11.174  0.5417  0.2647 -0.1968
  866MPD2    H712719   2.123   4.393  11.246  1.6188 -1.1455 -0.0180
  867MPD2     C12720   0.474   3.175  16.355  0.4092 -0.4239  0.2010
  867MPD2    C112721   0.524   3.191  16.486 -0.6841  0.3708 -0.4269
  867MPD2    C212722   0.504   3.316  16.548 -0.6336  0.2366  0.0805
  867MPD2    C312723   0.420   3.409  16.494  0.7568 -0.1026  0.3448
  867MPD2    C412724   0.376   3.394  16.368 -0.3493  0.8245 -0.3279
  867MPD2    C512725   0.405   3.284  16.292 -0.1564 -0.4257 -0.3829
  867MPD2     H12726   0.551   3.341  16.643 -0.4689  4.6920 -1.1629
  867MPD2    H112727   0.321   3.475  16.321  0.4732 -0.9213 -4.2823
  867MPD2    H212728   0.494   3.088  16.294  1.5696 -0.8479  1.2099
  867MPD2    H312729   0.366   3.270  16.192  2.1805 -0.2872 -1.3107
  867MPD2     N12730   0.394   3.531  16.565 -0.1714 -0.0171 -0.7244
  867MPD2    H512731   0.384   3.611  16.504 -1.0156  1.1163  0.8707
  867MPD2    N112732   0.589   3.076  16.543  0.8191 -0.6629 -0.1122
  867MPD2    H712733   0.598   2.994  16.484  3.2389 -0.6653  0.2357
  868MPD2     C12734   1.490   1.819  12.857 -0.7147  0.7701  0.0299
  868MPD2    C112735   1.580   1.848  12.961  0.1885  0.1622  0.2182
  868MPD2    C212736   1.545   1.944  13.053 -0.1322 -0.1175 -0.4704
  868MPD2    C312737   1.423   2.005  13.050 -0.0743  0.1627  0.6923
  868MPD2    C412738   1.334   1.963  12.954 -0.0239 -0.1093 -0.1222
  868MPD2    C512739   1.366   1.874  12.857  0.6542 -0.7609 -0.4624
  868MPD2     H12740   1.618   1.980  13.125  0.0907 -1.1045 -0.2157
  868MPD2    H112741   1.231   1.997  12.956 -0.4052 -1.3820  1.6129
  868MPD2    H212742   1.518   1.744  12.784 -0.2108  0.0594  0.9397
  868MPD2    H312743   1.293   1.832  12.789 -0.2125  0.0742 -0.0468
  868MPD2     N12744   1.381   2.106  13.136 -0.2335 -0.4883  0.4245
  868MPD2    H512745   1.285   2.137  13.124 -0.0057 -0.3089 -0.9171
  868MPD2    N112746   1.713   1.800  12.946 -0.0596  0.3611 -0.3963
  868MPD2    H712747   1.737   1.744  12.865  0.6630  0.7307 -0.4310
  869MPD2     C12748   2.580   4.581   1.539 -0.3493 -0.7562  0.2005
  869MPD2    C112749   2.681   4.644   1.597 -0.0807  0.7288 -0.2144
  869MPD2    C212750   2.730   0.041   1.536  0.3843 -0.5238 -0.0684
  869MPD2    C312751   2.677   0.080   1.411  0.1719  0.5890 -0.7788
  869MPD2    C412752   2.569   0.011   1.355  0.5913  0.5209 -0.4343
  869MPD2    C512753   2.513   4.631   1.431  0.3563 -0.4143  0.2840
  869MPD2     H12754   2.808   0.098   1.585 -1.3557  1.3154  0.5700
  869MPD2    H112755   2.516   0.038   1.264  0.2095 -4.7805 -1.7811
  869MPD2    H212756   2.525   4.508   1.598 -0.2157  0.3310  1.6806
  869MPD2    H312757   2.416   4.593   1.400  0.6198  0.1590 -1.2391
  869MPD2     N12758   2.735   0.200   1.350  0.3276  0.0903  0.2533
  869MPD2    H512759   2.698   0.232   1.262  0.9695 -0.7450 -0.3187
  869MPD2    N112760   2.730   4.585   1.714 -0.4063  0.2325 -0.1156
  869MPD2    H712761   2.683   4.501   1.746  2.0600 -0.6158  1.2570
  870MPD2     C12762   2.152   3.389   1.701  0.4221 -0.1123 -0.3419
  870MPD2    C112763   2.191   3.520   1.691  0.7358  0.5690 -0.7328
  870MPD2    C212764   2.185   3.580   1.566  0.3191 -0.0265  0.1748
  870MPD2    C312765   2.113   3.520   1.462  0.0309 -0.2534  0.0128
  870MPD2    C412766   2.098   3.384   1.476 -0.4445 -0.4070 -0.0759
  870MPD2    C512767   2.119   3.321   1.591  0.0878  0.3191 -0.1044
  870MPD2     H12768   2.209   3.685   1.552 -1.7325  0.4463  0.2283
  870MPD2    H112769   2.077   3.321   1.390  1.9833 -0.1488 -0.8593
  870MPD2    H212770   2.154   3.339   1.798 -1.4540  2.0980  0.8250
  870MPD2    H312771   2.105   3.213   1.595 -0.4271  0.4676  2.5217
  870MPD2     N12772   2.076   3.591   1.342 -0.3377  0.5508 -0.4359
  870MPD2    H512773   2.066   3.691   1.355  1.7881  0.6048  0.8188
  870MPD2    N112774   2.234   3.587   1.803  0.2652  0.2286  0.2616
  870MPD2    H712775   2.246   3.532   1.887 -0.0343 -0.2280  0.0086
  871MPD2     C12776   3.343   2.964  16.306 -0.1348  0.4443 -0.1351
  871MPD2    C112777   3.399   2.941  16.435  0.3192 -0.0125  0.2199
  871MPD2    C212778   3.482   2.826  16.457  0.0030  0.5315 -0.7782
  871MPD2    C312779   3.503   2.735  16.356 -0.3918 -0.1751  0.6208
  871MPD2    C412780   3.445   2.764  16.237 -0.5688  0.1062  0.7038
  871MPD2    C512781   3.375   2.877  16.205 -0.0671 -0.2768  0.7531
  871MPD2     H12782   3.534   2.814  16.551  0.1846  1.4061 -0.7704
  871MPD2    H112783   3.469   2.695  16.158 -2.1228  2.1601 -1.5734
  871MPD2    H212784   3.276   3.047  16.284 -0.4058 -0.5900 -3.2176
  871MPD2    H312785   3.342   2.893  16.103  1.2961 -0.4359  0.2873
  871MPD2     N12786   3.585   2.611  16.364  0.1019 -0.0587  0.3988
  871MPD2    H512787   3.582   2.542  16.290 -0.7340  0.3229  0.0801
  871MPD2    N112788   3.372   3.040  16.537  0.1797  0.0949  0.2508
  871MPD2    H712789   3.317   3.120  16.508  1.8186  0.5418 -1.6615
  872MPD2     C12790   0.049   0.652  13.996  0.5260  0.4212 -0.3913
  872MPD2    C112791   4.663   0.745  13.983 -0.5221 -0.3813  0.5044
  872MPD2    C212792   4.537   0.720  14.050  0.6589  0.3221  0.3047
  872MPD2    C312793   4.533   0.626  14.151  0.7337  0.1265  0.1849
  872MPD2    C412794   4.640   0.540  14.169 -0.1469 -0.8875  0.1916
  872MPD2    C512795   0.035   0.547  14.084 -0.0403 -0.1103 -0.2878
  872MPD2     H12796   4.462   0.798  14.041 -0.8222 -1.1328  0.0840
  872MPD2    H112797   4.641   0.464  14.245 -0.4248  0.0760  1.1566
  872MPD2    H212798   0.137   0.652  13.933 -0.3985 -1.9379 -1.6647
  872MPD2    H312799   0.109   0.468  14.084 -0.5204 -0.5650  0.0894
  872MPD2     N12800   4.416   0.609  14.237 -0.1627 -0.2949 -0.3916
  872MPD2    H512801   4.434   0.552  14.319 -0.5005 -0.0915 -0.1778
  872MPD2    N112802   4.679   0.863  13.912  0.3178  0.2813  0.1482
  872MPD2    H712803   4.611   0.938  13.926 -0.9186 -0.8183  0.0654
  873MPD2     C12804   0.673   1.398   1.386  0.4951  0.4420 -0.1819
  873MPD2    C112805   0.804   1.361   1.397  0.6009  0.0098 -0.3979
  873MPD2    C212806   0.850   1.278   1.300 -0.1049 -0.2873  0.1224
  873MPD2    C312807   0.784   1.247   1.180  0.6980  0.3011 -0.5804
  873MPD2    C412808   0.655   1.290   1.165  0.9263 -0.2678  0.3968
  873MPD2    C512809   0.596   1.360   1.272 -0.4585  0.6336 -0.1624
  873MPD2     H12810   0.945   1.229   1.317  0.9410  1.9221  0.7576
  873MPD2    H112811   0.592   1.261   1.081  0.5710  1.6740 -0.0189
  873MPD2    H212812   0.622   1.471   1.448  0.2333  0.8310 -0.8593
  873MPD2    H312813   0.492   1.391   1.266 -1.1046 -0.9465  2.5406
  873MPD2     N12814   0.841   1.158   1.080  0.3944  0.5173  0.4126
  873MPD2    H512815   0.781   1.143   0.999  0.2405  1.2316  0.3950
  873MPD2    N112816   0.876   1.400   1.520  0.3874  0.5037  0.3399
  873MPD2    H712817   0.815   1.432   1.595  0.9787  1.8715  0.2387
  874MPD2     C12818   0.851   0.469  15.920  0.3417 -0.2956  0.5061
  874MPD2    C112819   0.913   0.459  16.044  0.3611  0.3963  0.1249
  874MPD2    C212820   0.987   0.564  16.094 -0.3526  0.1324 -0.3618
  874MPD2    C312821   0.998   0.683  16.027  0.6721  0.0396 -0.4088
  874MPD2    C412822   0.946   0.692  15.903  0.4597  0.0981  0.1866
  874MPD2    C512823   0.870   0.587  15.852 -0.2627  0.1236  0.0325
  874MPD2     H12824   1.032   0.559  16.193 -1.5823 -0.2713  0.1770
  874MPD2    H112825   0.944   0.774  15.833 -1.7894  0.1608  0.3195
  874MPD2    H212826   0.787   0.393  15.877 -1.8251  2.2615 -0.7818
  874MPD2    H312827   0.825   0.605  15.755  1.5178 -1.7970 -1.1671
  874MPD2     N12828   1.055   0.787  16.091 -0.5525 -0.2653 -0.5152
  874MPD2    H512829   1.081   0.771  16.187  1.0572 -0.5639 -0.9965
  874MPD2    N112830   0.891   0.338  16.118  0.0126  0.1404  0.1212
  874MPD2    H712831   0.837   0.263  16.077  0.9395  0.1501 -1.1303
  875MPD2     C12832   1.764   3.881  14.898 -0.1353  0.7419  0.0997
  875MPD2    C112833   1.887   3.920  14.871  0.5474 -0.0607 -0.2100
  875MPD2    C212834   1.951   3.999  14.961 -0.2288  0.0998 -0.4880
  875MPD2    C312835   1.895   4.043  15.076 -0.1634  0.6808 -0.1561
  875MPD2    C412836   1.770   4.006  15.102 -0.2432  0.1125  0.6243
  875MPD2    C512837   1.709   3.912  15.022  0.8632  0.5917 -0.3525
  875MPD2     H12838   2.053   4.029  14.943  0.5027 -1.2712  1.3701
  875MPD2    H112839   1.706   4.042  15.182  2.1184  0.3217  2.4210
  875MPD2    H212840   1.698   3.829  14.829 -1.0712  1.5949  0.3518
  875MPD2    H312841   1.609   3.879  15.045  1.8164 -0.3028  2.4616
  875MPD2     N12842   1.955   4.135  15.166  0.1877 -0.4050 -0.6425
  875MPD2    H512843   1.906   4.149  15.254  1.0214 -0.7156 -0.1299
  875MPD2    N112844   1.952   3.895  14.749  0.4745  0.5454  0.0749
  875MPD2    H712845   2.044   3.934  14.731  0.3176  0.7473 -0.2790
  876MPD2     C12846   0.975   0.192  15.744 -0.1408  0.1340  0.1965
  876MPD2    C112847   1.105   0.244  15.750  0.6222  0.0039  0.1124
  876MPD2    C212848   1.188   0.180  15.843 -0.5368 -0.0598 -0.6817
  876MPD2    C312849   1.145   0.075  15.924 -1.1488 -0.0092  0.7118
  876MPD2    C412850   1.015   0.037  15.922  0.0231  0.1319 -0.3258
  876MPD2    C512851   0.933   0.095  15.830  0.6526  1.0562 -0.6134
  876MPD2     H12852   1.287   0.214  15.870 -0.3222 -2.6896  1.8790
  876MPD2    H112853   0.979   4.667  15.976 -1.0734  1.3746  0.9704
  876MPD2    H212854   0.904   0.235  15.674  0.4730 -3.4075 -2.5846
  876MPD2    H312855   0.829   0.066  15.828  0.7179  0.8285 -0.6536
  876MPD2     N12856   1.239   0.025  16.013  0.6533  1.1999 -0.4529
  876MPD2    H512857   1.338   0.047  16.001  0.8268  0.7464  0.1171
  876MPD2    N112858   1.139   0.362  15.677  0.2223 -0.3328  0.3508
  876MPD2    H712859   1.057   0.405  15.636 -0.4941 -0.1653  1.9267
  877MPD2     C12860   0.912   0.814  15.128  0.1374 -0.2672 -0.2657
  877MPD2    C112861   1.049   0.808  15.138  1.1258  0.2430 -0.2449
  877MPD2    C212862   1.121   0.847  15.028  0.2736  0.2531 -0.5711
  877MPD2    C312863   1.063   0.895  14.911 -0.2365  1.1196  0.0434
  877MPD2    C412864   0.927   0.904  14.903  0.2445 -0.0955  0.3758
  877MPD2    C512865   0.861   0.855  15.013 -0.3670 -0.4669 -0.4515
  877MPD2     H12866   1.229   0.845  15.034  0.3873 -0.5183 -2.8046
  877MPD2    H112867   0.872   0.933  14.814  0.9751  0.4450  0.1031
  877MPD2    H212868   0.850   0.770  15.205  1.2360 -0.9116  0.2529
  877MPD2    H312869   0.754   0.845  15.002 -0.5983  0.6303  0.7589
  877MPD2     N12870   1.133   0.914  14.788  0.1933 -0.0545  0.2723
  877MPD2    H512871   1.082   0.949  14.708  0.7644  1.2432  0.4822
  877MPD2    N112872   1.120   0.776  15.257 -0.1841  0.4020 -0.5154
  877MPD2    H712873   1.221   0.777  15.249 -0.0072 -3.2722  1.4478
  878MPD2     C12874   0.721   4.433  12.776 -0.5695 -0.2238 -0.4076
  878MPD2    C112875   0.735   4.557  12.827  0.2148  0.1437  0.6493
  878MPD2    C212876   0.718   4.573  12.965 -0.2062  0.0166  0.3811
  878MPD2    C312877   0.687   4.465  13.048  0.7124 -0.1204 -0.5515
  878MPD2    C412878   0.673   4.340  12.989  0.1356 -0.4095 -0.1563
  878MPD2    C512879   0.681   4.328  12.854  0.3676 -0.7973 -0.1870
  878MPD2     H12880   0.716   4.669  13.015  1.0063  1.2474 -1.9470
  878MPD2    H112881   0.646   4.251  13.045  1.6543  0.9425  2.7101
  878MPD2    H212882   0.740   4.415  12.671  2.0786  1.5863 -0.2530
  878MPD2    H312883   0.658   4.229  12.816  2.3870 -2.0008  1.7149
  878MPD2     N12884   0.671   4.490  13.183 -0.1418 -0.3318  0.0803
  878MPD2    H512885   0.678   4.587  13.213 -0.8723 -0.6315  1.2245
  878MPD2    N112886   0.780   4.655  12.741  0.0457 -0.3802  0.2400
  878MPD2    H712887   0.781   4.629  12.643 -0.6307 -1.3186  0.4742
  879MPD2     C12888   1.087   1.771  17.054  0.3469 -0.5818 -0.1188
  879MPD2    C112889   1.132   1.663  17.124 -0.1482  0.0276 -0.2365
  879MPD2    C212890   1.084   1.537  17.099 -0.4962 -0.9412 -0.8076
  879MPD2    C312891   0.996   1.509  16.992 -0.2284 -0.5318 -0.2234
  879MPD2    C412892   0.960   1.622  16.915  0.2670  0.1448  0.2482
  879MPD2    C512893   1.012   1.751  16.941 -0.0247  0.6072  0.3457
  879MPD2     H12894   1.112   1.457  17.167 -2.0805 -0.2908  0.6186
  879MPD2    H112895   0.883   1.616  16.839  0.0967 -1.3324  0.5311
  879MPD2    H212896   1.135   1.868  17.059 -0.7793  0.0405 -1.2489
  879MPD2    H312897   0.975   1.830  16.876  0.3149  1.7035  1.4864
  879MPD2     N12898   0.948   1.383  16.953 -0.4755 -0.1350  0.2596
  879MPD2    H512899   0.889   1.384  16.871 -1.8035  1.6194  1.2249
  879MPD2    N112900   1.235   1.689  17.219 -0.0337 -0.5200  0.3628
  879MPD2    H712901   1.267   1.785  17.227 -0.3243 -0.1659 -2.5971
  880MPD2     C12902   3.283   3.494   0.565  0.0346  0.3017 -0.6820
  880MPD2    C112903   3.146   3.488   0.568  0.8526 -0.3958  0.2280
  880MPD2    C212904   3.083   3.366   0.605 -0.5590 -1.0836  0.1171
  880MPD2    C312905   3.164   3.258   0.637 -0.8994 -0.0148  0.4594
  880MPD2    C412906   3.301   3.264   0.621  0.0668  0.8659 -0.5912
  880MPD2    C512907   3.360   3.386   0.602  0.2095  0.5999 -0.1801
  880MPD2     H12908   2.976   3.359   0.596 -0.6511 -1.1279  1.2779
  880MPD2    H112909   3.361   3.179   0.652  0.0092  0.6840 -0.9834
  880MPD2    H212910   3.336   3.587   0.547  1.6585 -0.7387 -1.2910
  880MPD2    H312911   3.467   3.402   0.609  0.1808  0.9420 -0.5091
  880MPD2     N12912   3.113   3.129   0.662 -0.0348 -0.7253  0.7586
  880MPD2    H512913   3.177   3.053   0.681  0.4225 -0.1791  1.4257
  880MPD2    N112914   3.068   3.601   0.532  0.6689 -0.1698 -0.2434
  880MPD2    H712915   3.112   3.693   0.533 -0.3591  0.3527 -1.9396
  881MPD2     C12916   2.946   4.310  17.541  0.1514 -0.3175 -0.0852
  881MPD2    C112917   2.965   4.175  17.531 -0.4063  0.0683  0.3931
  881MPD2    C212918   2.935   4.100  17.640 -0.8077 -0.3371  0.4232
  881MPD2    C312919   2.908   4.160   0.092  0.1945 -0.0103 -0.1355
  881MPD2    C412920   2.894   4.299   0.103 -0.0651  0.6676  0.2251
  881MPD2    C512921   2.928   4.373  17.666  0.3230 -0.0053  0.4813
  881MPD2     H12922   2.927   3.992  17.629 -1.0954 -0.2064 -0.6321
  881MPD2    H112923   2.864   4.353   0.192 -0.2922 -1.7692  1.6396
  881MPD2    H212924   2.992   4.370  17.463 -0.9653  0.7753  0.1078
  881MPD2    H312925   2.925   4.481   0.004  1.1055 -0.0817  1.3905
  881MPD2     N12926   2.882   4.094   0.209  0.2542 -1.1226  0.6314
  881MPD2    H512927   2.831   4.140   0.284  0.2672  0.2180 -0.1863
  881MPD2    N112928   2.972   4.126  17.396  0.4457 -0.2934 -0.2704
  881MPD2    H712929   2.971   4.192  17.320 -1.5094 -0.1470 -0.1168
  882MPD2     C12930   1.290   1.127  14.012  0.2246 -0.2481 -0.4781
  882MPD2    C112931   1.228   1.115  14.131  0.7276  0.3230  0.3606
  882MPD2    C212932   1.092   1.090  14.144  0.1064  0.2346  0.2062
  882MPD2    C312933   1.016   1.070  14.033 -0.4430  0.7723  0.4320
  882MPD2    C412934   1.068   1.085  13.909  0.6576  0.0665 -0.3763
  882MPD2    C512935   1.207   1.111  13.900 -0.1318 -0.0748 -0.1346
  882MPD2     H12936   1.042   1.081  14.240  0.7495  0.9136  0.6021
  882MPD2    H112937   1.006   1.066  13.822 -0.2996  2.2303 -0.1650
  882MPD2    H212938   1.394   1.145  13.986  0.0684  2.1298  0.5335
  882MPD2    H312939   1.241   1.125  13.798 -1.7653  2.0623 -0.4076
  882MPD2     N12940   0.881   1.023  14.047  0.5534  0.1795 -0.4133
  882MPD2    H512941   0.848   1.010  14.142  0.4479 -0.4080 -0.5317
  882MPD2    N112942   1.310   1.123  14.244 -0.2303 -0.1388 -0.5406
  882MPD2    H712943   1.407   1.098  14.231 -0.0262  0.5672 -0.3415
  883MPD2     C12944   3.113   0.721  16.536 -0.2866  0.0471 -0.4198
  883MPD2    C112945   3.188   0.752  16.422 -0.7702 -0.5318  0.4220
  883MPD2    C212946   3.289   0.847  16.431  0.6232  0.3280  0.8214
  883MPD2    C312947   3.324   0.909  16.552  0.4755 -0.2741 -0.1259
  883MPD2    C412948   3.256   0.872  16.660  0.7656  1.1384  0.5810
  883MPD2    C512949   3.148   0.790  16.647 -0.1129 -0.4228  0.4306
  883MPD2     H12950   3.347   0.864  16.341  1.1094 -1.3683  0.8114
  883MPD2    H112951   3.280   0.906  16.760 -1.8781 -0.2336  1.6955
  883MPD2    H212952   3.042   0.639  16.541  0.5846 -0.6436  0.5949
  883MPD2    H312953   3.096   0.780  16.742  0.1381  0.7511  0.6886
  883MPD2     N12954   3.442   0.993  16.559  0.1810 -0.2852  0.1097
  883MPD2    H512955   3.479   1.021  16.468 -1.8268 -1.6144 -1.1214
  883MPD2    N112956   3.173   0.692  16.294 -0.1717  0.1895 -0.4563
  883MPD2    H712957   3.221   0.743  16.220  0.2887  1.9220  1.0398
  884MPD2     C12958   0.399   1.390  15.431 -0.2996 -0.2233  0.1749
  884MPD2    C112959   0.377   1.488  15.339 -0.4242 -0.1087  0.7742
  884MPD2    C212960   0.250   1.543  15.330 -0.7387  0.0182  0.5330
  884MPD2    C312961   0.145   1.490  15.410 -0.5166 -0.5727 -0.0497
  884MPD2    C412962   0.167   1.388  15.497 -0.3493  0.0702  0.0519
  884MPD2    C512963   0.293   1.339  15.501  0.2104 -0.3276  0.4808
  884MPD2     H12964   0.235   1.634  15.273  0.9060 -0.0011  0.0822
  884MPD2    H112965   0.092   1.347  15.564 -1.6979  1.1103 -0.8281
  884MPD2    H212966   0.495   1.339  15.439 -0.4179 -0.3051  1.0021
  884MPD2    H312967   0.313   1.253  15.564 -0.4961 -1.9786 -1.5181
  884MPD2     N12968   0.013   1.547  15.383 -0.2694 -0.1474 -0.5419
  884MPD2    H512969   0.003   1.621  15.315  1.8160  1.9558  1.4257
  884MPD2    N112970   0.474   1.542  15.256 -0.3626 -0.1793 -0.5305
  884MPD2    H712971   0.438   1.614  15.193 -0.9564  1.6053  1.8606
  885MPD2     C12972   3.378   2.054   0.622 -0.3784 -0.4135 -0.2983
  885MPD2    C112973   3.479   1.973   0.569  0.7081  0.1905 -0.2082
  885MPD2    C212974   3.497   1.965   0.429 -0.1484 -0.3770  0.1237
  885MPD2    C312975   3.430   2.052   0.343 -0.2847 -0.4936  0.2101
  885MPD2    C412976   3.338   2.147   0.397 -0.4337  0.0629 -0.1971
  885MPD2    C512977   3.315   2.141   0.533  0.2451  0.5046  0.3158
  885MPD2     H12978   3.567   1.899   0.379 -0.7935  0.4738 -1.9271
  885MPD2    H112979   3.268   2.204   0.337  0.6868  0.9609 -0.6481
  885MPD2    H212980   3.349   2.060   0.726  0.1861 -0.0728 -0.1623
  885MPD2    H312981   3.235   2.206   0.567 -0.7669  0.5396 -2.1439
  885MPD2     N12982   3.423   2.023   0.202 -0.0820  0.0271 -0.2808
  885MPD2    H512983   3.463   1.933   0.175  0.2174 -0.0526  0.4196
  885MPD2    N112984   3.553   1.913   0.670  0.4206 -0.3443  0.5764
  885MPD2    H712985   3.521   1.916   0.767  0.1642  1.1169  0.4431
  886MPD2     C12986   0.109   0.343  15.603 -0.9559 -0.0713 -0.0963
  886MPD2    C112987   0.060   0.323  15.473 -0.7417 -0.6608 -0.2612
  886MPD2    C212988   0.078   0.418  15.371 -0.5159  0.2723 -0.3135
  886MPD2    C312989   0.125   0.541  15.409 -0.5722 -0.0260 -0.2634
  886MPD2    C412990   0.165   0.568  15.538 -0.5640  0.2226 -0.1333
  886MPD2    C512991   0.149   0.471  15.639  0.4853 -0.1198 -0.9528
  886MPD2     H12992   0.043   0.396  15.271 -0.4016 -0.5311 -0.1732
  886MPD2    H112993   0.215   0.660  15.566 -0.0632  0.1677 -0.8296
  886MPD2    H212994   0.097   0.271  15.683 -2.0418 -1.7110 -1.7080
  886MPD2    H312995   0.174   0.492  15.742 -1.4315 -0.8699 -0.3403
  886MPD2     N12996   0.144   0.632  15.303  0.3211  0.0275  0.1805
  886MPD2    H512997   0.193   0.717  15.330 -2.6359  1.7075  0.3014
  886MPD2    N112998   0.011   0.190  15.430 -0.1918 -0.2628 -0.3220
  886MPD2    H712999   4.689   0.183  15.337  1.5282  1.4749 -1.1789
  887MPD2     C13000   0.311   0.260  15.052 -1.1619 -0.4314 -0.6657
  887MPD2    C113001   0.327   0.194  15.174  0.2897 -0.3493  0.1819
  887MPD2    C213002   0.386   0.266  15.280  0.4021  0.6127  0.5646
  887MPD2    C313003   0.425   0.394  15.265 -0.8074  0.7278 -0.3576
  887MPD2    C413004   0.406   0.455  15.140  0.3456  0.0894  0.6698
  887MPD2    C513005   0.360   0.389  15.036  0.4641 -0.5464  0.0008
  887MPD2     H13006   0.409   0.223  15.377 -2.0636 -0.6011  0.6109
  887MPD2    H113007   0.441   0.555  15.117  1.5382  0.3110  3.3899
  887MPD2    H213008   0.277   0.210  14.961 -0.9001  1.0581 -1.5899
  887MPD2    H313009   0.356   0.439  14.940  3.5203 -1.9229 -0.8400
  887MPD2     N13010   0.481   0.461  15.378 -0.2109  0.0813  0.5317
  887MPD2    H513011   0.498   0.407  15.462  3.0035  0.1024 -0.0894
  887MPD2    N113012   0.276   0.067  15.208  0.5512 -0.6811 -0.7173
  887MPD2    H713013   0.284   0.041  15.306  0.5012 -0.0210 -0.5417
  888MPD2     C13014   2.338   0.353  15.006 -0.9040 -0.6917 -0.5453
  888MPD2    C113015   2.274   0.439  15.096  0.5787 -0.0906 -0.0633
  888MPD2    C213016   2.319   0.565  15.117  0.0480 -0.3502 -0.3365
  888MPD2    C313017   2.437   0.617  15.067 -0.3290 -0.1454  0.2972
  888MPD2    C413018   2.509   0.526  14.988 -0.3368 -0.1567  1.0983
  888MPD2    C513019   2.461   0.405  14.959  0.1749  0.6165 -0.6317
  888MPD2     H13020   2.256   0.630  15.178  2.0933  1.2100  0.1187
  888MPD2    H113021   2.610   0.548  14.956 -0.9147  0.1041 -0.5582
  888MPD2    H213022   2.321   0.250  14.978  1.5383 -1.6581  1.5073
  888MPD2    H313023   2.522   0.340  14.898  1.5351  0.9516  0.3523
  888MPD2     N13024   2.472   0.753  15.095  0.0886  0.1081 -0.5750
  888MPD2    H513025   2.412   0.804  15.158  1.5324 -0.5478  1.3293
  888MPD2    N113026   2.148   0.409  15.153 -0.6954 -0.6093  0.6819
  888MPD2    H713027   2.106   0.468  15.223 -0.9586  1.2232 -1.0178
  889MPD2     C13028   1.795   4.046  12.910  0.0091 -0.0349 -0.9830
  889MPD2    C113029   1.789   4.084  13.042 -0.4055 -0.2354 -0.0526
  889MPD2    C213030   1.816   4.218  13.065  0.2976  0.0812  0.2914
  889MPD2    C313031   1.818   4.310  12.971  0.4931 -0.1031  0.1479
  889MPD2    C413032   1.806   4.269  12.840 -0.3332 -0.0513  0.0645
  889MPD2    C513033   1.791   4.135  12.814  0.3802  0.0889  0.1899
  889MPD2     H13034   1.815   4.253  13.168  0.5768  0.4429  0.1692
  889MPD2    H113035   1.807   4.339  12.757  3.2576  0.8693  0.8814
  889MPD2    H213036   1.791   3.942  12.880 -0.2726 -0.3361  0.0768
  889MPD2    H313037   1.779   4.116  12.708 -0.1566 -1.2790  0.4969
  889MPD2     N13038   1.828   4.446  13.009  0.0096 -0.2552  0.5425
  889MPD2    H513039   1.844   4.463  13.108 -0.4348 -1.2542  0.7960
  889MPD2    N113040   1.797   3.993  13.152 -0.2593 -0.6189 -0.3090
  889MPD2    H713041   1.828   4.029  13.242  2.3983  2.3179 -2.4521
  890MPD2     C13042   0.775   1.797  14.711 -0.3594 -0.6722 -0.8589
  890MPD2    C113043   0.900   1.804  14.767 -0.1750 -1.1547  0.1053
  890MPD2    C213044   0.973   1.687  14.789  0.1196 -0.7069  0.6860
  890MPD2    C313045   0.928   1.564  14.759  0.3322  1.0884  0.4202
  890MPD2    C413046   0.795   1.553  14.715 -0.4902  0.3991  0.0528
  890MPD2    C513047   0.723   1.667  14.688 -0.5749 -0.0404  0.7886
  890MPD2     H13048   1.071   1.697  14.833 -0.5020  2.4007  1.3271
  890MPD2    H113049   0.749   1.457  14.693  0.5241  0.2092 -1.2644
  890MPD2    H213050   0.726   1.888  14.679 -0.7570 -0.6747 -0.2445
  890MPD2    H313051   0.622   1.657  14.651 -1.2269  0.7530  2.3359
  890MPD2     N13052   1.011   1.455  14.773  0.0340 -1.1159 -0.3927
  890MPD2    H513053   1.104   1.479  14.804 -1.4931  1.1424  2.4145
  890MPD2    N113054   0.953   1.932  14.796  0.0242 -0.0994  0.3708
  890MPD2    H713055   0.905   2.017  14.769  2.1255  0.0644 -2.8899
  891MPD2     C13056   3.996   0.252  16.371  0.2910  0.5413  0.4864
  891MPD2    C113057   3.911   0.229  16.483 -0.2342 -0.3605 -0.7215
  891MPD2    C213058   3.963   0.182  16.600 -0.0307 -0.3105  0.4606
  891MPD2    C313059   4.098   0.154  16.611 -0.3872  0.1522 -0.4243
  891MPD2    C413060   4.179   0.176  16.501 -0.3844  0.3799  0.5242
  891MPD2    C513061   4.128   0.227  16.383  0.2518 -0.3021 -1.1026
  891MPD2     H13062   3.883   0.178  16.673  0.2484  0.2523  0.7917
  891MPD2    H113063   4.286   0.158  16.499 -0.0973  2.2763 -1.1080
  891MPD2    H213064   3.955   0.292  16.279 -0.0530 -0.8047  0.0450
  891MPD2    H313065   4.198   0.240  16.301  1.8920  0.0820  0.3486
  891MPD2     N13066   4.152   0.119  16.738  0.1972 -0.4666  0.2945
  891MPD2    H513067   4.091   0.121  16.819  2.1297  0.0122  1.7645
  891MPD2    N113068   3.775   0.252  16.462 -0.3979  0.7406  0.0549
  891MPD2    H713069   3.749   0.287  16.371 -3.2119 -1.6742 -0.0645
  892MPD2     C13070   0.449   1.129  14.756 -0.7144  0.4087  0.0599
  892MPD2    C113071   0.352   1.133  14.655  1.0611 -0.7199 -0.7841
  892MPD2    C213072   0.368   1.067  14.537  0.2164 -0.0840 -0.2969
  892MPD2    C313073   0.486   1.008  14.505  0.1428  0.5671  0.1428
  892MPD2    C413074   0.578   1.012  14.606 -0.7221  0.4266  0.5346
  892MPD2    C513075   0.567   1.078  14.724  1.1033  0.7531  0.2353
  892MPD2     H13076   0.281   1.064  14.471 -0.2329 -0.1757  0.3041
  892MPD2    H113077   0.673   0.967  14.580 -0.9316  0.6879 -0.6882
  892MPD2    H213078   0.450   1.188  14.847 -1.5228 -0.0373  0.3547
  892MPD2    H313079   0.656   1.076  14.787 -0.3315  0.5563  2.2531
  892MPD2     N13080   0.533   0.955  14.381  0.0416  0.5370 -0.2546
  892MPD2    H513081   0.628   0.919  14.374 -0.2395  0.0441 -1.5354
  892MPD2    N113082   0.219   1.179  14.685  0.7711 -0.7427 -0.0563
  892MPD2    H713083   0.160   1.166  14.603 -1.2347  1.1198  1.0799
  893MPD2     C13084   1.835   3.413   1.775  0.5496  0.2489  0.0510
  893MPD2    C113085   1.844   3.526   1.857 -0.3493 -0.3436  0.3219
  893MPD2    C213086   1.809   3.510   1.990 -0.4300 -0.1492  0.4760
  893MPD2    C313087   1.748   3.395   2.048  0.2300 -0.0933  0.1172
  893MPD2    C413088   1.738   3.293   1.958 -0.0269  0.9730 -0.2408
  893MPD2    C513089   1.776   3.298   1.822  0.2035  0.2770  0.4845
  893MPD2     H13090   1.833   3.593   2.056  1.6791 -1.5389  1.4860
  893MPD2    H113091   1.668   3.214   1.985  0.0972  1.2282  0.8131
  893MPD2    H213092   1.845   3.427   1.668  0.9857 -0.8437 -0.0550
  893MPD2    H313093   1.774   3.212   1.755 -0.3317  0.3756  0.3681
  893MPD2     N13094   1.692   3.383   2.174  0.0816  0.9053 -0.4295
  893MPD2    H513095   1.643   3.296   2.194  0.6373  0.5159 -0.7849
  893MPD2    N113096   1.881   3.650   1.802 -0.2407 -0.4837 -0.2306
  893MPD2    H713097   1.907   3.652   1.704 -2.0110  0.3167 -0.6875
  894MPD2     C13098   0.001   2.319   0.821  0.9412  0.4222 -0.0353
  894MPD2    C113099   0.062   2.291   0.937  0.0675  0.4685  0.0118
  894MPD2    C213100   0.179   2.362   0.969  0.1349 -0.7969 -0.1894
  894MPD2    C313101   0.240   2.452   0.886  0.2588  0.2368  0.0251
  894MPD2    C413102   0.181   2.476   0.766 -0.9209 -0.3843  0.3670
  894MPD2    C513103   0.073   2.399   0.728  0.2632  0.1062  0.2140
  894MPD2     H13104   0.233   2.342   1.061 -0.4689  3.0309  0.9977
  894MPD2    H113105   0.204   2.552   0.692 -1.5347  0.7790  1.3711
  894MPD2    H213106   4.626   2.268   0.793  2.8369 -3.1757  0.2347
  894MPD2    H313107   0.035   2.418   0.628 -2.5056 -3.4842  0.5960
  894MPD2     N13108   0.364   2.514   0.932  0.8541  0.3999  0.2221
  894MPD2    H513109   0.379   2.511   1.033  1.3486 -0.5075  0.1185
  894MPD2    N113110   0.016   2.193   1.028 -0.1000  0.1233 -0.1023
  894MPD2    H713111   0.068   2.181   1.114 -1.3347 -1.6962  0.3883
  895MPD2     C13112   4.402   0.453  13.812  0.1372 -0.0375 -0.3809
  895MPD2    C113113   4.322   0.430  13.698  0.6050  0.1962 -0.0258
  895MPD2    C213114   4.378   0.372  13.587 -0.0404  0.2598 -0.4870
  895MPD2    C313115   4.512   0.337  13.585  0.2472  0.7330  0.5232
  895MPD2    C413116   4.594   0.345  13.699 -0.1481 -0.2242  0.3191
  895MPD2    C513117   4.536   0.400  13.810 -1.0842 -0.9298  0.2394
  895MPD2     H13118   4.314   0.350  13.502  0.2797  0.8801 -0.8908
  895MPD2    H113119   4.694   0.303  13.701 -1.1291 -2.4432  2.1438
  895MPD2    H213120   4.360   0.487  13.906  0.3475 -0.9778  0.0520
  895MPD2    H313121   4.579   0.387  13.908  0.3752  1.1524 -0.1428
  895MPD2     N13122   4.552   0.270  13.471 -0.0058 -0.1353  0.3961
  895MPD2    H513123   4.488   0.282  13.394  1.9831 -0.6953 -1.3286
  895MPD2    N113124   4.191   0.475  13.684 -0.0597  0.6105  0.3209
  895MPD2    H713125   4.148   0.481  13.593 -2.1356  1.8741  1.3804
  896MPD2     C13126   1.390   2.830   2.469  0.1600  0.1715  0.8681
  896MPD2    C113127   1.449   2.805   2.341  0.6625 -0.1766 -1.0498
  896MPD2    C213128   1.365   2.755   2.240 -0.0905 -1.4715 -0.2329
  896MPD2    C313129   1.222   2.752   2.256 -0.2841  0.4866  0.0069
  896MPD2    C413130   1.169   2.788   2.378  0.0638 -0.3201  0.0506
  896MPD2    C513131   1.253   2.816   2.484  0.9110  0.3739  0.1662
  896MPD2     H13132   1.399   2.728   2.141  0.3858 -2.5862  0.2418
  896MPD2    H113133   1.064   2.784   2.406 -0.1558 -0.1842 -0.7431
  896MPD2    H213134   1.461   2.855   2.547  0.9654  0.5690  0.0028
  896MPD2    H313135   1.204   2.835   2.578  0.2746 -0.5387  0.0196
  896MPD2     N13136   1.150   2.706   2.141  0.2287 -0.2159  0.6334
  896MPD2    H513137   1.201   2.678   2.058 -0.3720  0.2215  0.1201
  896MPD2    N113138   1.591   2.819   2.336  0.3925 -0.8854  0.2103
  896MPD2    H713139   1.643   2.845   2.419 -1.1579 -0.8166  1.1497
  897MPD2     C13140   2.190   0.203  10.945 -0.0718  0.0474  0.7088
  897MPD2    C113141   2.079   0.141  10.895  0.9459 -0.0303 -0.1635
  897MPD2    C213142   1.979   0.105  10.986 -0.2098 -0.2515 -0.0469
  897MPD2    C313143   1.984   0.142  11.117 -0.2020  0.5877 -0.1196
  897MPD2    C413144   2.105   0.202  11.164 -0.8601 -0.2054  0.6285
  897MPD2    C513145   2.210   0.235  11.078 -0.7197  0.2943  0.8013
  897MPD2     H13146   1.889   0.051  10.958  0.6105 -2.6677  2.0450
  897MPD2    H113147   2.123   0.236  11.265  2.9112  0.3109 -0.2106
  897MPD2    H213148   2.274   0.225  10.880 -0.5892  3.7707  1.2793
  897MPD2    H313149   2.301   0.282  11.113  0.5773 -1.6844  0.0456
  897MPD2     N13150   1.876   0.117  11.198  0.0446  0.3533  0.2552
  897MPD2    H513151   1.800   0.070  11.150 -0.1492  0.8620  0.0585
  897MPD2    N113152   2.078   0.123  10.756 -0.3069  0.0880 -0.6676
  897MPD2    H713153   2.158   0.160  10.706  0.4139  1.0242  1.1730
  898MPD2     C13154   4.363   1.598  17.330 -0.1679  0.0298 -0.4688
  898MPD2    C113155   4.466   1.599  17.237  0.5648  0.5008 -0.6645
  898MPD2    C213156   4.468   1.713  17.154 -0.1005 -0.1836 -0.2298
  898MPD2    C313157   4.375   1.817  17.163 -0.6230  0.0914  0.4207
  898MPD2    C413158   4.283   1.814  17.263 -0.0629 -0.4334 -0.4508
  898MPD2    C513159   4.276   1.701  17.339 -0.2431  0.7414  0.0365
  898MPD2     H13160   4.543   1.712  17.075  1.6184 -0.0997  1.3996
  898MPD2    H113161   4.205   1.889  17.269  0.6098  0.1720  0.7695
  898MPD2    H213162   4.355   1.514  17.398 -3.7731  0.5375 -0.2883
  898MPD2    H313163   4.205   1.699  17.421 -0.5251  0.1872 -0.2158
  898MPD2     N13164   4.388   1.929  17.080 -0.3242 -0.1130  0.2768
  898MPD2    H513165   4.475   1.949  17.033 -0.7965  1.3924  0.0505
  898MPD2    N113166   4.563   1.497  17.229 -0.1407 -0.6422 -0.1642
  898MPD2    H713167   4.636   1.502  17.158  1.3025  1.1504  1.4416
  899MPD2     C13168   0.896   1.363  17.335  0.0123 -0.1315  0.1336
  899MPD2    C113169   0.923   1.463  17.423 -0.3139  0.0945  0.5344
  899MPD2    C213170   0.919   1.432  17.558  0.0852  0.2664 -0.7208
  899MPD2    C313171   0.888   1.305  17.604 -0.7408  0.7560 -0.2009
  899MPD2    C413172   0.873   1.206  17.517  0.1212  0.2371 -0.4312
  899MPD2    C513173   0.879   1.232  17.380  0.8142 -0.0045 -0.1679
  899MPD2     H13174   0.925   1.513  17.629 -0.9246  0.6910 -1.1271
  899MPD2    H113175   0.861   1.102  17.545 -3.5181  1.1581  1.4089
  899MPD2    H213176   0.886   1.390  17.231  0.4141  1.0036  0.3881
  899MPD2    H313177   0.853   1.150  17.315  2.4517  0.7214 -1.7453
  899MPD2     N13178   0.857   1.278   0.067  0.1795  0.2968 -0.0368
  899MPD2    H513179   0.803   1.194   0.085  0.7551 -0.3318 -1.2260
  899MPD2    N113180   0.945   1.598  17.381  0.5120 -0.3294 -0.1078
  899MPD2    H713181   0.933   1.611  17.281  0.6749 -2.4835 -0.4129
  900MPD2     C13182   0.215   2.825  12.667  0.3742  0.6610 -0.2578
  900MPD2    C113183   0.155   2.727  12.598 -0.3701  0.3450 -0.0913
  900MPD2    C213184   0.041   2.750  12.515  0.6654 -0.3350 -0.3753
  900MPD2    C313185   4.708   2.874  12.503  0.2974  0.0660  0.6313
  900MPD2    C413186   0.053   2.978  12.564  0.3266 -0.4005  0.0543
  900MPD2    C513187   0.164   2.952  12.642  0.3404  0.0289 -0.5348
  900MPD2     H13188   4.709   2.674  12.456 -2.5830  0.8037  0.8377
  900MPD2    H113189   0.017   3.080  12.563  0.9108 -0.2008 -0.5348
  900MPD2    H213190   0.293   2.802  12.739 -0.5343  1.4562  1.0032
  900MPD2    H313191   0.219   3.027  12.698  0.8899 -1.3344  0.7774
  900MPD2     N13192   4.591   2.898  12.434  0.0431 -0.2908 -0.6029
  900MPD2    H513193   4.547   2.813  12.399  1.3621 -1.8786  1.6132
  900MPD2    N113194   0.197   2.593  12.623 -0.6985  0.3099 -0.0839
  900MPD2    H713195   0.240   2.568  12.711 -0.2780  0.0579 -0.3587
  901MPD2     C13196   0.649   1.794  12.982 -0.2238  0.0399  0.2270
  901MPD2    C113197   0.599   1.774  12.861  0.5231 -0.5751  0.1605
  901MPD2    C213198   0.541   1.879  12.792 -0.8426  0.1161 -0.1549
  901MPD2    C313199   0.550   2.007  12.842 -0.8696 -0.5384 -0.7244
  901MPD2    C413200   0.588   2.030  12.975 -0.7541  0.5319 -0.1780
  901MPD2    C513201   0.644   1.920  13.041  0.3805  0.5057 -0.5727
  901MPD2     H13202   0.498   1.872  12.693  1.5227 -3.8845 -0.8765
  901MPD2    H113203   0.586   2.130  13.017  1.9933  0.7518 -0.5404
  901MPD2    H213204   0.695   1.714  13.039 -1.5848 -1.0986 -0.2706
  901MPD2    H313205   0.685   1.935  13.140  0.2127  0.5253 -0.5054
  901MPD2     N13206   0.498   2.106  12.757 -0.7045  0.6924 -0.1509
  901MPD2    H513207   0.470   2.080  12.663  0.5032  1.4270 -0.7071
  901MPD2    N113208   0.606   1.639  12.806 -0.1290  0.2746  0.1412
  901MPD2    H713209   0.641   1.570  12.872 -0.4541 -0.6582 -0.6626
  902MPD2     C13210   4.348   0.540  12.844 -0.0269  0.6583 -0.4446
  902MPD2    C113211   4.329   0.672  12.825  0.0192  0.6818  0.3175
  902MPD2    C213212   4.320   0.721  12.698  0.2920 -0.3021 -0.1869
  902MPD2    C313213   4.316   0.641  12.588  0.1621 -0.3117  0.1331
  902MPD2    C413214   4.336   0.502  12.604  0.1376 -0.0576 -1.0155
  902MPD2    C513215   4.340   0.455  12.738  0.1985 -0.5724  0.7074
  902MPD2     H13216   4.311   0.828  12.680  2.2971  0.2516  2.1110
  902MPD2    H113217   4.345   0.424  12.530  3.2939  1.7707 -2.5658
  902MPD2    H213218   4.346   0.501  12.945 -0.5248 -0.2310 -0.7984
  902MPD2    H313219   4.345   0.349  12.757  2.3844 -0.3848  1.1550
  902MPD2     N13220   4.295   0.686  12.454  0.4185 -0.8212  0.6418
  902MPD2    H513221   4.276   0.617  12.383  0.3615  0.6543 -0.7819
  902MPD2    N113222   4.318   0.762  12.935  0.6801  0.3794 -0.4552
  902MPD2    H713223   4.337   0.724  13.027 -0.0064 -1.5091 -1.0880
  903MPD2     C13224   3.862   0.815  11.699  0.1989  0.5159  0.0082
  903MPD2    C113225   3.843   0.803  11.835  0.3349 -0.1105  0.3808
  903MPD2    C213226   3.720   0.749  11.874 -0.3096  0.4812  0.8430
  903MPD2    C313227   3.621   0.729  11.778  0.9753 -0.2975 -0.4726
  903MPD2    C413228   3.643   0.752  11.647 -0.0903  0.6581 -0.1109
  903MPD2    C513229   3.766   0.796  11.599 -0.2673 -0.2853 -0.7319
  903MPD2     H13230   3.707   0.716  11.977  1.7225 -1.8466  0.3671
  903MPD2    H113231   3.574   0.732  11.566 -0.1773  0.7008 -0.0461
  903MPD2    H213232   3.951   0.852  11.650 -1.1349  2.3004 -1.0961
  903MPD2    H313233   3.790   0.819  11.496  0.1758  2.2614 -0.0497
  903MPD2     N13234   3.495   0.694  11.829  0.1443 -0.1348 -0.0836
  903MPD2    H513235   3.493   0.677  11.929 -1.1638  2.4216  0.3106
  903MPD2    N113236   3.937   0.865  11.917  0.0080  0.2209  0.0131
  903MPD2    H713237   4.015   0.915  11.875 -1.2693  0.8897 -1.5703
  904MPD2     C13238   3.819   4.322  13.740  0.3143 -0.3526  0.5075
  904MPD2    C113239   3.895   4.439  13.725 -0.8749  0.2202  0.3998
  904MPD2    C213240   4.028   4.428  13.755 -0.8759  0.6480 -0.0172
  904MPD2    C313241   4.081   4.302  13.781 -0.3076 -0.5684 -0.1506
  904MPD2    C413242   4.006   4.187  13.786 -0.6253 -0.0922 -0.0408
  904MPD2    C513243   3.871   4.198  13.771 -0.7560  0.3490 -1.0432
  904MPD2     H13244   4.100   4.507  13.737  0.6137 -0.9310 -1.0377
  904MPD2    H113245   4.048   4.093  13.821  1.1762  0.7579  0.1249
  904MPD2    H213246   3.711   4.327  13.729  0.3871  0.9274  0.3947
  904MPD2    H313247   3.809   4.112  13.794  0.0287  0.3564  1.1387
  904MPD2     N13248   4.218   4.301  13.799  0.0768  0.2576 -1.1926
  904MPD2    H513249   4.260   4.394  13.796 -1.6947  1.1034  0.1045
  904MPD2    N113250   3.847   4.564  13.671  0.3306 -0.5887  0.2386
  904MPD2    H713251   3.919   4.635  13.657 -1.4794  0.9451 -1.4547
  905MPD2     C13252   3.901   0.216  13.048  0.3655  0.5696 -0.2059
  905MPD2    C113253   3.968   0.231  13.171  0.1173  0.2363  0.0713
  905MPD2    C213254   4.105   0.234  13.168 -0.4404 -0.0871  0.6209
  905MPD2    C313255   4.169   0.227  13.043  0.0884 -0.2221  0.7525
  905MPD2    C413256   4.103   0.203  12.927 -0.6101 -0.2881 -0.4487
  905MPD2    C513257   3.967   0.198  12.932  0.1443 -1.3516 -0.2415
  905MPD2     H13258   4.163   0.236  13.260  0.6412 -0.5448 -0.0496
  905MPD2    H113259   4.158   0.187  12.834 -2.5585  0.7186 -1.7663
  905MPD2    H213260   3.793   0.211  13.042  0.4606 -0.7542 -0.9192
  905MPD2    H313261   3.916   0.194  12.836 -0.4745  2.0971 -0.0688
  905MPD2     N13262   4.307   0.223  13.036  0.2432  0.3551  0.4414
  905MPD2    H513263   4.352   0.185  12.954  2.9455  0.1089  2.0594
  905MPD2    N113264   3.897   0.223  13.297 -0.3441 -0.6802 -0.0795
  905MPD2    H713265   3.809   0.173  13.288 -0.2148 -0.7199 -1.1467
  906MPD2     C13266   0.775   3.900  11.537  0.0429 -0.6628  0.1260
  906MPD2    C113267   0.687   3.903  11.434 -0.0674  0.7985 -0.1104
  906MPD2    C213268   0.600   3.796  11.424  0.0271  0.0812 -0.7736
  906MPD2    C313269   0.588   3.700  11.526 -0.1946 -0.0771 -0.6394
  906MPD2    C413270   0.679   3.696  11.630  0.3300  0.6879 -0.2933
  906MPD2    C513271   0.768   3.796  11.629  0.5430 -0.1695  0.2675
  906MPD2     H13272   0.545   3.792  11.331 -2.1938  1.0518  0.4826
  906MPD2    H113273   0.676   3.624  11.711 -3.8805  0.6710 -0.4523
  906MPD2    H213274   0.866   3.960  11.535  0.6479 -1.5187  2.0106
  906MPD2    H313275   0.842   3.793  11.708  1.4377 -1.4512 -0.6084
  906MPD2     N13276   0.486   3.609  11.523 -0.1190  0.3759  0.3405
  906MPD2    H513277   0.476   3.554  11.607 -0.3501 -0.9805 -0.5815
  906MPD2    N113278   0.713   3.983  11.328  0.1659 -0.2369  0.0858
  906MPD2    H713279   0.664   3.968  11.240  1.8605 -0.1887 -0.8671
  907MPD2     C13280   0.138   3.642  15.613 -0.3284 -0.2415 -0.1266
  907MPD2    C113281   0.200   3.527  15.568  0.2111  0.3641 -0.0222
  907MPD2    C213282   0.303   3.473  15.635 -0.6279  0.2131  0.5537
  907MPD2    C313283   0.355   3.533  15.746  0.0758 -0.5565 -0.2869
  907MPD2    C413284   0.312   3.655  15.782  0.1237 -1.1141 -0.3681
  907MPD2    C513285   0.198   3.708  15.719  0.9489 -0.1949 -0.5474
  907MPD2     H13286   0.344   3.383  15.590 -0.6896  0.0712  0.7863
  907MPD2    H113287   0.334   3.703  15.876  0.1541  1.7312 -1.8257
  907MPD2    H213288   0.048   3.676  15.563 -0.9990 -0.4314  0.9616
  907MPD2    H313289   0.144   3.793  15.758  1.7993  0.8120 -1.5809
  907MPD2     N13290   0.468   3.471  15.807  0.3954  0.3190 -0.2571
  907MPD2    H513291   0.524   3.399  15.762  1.9957  0.4054  1.5599
  907MPD2    N113292   0.146   3.450  15.464 -0.6027 -0.4414 -0.3816
  907MPD2    H713293   0.209   3.373  15.440  1.9053  1.5439 -0.1729
  908MPD2     C13294   1.910   4.273   9.960 -0.2321 -0.1423  0.0022
  908MPD2    C113295   2.006   4.262  10.067  0.4915  0.6212 -0.5771
  908MPD2    C213296   2.002   4.368  10.158  0.1750 -0.1009 -0.1590
  908MPD2    C313297   1.927   4.479  10.139 -0.2708  0.7867 -1.4221
  908MPD2    C413298   1.840   4.492  10.030  0.2520  0.0332 -0.5756
  908MPD2    C513299   1.827   4.381   9.944 -0.0824  0.6199 -0.2867
  908MPD2     H13300   2.075   4.364  10.239 -0.7568  0.7524  0.7126
  908MPD2    H113301   1.787   4.583  10.005  1.3431  1.0131  0.6840
  908MPD2    H213302   1.895   4.205   9.877  2.1660 -0.3992 -0.2242
  908MPD2    H313303   1.754   4.391   9.864 -0.3660  1.2348  0.0504
  908MPD2     N13304   1.951   4.586  10.231 -0.7258  0.2398 -0.1869
  908MPD2    H513305   2.017   4.578  10.307 -0.3882  1.2512 -0.3739
  908MPD2    N113306   2.101   4.166  10.077 -0.5250  0.4891 -0.7415
  908MPD2    H713307   2.165   4.177  10.155 -0.6957 -2.7777 -0.1299
  909MPD2     C13308   2.581   2.212  11.816  0.0061  0.2467  0.3130
  909MPD2    C113309   2.481   2.270  11.736 -0.5218  0.0005 -1.1807
  909MPD2    C213310   2.362   2.324  11.791 -0.0785  0.3300  0.3176
  909MPD2    C313311   2.350   2.331  11.935  0.0036 -0.0537 -0.1429
  909MPD2    C413312   2.454   2.268  12.009  0.3721  0.6892  0.2519
  909MPD2    C513313   2.569   2.213  11.952  0.0094  0.1730 -0.3319
  909MPD2     H13314   2.277   2.364  11.736  0.7868 -0.1037 -1.3171
  909MPD2    H113315   2.458   2.277  12.117  1.8032 -1.4952  0.3708
  909MPD2    H213316   2.677   2.178  11.780  0.7884  2.6143  0.1730
  909MPD2    H313317   2.653   2.177  12.011 -0.2670  1.8285  1.0839
  909MPD2     N13318   2.236   2.391  11.992  0.2031  0.2731  0.5925
  909MPD2    H513319   2.170   2.444  11.936 -0.0163  1.1842  1.7015
  909MPD2    N113320   2.478   2.256  11.595 -0.2543 -0.2696 -0.0897
  909MPD2    H713321   2.396   2.296  11.550  0.0547 -0.7478 -1.0595
  910MPD2     C13322   4.208   3.961  15.657 -0.3157 -0.5488 -0.5552
  910MPD2    C113323   4.325   3.941  15.595  0.6824 -0.2612  0.5420
  910MPD2    C213324   4.350   4.000  15.475 -0.3220  0.1827  0.6953
  910MPD2    C313325   4.253   4.062  15.406 -0.3404 -0.5194  0.0845
  910MPD2    C413326   4.129   4.070  15.463  0.0970  0.1474  0.2866
  910MPD2    C513327   4.108   4.028  15.594 -0.0600 -0.2979 -0.5924
  910MPD2     H13328   4.450   4.003  15.434 -0.4129  0.0716  0.4656
  910MPD2    H113329   4.038   4.107  15.419  0.7373  0.2464 -0.9642
  910MPD2    H213330   4.181   3.913  15.750  0.1304 -0.5425 -0.4202
  910MPD2    H313331   4.007   4.045  15.630 -0.5337  0.6483 -2.3779
  910MPD2     N13332   4.260   4.090  15.266 -0.1494 -0.6302 -0.4826
  910MPD2    H513333   4.174   4.129  15.230 -0.6859 -2.1607 -0.8465
  910MPD2    N113334   4.431   3.861  15.647  0.0057  0.3056 -0.3341
  910MPD2    H713335   4.515   3.847  15.592 -1.3366 -1.5837 -1.9009
  911MPD2     C13336   2.209   4.586  15.829  0.4464  0.8742 -0.3315
  911MPD2    C113337   2.235   4.620  15.962 -0.2522 -0.4753  1.2319
  911MPD2    C213338   2.151   4.709  16.018 -0.0132 -0.6939  0.2261
  911MPD2    C313339   2.036   0.038  15.958  0.7838 -0.8283 -0.8728
  911MPD2    C413340   2.015   0.002  15.827  0.2079  0.1843 -0.5488
  911MPD2    C513341   2.103   4.637  15.762 -0.2824  0.7458 -0.7005
  911MPD2     H13342   2.168   0.014  16.123  0.5214 -1.3470  0.2804
  911MPD2    H113343   1.932   0.050  15.776 -1.2463 -1.8769 -0.1075
  911MPD2    H213344   2.278   4.529  15.768  1.3419  1.8852 -0.2556
  911MPD2    H313345   2.082   4.619  15.657  0.5627  0.0543 -0.7568
  911MPD2     N13346   1.936   0.118  16.015  0.0707 -0.6471  0.8399
  911MPD2    H513347   1.853   0.133  15.958  0.5915 -0.9625  0.0018
  911MPD2    N113348   2.333   4.548  16.034  0.0901 -0.0023  0.1163
  911MPD2    H713349   2.379   4.473  15.983 -0.0353  1.5543 -2.2907
  912MPD2     C13350   1.720   0.036  15.591  0.2065  0.2688  0.4562
  912MPD2    C113351   1.687   0.031  15.720  0.9772  0.0555  0.2423
  912MPD2    C213352   1.685   4.627  15.795 -0.4451 -0.0377  0.3766
  912MPD2    C313353   1.744   4.521  15.734  0.2170  0.8948 -0.3956
  912MPD2    C413354   1.766   4.521  15.595 -0.8842  0.0363  1.1399
  912MPD2    C513355   1.758   4.640  15.528  0.8438 -0.1123 -0.6597
  912MPD2     H13356   1.671   4.638  15.902 -1.2752  2.1158  0.0427
  912MPD2    H113357   1.798   4.428  15.548  0.3071  0.1902  1.6471
  912MPD2    H213358   1.704   0.125  15.532  1.6294  1.6534  2.1529
  912MPD2    H313359   1.756   4.644  15.420  2.5761 -0.6690 -0.7084
  912MPD2     N13360   1.797   4.428  15.816  0.0646  0.0301  0.4000
  912MPD2    H513361   1.792   4.445  15.916 -2.2915 -0.6488  0.3988
  912MPD2    N113362   1.645   0.149  15.782  0.1428 -0.4452  0.3828
  912MPD2    H713363   1.657   0.235  15.730  1.4587 -1.7607 -1.4888
  913MPD2     C13364   1.865   1.094   9.430  0.1632 -0.5026  0.3661
  913MPD2    C113365   1.993   1.091   9.378  0.4383 -0.0555  0.0926
  913MPD2    C213366   2.032   1.182   9.281  0.2181  0.8969  0.7366
  913MPD2    C313367   1.933   1.268   9.223  0.3591  0.0901  0.2111
  913MPD2    C413368   1.803   1.254   9.265 -0.1098 -0.5375  0.5758
  913MPD2    C513369   1.777   1.171   9.366  0.2204  0.6897 -0.1444
  913MPD2     H13370   2.138   1.198   9.266 -0.4153  1.5936 -3.0116
  913MPD2    H113371   1.727   1.322   9.230  1.1487  1.7458  2.2624
  913MPD2    H213372   1.818   1.041   9.512 -0.6664  1.0881  0.9190
  913MPD2    H313373   1.680   1.162   9.414 -0.3139 -2.4418 -1.8211
  913MPD2     N13374   1.964   1.358   9.121 -0.5169  0.1552  0.3097
  913MPD2    H513375   1.886   1.403   9.074 -0.7253 -1.9938 -1.4045
  913MPD2    N113376   2.085   1.001   9.437 -0.0841 -0.1698  0.2600
  913MPD2    H713377   2.042   0.933   9.499 -1.0425 -0.4202 -0.6827
  914MPD2     C13378   0.063   1.261  12.067 -0.3074 -0.4949  0.3590
  914MPD2    C113379   0.103   1.389  12.093 -0.6279  0.6257  1.0578
  914MPD2    C213380   0.208   1.406  12.177  0.2941 -0.2157 -0.7265
  914MPD2    C313381   0.266   1.298  12.243  0.0947  0.1260  0.3752
  914MPD2    C413382   0.241   1.168  12.191 -0.3468 -0.0527  0.0077
  914MPD2    C513383   0.131   1.148  12.113  0.5781  0.5729  0.5091
  914MPD2     H13384   0.240   1.506  12.205  0.2424 -0.4988  0.3478
  914MPD2    H113385   0.292   1.077  12.220  1.2500  0.4158 -1.2843
  914MPD2    H213386   4.702   1.250  11.993  1.2931  1.9207 -1.6864
  914MPD2    H313387   0.097   1.050  12.083  1.0069  0.5913 -0.0431
  914MPD2     N13388   0.360   1.313  12.350  0.1364  0.3924 -0.1005
  914MPD2    H513389   0.366   1.408  12.384  3.0689 -0.1854  0.9994
  914MPD2    N113390   0.024   1.496  12.047 -0.5377 -0.4192 -0.3317
  914MPD2    H713391   4.657   1.473  11.995 -0.2555  1.2557 -1.5371
  915MPD2     C13392   3.476   1.358  15.912  0.1035  0.7512 -0.1036
  915MPD2    C113393   3.393   1.446  15.845 -0.1833 -0.8331  0.0586
  915MPD2    C213394   3.323   1.537  15.917  0.4317  0.4516 -0.0518
  915MPD2    C313395   3.332   1.540  16.052 -0.0838  0.4667 -0.7772
  915MPD2    C413396   3.423   1.457  16.108  0.3001  0.8862 -0.3687
  915MPD2    C513397   3.505   1.370  16.042 -0.4885  0.1030  0.2243
  915MPD2     H13398   3.258   1.613  15.876  1.5824  1.3867 -0.1340
  915MPD2    H113399   3.433   1.461  16.216 -0.1265 -0.7369 -0.2829
  915MPD2    H213400   3.524   1.290  15.843  0.4830  1.3251 -0.4067
  915MPD2    H313401   3.568   1.302  16.098 -1.6854  0.5655  2.1429
  915MPD2     N13402   3.257   1.636  16.131 -0.3217  0.9419  0.7544
  915MPD2    H513403   3.181   1.670  16.073 -0.3345 -0.5510 -0.1172
  915MPD2    N113404   3.391   1.436  15.706  0.0956 -0.0315  0.0486
  915MPD2    H713405   3.445   1.363  15.660  0.7254 -0.7554  1.9439
  916MPD2     C13406   1.482   4.304  15.724 -0.3371  0.1794 -0.5531
  916MPD2    C113407   1.518   4.253  15.842 -0.2722  0.5101  0.6643
  916MPD2    C213408   1.581   4.127  15.851  0.0835  1.3110  0.2055
  916MPD2    C313409   1.609   4.058  15.734  0.2609 -0.4677 -0.5326
  916MPD2    C413410   1.559   4.106  15.617  0.0699  0.2839 -0.9239
  916MPD2    C513411   1.495   4.234  15.609 -0.3906 -0.9402 -0.2944
  916MPD2     H13412   1.613   4.093  15.949 -3.4797  0.9088  1.2328
  916MPD2    H113413   1.563   4.054  15.522 -1.5956 -0.9239 -0.3158
  916MPD2    H213414   1.434   4.401  15.711 -2.5818 -0.9881 -0.9281
  916MPD2    H313415   1.447   4.271  15.519 -1.2163 -0.1493  0.4598
  916MPD2     N13416   1.683   3.938  15.747  0.0138 -0.2912  0.5975
  916MPD2    H513417   1.711   3.908  15.839 -0.3569 -0.3712  0.6851
  916MPD2    N113418   1.477   4.335  15.950 -0.3511 -0.3754  0.2263
  916MPD2    H713419   1.424   4.419  15.930 -1.9152 -1.5982 -0.7578
  917MPD2     C13420   1.544   1.873  10.638 -0.6059  0.1176 -0.1212
  917MPD2    C113421   1.635   1.881  10.748 -0.3073  0.0099 -0.2102
  917MPD2    C213422   1.761   1.934  10.729  0.0668 -0.1860 -0.4451
  917MPD2    C313423   1.796   1.981  10.602 -0.1426 -0.1907 -0.5076
  917MPD2    C413424   1.708   1.988  10.495 -0.3799 -0.7129  0.3682
  917MPD2    C513425   1.585   1.930  10.520  0.1700  0.1741  0.1577
  917MPD2     H13426   1.835   1.936  10.809  1.6946  2.1494 -1.9753
  917MPD2    H113427   1.724   2.033  10.398 -2.4447  0.3055  0.4991
  917MPD2    H213428   1.441   1.842  10.651 -0.0095 -1.6387  0.2764
  917MPD2    H313429   1.515   1.942  10.439  2.7903  1.7285 -1.8867
  917MPD2     N13430   1.917   2.052  10.569 -0.1633  0.4247  0.0149
  917MPD2    H513431   1.920   2.091  10.475  3.1847 -0.5087 -0.2600
  917MPD2    N113432   1.577   1.855  10.880  0.0309 -0.3610 -0.1470
  917MPD2    H713433   1.483   1.817  10.883  0.5360 -1.6187 -0.2936
  918MPD2     C13434   1.732   2.117  11.883  0.2983 -0.0615 -0.1528
  918MPD2    C113435   1.821   2.068  11.798 -0.4236 -0.4256 -0.0222
  918MPD2    C213436   1.780   2.042  11.665 -0.1777 -0.8379 -0.7911
  918MPD2    C313437   1.650   2.056  11.626  0.2610 -0.4996 -1.3235
  918MPD2    C413438   1.565   2.112  11.714  0.7267 -0.3619 -0.4528
  918MPD2    C513439   1.610   2.140  11.845 -0.1580 -0.1636 -0.4497
  918MPD2     H13440   1.839   1.979  11.601 -0.7230 -0.3230 -1.7974
  918MPD2    H113441   1.459   2.125  11.697  0.9047  0.1096 -1.2200
  918MPD2    H213442   1.752   2.123  11.989  2.2972 -1.6848 -0.4297
  918MPD2    H313443   1.535   2.166  11.918  0.1440  1.1704 -0.5993
  918MPD2     N13444   1.607   2.009  11.499  0.1527  0.2731  0.4179
  918MPD2    H513445   1.678   1.966  11.441  1.1587  0.3416  1.5957
  918MPD2    N113446   1.948   2.037  11.843 -0.4131  0.0774  0.5064
  918MPD2    H713447   2.009   2.002  11.770  0.5256  0.5561  1.0746
  919MPD2     C13448   2.312   1.334  11.646  0.3285  0.2006  0.5934
  919MPD2    C113449   2.262   1.206  11.628 -0.4919 -0.2642  0.2735
  919MPD2    C213450   2.225   1.175  11.491  0.2122 -0.4817  0.5058
  919MPD2    C313451   2.224   1.274  11.391  0.8391 -0.2936 -0.5138
  919MPD2    C413452   2.266   1.398  11.420  0.3419  0.2547  0.5186
  919MPD2    C513453   2.323   1.427  11.543  0.1726  0.2251  0.0639
  919MPD2     H13454   2.194   1.075  11.465 -1.3785 -0.0317  0.6601
  919MPD2    H113455   2.256   1.477  11.346 -1.5691  2.1022  2.7538
  919MPD2    H213456   2.325   1.382  11.742  1.1355  1.0664  0.0479
  919MPD2    H313457   2.352   1.526  11.574 -0.1016  0.8598 -1.7035
  919MPD2     N13458   2.155   1.254  11.272  0.0506 -0.4114  0.0636
  919MPD2    H513459   2.150   1.324  11.199  3.1831 -0.8820 -0.5707
  919MPD2    N113460   2.258   1.112  11.734  0.3045 -0.2158 -0.3268
  919MPD2    H713461   2.215   1.027  11.699 -0.8487 -0.3756  1.4810
  920MPD2     C13462   2.190   1.406  10.299 -0.2704  0.2868 -0.1287
  920MPD2    C113463   2.058   1.363  10.304 -0.3714  0.3876 -0.7987
  920MPD2    C213464   2.011   1.310  10.424 -0.2304  0.6970  0.4022
  920MPD2    C313465   2.085   1.314  10.541  0.3181  0.5063  0.3912
  920MPD2    C413466   2.202   1.381  10.534  0.7095 -0.2507 -0.1681
  920MPD2    C513467   2.251   1.426  10.417 -0.1268  0.0999 -0.4894
  920MPD2     H13468   1.912   1.267  10.417  0.2638  0.0572 -2.4266
  920MPD2    H113469   2.278   1.381  10.612  1.5781 -1.1757 -1.0079
  920MPD2    H213470   2.240   1.430  10.206  0.9071 -0.2174  0.3745
  920MPD2    H313471   2.348   1.474  10.413  0.2610 -0.6611 -0.3467
  920MPD2     N13472   2.035   1.262  10.667  0.0457 -0.0593 -0.3945
  920MPD2    H513473   1.948   1.210  10.665 -0.5254  0.9146 -1.0270
  920MPD2    N113474   1.971   1.372  10.185  1.0389  0.5216  0.1310
  920MPD2    H713475   1.890   1.313  10.179  0.3714  1.4356  0.0830
  921MPD2     C13476   2.905   0.305  16.635  0.4128  0.2298  0.2027
  921MPD2    C113477   2.982   0.198  16.607 -0.1921  0.2371  0.2678
  921MPD2    C213478   2.925   0.076  16.562  0.6770 -0.5269  0.6089
  921MPD2    C313479   2.788   0.076  16.538  0.0275  0.7315  0.1761
  921MPD2    C413480   2.715   0.178  16.589 -0.1931 -0.2585  0.1386
  921MPD2    C513481   2.769   0.294  16.629  0.1218 -0.0230 -0.4717
  921MPD2     H13482   2.991   4.712  16.532  0.0652 -1.4451  1.7803
  921MPD2    H113483   2.607   0.174  16.583 -0.3140  1.3512  1.4088
  921MPD2    H213484   2.953   0.395  16.671 -1.2856  1.3079 -0.2313
  921MPD2    H313485   2.696   0.371  16.653 -0.2850 -0.3612 -0.6302
  921MPD2     N13486   2.720   4.688  16.471  0.3899 -0.4178 -0.4306
  921MPD2    H513487   2.618   4.696  16.470  0.4545 -0.0367 -2.7445
  921MPD2    N113488   3.118   0.218  16.609  0.2037  0.0242  0.2540
  921MPD2    H713489   3.150   0.311  16.631  0.3364 -0.1922  0.9996
  922MPD2     C13490   3.937   2.690  16.916 -0.2847 -0.2528  0.0626
  922MPD2    C113491   3.991   2.710  17.038  0.4116  0.5244  0.0103
  922MPD2    C213492   3.937   2.653  17.150  0.2538  0.4384  0.9625
  922MPD2    C313493   3.824   2.569  17.127  0.2967 -0.3706  0.3308
  922MPD2    C413494   3.780   2.543  17.001 -0.7388  0.3705  0.0164
  922MPD2    C513495   3.825   2.617  16.895  0.1128 -0.0695  0.8982
  922MPD2     H13496   3.985   2.674  17.245  0.9990  0.5911  0.5561
  922MPD2    H113497   3.695   2.480  16.979 -0.7919  0.5858 -0.3934
  922MPD2    H213498   3.975   2.738  16.827  0.0319 -0.5899  0.0178
  922MPD2    H313499   3.780   2.604  16.798  0.5360  1.4656  0.5038
  922MPD2     N13500   3.749   2.515  17.236  0.0116 -0.0001  0.5148
  922MPD2    H513501   3.684   2.442  17.209  0.3222  1.3311 -3.8153
  922MPD2    N113502   4.101   2.797  17.061  1.0351  0.0527  0.6377
  922MPD2    H713503   4.115   2.817  17.159  0.9472 -1.1030  0.8883
  923MPD2     C13504   4.219   4.294   8.676  0.2068 -0.0424 -0.5560
  923MPD2    C113505   4.164   4.215   8.774 -0.2664  0.2032 -0.5138
  923MPD2    C213506   4.205   4.219   8.907 -0.5371  0.7109 -0.4000
  923MPD2    C313507   4.319   4.299   8.928  0.1181 -0.2541 -0.1621
  923MPD2    C413508   4.381   4.368   8.824  0.1254  0.8534 -0.3617
  923MPD2    C513509   4.333   4.368   8.697  0.2440  0.4782  0.0502
  923MPD2     H13510   4.150   4.172   8.989  0.5539 -2.1869 -1.3490
  923MPD2    H113511   4.477   4.416   8.843 -0.6323  3.0201 -1.9244
  923MPD2    H213512   4.192   4.285   8.572 -1.2201 -0.8052 -0.1114
  923MPD2    H313513   4.368   4.435   8.619  1.5739  1.5076  1.5293
  923MPD2     N13514   4.370   4.298   9.056  0.1714  0.1893  0.0725
  923MPD2    H513515   4.460   4.342   9.075 -1.5178  3.0197  1.4732
  923MPD2    N113516   4.056   4.134   8.727  0.5147 -0.9902  0.0430
  923MPD2    H713517   4.030   4.151   8.630  0.8367 -0.1383  0.1099
  924MPD2     C13518   0.857   2.906  15.482  0.3436  0.8878 -0.0110
  924MPD2    C113519   0.847   2.883  15.618 -0.0024  0.1199 -0.7524
  924MPD2    C213520   0.877   2.976  15.716 -0.5041  0.0887  0.2149
  924MPD2    C313521   0.910   3.104  15.670  0.2718  0.0853  0.1295
  924MPD2    C413522   0.923   3.131  15.535  0.4793  0.3809 -0.5616
  924MPD2    C513523   0.908   3.028  15.444 -0.0030 -0.0189  0.0453
  924MPD2     H13524   0.847   2.965  15.820 -1.5990  1.0716  0.0034
  924MPD2    H113525   0.940   3.233  15.505 -0.8336  0.5917 -0.5824
  924MPD2    H213526   0.835   2.840  15.399 -1.6214  2.1622 -0.5130
  924MPD2    H313527   0.927   3.046  15.339 -1.5818  0.8306 -0.1057
  924MPD2     N13528   0.907   3.218  15.757 -0.3716 -0.5946  0.0795
  924MPD2    H513529   0.897   3.307  15.710  0.9063 -0.6495 -0.2879
  924MPD2    N113530   0.782   2.768  15.655  0.9297  0.2865  0.6661
  924MPD2    H713531   0.701   2.750  15.596  1.8270  0.7568 -0.7015
  925MPD2     C13532   4.265   0.578  15.000  0.4387 -0.1609 -0.1102
  925MPD2    C113533   4.174   0.508  14.930 -0.2205  0.4399 -0.4008
  925MPD2    C213534   4.084   0.426  14.994  0.5651 -0.8737 -0.1820
  925MPD2    C313535   4.079   0.423  15.129  1.0825 -0.1529 -0.3318
  925MPD2    C413536   4.162   0.504  15.200  0.4224  0.5210 -0.0618
  925MPD2    C513537   4.254   0.581  15.135  0.0778  0.0586 -0.0906
  925MPD2     H13538   4.024   0.371  14.923 -1.0065  1.6352 -0.7829
  925MPD2    H113539   4.151   0.517  15.307  0.3887 -1.5413  0.2012
  925MPD2    H213540   4.347   0.630  14.952  1.3914 -1.1312  0.4630
  925MPD2    H313541   4.330   0.631  15.193 -0.6946 -1.2331  2.0267
  925MPD2     N13542   3.983   0.353  15.203  0.2240  0.4612  0.6560
  925MPD2    H513543   3.970   0.375  15.301  0.8433 -0.1053  0.8647
  925MPD2    N113544   4.158   0.512  14.790 -0.1384 -0.4031  0.2976
  925MPD2    H713545   4.079   0.458  14.758 -0.9623  1.1485 -0.2708
  926MPD2     C13546   2.867   3.924  12.928  0.2763  0.1387  0.9850
  926MPD2    C113547   2.949   3.976  13.023 -1.2580 -0.1981 -0.3169
  926MPD2    C213548   3.033   4.083  12.994 -0.7480  0.7588  0.1325
  926MPD2    C313549   3.038   4.140  12.868  0.2315  0.1029  0.5406
  926MPD2    C413550   2.951   4.088  12.770  0.0674  0.1686 -0.1090
  926MPD2    C513551   2.864   3.987  12.807  0.2581 -0.1964 -0.3065
  926MPD2     H13552   3.117   4.116  13.055  0.6794  0.1736 -1.4997
  926MPD2    H113553   2.944   4.125  12.669  0.1017 -1.2250 -0.6226
  926MPD2    H213554   2.810   3.833  12.943  0.3673  0.2586  2.0699
  926MPD2    H313555   2.801   3.953  12.726  0.9088  1.7031 -1.6180
  926MPD2     N13556   3.139   4.231  12.819 -0.1017 -0.2375  0.5647
  926MPD2    H513557   3.115   4.265  12.726  0.5375  0.9508  0.8247
  926MPD2    N113558   2.975   3.915  13.150  0.0420 -0.3446  0.8156
  926MPD2    H713559   3.027   3.980  13.208  0.3349 -1.5709  1.9149
  927MPD2     C13560   1.975   1.352   0.319 -0.0262  0.1250 -0.0450
  927MPD2    C113561   1.964   1.490   0.311 -0.1549  0.3158  0.0686
  927MPD2    C213562   2.009   1.553   0.196  0.3580 -0.4217  0.3857
  927MPD2    C313563   2.062   1.475   0.093  0.5394  0.2809 -0.0067
  927MPD2    C413564   2.072   1.337   0.097  0.2695 -0.1027  0.0845
  927MPD2    C513565   2.035   1.282   0.220  0.7606 -0.5959 -0.6086
  927MPD2     H13566   1.992   1.659   0.180  0.8677 -0.0824  2.1348
  927MPD2    H113567   2.105   1.273   0.016  0.7274  0.7554 -0.4044
  927MPD2    H213568   1.943   1.304   0.410 -1.0041 -0.3379 -0.6319
  927MPD2    H313569   2.054   1.176   0.235  0.3884 -0.7062 -0.9278
  927MPD2     N13570   2.096   1.545  17.648 -0.6887 -0.7811 -0.6736
  927MPD2    H513571   2.086   1.646  17.657  0.6029 -1.0001  3.2406
  927MPD2    N113572   1.904   1.559   0.414  0.1415 -0.0873 -0.0241
  927MPD2    H713573   1.905   1.510   0.502  1.4541 -1.7388 -0.9638
  928MPD2     C13574   1.167   0.024   1.417  0.5010  0.3581  0.5287
  928MPD2    C113575   1.081   0.132   1.397  0.5426 -0.7466 -0.3279
  928MPD2    C213576   1.099   0.201   1.274  0.1295  0.1164 -0.2033
  928MPD2    C313577   1.200   0.168   1.182 -0.2509  0.5383  0.1204
  928MPD2    C413578   1.285   0.069   1.218 -0.1023 -0.0170  0.6134
  928MPD2    C513579   1.269   4.709   1.330 -0.4786 -0.8993  0.0790
  928MPD2     H13580   1.036   0.289   1.264  0.9683  0.9863  2.0306
  928MPD2    H113581   1.368   0.034   1.158  0.1124  3.3523 -1.0382
  928MPD2    H213582   1.155   4.677   1.504 -0.4494  0.6601  0.6170
  928MPD2    H313583   1.341   4.629   1.342  0.1030  0.2115  4.1513
  928MPD2     N13584   1.221   0.237   1.059  0.4014  0.5545 -0.0504
  928MPD2    H513585   1.301   0.215   1.000 -0.9715 -0.1940 -1.6359
  928MPD2    N113586   1.001   0.185   1.492  0.3338  0.0309 -0.2482
  928MPD2    H713587   1.001   0.137   1.582 -0.8224 -0.3078 -0.4199
  929MPD2     C13588   4.515   3.936   9.214 -0.0390  0.0519  0.0311
  929MPD2    C113589   4.437   3.914   9.326  0.7833  0.0557  0.1826
  929MPD2    C213590   4.297   3.893   9.309 -0.7439 -0.0932 -0.3353
  929MPD2    C313591   4.243   3.895   9.180 -1.0903 -0.1347  0.1391
  929MPD2    C413592   4.325   3.913   9.067 -0.5602  0.0826 -0.0508
  929MPD2    C513593   4.461   3.925   9.089 -0.0560 -0.2556  0.0138
  929MPD2     H13594   4.230   3.897   9.394 -3.0667  1.2521 -2.2158
  929MPD2    H113595   4.282   3.915   8.967 -0.9377 -2.1215  0.0732
  929MPD2    H213596   4.622   3.938   9.227  0.1742 -1.3000 -1.5582
  929MPD2    H313597   4.524   3.929   9.001 -0.6156  1.2168 -0.3248
  929MPD2     N13598   4.101   3.911   9.160 -0.3344  0.4805  0.5032
  929MPD2    H513599   4.066   3.935   9.068  0.8556  0.2161 -0.0158
  929MPD2    N113600   4.502   3.915   9.453  0.1348  0.1464 -0.3365
  929MPD2    H713601   4.602   3.931   9.449  0.3771 -1.5240 -0.7694
  930MPD2     C13602   1.964   2.192  14.522  0.8134 -0.2999  0.5133
  930MPD2    C113603   2.058   2.120  14.450  0.0218  0.1562 -1.0235
  930MPD2    C213604   2.047   1.982  14.450  0.1359  0.4864  1.2806
  930MPD2    C313605   1.929   1.917  14.484 -0.9448  0.8350  0.4909
  930MPD2    C413606   1.834   1.992  14.537  0.2089  0.3911  0.1095
  930MPD2    C513607   1.853   2.127  14.570  0.4427  0.2986  0.4990
  930MPD2     H13608   2.131   1.925  14.412 -0.0349  1.2693 -0.2544
  930MPD2    H113609   1.744   1.937  14.562 -0.1500  1.2733  0.7412
  930MPD2    H213610   1.985   2.296  14.541 -1.2898  0.1636  0.3263
  930MPD2    H313611   1.779   2.175  14.634 -1.1395  1.2720 -2.0958
  930MPD2     N13612   1.905   1.777  14.460  0.0255 -0.0703 -0.1205
  930MPD2    H513613   1.805   1.756  14.457 -0.2431  1.3299 -1.3874
  930MPD2    N113614   2.164   2.199  14.401 -0.1909  0.1032 -0.1165
  930MPD2    H713615   2.145   2.297  14.382 -1.6629 -0.4479 -1.4517
  931MPD2     C13616   2.310   1.675   0.908 -0.5472 -0.1300  0.1106
  931MPD2    C113617   2.185   1.679   0.962  0.5581  0.6226 -0.3944
  931MPD2    C213618   2.159   1.628   1.091  0.7062  0.8027 -0.0024
  931MPD2    C313619   2.267   1.590   1.172  0.0454 -0.1112 -1.0442
  931MPD2    C413620   2.392   1.598   1.123  0.0500 -0.0042 -0.3214
  931MPD2    C513621   2.410   1.636   0.988 -0.3610 -0.2747  0.1055
  931MPD2     H13622   2.060   1.610   1.132  0.2243  0.5833 -1.2305
  931MPD2    H113623   2.477   1.567   1.182  0.0992 -0.1178 -0.4516
  931MPD2    H213624   2.338   1.708   0.808 -0.9230  0.2995  0.1506
  931MPD2    H313625   2.510   1.630   0.945  0.2494 -1.8522  1.7049
  931MPD2     N13626   2.253   1.513   1.288  0.6871 -0.0095  0.5232
  931MPD2    H513627   2.339   1.486   1.336  1.2957  0.6042 -0.2377
  931MPD2    N113628   2.081   1.724   0.876 -0.0235  0.3525  0.3306
  931MPD2    H713629   2.106   1.752   0.782  1.3666  0.1235  0.6404
  932MPD2     C13630   3.417   0.710  11.003  0.1753 -0.6305 -0.1487
  932MPD2    C113631   3.544   0.689  11.032 -0.6070 -0.0183  0.2119
  932MPD2    C213632   3.565   0.618  11.148  0.0994 -1.1514 -0.2726
  932MPD2    C313633   3.464   0.569  11.225 -0.6300  0.8046  0.2311
  932MPD2    C413634   3.333   0.585  11.187 -0.1106 -0.1067  0.7939
  932MPD2    C513635   3.309   0.660  11.072  0.3755  0.2187  0.2825
  932MPD2     H13636   3.670   0.606  11.171 -0.2468  0.4603  2.1759
  932MPD2    H113637   3.251   0.554  11.251 -2.1556 -0.2488 -1.9451
  932MPD2    H213638   3.387   0.761  10.912 -0.0575  0.2457  0.4181
  932MPD2    H313639   3.206   0.682  11.046  0.0400 -1.6964  0.0032
  932MPD2     N13640   3.485   0.501  11.348  0.0769 -0.3033 -0.1767
  932MPD2    H513641   3.407   0.476  11.407  0.7912  1.6897  1.6329
  932MPD2    N113642   3.652   0.737  10.953  0.6054  0.1275 -0.0994
  932MPD2    H713643   3.745   0.724  10.990  0.5819 -3.9696 -1.3907
  933MPD2     C13644   0.487   0.870   1.867 -0.6336  0.0903  0.7800
  933MPD2    C113645   0.497   0.800   1.752 -0.0535  0.0342  0.2039
  933MPD2    C213646   0.384   0.804   1.667 -0.0617  1.0516 -0.0082
  933MPD2    C313647   0.269   0.867   1.713 -0.6110 -0.4332  0.0284
  933MPD2    C413648   0.267   0.936   1.829  0.2594 -0.8901  0.0236
  933MPD2    C513649   0.382   0.943   1.902 -0.8066 -0.0417 -0.5917
  933MPD2     H13650   0.384   0.733   1.585  0.2325  0.5993  0.3809
  933MPD2    H113651   0.184   0.996   1.863  1.6857  2.3178 -2.1023
  933MPD2    H213652   0.570   0.880   1.936 -0.7364 -2.3933  1.2839
  933MPD2    H313653   0.397   1.008   1.987  0.6052 -2.7763  1.2376
  933MPD2     N13654   0.163   0.875   1.622  0.0384  0.7025  0.4870
  933MPD2    H513655   0.167   0.813   1.542  0.6092  2.2335 -0.6625
  933MPD2    N113656   0.610   0.714   1.738  0.0098  0.1732  0.2807
  933MPD2    H713657   0.674   0.713   1.817 -0.3975 -2.3234  0.5673
  934MPD2     C13658   1.029   2.454   2.437 -0.4927  0.2185 -0.0622
  934MPD2    C113659   1.141   2.406   2.371  0.5216  0.2517 -0.9162
  934MPD2    C213660   1.119   2.337   2.252 -0.3403 -0.3051 -0.4991
  934MPD2    C313661   0.992   2.296   2.215  0.2827  0.0861 -0.1876
  934MPD2    C413662   0.885   2.348   2.284  0.6628 -0.1263 -0.0186
  934MPD2    C513663   0.906   2.431   2.391 -0.0536 -0.2694  0.0681
  934MPD2     H13664   1.209   2.305   2.200 -0.1491 -0.7345  0.0871
  934MPD2    H113665   0.786   2.325   2.246  0.9723 -2.3175  0.5161
  934MPD2    H213666   1.034   2.524   2.520  0.9266  1.9360 -1.5938
  934MPD2    H313667   0.820   2.477   2.437  1.1670  1.8448  0.2193
  934MPD2     N13668   0.959   2.217   2.099  0.7965 -0.4700  0.6917
  934MPD2    H513669   0.865   2.231   2.062  1.9566  0.8575 -1.7244
  934MPD2    N113670   1.273   2.424   2.423 -0.4503 -0.2767 -0.1012
  934MPD2    H713671   1.348   2.400   2.359  1.0132  1.7904  0.8159
  935MPD2     C13672   1.503   1.558   1.609  0.1466  0.4316 -0.4847
  935MPD2    C113673   1.402   1.579   1.515  0.1491 -0.3071  0.0550
  935MPD2    C213674   1.302   1.665   1.551 -0.2263 -0.7601 -0.1509
  935MPD2    C313675   1.305   1.748   1.659 -0.1130 -0.5073  0.2503
  935MPD2    C413676   1.411   1.731   1.749 -0.1471 -1.3835 -0.7690
  935MPD2    C513677   1.504   1.635   1.725 -0.4162  0.4849 -0.6430
  935MPD2     H13678   1.224   1.680   1.477 -0.3854 -0.3866  0.0935
  935MPD2    H113679   1.419   1.793   1.837  0.4041 -1.3882 -0.8133
  935MPD2    H213680   1.583   1.486   1.596 -0.9678 -0.7950 -0.4098
  935MPD2    H313681   1.588   1.636   1.795 -1.0878  2.1314  0.1224
  935MPD2     N13682   1.216   1.847   1.695  1.3717 -0.4973 -0.1999
  935MPD2    H513683   1.240   1.917   1.764  1.8232 -1.5001  0.6542
  935MPD2    N113684   1.398   1.515   1.390 -0.1171  0.0988  0.2888
  935MPD2    H713685   1.317   1.519   1.329 -0.9469 -1.3013  1.3182
  936MPD2     C13686   0.046   3.509  12.499 -0.3849 -0.0546 -0.0489
  936MPD2    C113687   0.157   3.587  12.476  0.0577  0.0571  0.0336
  936MPD2    C213688   0.277   3.524  12.448 -0.6850 -0.3212  0.1517
  936MPD2    C313689   0.293   3.383  12.469 -0.6664  0.1366  0.1459
  936MPD2    C413690   0.182   3.306  12.516  0.5851 -0.1631 -0.1483
  936MPD2    C513691   0.060   3.373  12.530  0.5298  0.1661  0.9348
  936MPD2     H13692   0.362   3.588  12.427 -1.4015  0.2171 -1.0835
  936MPD2    H113693   0.186   3.199  12.532  1.1697  0.1386  1.6898
  936MPD2    H213694   4.666   3.554  12.511  0.0756 -0.0880  3.7702
  936MPD2    H313695   4.694   3.324  12.578  1.5876 -1.3050  1.2480
  936MPD2     N13696   0.425   3.327  12.444 -0.3547  0.2778 -0.5641
  936MPD2    H513697   0.501   3.394  12.438 -1.6177  1.9526  1.9050
  936MPD2    N113698   0.135   3.726  12.448 -0.1796  0.6855  0.4751
  936MPD2    H713699   0.207   3.776  12.397 -0.6588  0.9641  0.0701
  937MPD2     C13700   2.268   0.479  11.583  0.1164  0.0672 -0.0107
  937MPD2    C113701   2.358   0.577  11.616  0.0016 -0.1997 -0.2781
  937MPD2    C213702   2.447   0.614  11.516 -0.7556  0.3596 -0.2776
  937MPD2    C313703   2.448   0.554  11.390  0.4960 -0.4973  0.3118
  937MPD2    C413704   2.356   0.456  11.363 -0.2181  0.0291 -0.2344
  937MPD2    C513705   2.264   0.428  11.462  0.1127  0.2071 -0.0154
  937MPD2     H13706   2.510   0.702  11.524 -0.9467  0.7441 -2.9455
  937MPD2    H113707   2.346   0.409  11.266  1.9611 -0.5715 -0.1871
  937MPD2    H213708   2.201   0.436  11.656 -1.3225  0.1452 -1.2753
  937MPD2    H313709   2.196   0.345  11.445 -0.0711  0.8365 -2.3236
  937MPD2     N13710   2.528   0.608  11.284 -0.4022 -0.3269  0.8415
  937MPD2    H513711   2.589   0.683  11.314  0.9549 -0.6292 -1.1421
  937MPD2    N113712   2.355   0.665  11.724 -0.8002 -0.0355 -0.0736
  937MPD2    H713713   2.407   0.752  11.725 -1.4930  0.3825 -0.0894
  938MPD2     C13714   0.453   1.623   1.005 -0.1663  0.1650 -0.5307
  938MPD2    C113715   0.373   1.728   0.982 -0.3340  0.2288  0.5683
  938MPD2    C213716   0.239   1.705   0.993 -0.1908 -0.2654  0.3362
  938MPD2    C313717   0.179   1.586   1.020  0.1619 -0.5831  0.2619
  938MPD2    C413718   0.259   1.480   1.034  0.1381  0.4460 -0.0510
  938MPD2    C513719   0.392   1.499   1.017  0.6941  0.0893  0.4818
  938MPD2     H13720   0.177   1.790   0.967  1.2163 -0.0193 -2.1635
  938MPD2    H113721   0.234   1.376   1.055 -2.6558  0.5227 -3.1280
  938MPD2    H213722   0.561   1.633   1.000 -0.1188 -0.3070 -0.4620
  938MPD2    H313723   0.453   1.409   1.019  1.2466  0.3727 -2.3686
  938MPD2     N13724   0.042   1.566   1.036 -0.1947 -0.5489 -1.0367
  938MPD2    H513725   0.008   1.481   1.080  0.0908 -0.9013 -1.4995
  938MPD2    N113726   0.413   1.861   0.975  0.1082 -0.3508  0.0856
  938MPD2    H713727   0.341   1.933   0.970  1.7873  1.3817  0.9847
  939MPD2     C13728   1.556   2.771   1.275 -0.8112  0.1772  0.1456
  939MPD2    C113729   1.626   2.882   1.300 -0.3183 -0.0397 -0.1122
  939MPD2    C213730   1.717   2.919   1.204 -0.4418  0.3335 -0.3652
  939MPD2    C313731   1.756   2.845   1.101  0.0584  0.1294  0.3143
  939MPD2    C413732   1.686   2.728   1.084  0.4578 -0.5032  0.3514
  939MPD2    C513733   1.593   2.688   1.173  0.6717 -0.4616 -0.6359
  939MPD2     H13734   1.779   3.007   1.220  1.5297 -1.1617  0.1274
  939MPD2    H113735   1.709   2.661   1.003 -0.5812 -0.0872 -0.2816
  939MPD2    H213736   1.476   2.746   1.343  1.0560 -1.8330  1.5929
  939MPD2    H313737   1.556   2.588   1.152 -0.7024 -0.1160  0.1832
  939MPD2     N13738   1.857   2.885   1.015 -0.6336  0.1218  0.2399
  939MPD2    H513739   1.914   2.962   1.049  2.1192 -1.0838 -1.5800
  939MPD2    N113740   1.582   2.953   1.414 -0.7678  0.3402  0.4000
  939MPD2    H713741   1.503   2.913   1.465 -0.1088  0.3731  1.4377
  940MPD2     C13742   0.120   3.425  13.324 -0.1987 -0.0985 -0.0157
  940MPD2    C113743   0.104   3.288  13.347  0.5909  0.1238  0.3072
  940MPD2    C213744   0.215   3.214  13.312 -0.0462  0.2714  0.6857
  940MPD2    C313745   0.326   3.275  13.254  0.2522 -0.1430  0.5687
  940MPD2    C413746   0.328   3.414  13.226  0.1347  0.3774 -0.1937
  940MPD2    C513747   0.232   3.483  13.266 -0.2065  0.5721 -0.1116
  940MPD2     H13748   0.210   3.106  13.321  0.9610  0.0638 -1.1066
  940MPD2    H113749   0.418   3.458  13.186  0.3775 -0.6233 -0.7526
  940MPD2    H213750   0.033   3.487  13.342 -0.4067 -0.0995 -0.9778
  940MPD2    H313751   0.230   3.588  13.241  0.6293  0.2987 -1.2821
  940MPD2     N13752   0.445   3.210  13.212 -0.4682 -0.0462  0.2639
  940MPD2    H513753   0.515   3.273  13.172  0.8948 -1.9335 -0.3549
  940MPD2    N113754   4.708   3.228  13.399  0.8144 -0.4215 -0.0003
  940MPD2    H713755   0.006   3.135  13.435 -0.4683 -0.6299 -0.0012
  941MPD2     C13756   3.818   2.213   9.036  0.2481  0.2236  0.6252
  941MPD2    C113757   3.884   2.132   9.128 -0.0236 -0.5265 -0.1359
  941MPD2    C213758   3.815   2.052   9.213  0.0791 -0.0213  0.6451
  941MPD2    C313759   3.676   2.045   9.211 -0.4774 -0.1213 -0.4658
  941MPD2    C413760   3.611   2.122   9.125 -0.0153 -0.2393  0.2782
  941MPD2    C513761   3.680   2.203   9.036  0.2337  0.1940 -0.3202
  941MPD2     H13762   3.879   1.993   9.277  1.1910  0.9272  0.3995
  941MPD2    H113763   3.503   2.115   9.122 -0.2258  2.0574  2.3725
  941MPD2    H213764   3.862   2.284   8.968 -0.2328  0.9398  1.0642
  941MPD2    H313765   3.621   2.258   8.963  1.0796  0.6466 -0.6680
  941MPD2     N13766   3.598   1.977   9.312 -0.4468  0.4273 -0.1612
  941MPD2    H513767   3.497   1.985   9.303 -0.4076 -0.3397 -1.3684
  941MPD2    N113768   4.030   2.140   9.129 -0.0816 -0.0090 -0.0784
  941MPD2    H713769   4.075   2.085   9.201  0.4566 -0.3158 -0.6548
  942MPD2     C13770   3.988   3.546   8.922 -0.2060 -0.0314  0.3993
  942MPD2    C113771   3.954   3.480   8.806  0.0831 -0.0761 -0.0674
  942MPD2    C213772   4.013   3.522   8.691 -0.0206 -0.0208  0.1017
  942MPD2    C313773   4.110   3.619   8.703  0.0612  0.3571 -0.3661
  942MPD2    C413774   4.127   3.691   8.821 -0.3218  0.6557 -0.7348
  942MPD2    C513775   4.071   3.645   8.933 -0.6413  0.2170  0.1249
  942MPD2     H13776   3.992   3.461   8.604 -1.4428  1.4358 -0.5784
  942MPD2    H113777   4.203   3.768   8.825 -0.1650  0.4960 -0.5869
  942MPD2    H213778   3.941   3.515   9.014 -0.1773  1.0231  0.7660
  942MPD2    H313779   4.094   3.685   9.031  1.8503 -2.2259  0.5473
  942MPD2     N13780   4.187   3.656   8.595  0.0300 -0.0333  0.3755
  942MPD2    H513781   4.252   3.733   8.608  0.5476  0.0307 -2.6729
  942MPD2    N113782   3.864   3.365   8.795  0.4392  0.3717  0.6433
  942MPD2    H713783   3.867   3.313   8.707  1.2312 -0.5812  1.2315
  943MPD2     C13784   2.946   2.777   8.453  0.2091  0.7165 -0.2400
  943MPD2    C113785   2.848   2.681   8.463  0.0520  0.1736 -0.6027
  943MPD2    C213786   2.716   2.720   8.437 -0.7832  0.2104 -0.5004
  943MPD2    C313787   2.689   2.844   8.384  0.6827 -0.1042  0.0866
  943MPD2    C413788   2.790   2.935   8.359  0.0800 -0.1098  0.1901
  943MPD2    C513789   2.914   2.898   8.402 -0.0389  0.4611  0.1161
  943MPD2     H13790   2.635   2.649   8.443  0.4315 -0.9939  1.5191
  943MPD2    H113791   2.764   3.030   8.313  0.2740 -0.7194 -1.1712
  943MPD2    H213792   3.046   2.759   8.490 -0.8346 -2.8762  0.8040
  943MPD2    H313793   2.989   2.977   8.402  0.4238  0.0301  1.3229
  943MPD2     N13794   2.559   2.876   8.333 -0.2023  0.1720 -0.6660
  943MPD2    H513795   2.554   2.970   8.294 -0.2979  0.2820 -0.3919
  943MPD2    N113796   2.897   2.554   8.496  0.0438  0.0783 -0.0523
  943MPD2    H713797   2.998   2.542   8.505  0.0133  2.5423  3.2967
  944MPD2     C13798   2.263   0.915  11.045  0.2427  0.3592 -0.0390
  944MPD2    C113799   2.350   0.985  10.966 -0.9426  1.1994  0.7326
  944MPD2    C213800   2.449   1.057  11.034  0.3774  0.0961 -0.0143
  944MPD2    C313801   2.470   1.043  11.165  0.6774  0.1470 -0.1321
  944MPD2    C413802   2.384   0.965  11.240 -0.1940 -0.5435 -0.2787
  944MPD2    C513803   2.277   0.897  11.180 -1.5095 -0.0875  0.1946
  944MPD2     H13804   2.528   1.106  10.977  0.2851 -0.6891 -0.8199
  944MPD2    H113805   2.394   0.953  11.347 -1.4738 -0.0823 -0.1008
  944MPD2    H213806   2.177   0.867  11.000  0.2383  0.8758 -0.5849
  944MPD2    H313807   2.209   0.830  11.230 -0.1146 -0.6650  1.2952
  944MPD2     N13808   2.584   1.108  11.216  0.3405  0.1857  0.1373
  944MPD2    H513809   2.633   1.175  11.158  0.5564  0.6627  0.8771
  944MPD2    N113810   2.328   0.981  10.825 -0.0341 -0.4317  0.9426
  944MPD2    H713811   2.280   0.897  10.793  2.7148 -1.2504 -0.9939
    1TCq1    O113812   0.677   2.695  14.297  0.3680  0.3087 -0.2126
    1TCq1    C113813   0.751   2.583  14.338  0.4023  0.0960  0.0678
    1TCq1    O213814   0.741   2.482  14.273 -0.0398 -0.2615  0.2952
    1TCq1    C213815   0.758   2.584  14.478 -0.2052  0.0774  0.0545
    1TCq1    C313816   0.689   2.488  14.549  0.7081  0.0812  0.6063
    1TCq1    C413817   0.708   2.490  14.686  0.2049 -0.0264  1.1604
    1TCq1    C513818   0.792   2.571  14.752 -0.0983  1.1699  0.2453
    1TCq1    C613819   0.864   2.663  14.675 -0.4208 -0.9255 -0.0421
    1TCq1    C713820   0.844   2.668  14.539  0.1078 -0.2118 -0.0657
    1TCq1    C813821   0.983   2.718  14.729 -0.0570  0.0124  0.0244
    1TCq1    O413822   1.027   2.653  14.823 -0.2240  0.1915  0.2195
    1TCq1    C913823   0.629   2.387  14.757 -0.4483 -0.4192 -1.0195
    1TCq1    O513824   0.623   2.398  14.881  0.6231  0.0172 -0.3869
    1TCq1    O613825   0.576   2.300  14.683  0.1526 -0.4543 -0.2021
    1TCq1    H113826   0.690   2.769  14.360  0.1552 -1.2660  1.6838
    1TCq1    H213827   0.621   2.419  14.499  1.5930 -0.5008  0.1939
    1TCq1    H313828   0.812   2.554  14.858 -0.1040  0.7248  0.1747
    1TCq1    H413829   0.907   2.724  14.471  0.9548 -3.1259 -1.6985
    2MPD2     C13830   1.387   3.022  14.753  0.3033  0.3561 -0.5457
    2MPD2    C113831   1.293   3.087  14.674 -0.0120 -0.0812  0.0041
    2MPD2    C213832   1.177   3.021  14.660 -0.2033 -0.1878  0.6499
    2MPD2    C313833   1.155   2.890  14.698  0.1623  0.1894  0.0582
    2MPD2    C413834   1.255   2.829  14.769  0.2453  0.1827 -0.3981
    2MPD2    C513835   1.368   2.895  14.797  0.0425  0.0236  0.6572
    2MPD2     H13836   1.100   3.065  14.598  0.7448 -0.2142 -0.5433
    2MPD2    H113837   1.246   2.726  14.803  0.4938 -0.0992 -1.1852
    2MPD2    H213838   1.479   3.075  14.773  0.8893 -0.0508 -2.1670
    2MPD2    H313839   1.446   2.845  14.852  0.0096 -0.7230  0.0184
    2MPD2     N13840   1.027   2.835  14.664  0.3533 -0.0833  0.1373
    2MPD2    H513841   0.957   2.882  14.608 -0.3831  0.4674  1.5260
    2MPD2    N113842   1.316   3.222  14.639  0.2587 -0.0128 -0.1280
    2MPD2    H713843   1.414   3.248  14.639  0.2752 -0.0674  0.4931
    3TMC2    C113844   1.260   3.426  14.516 -0.0255 -0.9501 -0.1737
    3TMC2    C213845   1.386   3.467  14.534 -0.4341 -0.0110  0.3378
    3TMC2    C313846   1.444   3.548  14.443  0.8016 -0.3624  0.2682
    3TMC2    C413847   1.192   3.453  14.402  0.1669  0.1537 -1.3367
    3TMC2    C513848   1.251   3.525  14.302  0.6178 -0.1923 -0.1856
    3TMC2    C613849   1.379   3.583  14.326  0.3165 -0.7868 -0.4833
    3TMC2     C13850   1.217   3.302  14.578 -0.2486  0.7350 -1.1530
    3TMC2     O13851   1.096   3.283  14.572 -0.1837 -0.3918  0.0251
    3TMC2     H13852   1.425   3.439  14.631 -2.6840 -1.1435  0.9171
    3TMC2    H113853   1.095   3.409  14.381 -0.7779  1.7146 -0.2482
    3TMC2    H213854   1.409   3.658  14.254  1.6388 -1.6940 -0.8674
    3TMC2    C713855   1.177   3.540  14.173 -0.9415  0.3550 -0.1135
    3TMC2    C813856   1.575   3.608  14.472 -1.2132 -0.2386 -0.1831
    3TMC2    O113857   1.070   3.475  14.165  0.1377 -0.7011 -0.4874
    3TMC2    O213858   1.611   3.704  14.409 -0.5525  0.6413  0.5632
    3TMC2    O513859   1.652   3.511  14.526  0.0410  0.3314  0.1588
    3TMC2    H513860   1.606   3.429  14.555 -1.7844  0.7026 -1.7294
    4MPD2     C13861   1.008   4.320  12.984 -0.6847  0.1054  0.8492
    4MPD2    C113862   1.016   4.199  13.042 -0.6641 -0.0595 -0.5559
    4MPD2    C213863   1.053   4.191  13.173 -0.3078  0.1299  0.1650
    4MPD2    C313864   1.101   4.299  13.245 -0.3661  0.8516 -0.1311
    4MPD2    C413865   1.084   4.419  13.181  0.1880  0.1700 -0.0411
    4MPD2    C513866   1.043   4.430  13.054  0.2142 -0.2227  0.1239
    4MPD2     H13867   1.071   4.099  13.227  0.4763  1.7311  2.6355
    4MPD2    H113868   1.111   4.509  13.234 -1.6287  0.4657  0.3773
    4MPD2    H213869   0.957   4.335  12.889  1.5831  1.7271 -0.1371
    4MPD2    H313870   1.019   4.530  13.020  0.2606 -0.5413 -0.8367
    4MPD2     N13871   1.159   4.283  13.373  0.6206 -0.3509  0.1698
    4MPD2    H513872   1.161   4.189  13.412  0.9610  0.4141  2.0099
    4MPD2    N113873   0.951   4.091  12.970 -0.0360 -0.0874  0.0975
    4MPD2    H713874   0.921   4.110  12.875  1.9982  1.1985 -0.2900
    5TCq2    C113875   1.211   4.383  13.449 -0.6059  0.0370 -0.1952
    5TCq2    O213876   1.229   4.500  13.420 -0.0723 -0.0161  0.6937
    5TCq2    C213877   1.306   4.333  13.547 -0.0697 -0.6156  0.0260
    5TCq2    C313878   1.421   4.410  13.558 -0.5281  0.0371  0.1302
    5TCq2    C413879   1.519   4.351  13.637  0.1922  0.1784 -0.6334
    5TCq2    C513880   1.503   4.230  13.695 -0.2593  0.4368 -0.2397
    5TCq2    C613881   1.390   4.156  13.680  0.1890  0.0886 -0.6951
    5TCq2    C713882   1.290   4.211  13.610  0.5573 -0.4044  0.1814
    5TCq2    C813883   1.369   4.042  13.770  0.2522 -0.5862 -0.4196
    5TCq2    O413884   1.459   4.005  13.846  0.4905  0.1640 -0.4885
    5TCq2    C913885   1.643   4.425  13.652 -0.3201 -0.9236  1.2072
    5TCq2    O513886   1.654   4.529  13.588 -0.4241  0.0226  0.0681
    5TCq2    O613887   1.736   4.374  13.714  0.0916  0.1962 -0.2094
    5TCq2    H213888   1.434   4.513  13.527 -1.9964 -0.1400 -1.0632
    5TCq2    H313889   1.581   4.193  13.761  0.5644  2.1441 -0.2444
    5TCq2    H413890   1.193   4.163  13.605  0.5018  0.0824 -3.3658
    6MPD1     C13891   4.393   0.203  12.234 -0.1101 -0.1237  0.6225
    6MPD1    C113892   4.334   0.162  12.355 -0.0937  0.2924 -0.2980
    6MPD1    C213893   4.388   0.052  12.418  0.5065 -0.2868  0.2862
    6MPD1    C313894   4.518   0.009  12.379 -0.3002  0.9117 -0.1624
    6MPD1    C413895   4.577   0.056  12.267  0.4154  0.8253 -0.2073
    6MPD1    C513896   4.514   0.151  12.190 -0.2498  0.5089  0.5173
    6MPD1     H13897   4.339   0.001  12.501 -0.2822  1.6542  1.0025
    6MPD1    H113898   4.672   0.015  12.234 -0.2088 -0.0492 -0.9209
    6MPD1    H213899   4.353   0.287  12.179 -0.1210 -1.4909 -1.4772
    6MPD1    H313900   4.561   0.169  12.094 -0.5254 -3.1582 -0.3323
    6MPD1     N13901   4.578   4.613  12.438 -0.3503  0.1151 -0.6227
    6MPD1    H513902   4.661   4.577  12.391  0.2108  1.1216 -0.4121
    6MPD1    N113903   4.205   0.215  12.394  0.2678  0.2584  0.4099
    6MPD1    H613904   4.193   0.311  12.360 -0.8095 -0.3952 -1.0752
    6MPD1    H713905   4.178   0.210  12.492 -1.0029  1.5539  0.1142
    7MPD2     C13906   0.111   4.047  13.092 -0.5270  0.4379  0.2903
    7MPD2    C113907   0.151   4.034  12.967  0.6992  0.5088  0.0479
    7MPD2    C213908   0.253   3.941  12.944 -0.0795  0.3879  0.2901
    7MPD2    C313909   0.326   3.872  13.045  0.4935  0.9944 -0.1722
    7MPD2    C413910   0.278   3.883  13.170 -0.2254  0.2873  0.4168
    7MPD2    C513911   0.167   3.972  13.194  0.1278 -0.2428 -0.2845
    7MPD2     H13912   0.296   3.940  12.845  0.3688  1.4670  0.4738
    7MPD2    H113913   0.317   3.837  13.260  2.3608  2.6195  0.4935
    7MPD2    H213914   0.030   4.115  13.112 -0.1243  0.7312  0.9216
    7MPD2    H313915   0.145   3.983  13.300 -0.8669  0.4672 -0.5714
    7MPD2     N13916   0.445   3.800  13.022 -0.1848 -0.9260 -0.5925
    7MPD2    H513917   0.510   3.777  13.096  0.2102  1.1559 -0.2955
    7MPD2    N113918   0.102   4.108  12.855 -0.3360  0.1584 -0.5046
    7MPD2    H713919   0.160   4.093  12.773 -1.6022 -0.0823 -1.3470
    8TMC3    C113920   0.635   3.748  12.890 -0.6645  0.5695 -0.3278
    8TMC3    C213921   0.715   3.823  12.973  0.3109  0.2771  0.1721
    8TMC3    C313922   0.818   3.896  12.922  0.4687  0.2466  0.1635
    8TMC3    C413923   0.662   3.738  12.758  0.6271 -0.7681  0.4662
    8TMC3    C513924   0.751   3.836  12.706 -0.2389 -0.1098 -0.5328
    8TMC3    C613925   0.836   3.909  12.788 -0.0630  0.9704  0.4344
    8TMC3     C13926   0.491   3.770  12.895  0.0457 -0.5932  0.2841
    8TMC3     O13927   0.421   3.764  12.790  0.5324  0.6833  0.1658
    8TMC3     H13928   0.694   3.835  13.079 -1.3631 -2.6014  0.1806
    8TMC3    H113929   0.596   3.685  12.690 -2.2700  0.2703  2.4652
    8TMC3    H213930   0.911   3.976  12.747  1.6077 -1.2176 -0.0600
    8TMC3    C713931   0.686   3.920  12.606 -0.0774  0.2711 -0.3619
    8TMC3    C813932   0.899   3.973  13.016  0.5607  0.0904  1.1753
    8TMC3    O113933   0.665   4.033  12.636 -0.4236 -0.7651  0.5752
    8TMC3    O213934   0.882   3.931  13.129 -0.1816 -0.0433  0.7063
    9TMC3    C113935   4.636   4.435  12.584  0.3747 -0.0365  1.2674
    9TMC3    C213936   0.001   4.391  12.488 -0.0993  0.6505  0.1710
    9TMC3    C313937   0.058   4.270  12.502  0.1630  0.0526  0.7224
    9TMC3    C413938   4.616   4.361  12.698 -0.0320  1.3401  0.6709
    9TMC3    C513939   4.689   4.247  12.714  0.1304  0.1031  0.0955
    9TMC3    C613940   0.044   4.192  12.615  0.3198 -0.4242 -0.1193
    9TMC3     C13941   4.550   4.550  12.554  0.3243  0.4017  0.5995
    9TMC3     O13942   4.471   4.578  12.645 -0.3995  0.5200 -0.1405
    9TMC3     H13943   0.005   4.442  12.392 -0.7019  0.4626  0.0469
    9TMC3    H113944   4.562   4.410  12.779  0.5026  1.7057  0.8076
    9TMC3    H213945   0.062   4.086  12.607 -0.7466 -0.6346  0.2936
    9TMC3    C713946   4.716   4.193  12.851  0.1093  0.4008 -0.5632
    9TMC3    C813947   0.155   4.228  12.407 -0.2661 -0.0797 -0.0985
    9TMC3    O113948   4.634   4.202  12.944  0.3766 -0.4866  0.1028
    9TMC3    O213949   0.126   4.247  12.288 -0.0188 -0.4604  0.6450
   10MPD2     C13950   0.480   3.839  12.315 -0.4972 -0.2659  0.6069
   10MPD2    C113951   0.514   3.908  12.428  0.2588  0.2773  1.0028
   10MPD2    C213952   0.429   4.007  12.475  0.8422 -0.7386  0.7488
   10MPD2    C313953   0.328   4.056  12.399  0.2092 -0.5532  0.0012
   10MPD2    C413954   0.305   4.013  12.273  0.0772  0.5223  0.3474
   10MPD2    C513955   0.384   3.903  12.239  0.5255  0.1459  0.3171
   10MPD2     H13956   0.450   4.048  12.573 -0.4285  1.4456  0.1075
   10MPD2    H113957   0.231   4.048  12.201  0.3530  1.3261  0.4613
   10MPD2    H213958   0.522   3.746  12.277  0.9493  0.1669  1.1592
   10MPD2    H313959   0.349   3.861  12.146 -0.2015  0.4269  0.4682
   10MPD2     N13960   0.255   4.161  12.461  0.0189  0.1079  0.4648
   10MPD2    H513961   0.263   4.159  12.562  1.0049 -0.5996  0.3766
   10MPD2    N113962   0.616   3.857  12.509  0.4307  0.0362 -0.2718
   10MPD2    H713963   0.642   3.765  12.477  1.5518  0.7386 -1.4094
   11MPD2     C13964   1.058   3.654  13.937 -0.1473  0.8705  0.6345
   11MPD2    C113965   1.172   3.703  13.985 -0.5323  0.3583  0.4680
   11MPD2    C213966   1.245   3.812  13.925  0.0283 -0.4087 -0.2492
   11MPD2    C313967   1.198   3.862  13.806 -0.0477  0.5304 -0.4444
   11MPD2    C413968   1.092   3.796  13.749 -0.2258 -0.4293 -0.0401
   11MPD2    C513969   1.022   3.701  13.820 -0.7999 -0.3004 -0.1263
   11MPD2     H13970   1.340   3.833  13.972  0.8345 -0.9986 -1.6573
   11MPD2    H113971   1.049   3.837  13.659  0.6591 -0.5803 -0.5266
   11MPD2    H213972   0.991   3.592  13.995 -0.3967 -0.9991 -1.6542
   11MPD2    H313973   0.925   3.667  13.785  0.5433 -0.5361 -3.6879
   11MPD2     N13974   1.261   3.968  13.734 -0.4302 -0.2166 -0.5611
   11MPD2    H513975   1.218   3.983  13.644  1.7985 -1.3625 -1.8355
   11MPD2    N113976   1.235   3.635  14.091 -0.0201 -0.6904  0.0700
   11MPD2    H713977   1.327   3.668  14.121  0.5559 -1.0010 -1.3504
    1MPD1     C13978   2.851   0.325  17.062  0.4139  1.0518 -0.4365
    1MPD1    C113979   2.934   0.270  16.970  0.6579 -0.5696 -0.5364
    1MPD1    C213980   3.045   0.333  16.930 -0.7694  0.1816 -0.3592
    1MPD1    C313981   3.073   0.464  16.968  0.4690 -0.3084  0.2984
    1MPD1    C413982   2.989   0.513  17.063 -0.4410  0.0382  1.0140
    1MPD1    C513983   2.876   0.451  17.104 -0.1907  0.6151 -0.3029
    1MPD1     H13984   3.115   0.290  16.859 -1.3423 -1.4787  0.0917
    1MPD1    H113985   3.011   0.613  17.101 -0.5219  0.7592 -0.8459
    1MPD1    H213986   2.767   0.268  17.102 -0.2149  1.2318 -1.5085
    1MPD1    H313987   2.820   0.487  17.190  1.6271  1.1214  0.6764
    1MPD1     N13988   3.189   0.543  16.928 -0.0674 -0.4162  0.0837
    1MPD1    H513989   3.196   0.636  16.967 -0.1114  0.3575 -1.7408
    1MPD1    N113990   2.912   0.129  16.938  0.1969 -0.3022 -0.3677
    1MPD1    H613991   2.812   0.111  16.937 -0.0755  1.0546  2.1079
    1MPD1    H713992   2.966   0.102  16.856  0.2321 -1.0343 -0.0969
    2MPD1     C13993   3.642   0.942  17.549  0.2697 -0.1243  1.1164
    2MPD1    C113994   3.738   0.900  17.459 -0.1587  0.8556  0.7171
    2MPD1    C213995   3.702   0.846  17.340  0.0090  0.1601  0.0270
    2MPD1    C313996   3.568   0.829  17.299  0.1546  0.5162  0.3913
    2MPD1    C413997   3.480   0.865  17.396 -0.0344  0.8871  0.4325
    2MPD1    C513998   3.513   0.929  17.507  0.1549  0.7251 -0.1895
    2MPD1     H13999   3.785   0.807  17.282  1.9642  0.7727  2.4342
    2MPD1    H114000   3.375   0.856  17.374  0.0807  0.5438  0.0226
    2MPD1    H214001   3.652   0.972  17.653  2.4188 -0.7655  1.0941
    2MPD1    H314002   3.439   0.949  17.584 -3.1894 -1.7219 -2.8111
    2MPD1     N14003   3.533   0.767  17.176 -0.1365 -0.5887 -0.3440
    2MPD1    H514004   3.434   0.754  17.157  0.1550 -0.1287 -2.2067
    2MPD1    N114005   3.873   0.878  17.504 -0.0714  0.1978  0.5385
    2MPD1    H614006   3.898   0.947  17.575 -0.4205 -0.7095  1.5396
    2MPD1    H714007   3.937   0.905  17.429 -1.7110 -1.6400 -1.5129
    3TMC3    C114008   3.556   0.698  16.952 -0.9320  0.3321 -0.0343
    3TMC3    C214009   3.615   0.731  16.835 -0.3006  0.3350 -0.1133
    3TMC3    C314010   3.566   0.680  16.721  0.3909  0.1937 -0.7677
    3TMC3    C414011   3.436   0.628  16.959  1.2931 -0.2604 -0.1882
    3TMC3    C514012   3.397   0.581  16.838 -0.1256  0.2002  0.0473
    3TMC3    C614013   3.454   0.611  16.722  1.0312 -0.4130 -0.5254
    3TMC3     C14014   3.621   0.753  17.073 -0.3251  0.9961 -0.5784
    3TMC3     O14015   3.745   0.769  17.067 -0.1257 -0.3343  0.5678
    3TMC3     H14016   3.709   0.784  16.841 -0.9186  1.2170  1.7543
    3TMC3    H114017   3.410   0.581  17.053  1.3250 -1.4440 -0.7659
    3TMC3    H214018   3.420   0.588  16.622 -2.1237  2.0351 -0.0187
    3TMC3    C714019   3.275   0.507  16.829 -0.4197  0.8772  0.3795
    3TMC3    C814020   3.652   0.669  16.601  1.1942 -0.1094 -0.0314
    3TMC3    O114021   3.258   0.415  16.748  0.1252 -1.1168  0.6067
    3TMC3    O214022   3.591   0.641  16.500  0.3251  0.4706  0.0859
    4MPD1     C14023   4.105   0.588  16.359 -0.4767 -0.0926 -0.6947
    4MPD1    C114024   4.128   0.641  16.479 -0.0283  0.1046 -0.7611
    4MPD1    C214025   4.020   0.677  16.558  0.0484  0.1020 -0.0183
    4MPD1    C314026   3.889   0.658  16.523  0.3757 -1.4475  0.4245
    4MPD1    C414027   3.870   0.611  16.391 -0.0087  0.3656 -0.9702
    4MPD1    C514028   3.976   0.591  16.311  0.6237 -0.0022  0.0676
    4MPD1     H14029   4.032   0.702  16.663 -1.5315  2.5531 -0.4304
    4MPD1    H114030   3.771   0.595  16.349  0.1655  0.1081 -1.2777
    4MPD1    H214031   4.188   0.579  16.289  0.4780 -1.5889  0.6447
    4MPD1    H314032   3.972   0.562  16.207 -2.3137  0.4742  0.0405
    4MPD1     N14033   3.788   0.681  16.621 -0.6047  0.5939  0.3015
    4MPD1    H514034   3.823   0.710  16.712  1.8788 -1.8542  0.1273
    4MPD1    N114035   4.261   0.642  16.526  0.1822  0.6062 -0.0182
    4MPD1    H614036   4.284   0.703  16.604  1.2497  0.6352 -0.3616
    4MPD1    H714037   4.333   0.639  16.455  0.3387  1.4747  0.1091
    1TCq1    O114038   0.099   1.265  11.681  0.1067  0.4971  0.0579
    1TCq1    C114039   4.715   1.265  11.594  0.7479  0.3302 -0.3747
    1TCq1    O214040   4.703   1.355  11.509 -0.4807 -0.9037 -0.9021
    1TCq1    C214041   4.659   1.135  11.571  0.6173 -0.4727  0.2994
    1TCq1    C314042   4.644   1.040  11.666 -0.5823  0.3673  0.2498
    1TCq1    C414043   4.592   0.920  11.631  1.3321 -0.9442  0.5652
    1TCq1    C514044   4.557   0.895  11.506  0.6142  0.3041 -0.0149
    1TCq1    C614045   4.546   0.998  11.417 -0.0787  0.1949 -0.4006
    1TCq1    C714046   4.581   1.124  11.455 -0.0932  0.7576 -0.5277
    1TCq1    C814047   4.507   0.986  11.278 -0.2186 -0.2290  0.3788
    1TCq1    O414048   4.519   1.087  11.207  0.0458 -0.3912 -0.3034
    1TCq1    C914049   4.619   0.805  11.710 -0.4797 -0.1537  0.6305
    1TCq1    O514050   4.628   0.686  11.662  0.1353 -0.0522  0.1070
    1TCq1    O614051   4.631   0.822  11.834 -0.3776  0.5059  0.2589
    1TCq1    H114052   0.136   1.174  11.685  1.0815  0.9488  1.1958
    1TCq1    H214053   4.688   1.046  11.765 -0.3990  1.6249  0.0839
    1TCq1    H314054   4.528   0.793  11.482  0.6921  0.8848 -2.5834
    1TCq1    H414055   4.596   1.203  11.381 -2.7288  1.9620  0.2398
    2MPD1     C14056   4.427   0.699  10.851  0.2662  0.1455 -0.0317
    2MPD1    C114057   4.414   0.615  10.959 -0.2031  0.3198  0.2720
    2MPD1    C214058   4.427   0.677  11.087 -0.8346 -0.0871  0.2836
    2MPD1    C314059   4.457   0.804  11.107 -0.6574 -0.3485  0.1848
    2MPD1    C414060   4.465   0.887  10.996 -0.2829 -0.1199 -0.2412
    2MPD1    C514061   4.455   0.830  10.869 -0.3503 -0.7438  0.0386
    2MPD1     H14062   4.414   0.612  11.173 -0.5529  1.9664  1.8740
    2MPD1    H114063   4.522   0.980  10.993  1.5461 -1.3237 -3.2384
    2MPD1    H214064   4.409   0.653  10.754  3.8242  0.1282 -0.6945
    2MPD1    H314065   4.465   0.891  10.780  2.4342  1.6648  1.9847
    2MPD1     N14066   4.480   0.852  11.242 -0.4090 -0.4577 -0.5128
    2MPD1    H514067   4.497   0.778  11.309  2.0004  2.9381  2.6244
    2MPD1    N114068   4.397   0.475  10.950  0.0418 -0.9433 -0.1637
    2MPD1    H614069   4.488   0.433  10.969 -0.4361 -2.3758 -1.0274
    2MPD1    H714070   4.392   0.449  10.852  0.5758  1.3420 -0.7950
    1TCq1    O114071   2.836   3.588   0.862  1.0304  0.2072 -0.4492
    1TCq1    C114072   2.792   3.712   0.897  0.0051 -0.3573  0.3043
    1TCq1    O214073   2.844   3.818   0.884 -0.4065  0.0202 -0.0266
    1TCq1    C214074   2.694   3.674   0.997  0.3527  0.7140 -0.2971
    1TCq1    C314075   2.583   3.595   0.968 -0.5944  0.5449  0.2964
    1TCq1    C414076   2.497   3.562   1.069  0.8301 -0.2503  0.0505
    1TCq1    C514077   2.526   3.587   1.201 -0.8190  0.2996  0.7181
    1TCq1    C614078   2.632   3.670   1.228  0.7836  0.0643  0.2079
    1TCq1    C714079   2.708   3.719   1.126 -0.8254  1.0000  0.1568
    1TCq1    C814080   2.674   3.708   1.365 -0.0153  0.9381  0.6225
    1TCq1    O414081   2.761   3.797   1.374  0.5302  0.0736  0.2811
    1TCq1    C914082   2.408   3.451   1.050 -0.3902 -0.9066 -0.3160
    1TCq1    O514083   2.383   3.385   1.158 -0.3191 -0.3726  0.2375
    1TCq1    O614084   2.349   3.438   0.945 -0.5862  0.3256  0.0012
    1TCq1    H114085   2.774   3.513   0.872  3.7343 -1.6001  2.4491
    1TCq1    H214086   2.583   3.533   0.879 -0.0417  0.5651  0.2796
    1TCq1    H314087   2.473   3.553   1.289 -0.8100 -0.0351  0.5962
    1TCq1    H414088   2.790   3.784   1.155  1.2911 -1.6796  0.1471
    2MPD1     C14089   2.691   3.647   1.884  0.2564 -0.2820  0.4675
    2MPD1    C114090   2.596   3.558   1.828 -0.0778  0.2462  0.7421
    2MPD1    C214091   2.564   3.565   1.686 -1.0581  0.8197  0.2971
    2MPD1    C314092   2.623   3.657   1.599  0.3856 -0.4091  0.9195
    2MPD1    C414093   2.714   3.749   1.660  0.2154 -0.6149 -0.0453
    2MPD1    C514094   2.742   3.743   1.791 -0.4217 -0.4676 -0.2232
    2MPD1     H14095   2.501   3.488   1.644 -1.8549  0.1484  2.7039
    2MPD1    H114096   2.758   3.822   1.593 -1.5166  0.3648 -0.0989
    2MPD1    H214097   2.726   3.644   1.986  0.5047  1.2399  0.4268
    2MPD1    H314098   2.819   3.810   1.827 -0.0534 -1.5498  0.9798
    2MPD1     N14099   2.603   3.643   1.461  0.2433 -0.4029 -0.0535
    2MPD1    H514100   2.530   3.577   1.436  0.4692 -0.1867 -1.2531
    2MPD1    N114101   2.548   3.444   1.909 -0.5827 -0.6932  0.0893
    2MPD1    H614102   2.457   3.408   1.881 -1.9888  3.2177 -0.3225
    2MPD1    H714103   2.539   3.464   2.008 -1.5913  2.6168 -0.6752
    1MPD1     C14104   1.788   1.156  12.036  0.5098  0.0734 -0.5636
    1MPD1    C114105   1.899   1.174  11.962  0.1497 -0.2191 -0.2904
    1MPD1    C214106   1.940   1.071  11.874 -0.0318 -0.2601  0.5413
    1MPD1    C314107   1.863   0.950  11.864  0.9024 -0.9249  0.5976
    1MPD1    C414108   1.752   0.931  11.947 -0.9061  0.1745  1.1622
    1MPD1    C514109   1.722   1.036  12.029  0.2611 -0.0359 -0.1447
    1MPD1     H14110   2.022   1.082  11.804 -1.3636  3.0390 -0.4631
    1MPD1    H114111   1.685   0.846  11.945  1.2906 -1.5811  1.1875
    1MPD1    H214112   1.752   1.229  12.107  1.7656  0.8142 -0.7002
    1MPD1    H314113   1.635   1.018  12.092  0.6843  0.2239  0.5143
    1MPD1     N14114   1.887   0.859  11.762 -0.4171 -0.2167 -1.1337
    1MPD1    H514115   1.816   0.787  11.750 -0.9671 -0.0235  0.9921
    1MPD1    N114116   1.967   1.297  11.959  0.4066  0.5742 -0.0050
    1MPD1    H614117   1.966   1.349  12.046  1.2147 -3.0090  2.1799
    1MPD1    H714118   2.060   1.292  11.917  0.6627  1.9080  0.4056
    2MPD1     C14119   1.251   0.109   9.754  0.0300  0.1335  0.7797
    2MPD1    C114120   1.203   4.705   9.799 -0.1965  0.0234  0.4927
    2MPD1    C214121   1.089   4.691   9.881  0.3562 -0.3195  0.3599
    2MPD1    C314122   1.029   0.092   9.919  0.1857  0.4986 -0.3676
    2MPD1    C414123   1.084   0.208   9.879 -0.0389 -0.1207  0.0211
    2MPD1    C514124   1.189   0.222   9.798  0.4092 -1.0547  0.1578
    2MPD1     H14125   1.060   4.590   9.908 -1.4342 -0.0845 -0.6684
    2MPD1    H114126   1.027   0.299   9.894 -2.6274 -2.3064  3.5910
    2MPD1    H214127   1.340   0.105   9.692 -0.3042  1.6437  0.2150
    2MPD1    H314128   1.221   0.319   9.762 -1.0427 -1.1640 -1.4395
    2MPD1     N14129   0.914   0.097  10.003  0.3313  0.4096 -0.2878
    2MPD1    H514130   0.888   0.192  10.029 -0.8506  0.1053 -0.4039
    2MPD1    N114131   1.262   4.586   9.748  0.1417  0.0736  0.0582
    2MPD1    H614132   1.249   4.510   9.814 -3.0794 -0.0306 -0.6891
    2MPD1    H714133   1.363   4.595   9.756 -0.0972  1.4460  1.4271
    3MPD1     C14134   0.097   4.208  10.195 -0.0624  0.3491  0.2359
    3MPD1    C114135   0.133   4.260  10.075  0.5889 -0.6274 -0.4445
    3MPD1    C214136   0.237   4.349  10.069 -0.6080  0.8633 -0.0153
    3MPD1    C314137   0.292   4.403  10.181  0.0458 -0.4828  0.4187
    3MPD1    C414138   0.256   4.344  10.305 -0.1328 -0.0586 -1.0326
    3MPD1    C514139   0.162   4.243  10.305  0.0132 -0.1247  0.4852
    3MPD1     H14140   0.261   4.396   9.975  0.5251 -1.0007 -0.6552
    3MPD1    H114141   0.311   4.360  10.398  1.4334 -0.1368 -1.9502
    3MPD1    H214142   0.005   4.151  10.204  0.2442 -0.0275  0.9523
    3MPD1    H314143   0.117   4.210  10.397  1.1068 -0.6001  0.8499
    3MPD1     N14144   0.395   4.495  10.171  0.3738 -0.4666 -0.6523
    3MPD1    H514145   0.442   4.522  10.086  0.0670 -1.0277 -0.9971
    3MPD1    N114146   0.066   4.211   9.962 -0.7067 -0.4850 -0.3065
    3MPD1    H614147   4.684   4.188   9.971 -1.4493  2.5389 -0.7852
    3MPD1    H714148   0.090   4.252   9.872  1.8484 -0.0545  0.5914
    4MPD2     C14149   1.462   0.361  11.553  0.0689  0.4205  0.4515
    4MPD2    C114150   1.524   0.437  11.457 -0.3414 -0.2111 -0.4319
    4MPD2    C214151   1.442   0.505  11.369  0.0908  0.0548  0.1087
    4MPD2    C314152   1.307   0.482  11.364  0.2680  0.5749  0.1586
    4MPD2    C414153   1.245   0.397  11.454  0.0261  1.1499 -0.6541
    4MPD2    C514154   1.325   0.345  11.546 -1.3778  0.1491  0.2360
    4MPD2     H14155   1.492   0.569  11.297  2.7759  0.6126  2.5022
    4MPD2    H114156   1.143   0.361  11.442  0.2337  0.6948 -1.0360
    4MPD2    H214157   1.521   0.314  11.631 -1.0034 -0.6058  0.6486
    4MPD2    H314158   1.279   0.281  11.621 -2.3978 -1.6429 -1.9218
    4MPD2     N14159   1.216   0.555  11.283 -0.0391  0.3952  0.0817
    4MPD2    H514160   1.121   0.525  11.298 -0.2629 -0.6691 -3.5347
    4MPD2    N114161   1.667   0.469  11.455 -0.6164  0.3636  0.4285
    4MPD2    H714162   1.698   0.532  11.382 -0.0084 -0.3295  0.0868
    5TMC3    C114163   1.876   0.521  11.538 -0.1683 -0.1122 -0.2437
    5TMC3    C214164   1.903   0.620  11.628  0.3756  0.6214  0.7098
    5TMC3    C314165   1.967   0.736  11.585 -0.0947  0.0679 -0.4109
    5TMC3    C414166   1.924   0.529  11.413 -0.3382  0.3161  0.8424
    5TMC3    C514167   1.997   0.642  11.375  0.7133  0.1876  0.0165
    5TMC3    C614168   2.014   0.747  11.457 -0.0486  0.5734  0.1117
    5TMC3     C14169   1.757   0.442  11.557  0.1612  0.6098  0.6233
    5TMC3     O14170   1.734   0.386  11.663 -0.6578  0.2859  0.2120
    5TMC3     H14171   1.861   0.611  11.727  1.5911  2.5927  1.4123
    5TMC3    H114172   1.925   0.446  11.344  0.0907  1.2325 -0.2596
    5TMC3    H214173   2.054   0.842  11.424 -0.9702  1.2213  0.8643
    5TMC3    C714174   1.985   0.675  11.239 -0.0693 -0.2892 -0.5045
    5TMC3    C814175   1.991   0.840  11.671  0.1930 -0.0552  0.3716
    5TMC3    O114176   2.068   0.635  11.160 -0.1129  0.0962  0.2970
    5TMC3    O214177   2.097   0.898  11.663 -0.5059 -0.1006  0.1072
    6TMC3    C114178   0.728   0.009  10.135  0.0468 -0.0751  0.3217
    6TMC3    C214179   0.634   4.627  10.148 -0.5428 -0.3149 -0.3289
    6TMC3    C314180   0.553   4.642  10.262 -0.0953  0.1544  0.5955
    6TMC3    C414181   0.748   0.111  10.229  0.1840  0.5329  0.8102
    6TMC3    C514182   0.682   0.107  10.348 -0.4115  0.0957 -0.2689
    6TMC3    C614183   0.582   0.019  10.353  0.7698  0.2782  0.5115
    6TMC3     C14184   0.831   4.704  10.031  0.8833 -0.8509  0.1052
    6TMC3     O14185   0.827   4.587   9.991  0.4336 -1.0272 -0.4153
    6TMC3     H14186   0.621   4.541  10.084 -1.9840 -0.1027 -0.3196
    6TMC3    H114187   0.838   0.171  10.225 -0.1472  1.0426  0.8846
    6TMC3    H214188   0.515   0.024  10.438  1.8903  1.8769  1.2898
    6TMC3    C714189   0.747   0.170  10.466  0.7691  0.4169  0.7222
    6TMC3    C814190   0.438   4.565  10.287 -0.3662 -0.0972  0.0064
    6TMC3    O114191   0.835   0.252  10.448 -0.0287 -0.5844 -0.0062
    6TMC3    O214192   0.399   4.564  10.405 -0.3840 -0.4005  0.0399
    7MPD2     C14193   1.681   0.744  10.836 -0.2536 -0.4737 -0.1422
    7MPD2    C114194   1.605   0.749  10.949  0.3877  0.5180  0.1419
    7MPD2    C214195   1.670   0.746  11.069  0.4482 -0.1455  0.9867
    7MPD2    C314196   1.807   0.744  11.074 -0.0869 -0.5794  0.0874
    7MPD2    C414197   1.881   0.741  10.962  0.0859 -0.7969  0.0783
    7MPD2    C514198   1.818   0.739  10.842  0.1365  1.1606 -0.3661
    7MPD2     H14199   1.609   0.743  11.158 -2.2262 -1.5036 -0.8803
    7MPD2    H114200   1.989   0.732  10.963  0.0740 -0.7536  1.2710
    7MPD2    H214201   1.643   0.748  10.735  4.3370 -1.5108 -1.9095
    7MPD2    H314202   1.875   0.735  10.750 -2.3070 -0.8625 -1.7575
    7MPD2     N14203   1.854   0.720  11.207  0.6774  0.0264  0.3127
    7MPD2    H514204   1.786   0.728  11.282 -0.0870 -0.8708 -0.2827
    7MPD2    N114205   1.464   0.765  10.949  0.0315 -0.1998 -0.0340
    7MPD2    H714206   1.419   0.772  11.040  1.3101  0.8099  0.5306
    8TMC3    C114207   1.235   0.764  10.881 -0.4294  0.6099 -0.6143
    8TMC3    C214208   1.170   0.657  10.824  0.1386 -0.9165 -0.1466
    8TMC3    C314209   1.090   0.585  10.906 -0.6129 -0.3730 -0.4236
    8TMC3    C414210   1.217   0.797  11.018  0.4912  1.2118  0.0688
    8TMC3    C514211   1.153   0.707  11.104 -0.4591  0.0222  0.2631
    8TMC3    C614212   1.088   0.599  11.047  0.1743 -0.4484 -0.3344
    8TMC3     C14213   1.378   0.760  10.845  0.0516  0.6792 -0.2353
    8TMC3     O14214   1.402   0.709  10.736 -0.1291 -0.1028 -0.3662
    8TMC3     H14215   1.179   0.651  10.716 -1.3151 -2.3288 -0.1812
    8TMC3    H114216   1.270   0.880  11.065  0.6453  1.6294 -0.8428
    8TMC3    H214217   1.039   0.531  11.117  0.6863 -1.3112 -0.8114
    8TMC3    C714218   1.244   0.675  11.214  0.2376 -0.0371  0.8236
    8TMC3    C814219   1.003   0.481  10.846  0.6366  0.2266 -0.8538
    8TMC3    O114220   1.356   0.730  11.204  0.1041  0.2342  0.6061
    8TMC3    O214221   0.982   0.497  10.729 -0.0219 -0.0005 -0.5849
    9MPD2     C14222   0.794   0.214  10.991  0.8818  0.0780 -0.0818
    9MPD2    C114223   0.857   0.293  10.891  0.6060 -0.6959 -0.3896
    9MPD2    C214224   0.828   0.258  10.756  0.0577  0.4690 -0.4375
    9MPD2    C314225   0.738   0.153  10.720  0.1407  0.5532 -0.0879
    9MPD2    C414226   0.689   0.073  10.822  0.1124 -0.5528 -0.6945
    9MPD2    C514227   0.701   0.121  10.946 -0.4383 -0.0719 -0.1369
    9MPD2     H14228   0.871   0.318  10.676 -0.7444  0.0314 -1.1993
    9MPD2    H114229   0.609   0.003  10.803 -1.8773  1.8124 -0.9783
    9MPD2    H214230   0.808   0.229  11.097  0.1308 -0.4346  0.0902
    9MPD2    H314231   0.657   0.062  11.026  1.9222 -0.8096  0.5991
    9MPD2     N14232   0.701   0.112  10.586  0.1611 -0.6103 -0.3702
    9MPD2    H514233   0.640   0.032  10.575 -0.6119 -0.4104  2.3990
    9MPD2    N114234   0.950   0.389  10.932  0.2636 -0.2416  0.0867
    9MPD2    H714235   0.984   0.396  11.028 -0.8769 -1.8654  0.6138
    1MPD1     C14236   2.293   4.224  16.828  0.0324 -0.1105  0.4312
    1MPD1    C114237   2.222   4.115  16.776 -0.3313  0.4155  0.2280
    1MPD1    C214238   2.084   4.113  16.796  0.4221  0.5260 -0.4422
    1MPD1    C314239   2.015   4.208  16.874 -0.2695 -0.0167  0.6074
    1MPD1    C414240   2.091   4.307  16.936  0.4624 -0.8883  0.3804
    1MPD1    C514241   2.224   4.313  16.898  0.0523 -0.3296 -0.5046
    1MPD1     H14242   2.027   4.031  16.754  0.8385 -0.1655  0.3087
    1MPD1    H114243   2.059   4.379  17.010 -0.6388 -0.8151 -0.1608
    1MPD1    H214244   2.398   4.241  16.804 -0.6125  3.5327  0.2267
    1MPD1    H314245   2.288   4.394  16.932 -0.1381 -0.9780  1.3865
    1MPD1     N14246   1.878   4.211  16.906  0.7042  0.5885  0.1615
    1MPD1    H514247   1.850   4.292  16.962  0.8550 -0.4986  1.8201
    1MPD1    N114248   2.282   4.034  16.679  0.1459  0.3249  0.4282
    1MPD1    H614249   2.375   3.999  16.703  0.1723 -0.4131 -0.7590
    1MPD1    H714250   2.225   3.950  16.667 -0.6061  0.7218  1.2320
    2MPD1     C14251   1.022   3.588  16.930  0.2650 -0.7015 -0.1647
    2MPD1    C114252   1.098   3.607  17.042  0.6120 -0.0243 -0.2931
    2MPD1    C214253   1.192   3.707  17.045  0.3934 -0.9162  0.0103
    2MPD1    C314254   1.215   3.788  16.935  0.6261 -0.0139  0.9747
    2MPD1    C414255   1.125   3.775  16.826  0.5946 -0.5321  0.2629
    2MPD1    C514256   1.030   3.679  16.831  0.3820 -0.0291  0.7079
    2MPD1     H14257   1.252   3.719  17.134  1.1278 -0.6375 -0.5210
    2MPD1    H114258   1.139   3.839  16.739  0.0085 -0.7002  0.0467
    2MPD1    H214259   0.949   3.508  16.926  3.2612 -3.3364 -1.9364
    2MPD1    H314260   0.971   3.666  16.741 -0.8822  1.5929  1.3130
    2MPD1     N14261   1.314   3.892  16.944  0.4801 -0.4389 -0.5456
    2MPD1    H514262   1.366   3.905  17.030  1.0955 -0.6472 -0.8924
    2MPD1    N114263   1.104   3.506  17.135 -0.3429 -0.3336 -0.4189
    2MPD1    H614264   1.022   3.446  17.129  1.7367 -2.9828 -2.0537
    2MPD1    H714265   1.099   3.542  17.230 -0.1741 -0.0877 -0.5031
    3TCq2    C114266   1.339   3.982  16.850  0.5175 -0.4444  0.3824
    3TCq2    O214267   1.306   3.991  16.732  0.0814 -0.2240  0.2283
    3TCq2    C214268   1.422   4.085  16.898  0.1265 -0.5624 -0.7530
    3TCq2    C314269   1.406   4.131  17.028  0.5601 -0.0288  0.4853
    3TCq2    C414270   1.513   4.184  17.087 -0.3500  0.7167  0.2488
    3TCq2    C514271   1.635   4.198  17.029 -1.0994  0.7134 -0.8318
    3TCq2    C614272   1.653   4.162  16.898  0.5788 -0.0366  0.0114
    3TCq2    C714273   1.545   4.110  16.833 -0.5659  0.1203  0.4956
    3TCq2    C814274   1.786   4.130  16.848 -0.1627  0.2899  0.5429
    3TCq2    O414275   1.797   4.051  16.749 -0.0926 -0.7080  0.2429
    3TCq2    C914276   1.485   4.258  17.210 -0.2773 -0.2276 -0.8317
    3TCq2    O514277   1.572   4.332  17.261  0.0444 -0.0042 -0.0962
    3TCq2    O614278   1.376   4.231  17.262 -0.0974  0.3164 -0.0052
    3TCq2    H214279   1.305   4.120  17.067  0.2769 -0.5851 -0.4028
    3TCq2    H314280   1.718   4.241  17.084  0.8605 -4.0752 -0.0918
    3TCq2    H414281   1.569   4.084  16.730  0.4491 -0.8672  0.9749
    1TCq1    O114282   3.231   2.078  13.534  0.1168 -0.3752  0.6838
    1TCq1    C114283   3.356   2.120  13.517  0.5412 -0.3861  1.0764
    1TCq1    O214284   3.420   2.196  13.583 -0.0944  0.5013 -0.3555
    1TCq1    C214285   3.357   2.100  13.370  0.3343 -0.4134 -0.5427
    1TCq1    C314286   3.310   1.977  13.326  0.8672  0.7083  0.8011
    1TCq1    C414287   3.289   1.975  13.188 -0.1079  0.3303  0.1878
    1TCq1    C514288   3.303   2.084  13.109  0.5579  0.0158  0.4843
    1TCq1    C614289   3.348   2.202  13.158  0.4854  0.0569 -0.6207
    1TCq1    C714290   3.387   2.209  13.292 -0.0410  0.1474  0.2269
    1TCq1    C814291   3.374   2.312  13.072  0.0054 -0.5474 -0.1345
    1TCq1    O414292   3.329   2.312  12.958  0.4193 -0.3009  0.1803
    1TCq1    C914293   3.263   1.847  13.132  0.5689 -0.7950  0.1867
    1TCq1    O514294   3.256   1.842  13.008  0.6712 -0.1665  0.2546
    1TCq1    O614295   3.240   1.755  13.213 -0.3410  0.4369  0.4304
    1TCq1    H114296   3.195   2.047  13.448 -0.7258  1.7456  0.2691
    1TCq1    H214297   3.317   1.887  13.386 -1.7331  0.8831  1.4021
    1TCq1    H314298   3.292   2.082  13.001  1.1333 -0.5025  0.4346
    1TCq1    H414299   3.403   2.299  13.349 -2.4575  0.9269 -0.2950
    2MPD2     C14300   3.463   2.578  12.981  0.1593 -0.5392 -0.1280
    2MPD2    C114301   3.535   2.502  13.069  0.1587  0.4194 -0.0842
    2MPD2    C214302   3.665   2.540  13.091  0.7953  0.1037 -0.4822
    2MPD2    C314303   3.723   2.647  13.029  0.1843  0.2827  0.1630
    2MPD2    C414304   3.652   2.722  12.937 -0.0524 -0.2873  0.0216
    2MPD2    C514305   3.516   2.686  12.917  0.1258 -0.7823 -0.8508
    2MPD2     H14306   3.727   2.480  13.157  0.8380 -0.1325 -0.7344
    2MPD2    H114307   3.703   2.806  12.890 -0.8756 -0.0288 -0.4140
    2MPD2    H214308   3.359   2.565  12.955  0.4923  0.3078 -1.8808
    2MPD2    H314309   3.464   2.732  12.834  3.0822 -1.2543 -3.0001
    2MPD2     N14310   3.861   2.668  13.050 -0.6082 -0.4665 -0.1569
    2MPD2    H514311   3.912   2.598  13.103  0.6323 -1.9556 -3.3241
    2MPD2    N114312   3.480   2.385  13.122  0.1294  0.5548  0.1557
    2MPD2    H714313   3.544   2.334  13.180 -0.0468 -1.4513 -1.4011
    3TCq1    O114314   4.424   2.892  13.363 -0.5320 -0.0132 -0.0098
    3TCq1    C114315   4.314   2.931  13.292  0.5453 -0.1810  0.5606
    3TCq1    O214316   4.249   3.033  13.318 -0.5449 -0.2113  0.4570
    3TCq1    C214317   4.254   2.819  13.216  0.1446  0.6230 -0.2528
    3TCq1    C314318   4.331   2.719  13.163 -0.0694  0.7552  0.4904
    3TCq1    C414319   4.272   2.647  13.067  0.5697  0.1102  0.8268
    3TCq1    C514320   4.146   2.673  13.016 -0.6390 -0.0905  0.1378
    3TCq1    C614321   4.071   2.774  13.070  0.1986  0.7475  0.0040
    3TCq1    C714322   4.125   2.847  13.173 -0.2591  0.8962  0.3300
    3TCq1    C814323   3.926   2.787  13.043 -0.2432 -0.3818 -0.5438
    3TCq1    O414324   3.885   2.902  13.031 -0.0830 -0.1084  0.2897
    3TCq1    C914325   4.342   2.538  13.007  0.2010 -0.2423  0.0404
    3TCq1    O514326   4.292   2.494  12.900  0.5864 -0.1988 -0.3572
    3TCq1    O614327   4.443   2.493  13.064 -0.1626 -0.0987  0.1461
    3TCq1    H114328   4.470   2.809  13.337 -0.5137 -0.2429  0.7827
    3TCq1    H214329   4.432   2.690  13.189 -0.2536 -1.4855 -1.2009
    3TCq1    H314330   4.110   2.610  12.936  0.7663  1.8906 -2.0890
    3TCq1    H414331   4.066   2.932  13.205 -3.0541 -0.5066 -1.1013
    1MPD2     C14332   3.608   3.452  15.283 -0.2973 -0.1294  0.5011
    1MPD2    C114333   3.677   3.538  15.206 -0.0109 -0.4014  0.0027
    1MPD2    C214334   3.797   3.494  15.154 -0.1203  0.3125 -0.4471
    1MPD2    C314335   3.848   3.376  15.182  0.7692  0.6139  1.2829
    1MPD2    C414336   3.777   3.292  15.266 -0.4192  0.1958 -0.2244
    1MPD2    C514337   3.661   3.334  15.316 -0.0721  0.4200 -0.2558
    1MPD2     H14338   3.846   3.556  15.080 -0.0842  0.2842 -0.4468
    1MPD2    H114339   3.804   3.191  15.297 -0.1046 -0.0830 -1.4080
    1MPD2    H214340   3.508   3.469  15.321 -0.3353  2.2179 -0.6888
    1MPD2    H314341   3.615   3.265  15.387 -1.9779  1.9025 -0.0589
    1MPD2     N14342   3.954   3.316  15.116 -0.5842 -0.1648  0.2699
    1MPD2    H514343   3.962   3.215  15.109  0.0364 -0.0759 -0.2175
    1MPD2    N114344   3.614   3.659  15.151  0.1195 -0.0675  0.2493
    1MPD2    H714345   3.658   3.704  15.072  1.2459 -1.7126 -0.0526
    2TMC3    C114346   3.432   3.780  15.083 -0.3282  0.2850  0.5091
    2TMC3    C214347   3.467   3.745  14.952 -0.1187  0.2427  0.0990
    2TMC3    C314348   3.414   3.821  14.847  0.1692 -0.0882 -0.2100
    2TMC3    C414349   3.360   3.889  15.113  0.4111  0.0551  0.1612
    2TMC3    C514350   3.320   3.967  15.004  0.6770  0.2968 -0.1229
    2TMC3    C614351   3.341   3.937  14.877  0.2691 -0.3921 -0.0973
    2TMC3     C14352   3.494   3.711  15.191 -0.0972 -0.0421 -0.5062
    2TMC3     O14353   3.440   3.713  15.301  0.6588  0.4666 -0.2490
    2TMC3     H14354   3.507   3.645  14.936 -0.6043 -0.0358  0.6615
    2TMC3    H114355   3.340   3.907  15.218 -1.3979  1.5891 -0.4513
    2TMC3    H214356   3.295   3.993  14.796 -0.3248 -0.4113  0.2252
    2TMC3    C714357   3.272   4.099  15.038  0.3484 -0.5931  0.2767
    2TMC3    C814358   3.442   3.779  14.708 -0.3027  0.4059 -0.4461
    2TMC3    O114359   3.166   4.124  15.091 -0.1500 -0.0628  0.4082
    2TMC3    O214360   3.366   3.815  14.621  0.3108 -0.5922  0.2999
    3TCq1    O114361   3.836   0.391  14.686 -0.3011 -0.1542 -0.0056
    3TCq1    C114362   3.911   0.289  14.640  0.2641 -0.0011 -0.4151
    3TCq1    O214363   4.036   0.285  14.629 -0.3026  0.0251  1.0168
    3TCq1    C214364   3.831   0.174  14.638 -0.4059  0.2124  0.3266
    3TCq1    C314365   3.890   0.083  14.558 -0.0175  0.0097  0.8169
    3TCq1    C414366   3.856   4.666  14.587  0.0662  0.0579 -1.1230
    3TCq1    C514367   3.763   4.636  14.683  0.1207 -0.1671  0.1412
    3TCq1    C614368   3.709   0.017  14.762  0.0094 -0.3542 -0.0001
    3TCq1    C714369   3.748   0.146  14.744  0.0947 -0.3937  0.6072
    3TCq1    C814370   3.609   0.003  14.866  0.4184 -0.0163 -0.3883
    3TCq1    O414371   3.528   0.096  14.881  0.4603  0.7811  0.6669
    3TCq1    C914372   3.916   4.555  14.504  0.1906  0.1669 -0.4621
    3TCq1    O514373   3.882   4.438  14.531  0.0886 -0.1564  0.7482
    3TCq1    O614374   4.010   4.584  14.423 -0.2488  0.1775 -0.3093
    3TCq1    H114375   3.740   0.374  14.693 -0.5093  1.3463  0.8146
    3TCq1    H214376   3.954   0.118  14.477 -0.6690 -1.9308 -0.5241
    3TCq1    H314377   3.744   4.530  14.697 -1.1527  0.0906  0.3042
    3TCq1    H414378   3.706   0.221  14.810 -0.7492  0.2173 -0.6149
    4MPD2     C14379   3.391   4.599  15.037 -0.6934  0.0266  0.0785
    4MPD2    C114380   3.494   4.527  14.974  0.2503 -0.2187  0.4307
    4MPD2    C214381   3.485   4.388  14.965 -0.1840  0.3148  0.4327
    4MPD2    C314382   3.373   4.326  15.004 -0.5513  0.6781 -0.3062
    4MPD2    C414383   3.273   4.397  15.070  0.3916 -0.5286 -0.2233
    4MPD2    C514384   3.286   4.530  15.084 -0.5873  0.1844 -0.1665
    4MPD2     H14385   3.556   4.325  14.913 -2.4108 -1.3684 -0.5661
    4MPD2    H114386   3.196   4.343  15.123 -1.2680  0.4015 -1.6743
    4MPD2    H214387   3.397   4.706  15.054  0.0194  0.1692 -1.0949
    4MPD2    H314388   3.206   4.585  15.132 -0.0512  0.6141  0.2383
    4MPD2     N14389   3.366   4.186  14.989 -0.5436 -0.0151 -0.1141
    4MPD2    H514390   3.441   4.149  14.933 -0.1044  2.0056 -0.8708
    4MPD2    N114391   3.608   4.590  14.911  0.1992 -0.0739  0.3611
    4MPD2    H714392   3.686   4.528  14.891 -0.2582 -1.0597  1.5738
    5TMC2    C114393   4.004   3.264  14.723 -0.0239 -0.0832  0.4696
    5TMC2    C214394   4.094   3.338  14.649 -0.2092  0.0711 -0.3518
    5TMC2    C314395   4.188   3.411  14.721 -0.8594 -0.2102  0.0164
    5TMC2    C414396   4.016   3.241  14.859  0.7658 -0.1699  0.0294
    5TMC2    C514397   4.106   3.315  14.925 -0.5543 -0.0824  0.8656
    5TMC2    C614398   4.194   3.396  14.852 -0.1822 -0.0397 -0.1320
    5TMC2     C14399   3.862   3.303  14.706  0.1463 -0.0200  0.1585
    5TMC2     O14400   3.791   3.313  14.804  0.3337 -0.3366  0.3196
    5TMC2     H14401   4.079   3.364  14.545 -0.9048 -0.5810 -0.4087
    5TMC2    H114402   3.940   3.179  14.905  1.2629 -1.1753 -0.5010
    5TMC2    H214403   4.274   3.451  14.900 -0.4794 -0.0625  0.3897
    5TMC2    C714404   4.042   3.388  15.034 -1.0410  0.2066 -0.2577
    5TMC2    C814405   4.299   3.475  14.649 -0.2467  1.1978  0.1341
    5TMC2    O114406   4.071   3.507  15.033 -0.4789 -0.2185  0.1943
    5TMC2    O214407   4.398   3.510  14.712 -0.2310 -0.0638 -0.5362
    5TMC2    O514408   4.259   3.521  14.532  0.4573 -0.5491 -0.4472
    5TMC2    H514409   4.164   3.515  14.507  0.3099  0.3936 -0.1250
    6MPD2     C14410   3.504   3.579  14.500 -0.3584 -0.1773  0.3904
    6MPD2    C114411   3.568   3.590  14.615  0.2744 -0.1659 -0.0592
    6MPD2    C214412   3.672   3.504  14.640 -0.4268 -0.3857 -0.5875
    6MPD2    C314413   3.723   3.417  14.547  0.0253 -0.5903 -0.5861
    6MPD2    C414414   3.664   3.413  14.420  0.1754  0.0397  0.2274
    6MPD2    C514415   3.545   3.487  14.403 -0.3564 -0.3863  0.0601
    6MPD2     H14416   3.718   3.518  14.737 -0.7741  0.9083 -0.6082
    6MPD2    H114417   3.689   3.335  14.349 -1.9480  0.0678 -0.5557
    6MPD2    H214418   3.409   3.629  14.484  0.8281  1.8019 -0.5254
    6MPD2    H314419   3.480   3.475  14.317  0.7877  0.1027 -0.8686
    6MPD2     N14420   3.834   3.338  14.577 -0.2378 -0.7021  0.2422
    6MPD2    H514421   3.895   3.309  14.501  0.4682  0.7024  0.2612
    6MPD2    N114422   3.533   3.679  14.713 -0.2853  0.4977 -0.3126
    6MPD2    H714423   3.582   3.675  14.801 -0.3752  1.0135 -0.2408
  945NH4     N114424   1.320   4.307  12.458 -0.4263  0.8353  0.3965
  945NH4     H214425   1.378   4.375  12.405 -0.0151 -0.5717 -0.9421
  945NH4     H314426   1.351   4.209  12.441  1.5093  1.4990  0.0707
  945NH4     H414427   1.220   4.312  12.428  0.0992  2.3277 -1.1335
  945NH4     H514428   1.323   4.319  12.561 -1.9637 -1.9759  0.7497
  946SOD     NA14429   3.936   4.082   0.858 -0.2874 -0.0989 -0.5346
  947SOD     NA14430   3.866   4.297  14.699 -0.4768  0.5272 -0.7238
  948SOD     NA14431   3.816   3.128  10.205  0.4021 -0.0844 -0.0287
  949SOD     NA14432   0.597   2.499  17.128 -0.0259 -0.4018  0.1309
  950SOD     NA14433   3.330   0.041   1.431  0.2708  0.3749 -0.2321
  951SOD     NA14434   1.204   1.270  17.304  0.1583  0.6512 -0.1662
  952SOD     NA14435   2.252   3.464   0.763  0.2571 -0.1710  0.5507
  953SOD     NA14436   2.016   0.171  11.892 -0.5995  0.0910  0.3565
  954SOD     NA14437   0.673   3.799   6.071 -0.1904 -0.2088 -0.0249
  955SOD     NA14438   3.859   3.082  12.900  0.0263 -0.3717 -0.0539
  956SOD     NA14439   2.726   1.557  16.908 -0.1459  0.2966  0.2434
  957SOD     NA14440   2.939   1.870   9.447  0.0174  0.4712  0.0208
  958SOD     NA14441   2.888   1.113  13.154 -0.2186 -0.2432 -0.0576
  959SOD     NA14442   2.368   1.155   7.801 -0.1718 -0.0862  0.2479
  960SOD     NA14443   4.037   4.485  12.889 -0.7297  0.0830 -0.2208
  961SOD     NA14444   2.718   2.155  10.729  0.1165  0.4303 -0.6197
  962SOD     NA14445   2.117   1.876  15.272 -0.2135  0.3205 -0.0805
  963SOD     NA14446   3.176   3.908  11.102 -0.2678  0.2130 -0.7715
  964SOD     NA14447   4.563   0.609   6.488  0.6986  0.2828  0.1842
  965SOD     NA14448   0.175   1.668   6.433  0.2150 -0.5131  0.3997
  966SOD     NA14449   3.054   1.955  10.537  0.3827 -0.6096  0.1257
  967SOD     NA14450   1.921   3.847  14.003 -0.1785  0.3443 -0.0488
  968SOD     NA14451   3.616   0.348   6.946  0.2908 -0.6624  0.6479
  969SOD     NA14452   3.142   0.054   1.678 -0.7607  0.0121  0.5574
  970SOD     NA14453   4.316   3.137  11.759 -0.0839  0.0044  0.2645
  971SOD     NA14454   2.760   3.977   9.583  0.2282 -0.6048  0.0449
  972SOD     NA14455   0.986   4.340   0.435  0.1466 -0.2389  0.4388
  973SOD     NA14456   3.093   0.168  11.738  0.0293 -0.0999 -0.6681
  974SOD     NA14457   4.623   2.484  12.301 -0.2027  0.1060 -0.4904
  975SOD     NA14458   2.198   2.025   9.951 -0.0037  0.2812  0.2105
  976SOD     NA14459   0.873   3.286  14.555 -0.0595 -0.1024  0.0247
  977SOD     NA14460   1.145   3.653   2.744 -0.0072 -0.2744  0.2021
  978SOD     NA14461   1.328   1.697  15.318 -0.0029 -0.4805 -0.4031
  979SOD     NA14462   0.586   4.307   3.135  0.2267  0.3079  0.7024
  980SOD     NA14463   0.527   2.959  14.493 -0.0744  0.0243 -0.2021
  981SOD     NA14464   2.609   2.977   9.898  0.0421  0.1538 -0.4513
  982SOD     NA14465   2.741   2.377  10.512  0.2678 -0.1125  0.2547
  983SOD     NA14466   3.670   0.235   0.170 -0.4996  0.6097  0.2544
  984SOD     NA14467   2.953   1.960   1.558  0.5382 -0.0096  0.2276
  985SOD     NA14468   4.386   2.611  12.086 -0.3092 -0.1272  0.2949
  986SOD     NA14469   1.038   4.480  14.328  0.7647 -0.0929 -0.0806
  987SOD     NA14470   3.709   0.283  16.009  0.1646 -0.3588 -0.0324
  988SOD     NA14471   2.889   3.237  13.212  0.0639  0.3004  0.3441
  989SOD     NA14472   3.103   3.302   1.162 -0.1350 -0.0440  0.0883
  990SOD     NA14473   2.212   2.037  12.480 -0.7033 -0.1277  0.1902
  991SOD     NA14474   4.054   4.365  14.391 -0.2750  0.1716  0.0708
  992SOD     NA14475   2.618   2.672  14.983  0.2772 -0.3891 -0.3745
  993SOD     NA14476   1.324   3.945  16.306 -0.1592  0.0424 -0.1523
  994SOD     NA14477   2.299   3.315  13.556  0.1808 -0.1263  0.4097
  995SOD     NA14478   2.195   3.356   0.454 -0.1196 -0.7959 -0.2998
  996SOD     NA14479   2.825   1.950  11.583  0.3816  0.3860 -0.2713
  997SOD     NA14480   1.815   1.574   1.329 -0.0574  0.0563 -0.0332
  998SOD     NA14481   0.750   3.789  10.854  0.0457  0.1642 -0.0043
  999SOD     NA14482   2.205   3.268   1.073 -0.1896  0.1830 -0.4497
 1000SOD     NA14483   2.126   4.059  10.664  0.1429  0.1063  0.2236
 1001SOD     NA14484   0.478   2.820   2.949  0.0833  0.1856 -0.6441
 1002SOD     NA14485   1.234   0.578   3.862  0.1044 -0.0230 -0.3200
 1003SOD     NA14486   2.701   4.263  10.688 -0.9279  0.1928  0.4717
 1004SOD     NA14487   2.063   2.072  12.770  0.2308  0.4421 -0.4343
 1005SOD     NA14488   2.607   2.520   8.770  0.2997 -0.3586  0.1742
 1006SOD     NA14489   4.243   1.404   2.032  0.0237 -0.4870  0.0249
 1007SOD     NA14490   4.487   2.216  10.848 -0.0514 -0.2311 -0.1385
 1008SOD     NA14491   3.152   2.080   9.316 -0.0319  0.3047  0.3671
 1009SOD     NA14492   4.669   0.580  11.860  0.1271  0.2585  0.2928
 1010SOD     NA14493   4.697   3.945  15.222 -0.2092  0.1591 -0.1840
 1011SOL     OW14494   3.768   4.640   4.062 -0.3500 -0.1195  0.4423
 1011SOL    HW114495   3.720   4.657   3.980 -0.6430  1.4216  0.9425
 1011SOL    HW214496   3.858   4.649   4.031 -0.5507 -2.0126 -0.7141
 1012SOL     OW14497   3.373   4.302   9.262 -0.3200  0.2876  0.0756
 1012SOL    HW114498   3.396   4.321   9.353 -0.9909 -2.7352  0.8774
 1012SOL    HW214499   3.341   4.390   9.246 -1.1319  0.1336  0.8017
 1013SOL     OW14500   0.774   0.567  14.135 -0.4366  0.0556  0.6828
 1013SOL    HW114501   0.784   0.495  14.074  0.6132 -1.0891  2.2073
 1013SOL    HW214502   0.840   0.623  14.094  0.4034 -0.1661  1.7173
 1014SOL     OW14503   2.893   1.619   4.608 -0.2228 -0.6667 -0.6609
 1014SOL    HW114504   2.868   1.527   4.611  0.2965 -0.8040 -0.4564
 1014SOL    HW214505   2.845   1.644   4.687 -0.7099  3.1645 -2.1683
 1015SOL     OW14506   0.564   1.480   3.103 -0.2723 -0.8661 -0.0514
 1015SOL    HW114507   0.649   1.441   3.085 -0.0658 -0.6621  0.4685
 1015SOL    HW214508   0.514   1.453   3.026 -0.4542  1.4550 -0.7562
 1016SOL     OW14509   4.202   2.349   8.501  0.6619  0.1972  0.7838
 1016SOL    HW114510   4.112   2.341   8.534 -0.8265  0.0325 -3.3762
 1016SOL    HW214511   4.201   2.283   8.432 -0.7334  1.5066 -0.4487
 1017SOL     OW14512   4.650   2.350  11.432  0.3425 -0.1113  0.2414
 1017SOL    HW114513   4.558   2.352  11.406  0.4175  1.9331  0.1084
 1017SOL    HW214514   4.685   2.310  11.353  1.3360  1.2387  0.0017
 1018SOL     OW14515   3.210   2.351   4.435  0.4961  0.2837 -0.4499
 1018SOL    HW114516   3.141   2.377   4.495 -0.0916  0.0879 -1.0417
 1018SOL    HW214517   3.280   2.413   4.456  2.1178 -1.4149 -0.7169
 1019SOL     OW14518   1.735   0.402   6.431  0.4937 -0.0353 -0.3850
 1019SOL    HW114519   1.786   0.343   6.375  1.3528 -0.5466  0.9379
 1019SOL    HW214520   1.737   0.365   6.520  1.3326 -0.3336 -0.5290
 1020SOL     OW14521   0.921   2.413  11.264 -0.4874 -0.2964 -0.5120
 1020SOL    HW114522   0.966   2.483  11.216  0.2498 -1.0366 -0.9141
 1020SOL    HW214523   0.837   2.456  11.255 -0.1153  0.7359  1.0540
 1021SOL     OW14524   3.401   0.348   1.866  0.2672 -0.0710 -0.1201
 1021SOL    HW114525   3.335   0.346   1.797  0.8650  3.0585 -0.7942
 1021SOL    HW214526   3.356   0.403   1.931 -1.2535 -0.5150 -0.8104
 1022SOL     OW14527   0.581   0.111   6.129 -0.6573  0.5394 -0.7871
 1022SOL    HW114528   0.611   0.134   6.041  0.3428  1.0662 -0.3073
 1022SOL    HW214529   0.609   0.189   6.177  0.5446 -0.8632  0.7512
 1023SOL     OW14530   0.323   1.486   3.588 -0.0191  0.4468  0.1517
 1023SOL    HW114531   0.368   1.508   3.506 -0.5523 -0.8309 -0.4933
 1023SOL    HW214532   0.244   1.540   3.592 -1.7591 -2.0488 -0.4294
 1024SOL     OW14533   0.651   1.430   4.740  0.1947 -0.2604 -0.0996
 1024SOL    HW114534   0.564   1.446   4.704  0.1143 -0.6698 -0.0858
 1024SOL    HW214535   0.666   1.338   4.721 -1.5053 -0.0683 -2.3513
 1025SOL     OW14536   1.462   2.327   4.108 -0.5638  0.2410  0.0257
 1025SOL    HW114537   1.443   2.346   4.016 -1.7285  1.5141  0.5468
 1025SOL    HW214538   1.538   2.383   4.124 -1.3515  1.1917  0.4060
 1026SOL     OW14539   4.080   2.925   7.101  0.0078 -0.3726  0.2646
 1026SOL    HW114540   4.115   2.866   7.035  0.9460 -0.2018  0.6081
 1026SOL    HW214541   4.038   2.979   7.034  2.5825  1.2616 -0.0275
 1027SOL     OW14542   0.341   2.205   4.589 -0.1154  0.2676  0.1699
 1027SOL    HW114543   0.335   2.192   4.494 -1.3022 -0.9601  0.4156
 1027SOL    HW214544   0.325   2.113   4.611 -1.7735  1.0740  2.2528
 1028SOL     OW14545   1.928   3.608   4.089 -0.2933  0.3865 -0.3790
 1028SOL    HW114546   1.870   3.634   4.018 -0.8805  0.5132  0.1476
 1028SOL    HW214547   1.860   3.569   4.143  0.2446  0.0045  0.0142
 1029SOL     OW14548   1.010   3.847   2.755  0.0373  0.1760  0.2054
 1029SOL    HW114549   1.047   3.924   2.798  2.0521 -0.1573 -0.8958
 1029SOL    HW214550   0.975   3.869   2.669  0.7149  1.7721  0.3349
 1030SOL     OW14551   0.701   3.872   8.031  0.0439  0.1736 -0.4769
 1030SOL    HW114552   0.672   3.909   7.948 -0.3741  0.1232 -0.3530
 1030SOL    HW214553   0.630   3.818   8.066  0.3584  0.0653  0.0003
 1031SOL     OW14554   2.206   3.074  16.122  0.3346  0.4855  0.2270
 1031SOL    HW114555   2.266   3.140  16.158 -0.0797  0.3588  1.1655
 1031SOL    HW214556   2.248   3.002  16.075 -1.6220  0.2223 -1.1125
 1032SOL     OW14557   3.797   1.989  14.213 -0.2109  0.2166 -0.3466
 1032SOL    HW114558   3.761   2.049  14.148 -0.1845 -1.1338 -1.6045
 1032SOL    HW214559   3.771   1.901  14.184  0.3030 -0.3200  0.8427
 1033SOL     OW14560   0.764   0.043   1.197 -0.1516 -0.4315 -0.4570
 1033SOL    HW114561   0.739   0.008   1.282 -2.5732  0.7960 -0.6551
 1033SOL    HW214562   0.798   0.130   1.219 -4.2884  0.6978  1.5348
 1034SOL     OW14563   2.250   3.472  11.155  0.6818  0.1317  0.3350
 1034SOL    HW114564   2.302   3.440  11.228  0.6636  1.0434  0.7446
 1034SOL    HW214565   2.165   3.430  11.168  0.6825 -0.0310 -0.1781
 1035SOL     OW14566   2.252   1.027   3.626  0.6531  0.1047 -0.2643
 1035SOL    HW114567   2.175   1.079   3.600  0.5354 -0.6405 -1.3764
 1035SOL    HW214568   2.257   1.050   3.719 -0.5195 -1.4889  0.1898
 1036SOL     OW14569   4.690   1.016   3.145  0.6507  0.2969  0.1439
 1036SOL    HW114570   4.693   1.092   3.204 -0.6275  0.5285 -0.0894
 1036SOL    HW214571   0.045   1.030   3.084 -1.5926  0.7874 -2.3702
 1037SOL     OW14572   2.174   2.833  12.441 -0.0561 -0.4837  0.8052
 1037SOL    HW114573   2.237   2.904  12.430 -0.7196  0.0615  0.5144
 1037SOL    HW214574   2.182   2.816  12.535  1.0747 -0.4453  0.7148
 1038SOL     OW14575   2.231   1.184   8.809 -0.0154 -0.8555 -0.0527
 1038SOL    HW114576   2.210   1.134   8.730 -0.1553  0.3270 -0.7577
 1038SOL    HW214577   2.305   1.230   8.770 -0.6311  0.2770  0.1287
 1039SOL     OW14578   1.327   3.476   5.939 -0.0522  0.9033  0.2098
 1039SOL    HW114579   1.232   3.480   5.937 -0.1114  0.0897  1.8507
 1039SOL    HW214580   1.339   3.481   5.844 -0.1524 -0.1274  0.1507
 1040SOL     OW14581   3.629   2.777   4.972  0.0999  0.0714 -0.5149
 1040SOL    HW114582   3.656   2.757   5.061  1.4037 -1.2432 -1.2209
 1040SOL    HW214583   3.564   2.706   4.971  0.3877 -0.2187  1.1654
 1041SOL     OW14584   1.051   3.031   1.943  0.6885 -0.5596 -0.4477
 1041SOL    HW114585   1.025   3.034   1.851  0.8179  1.9381 -0.3806
 1041SOL    HW214586   1.142   3.006   1.932  0.3698 -1.2756 -1.4151
 1042SOL     OW14587   0.042   1.581   6.996  0.1255 -0.1098  0.7323
 1042SOL    HW114588   0.023   1.600   7.088  0.2869 -1.6374  1.0801
 1042SOL    HW214589   4.675   1.560   6.956  0.1373 -2.0502  1.7493
 1043SOL     OW14590   1.926   0.283   2.741 -0.0069 -0.0432  0.1911
 1043SOL    HW114591   1.941   0.316   2.652 -2.4064  1.6195  0.3955
 1043SOL    HW214592   1.926   0.365   2.789  2.3827 -1.3298  2.4010
 1044SOL     OW14593   2.452   0.254   9.120 -0.3762  0.7149 -0.2536
 1044SOL    HW114594   2.379   0.201   9.150  1.5703 -0.9006  1.6582
 1044SOL    HW214595   2.416   0.340   9.100  0.1518  1.3547  1.5673
 1045SOL     OW14596   3.318   1.851   8.513 -0.1112  0.4001  0.4056
 1045SOL    HW114597   3.313   1.938   8.553  1.2239  0.3326  0.7351
 1045SOL    HW214598   3.229   1.841   8.479  0.1041  2.3675 -0.7160
 1046SOL     OW14599   1.287   4.114   5.741 -0.3434 -0.3479 -0.3928
 1046SOL    HW114600   1.269   4.117   5.647  3.3588 -1.1800 -1.1156
 1046SOL    HW214601   1.382   4.114   5.733 -0.4214 -1.6495 -1.2894
 1047SOL     OW14602   1.554   4.378  10.772  0.6373 -0.3113  0.0706
 1047SOL    HW114603   1.632   4.427  10.800 -0.9451  1.2082  1.7869
 1047SOL    HW214604   1.577   4.361  10.681  2.2980 -0.6840  0.5508
 1048SOL     OW14605   0.542   1.393   2.820 -0.0243  0.4510  0.6293
 1048SOL    HW114606   0.541   1.301   2.793 -1.9897  0.7919 -0.4333
 1048SOL    HW214607   0.517   1.437   2.739 -0.2777  1.1440  1.0830
 1049SOL     OW14608   1.204   2.570   8.735  0.3334  0.0786 -0.2853
 1049SOL    HW114609   1.201   2.655   8.691 -0.3777 -0.4727 -1.3022
 1049SOL    HW214610   1.287   2.570   8.783 -0.6020  1.4249  1.3695
 1050SOL     OW14611   0.878   3.153   9.579 -0.5666  0.4231 -0.2954
 1050SOL    HW114612   0.896   3.101   9.501 -3.4783  0.2067 -0.8194
 1050SOL    HW214613   0.816   3.090   9.614 -0.7413  1.1572  0.7164
 1051SOL     OW14614   1.235   2.253   9.937 -0.5973  0.0405  0.2639
 1051SOL    HW114615   1.235   2.263  10.032  1.2774  2.6360 -0.0212
 1051SOL    HW214616   1.318   2.296   9.916 -1.2427  2.0114  1.6667
 1052SOL     OW14617   3.853   3.248   7.303  0.0676 -0.1502 -0.5139
 1052SOL    HW114618   3.944   3.229   7.281  0.8428  0.2039  2.3960
 1052SOL    HW214619   3.860   3.334   7.344  3.3585 -1.5061  1.7543
 1053SOL     OW14620   0.465   1.146   2.722 -0.3311 -0.2053 -0.3220
 1053SOL    HW114621   0.379   1.105   2.721  0.1574 -1.2264 -2.6806
 1053SOL    HW214622   0.515   1.064   2.725  0.2011  0.1529  0.4776
 1054SOL     OW14623   4.116   4.682   6.816  0.3350 -0.4195 -0.3115
 1054SOL    HW114624   4.146   4.625   6.887 -3.7521  0.2456  1.9518
 1054SOL    HW214625   4.070   0.026   6.873  1.9675 -2.0904  2.8106
 1055SOL     OW14626   1.197   1.439   8.036 -0.4534  0.2666  0.4154
 1055SOL    HW114627   1.246   1.435   7.955 -1.0674  0.3594  0.0396
 1055SOL    HW214628   1.224   1.358   8.080 -1.4101  0.5773  1.5829
 1056SOL     OW14629   2.485   1.214  14.842  0.3757 -0.2205  0.0201
 1056SOL    HW114630   2.389   1.221  14.847  0.4766  0.8873  0.4639
 1056SOL    HW214631   2.493   1.119  14.851 -0.1273 -0.2447  0.2521
 1057SOL     OW14632   1.685   2.381  11.112  0.4609 -0.0169  0.0312
 1057SOL    HW114633   1.688   2.352  11.021  4.3413 -0.0902  0.1624
 1057SOL    HW214634   1.601   2.427  11.114  0.9460  0.8404  1.5560
 1058SOL     OW14635   1.017   4.084   5.847 -0.2616 -0.0564  0.2555
 1058SOL    HW114636   1.105   4.059   5.819  0.0349  2.1084 -0.7164
 1058SOL    HW214637   1.042   4.156   5.904  1.9632  1.0118 -2.0720
 1059SOL     OW14638   2.320   1.384   9.401 -0.3714 -0.1779 -0.8237
 1059SOL    HW114639   2.232   1.389   9.437  0.5961  1.6315  1.2266
 1059SOL    HW214640   2.296   1.362   9.311 -3.3653  2.3474 -0.6210
 1060SOL     OW14641   1.882   2.524  10.757 -0.1374  0.3610 -0.2356
 1060SOL    HW114642   1.951   2.560  10.702  1.4489  0.8467  2.0529
 1060SOL    HW214643   1.809   2.520  10.695 -0.9154  1.0455  0.6119
 1061SOL     OW14644   3.860   2.693   1.158 -0.6176  0.0688 -0.0414
 1061SOL    HW114645   3.920   2.741   1.099 -0.6873  0.3413  0.1093
 1061SOL    HW214646   3.792   2.664   1.097  0.6503 -2.6945 -0.1209
 1062SOL     OW14647   2.780   1.523   1.755  0.8924  0.3021  0.3604
 1062SOL    HW114648   2.791   1.520   1.660 -0.3738  0.7365  0.1994
 1062SOL    HW214649   2.870   1.551   1.771  0.6642  1.9428 -1.3404
 1063SOL     OW14650   1.461   0.715  10.467  0.3790  0.3229 -0.2152
 1063SOL    HW114651   1.533   0.775  10.487  1.8123 -1.5014  0.0947
 1063SOL    HW214652   1.435   0.688  10.555  1.8608  0.6198  0.3237
 1064SOL     OW14653   1.459   2.820   5.164 -0.3154  0.7126 -0.5428
 1064SOL    HW114654   1.441   2.782   5.078 -2.6162 -0.1561  0.3253
 1064SOL    HW214655   1.546   2.858   5.149  1.1825 -2.6431 -0.3949
 1065SOL     OW14656   3.986   4.073   0.412  0.2924  0.0318  0.3248
 1065SOL    HW114657   4.079   4.078   0.435  0.1289  0.3796  0.9172
 1065SOL    HW214658   3.958   4.164   0.409  1.1419  0.2891  0.1631
 1066SOL     OW14659   1.004   0.870   5.318  0.1285  0.0261  0.4091
 1066SOL    HW114660   1.049   0.953   5.335  0.8266 -0.2271 -0.1965
 1066SOL    HW214661   1.082   0.815   5.317 -0.4235 -0.7523  0.0979
 1067SOL     OW14662   3.137   1.534   3.564  0.1246 -0.5047  0.4082
 1067SOL    HW114663   3.112   1.592   3.636 -0.9520 -0.2747 -0.1467
 1067SOL    HW214664   3.164   1.598   3.498  1.2948 -0.7475  0.6546
 1068SOL     OW14665   1.275   4.048  12.315  0.2376  0.0961  0.0168
 1068SOL    HW114666   1.185   4.030  12.287 -0.3306  1.8917  0.6109
 1068SOL    HW214667   1.322   4.067  12.235  1.6556 -2.2102  0.3153
 1069SOL     OW14668   0.111   2.531   2.856 -0.4796  0.8850 -0.3616
 1069SOL    HW114669   0.098   2.464   2.923 -1.5921 -0.3523 -1.8242
 1069SOL    HW214670   0.192   2.498   2.817 -0.0447  1.2256  0.2480
 1070SOL     OW14671   1.739   3.898  17.038  0.0952  0.8608  0.1749
 1070SOL    HW114672   1.833   3.916  17.040 -0.0133  1.3070  1.4770
 1070SOL    HW214673   1.708   3.903  17.128  1.1308 -1.1152  0.6351
 1071SOL     OW14674   0.607   0.719   8.178 -0.0201  0.2429 -0.6155
 1071SOL    HW114675   0.572   0.795   8.226 -0.2939  1.0089 -2.0126
 1071SOL    HW214676   0.677   0.684   8.232 -1.9693 -0.4391  1.4969
 1072SOL     OW14677   2.921   1.502  13.396 -0.2719  0.3080 -0.2566
 1072SOL    HW114678   2.960   1.588  13.406  0.3448  0.2618 -2.1885
 1072SOL    HW214679   2.831   1.530  13.377 -0.8493  0.0541  2.1445
 1073SOL     OW14680   0.524   0.301   1.223 -0.6063 -0.8264 -0.7365
 1073SOL    HW114681   0.529   0.397   1.231 -0.5177 -0.9461  0.6114
 1073SOL    HW214682   0.435   0.286   1.256 -0.1600  1.5318  1.5413
 1074SOL     OW14683   1.756   1.823   7.164  0.0460  0.1760  0.1011
 1074SOL    HW114684   1.738   1.917   7.172  2.0603  0.7315 -1.7674
 1074SOL    HW214685   1.732   1.814   7.072 -1.2812  0.7070  0.4016
 1075SOL     OW14686   1.870   0.706   2.527 -0.4447  0.4543 -0.1502
 1075SOL    HW114687   1.894   0.693   2.435 -1.8685  0.2484 -0.4937
 1075SOL    HW214688   1.950   0.705   2.579 -1.4894  0.5265  1.4496
 1076SOL     OW14689   0.820   0.811   2.986  0.4111  0.5575  0.3293
 1076SOL    HW114690   0.774   0.775   2.910  1.5990 -1.3229  0.4869
 1076SOL    HW214691   0.808   0.742   3.052 -3.2712  0.1989 -0.7084
 1077SOL     OW14692   2.302   3.005   6.209 -0.4600 -0.7594 -0.3562
 1077SOL    HW114693   2.353   2.935   6.250  1.4039 -0.0254 -1.4351
 1077SOL    HW214694   2.343   3.009   6.122 -1.4834 -0.7301 -0.8406
 1078SOL     OW14695   3.681   1.095  15.770 -0.6219  0.1641 -0.5633
 1078SOL    HW114696   3.670   1.092  15.865 -0.3040  0.9363 -0.4991
 1078SOL    HW214697   3.767   1.135  15.759 -0.2806 -0.0372  1.4917
 1079SOL     OW14698   3.291   0.353   6.010  0.1233  0.7163  1.0283
 1079SOL    HW114699   3.221   0.312   6.061 -2.3138  0.4770 -2.5269
 1079SOL    HW214700   3.290   0.298   5.932  2.9115 -1.4019  2.4559
 1080SOL     OW14701   4.110   1.623   5.647 -0.2823  0.2178 -0.0119
 1080SOL    HW114702   4.193   1.670   5.640 -1.1134  1.6054 -0.7275
 1080SOL    HW214703   4.112   1.576   5.564  0.6049  0.1072  0.0697
 1081SOL     OW14704   4.181   3.016   6.653  0.4516  0.1466  0.9045
 1081SOL    HW114705   4.255   2.999   6.711  0.1726 -0.1084  1.1846
 1081SOL    HW214706   4.103   2.975   6.691  0.1958  0.9293  1.2319
 1082SOL     OW14707   2.019   1.346   5.799 -0.5500  0.2422 -0.4063
 1082SOL    HW114708   2.018   1.265   5.850 -1.3165 -0.2349 -1.1728
 1082SOL    HW214709   2.048   1.408   5.866 -0.5422  0.8145 -0.9410
 1083SOL     OW14710   1.745   0.418   0.941  0.2457  0.2411 -0.3221
 1083SOL    HW114711   1.825   0.450   0.982  0.4497 -1.5732  0.6788
 1083SOL    HW214712   1.690   0.496   0.941  2.9579  2.1343  0.7191
 1084SOL     OW14713   4.350   4.407   7.626 -0.4324  0.4749 -0.1460
 1084SOL    HW114714   4.370   4.337   7.564 -1.6720 -0.4850  0.5380
 1084SOL    HW214715   4.367   4.354   7.704 -0.9170  1.3179  0.5251
 1085SOL     OW14716   4.707   2.942  16.296 -0.1240  0.7526  0.0771
 1085SOL    HW114717   4.703   3.029  16.336 -1.1939  0.7919 -0.0954
 1085SOL    HW214718   0.077   2.942  16.257 -1.7692  3.1862 -3.6743
 1086SOL     OW14719   3.461   1.384   4.875  0.9909 -0.1931 -0.1553
 1086SOL    HW114720   3.410   1.303   4.874  0.5213  0.0810  1.5563
 1086SOL    HW214721   3.508   1.392   4.792  0.3066  2.1124 -0.3177
 1087SOL     OW14722   2.282   3.935   8.249 -0.3119  0.2741 -0.4296
 1087SOL    HW114723   2.357   3.993   8.229  0.7463 -0.5244  1.2236
 1087SOL    HW214724   2.243   3.959   8.165 -0.8847  0.8979  0.0123
 1088SOL     OW14725   2.925   1.922  13.700 -0.3087  0.2289 -0.7389
 1088SOL    HW114726   2.943   1.992  13.763 -1.2010  1.8378 -2.2758
 1088SOL    HW214727   2.848   1.881  13.740 -0.3104 -0.1928 -1.1719
 1089SOL     OW14728   0.790   4.349   8.206  0.1426  0.0254 -0.6039
 1089SOL    HW114729   0.803   4.254   8.207 -2.0020 -0.2458  0.7164
 1089SOL    HW214730   0.848   4.380   8.136 -0.4270 -0.5447 -1.3240
 1090SOL     OW14731   1.946   1.509   5.327 -0.5065  0.2712 -0.3395
 1090SOL    HW114732   2.039   1.504   5.304 -0.5081  0.9999 -0.4963
 1090SOL    HW214733   1.909   1.573   5.267 -0.9488 -0.7424 -1.1515
 1091SOL     OW14734   0.030   2.247   4.899  0.3254  0.3241 -0.6518
 1091SOL    HW114735   4.697   2.293   4.832 -3.3839 -0.2794  1.6943
 1091SOL    HW214736   0.115   2.232   4.859  0.7898  0.7441  0.1780
 1092SOL     OW14737   1.533   1.050   4.250  0.3926  0.6943 -0.5685
 1092SOL    HW114738   1.556   0.962   4.221  1.2410  0.8858 -0.4692
 1092SOL    HW214739   1.567   1.087   4.169 -0.6055  1.4785 -0.6381
 1093SOL     OW14740   4.289   3.019   1.331  0.0186 -0.0432  0.0649
 1093SOL    HW114741   4.324   3.012   1.420  1.9701 -1.3638 -0.8174
 1093SOL    HW214742   4.195   3.000   1.337 -0.2527  1.1361 -0.4374
 1094SOL     OW14743   0.464   0.819   3.673  0.1250 -0.1830 -0.0673
 1094SOL    HW114744   0.450   0.904   3.715 -2.5531 -0.8702  0.4287
 1094SOL    HW214745   0.464   0.840   3.580  0.5138 -1.6978 -0.4082
 1095SOL     OW14746   1.557   1.652  17.118 -0.1547  0.0233 -0.1233
 1095SOL    HW114747   1.504   1.688  17.046  1.1314 -1.1941 -1.6780
 1095SOL    HW214748   1.586   1.567  17.084 -1.1049  0.8001 -2.9050
 1096SOL     OW14749   4.700   4.496   1.225 -0.6404  0.0571 -0.2096
 1096SOL    HW114750   0.036   4.508   1.147  0.2303 -2.6810 -0.0160
 1096SOL    HW214751   0.024   4.422   1.268 -1.2825 -1.0725 -1.5292
 1097SOL     OW14752   4.376   2.058   3.612  0.3666 -0.1701 -0.2573
 1097SOL    HW114753   4.359   2.151   3.625 -0.3782 -0.7066  2.4716
 1097SOL    HW214754   4.452   2.056   3.670 -0.6805  1.8762  1.1776
 1098SOL     OW14755   2.082   4.016   7.361 -0.0878 -0.6445  0.4333
 1098SOL    HW114756   2.008   4.060   7.319  0.8158  1.3222  0.8925
 1098SOL    HW214757   2.037   3.932   7.373  1.4936 -1.7067 -1.1347
 1099SOL     OW14758   2.581   1.147   5.483 -0.0842  0.9313 -0.1914
 1099SOL    HW114759   2.670   1.182   5.469  0.7418 -1.6732 -1.3321
 1099SOL    HW214760   2.593   1.053   5.471 -0.8842  0.7752  0.2462
 1100SOL     OW14761   4.554   3.075   5.108  0.4772 -0.0744  0.0436
 1100SOL    HW114762   4.581   3.088   5.017 -0.6762 -0.5503 -0.3655
 1100SOL    HW214763   4.488   3.145   5.104  0.9146  0.1818 -3.0539
 1101SOL     OW14764   2.346   1.330   7.948  0.4267 -0.5156 -0.3131
 1101SOL    HW114765   2.335   1.288   8.033  2.2309  1.5550  0.9493
 1101SOL    HW214766   2.360   1.423   7.967 -1.0641 -0.3787  0.0713
 1102SOL     OW14767   4.198   4.669  13.463 -0.1760 -0.5116  0.1869
 1102SOL    HW114768   4.200   4.577  13.438  0.0343  0.1268 -2.1029
 1102SOL    HW214769   4.236   4.714  13.388  2.2784 -1.1852  1.0524
 1103SOL     OW14770   2.366   0.186  14.732  0.3577  0.2273 -0.4273
 1103SOL    HW114771   2.454   0.210  14.704  0.9835 -0.1596  1.2547
 1103SOL    HW214772   2.386   0.108  14.783 -0.7034  0.6748  0.6800
 1104SOL     OW14773   4.053   3.099  16.602 -0.2604  0.1621 -0.4313
 1104SOL    HW114774   4.062   3.166  16.671  0.6241  0.0980 -0.4924
 1104SOL    HW214775   3.993   3.042  16.650  0.8681  0.1032  0.9085
 1105SOL     OW14776   1.843   3.626   6.530  0.5528  0.2268 -0.2945
 1105SOL    HW114777   1.801   3.616   6.444 -0.1091 -2.2062  0.2990
 1105SOL    HW214778   1.927   3.658   6.498  1.0375 -2.2507 -1.5886
 1106SOL     OW14779   2.788   0.160  15.664  0.0663  0.0157 -0.4381
 1106SOL    HW114780   2.692   0.168  15.659 -0.1274 -0.9907  1.7500
 1106SOL    HW214781   2.794   0.132  15.573 -0.7756  1.4075 -0.9300
 1107SOL     OW14782   3.264   1.138   4.288  0.3744 -0.1422 -0.5557
 1107SOL    HW114783   3.308   1.057   4.316  0.6595  0.6946  1.3819
 1107SOL    HW214784   3.263   1.140   4.192 -1.2313 -1.1443 -0.5616
 1108SOL     OW14785   3.599   0.293   4.815 -0.5294  0.1485  0.0563
 1108SOL    HW114786   3.600   0.388   4.805 -2.7775  0.1905  0.3894
 1108SOL    HW214787   3.510   0.273   4.787 -0.3056  0.2041 -0.7061
 1109SOL     OW14788   1.848   3.687   4.884 -0.4304  0.2181  0.1326
 1109SOL    HW114789   1.925   3.648   4.843 -0.7647 -0.3578  0.0639
 1109SOL    HW214790   1.871   3.780   4.883  1.7105 -0.2973  0.6517
 1110SOL     OW14791   0.605   0.818   8.494 -0.3149  0.4454  0.4871
 1110SOL    HW114792   0.527   0.820   8.439  1.9772  0.7662 -2.7146
 1110SOL    HW214793   0.599   0.903   8.538 -2.5044 -0.6439  2.3029
 1111SOL     OW14794   1.528   1.496  16.712  0.2744  0.4238  0.4623
 1111SOL    HW114795   1.467   1.422  16.712  0.3960  0.3367  3.7738
 1111SOL    HW214796   1.581   1.489  16.791 -0.8494 -1.9056  1.0296
 1112SOL     OW14797   0.589   3.876  13.686 -0.1965 -0.0508  0.4686
 1112SOL    HW114798   0.642   3.851  13.761 -0.9996 -1.7974  0.4554
 1112SOL    HW214799   0.572   3.968  13.705  0.6127  0.4439 -1.2181
 1113SOL     OW14800   3.417   2.255   8.372 -0.2389  0.1760 -0.1652
 1113SOL    HW114801   3.379   2.266   8.459  1.8126  0.3085  0.7214
 1113SOL    HW214802   3.445   2.163   8.366 -1.1273 -0.0831 -0.3082
 1114SOL     OW14803   1.741   1.707   3.674  0.1260  0.3342 -0.0007
 1114SOL    HW114804   1.764   1.661   3.594  1.3325  0.6675  0.1484
 1114SOL    HW214805   1.821   1.711   3.727 -1.5097  2.4318  2.3195
 1115SOL     OW14806   1.674   2.481   4.987 -0.7792 -0.1764 -0.2106
 1115SOL    HW114807   1.768   2.481   5.007 -0.5069 -1.7604 -1.5461
 1115SOL    HW214808   1.636   2.530   5.059  2.0174  0.9771  0.5014
 1116SOL     OW14809   0.681   0.636   4.669  0.2581  0.3117  0.4899
 1116SOL    HW114810   0.682   0.628   4.764 -0.3915 -0.9588  0.3963
 1116SOL    HW214811   0.611   0.571   4.659  0.8010 -0.4261  1.4636
 1117SOL     OW14812   2.783   3.899  10.031 -0.2605  0.0674 -0.6136
 1117SOL    HW114813   2.817   3.810  10.025 -1.4651 -0.1515 -3.7999
 1117SOL    HW214814   2.825   3.945   9.958 -1.7152 -0.7243 -1.9304
 1118SOL     OW14815   2.483   4.277  13.497 -0.1177 -0.0425  0.7357
 1118SOL    HW114816   2.450   4.321  13.419  0.5488 -1.0113 -0.0890
 1118SOL    HW214817   2.556   4.332  13.523 -1.7334  2.3750  0.1676
 1119SOL     OW14818   2.664   0.250  12.780 -0.5411  1.1006  0.1603
 1119SOL    HW114819   2.665   0.331  12.830 -0.4963  0.6767  0.8545
 1119SOL    HW214820   2.726   0.198  12.832 -2.4596 -1.0828  0.2688
 1120SOL     OW14821   2.771   4.397   7.322  0.5166 -0.3454 -0.4626
 1120SOL    HW114822   2.725   4.333   7.376 -1.7134 -0.3478 -2.3780
 1120SOL    HW214823   2.858   4.408   7.362  0.6112 -1.0184 -0.4925
 1121SOL     OW14824   3.532   0.192  10.581  0.0343 -0.6833 -0.0303
 1121SOL    HW114825   3.456   0.207  10.638  0.8903  0.1954  0.8762
 1121SOL    HW214826   3.540   0.278  10.541  1.1080 -0.7104  0.1312
 1122SOL     OW14827   0.922   4.355   7.216  0.0846  0.4471 -0.0579
 1122SOL    HW114828   0.841   4.376   7.261  0.8364  0.6059  1.2318
 1122SOL    HW214829   0.964   4.294   7.278  2.7422 -1.9914 -4.2264
 1123SOL     OW14830   3.646   3.178   3.645  0.1189  0.1802 -0.0143
 1123SOL    HW114831   3.631   3.100   3.700  0.7948 -1.5304 -2.2503
 1123SOL    HW214832   3.672   3.234   3.718 -1.2650  2.1034 -0.9832
 1124SOL     OW14833   4.505   0.501   8.693  0.5987 -0.1603 -0.0081
 1124SOL    HW114834   4.551   0.421   8.718  0.1768 -0.6707 -0.8652
 1124SOL    HW214835   4.577   0.551   8.655 -0.7018  1.5110 -0.2984
 1125SOL     OW14836   2.435   4.699   8.998  0.3813  0.0957 -0.2961
 1125SOL    HW114837   2.464   4.693   9.089 -0.9438 -0.1143  0.1137
 1125SOL    HW214838   2.348   4.663   9.012 -0.3070  1.2117 -1.7792
 1126SOL     OW14839   1.673   2.737  13.592 -0.5201 -0.3415  0.4938
 1126SOL    HW114840   1.594   2.790  13.581 -1.0635 -1.7925 -2.6360
 1126SOL    HW214841   1.635   2.650  13.601  0.3689 -0.7098  0.6456
 1127SOL     OW14842   3.099   4.107  13.328 -0.4269 -0.0315 -0.8070
 1127SOL    HW114843   3.189   4.134  13.349 -0.3486  1.1762 -2.7151
 1127SOL    HW214844   3.065   4.106  13.418  1.6324 -1.1728 -0.0460
 1128SOL     OW14845   3.180   1.693  14.505 -0.1630  0.1094  0.1703
 1128SOL    HW114846   3.139   1.606  14.509  1.8312 -0.7947  1.3642
 1128SOL    HW214847   3.264   1.682  14.459  1.1217 -0.1797  2.5690
 1129SOL     OW14848   3.317   3.291   4.629  0.2061  0.3526 -0.4658
 1129SOL    HW114849   3.223   3.277   4.643  0.9750 -2.6204  1.5407
 1129SOL    HW214850   3.319   3.380   4.593 -1.4166  0.8681  0.6813
 1130SOL     OW14851   1.658   2.777  16.709  0.3931  0.4963  0.1105
 1130SOL    HW114852   1.585   2.771  16.772 -0.5877 -1.6951 -1.2370
 1130SOL    HW214853   1.606   2.804  16.633  1.4345  2.8290  0.2424
 1131SOL     OW14854   3.349   3.844   4.251 -0.3298  0.1039 -0.1644
 1131SOL    HW114855   3.281   3.830   4.186 -0.8661  1.1098  0.1726
 1131SOL    HW214856   3.402   3.913   4.211  3.0321 -3.6334 -2.1339
 1132SOL     OW14857   1.876   2.139   3.509 -0.0258 -0.3602 -0.2368
 1132SOL    HW114858   1.861   2.125   3.416  2.7672 -2.1100 -0.4084
 1132SOL    HW214859   1.921   2.224   3.514 -1.8932  0.6865 -1.1017
 1133SOL     OW14860   1.443   1.291   4.054  0.2485  0.2906  0.6462
 1133SOL    HW114861   1.406   1.304   3.967 -0.3030  2.7921  1.2624
 1133SOL    HW214862   1.392   1.359   4.097 -0.9232 -0.1528 -0.0541
 1134SOL     OW14863   1.266   0.519   3.256 -0.0997 -0.3629  0.3171
 1134SOL    HW114864   1.327   0.590   3.235 -0.3462 -0.7221 -1.5943
 1134SOL    HW214865   1.315   0.447   3.217 -0.3805  0.1736 -1.0138
 1135SOL     OW14866   0.828   0.899  14.374 -0.2761  0.4151 -0.3487
 1135SOL    HW114867   0.898   0.849  14.332  0.2182  0.8582 -0.0500
 1135SOL    HW214868   0.873   0.947  14.444 -0.7120 -1.0260  0.9158
 1136SOL     OW14869   2.951   2.154   4.335  0.3826 -0.1205 -0.4685
 1136SOL    HW114870   3.036   2.194   4.353 -0.3122  0.8437  0.6379
 1136SOL    HW214871   2.894   2.174   4.409 -2.6496 -4.2441 -1.7075
 1137SOL     OW14872   4.068   1.661   6.937  0.2028  0.3812 -0.0574
 1137SOL    HW114873   4.063   1.649   6.842  0.0580 -0.7998  0.0929
 1137SOL    HW214874   4.038   1.752   6.938  1.9471  0.9785 -1.1607
 1138SOL     OW14875   4.173   1.776   5.299  0.5290  0.1985 -0.2986
 1138SOL    HW114876   4.197   1.859   5.340 -0.9034  0.0642  0.8431
 1138SOL    HW214877   4.210   1.779   5.211  2.4757 -1.1235  0.4550
 1139SOL     OW14878   3.136   1.301   5.515  0.6533 -0.0838 -0.4206
 1139SOL    HW114879   3.076   1.333   5.582  0.2463 -1.0837 -0.3028
 1139SOL    HW214880   3.071   1.278   5.448  1.8192  1.6383 -2.1353
 1140SOL     OW14881   1.379   1.294   6.247 -0.6709 -0.4279  0.5377
 1140SOL    HW114882   1.335   1.268   6.328  1.1216 -0.0805  1.6164
 1140SOL    HW214883   1.346   1.382   6.228 -2.3384 -1.1869 -0.1307
 1141SOL     OW14884   2.040   0.056   6.443 -0.1014  0.3975  0.1496
 1141SOL    HW114885   1.983   0.099   6.379 -0.3134  0.2605  0.2456
 1141SOL    HW214886   1.985   4.695   6.451 -1.2919  1.0722 -1.5607
 1142SOL     OW14887   3.141   0.689   7.532 -0.1480  0.0225  0.3992
 1142SOL    HW114888   3.087   0.744   7.475  2.4475  0.6694 -1.4922
 1142SOL    HW214889   3.191   0.747   7.589 -0.5089 -1.9791  2.7331
 1143SOL     OW14890   0.513   2.485   6.585 -1.0150  0.3209 -0.7045
 1143SOL    HW114891   0.445   2.429   6.622 -0.6170 -0.1945 -0.7611
 1143SOL    HW214892   0.511   2.558   6.647 -1.2316  0.9481 -1.4416
 1144SOL     OW14893   4.208   2.622  16.348 -0.0614 -0.2522 -0.1140
 1144SOL    HW114894   4.166   2.564  16.412 -0.6209 -0.0384 -0.2916
 1144SOL    HW214895   4.297   2.589  16.333 -0.7584 -1.9951 -0.4469
 1145SOL     OW14896   4.429   0.785   6.406  0.1790  0.9387 -0.2603
 1145SOL    HW114897   4.351   0.762   6.356  0.9340 -3.7898  0.7127
 1145SOL    HW214898   4.402   0.855   6.465  2.5748  2.0766 -0.4987
 1146SOL     OW14899   0.167   0.593  11.798 -0.1853 -0.6186  0.6481
 1146SOL    HW114900   0.167   0.499  11.782  1.7216 -0.2018 -1.8920
 1146SOL    HW214901   0.235   0.598  11.866  0.4437  1.8938 -0.1441
 1147SOL     OW14902   3.668   1.114   6.326 -0.2397  0.5518  0.9655
 1147SOL    HW114903   3.754   1.152   6.345 -0.1726 -0.1297  2.0509
 1147SOL    HW214904   3.631   1.115   6.415  0.5087 -1.7879  1.2958
 1148SOL     OW14905   1.852   4.234  13.873  0.8788 -0.5213 -0.1339
 1148SOL    HW114906   1.803   4.290  13.813  1.7116  1.6853  1.2370
 1148SOL    HW214907   1.862   4.303  13.938 -1.7049  0.2765 -0.5544
 1149SOL     OW14908   1.523   4.538   8.746 -0.0174 -0.2411  0.0959
 1149SOL    HW114909   1.598   4.572   8.698  0.1377 -1.4157 -0.4842
 1149SOL    HW214910   1.573   4.467   8.786  1.1434  0.4685 -0.0953
 1150SOL     OW14911   0.465   2.501   2.157  0.2584  0.4876 -0.2371
 1150SOL    HW114912   0.413   2.457   2.090 -0.0126 -0.8206  0.8317
 1150SOL    HW214913   0.500   2.425   2.202 -1.2541  0.3854  0.7652
 1151SOL     OW14914   0.444   0.395   1.880  0.3500 -0.5759  0.2524
 1151SOL    HW114915   0.457   0.317   1.935  0.7608 -0.3946  0.4089
 1151SOL    HW214916   0.425   0.349   1.799 -0.7700  1.2537 -0.5102
 1152SOL     OW14917   0.423   0.836   3.296  0.8100 -0.1391 -0.6024
 1152SOL    HW114918   0.329   0.832   3.311  0.8895  2.2386  0.5479
 1152SOL    HW214919   0.424   0.773   3.224 -1.6854 -1.8978  0.9305
 1153SOL     OW14920   3.632   1.632  10.913 -0.0651 -0.0983 -0.3459
 1153SOL    HW114921   3.630   1.585  10.997 -0.1914 -1.8512 -1.3408
 1153SOL    HW214922   3.619   1.718  10.955  2.7664 -1.5447  3.4944
 1154SOL     OW14923   3.739   2.057   7.840 -0.4648  0.3389 -0.5709
 1154SOL    HW114924   3.828   2.087   7.862  0.5630 -1.9331 -1.5982
 1154SOL    HW214925   3.723   1.988   7.904 -1.4956  0.2662 -0.9104
 1155SOL     OW14926   3.017   1.631  13.099  0.1437 -0.3312  0.2982
 1155SOL    HW114927   3.071   1.697  13.142 -0.6578  0.6365 -0.1778
 1155SOL    HW214928   3.049   1.656  13.012  0.6556  1.5636  1.0226
 1156SOL     OW14929   0.277   1.751   4.832 -0.1730  0.1089 -0.1285
 1156SOL    HW114930   0.319   1.837   4.833 -1.5472  0.7861 -1.1836
 1156SOL    HW214931   0.183   1.770   4.837 -0.0183  0.5523  1.2884
 1157SOL     OW14932   1.499   0.236   0.937  0.6033 -0.1067 -0.2491
 1157SOL    HW114933   1.515   0.227   0.843 -0.2669 -1.7733 -0.2349
 1157SOL    HW214934   1.592   0.243   0.959  0.1977  3.1451  0.4555
 1158SOL     OW14935   0.932   4.035   7.414  0.0601 -0.0173  0.1765
 1158SOL    HW114936   1.000   3.974   7.442  1.4449  1.0228 -0.9567
 1158SOL    HW214937   0.951   4.109   7.472 -1.5687  2.6580 -2.7003
 1159SOL     OW14938   4.700   2.480   4.422  0.4395  0.3914  0.3838
 1159SOL    HW114939   0.062   2.495   4.371  0.0744  2.6018  0.4651
 1159SOL    HW214940   4.684   2.570   4.450  1.6213  0.8362 -0.3608
 1160SOL     OW14941   0.426   2.778   3.500 -0.5222  0.5012  0.2940
 1160SOL    HW114942   0.437   2.790   3.594  1.1640  0.9619  0.0445
 1160SOL    HW214943   0.342   2.733   3.490 -0.1585  0.2427 -1.6306
 1161SOL     OW14944   2.134   3.472   7.498  0.1653  0.3092  0.1341
 1161SOL    HW114945   2.129   3.415   7.575  0.9508 -0.0923 -0.1147
 1161SOL    HW214946   2.216   3.443   7.458 -0.8211 -1.7778 -0.3887
 1162SOL     OW14947   1.617   1.497   5.491 -0.6640  0.2823 -0.1615
 1162SOL    HW114948   1.698   1.460   5.526 -0.4277  1.6587  0.7710
 1162SOL    HW214949   1.625   1.592   5.496 -2.0318  0.5034 -2.2314
 1163SOL     OW14950   2.329   1.948   2.641 -0.2583  0.5405 -0.1258
 1163SOL    HW114951   2.308   1.969   2.550  0.7464  2.3128  0.0479
 1163SOL    HW214952   2.405   1.896   2.615 -1.8887 -1.9665  0.1607
 1164SOL     OW14953   1.010   0.810  13.738 -0.9832 -0.1552 -0.1234
 1164SOL    HW114954   0.927   0.801  13.690 -0.6480  0.6705 -0.8500
 1164SOL    HW214955   1.052   0.876  13.682  0.6142 -0.0266  1.2380
 1165SOL     OW14956   3.627   0.854  12.289 -0.4270 -0.3575  0.1116
 1165SOL    HW114957   3.621   0.896  12.203 -0.3457 -2.1490 -0.7696
 1165SOL    HW214958   3.696   0.903  12.334  0.7172 -0.7918 -1.1571
 1166SOL     OW14959   1.005   2.814   7.434 -0.6577 -0.2615 -0.0305
 1166SOL    HW114960   1.090   2.805   7.477 -1.6916 -0.6519  1.9221
 1166SOL    HW214961   0.978   2.905   7.448 -2.4577 -0.9818  1.0473
 1167SOL     OW14962   3.448   3.821   7.284 -0.4709  0.2809 -0.1582
 1167SOL    HW114963   3.386   3.841   7.355 -0.4509  0.5180 -0.2101
 1167SOL    HW214964   3.378   3.779   7.234  0.8374  0.2292 -1.9174
 1168SOL     OW14965   1.614   1.339   6.117 -0.2347  0.3696 -0.2081
 1168SOL    HW114966   1.590   1.295   6.036  0.5060 -1.0308  0.3279
 1168SOL    HW214967   1.539   1.293   6.154  0.4455  0.4351  1.2749
 1169SOL     OW14968   4.296   0.395   0.848  0.4285 -0.4280 -0.1258
 1169SOL    HW114969   4.378   0.346   0.850  0.7027 -0.0150 -0.9039
 1169SOL    HW214970   4.332   0.475   0.809 -1.1894 -1.4760 -3.8250
 1170SOL     OW14971   3.731   2.505   7.338 -0.0994 -0.3664 -0.4768
 1170SOL    HW114972   3.807   2.518   7.281 -0.7482  0.3787 -1.1692
 1170SOL    HW214973   3.663   2.499   7.271 -1.6348  0.9204  0.9832
 1171SOL     OW14974   1.169   3.558   0.578 -0.2599  0.0115  0.0813
 1171SOL    HW114975   1.123   3.536   0.659 -1.2435  0.3748 -0.3668
 1171SOL    HW214976   1.229   3.488   0.553 -1.1652 -0.4519 -0.8048
 1172SOL     OW14977   0.682   2.192  11.370 -0.0697  0.0317  0.3641
 1172SOL    HW114978   0.750   2.171  11.307 -0.0649 -0.3865  0.5099
 1172SOL    HW214979   0.619   2.123  11.351 -0.9082  0.6675  0.7971
 1173SOL     OW14980   0.675   4.470   7.269 -0.4573  0.3132  0.3289
 1173SOL    HW114981   0.588   4.458   7.232 -0.0166  0.1284 -0.6560
 1173SOL    HW214982   0.650   4.478   7.360 -0.9380  0.6465  0.1650
 1174SOL     OW14983   1.023   0.121   9.511 -0.0963 -0.6300 -0.2084
 1174SOL    HW114984   0.969   0.061   9.461 -1.6607 -1.1956  2.1517
 1174SOL    HW214985   1.091   0.069   9.555 -0.7434 -1.2543  0.0591
 1175SOL     OW14986   4.338   1.548   6.321  0.7584  0.0648 -0.0716
 1175SOL    HW114987   4.302   1.460   6.326 -0.8440  0.6366 -1.9304
 1175SOL    HW214988   4.308   1.576   6.235 -0.0029 -0.0594  0.1498
 1176SOL     OW14989   0.934   4.178   9.592 -0.1441 -0.2297  0.1332
 1176SOL    HW114990   0.842   4.156   9.578 -0.8235  2.0282  1.0598
 1176SOL    HW214991   0.940   4.175   9.688 -0.5987  0.7692  0.1832
 1177SOL     OW14992   1.627   0.024   6.414 -0.2953  0.1774  0.0053
 1177SOL    HW114993   1.689   4.669   6.425 -0.3072  0.1757  0.0619
 1177SOL    HW214994   1.545   4.709   6.451  1.1174 -2.1413  1.1207
 1178SOL     OW14995   1.336   1.568  14.715  0.1265 -0.2447 -0.3005
 1178SOL    HW114996   1.312   1.570  14.807  0.9091  0.2217 -0.1087
 1178SOL    HW214997   1.429   1.589  14.719 -0.2206  1.1718  0.4333
 1179SOL     OW14998   0.355   0.684   5.317  0.3850  0.0382 -0.0633
 1179SOL    HW114999   0.318   0.766   5.286  1.6319  0.2982 -0.8786
 1179SOL    HW215000   0.417   0.719   5.381  0.3568  1.1249 -0.6419
 1180SOL     OW15001   0.845   1.491   7.278  0.7282  0.5671  0.0093
 1180SOL    HW115002   0.780   1.532   7.221  0.0032 -1.5612 -0.6867
 1180SOL    HW215003   0.914   1.558   7.283  1.9239 -0.6819  0.1177
 1181SOL     OW15004   3.925   3.366  16.276  0.3734 -0.0581 -0.5892
 1181SOL    HW115005   3.915   3.369  16.181 -0.5478  0.2281 -0.4777
 1181SOL    HW215006   3.855   3.302  16.286 -0.3194  0.6846 -0.7714
 1182SOL     OW15007   1.133   0.873   4.596 -0.3673  0.4205 -0.2477
 1182SOL    HW115008   1.044   0.840   4.594 -0.1801 -0.1214  0.6333
 1182SOL    HW215009   1.160   0.844   4.682  0.3303  1.1030 -0.2301
 1183SOL     OW15010   1.200   3.458   3.423 -0.1202 -0.1166  0.7836
 1183SOL    HW115011   1.238   3.379   3.461  0.6144 -0.6646 -1.0792
 1183SOL    HW215012   1.106   3.445   3.439  0.1146 -1.2657  1.2267
 1184SOL     OW15013   3.940   1.756   7.815  0.0539  0.0521  0.3065
 1184SOL    HW115014   3.876   1.816   7.852 -0.9141 -2.0511  2.0292
 1184SOL    HW215015   3.892   1.676   7.790  0.7146  0.1810 -1.4274
 1185SOL     OW15016   2.059   0.293   7.753  0.8811  0.0433 -0.1648
 1185SOL    HW115017   2.133   0.319   7.699  2.1865  0.5324  1.8644
 1185SOL    HW215018   2.105   0.221   7.795  0.1916 -0.5743 -0.4680
 1186SOL     OW15019   0.397   3.175  13.897  0.1906  0.6179 -0.1239
 1186SOL    HW115020   0.436   3.116  13.961 -0.9701 -2.4212 -2.2365
 1186SOL    HW215021   0.359   3.244  13.953  1.7887 -1.0501  2.9971
 1187SOL     OW15022   3.728   0.212   8.938 -0.1686  0.4302 -0.2160
 1187SOL    HW115023   3.808   0.172   8.905  0.4279 -0.4857  2.2958
 1187SOL    HW215024   3.734   0.185   9.030  2.3129  0.3300 -0.4218
 1188SOL     OW15025   3.580   3.969   2.201 -0.3708  0.5728  0.1122
 1188SOL    HW115026   3.511   3.964   2.267 -0.6634  2.4095 -0.0357
 1188SOL    HW215027   3.529   3.980   2.121 -2.2537 -0.7867  1.1413
 1189SOL     OW15028   2.779   4.007  11.407 -0.1275 -0.6896  0.7971
 1189SOL    HW115029   2.803   4.099  11.394 -1.2479 -0.4288  0.5178
 1189SOL    HW215030   2.852   3.974  11.355 -1.0352 -0.4782 -0.6055
 1190SOL     OW15031   0.182   2.783  10.095 -0.2316 -0.3513 -0.4637
 1190SOL    HW115032   0.235   2.858  10.067 -1.6766  0.4242 -1.1265
 1190SOL    HW215033   0.226   2.748  10.173  1.4458  1.0374 -0.7971
 1191SOL     OW15034   3.024   1.721  15.983  0.2565 -0.2824  0.4975
 1191SOL    HW115035   2.969   1.768  15.920 -1.5609  2.1633  3.8918
 1191SOL    HW215036   2.974   1.759  16.055 -2.4894 -0.7172 -1.1593
 1192SOL     OW15037   0.844   0.809   8.618 -0.0333 -0.3765  0.0265
 1192SOL    HW115038   0.898   0.754   8.561 -0.2546  0.1228 -0.6713
 1192SOL    HW215039   0.764   0.817   8.566  0.8200  2.3187 -0.8368
 1193SOL     OW15040   1.278   1.108   7.465  0.3030  0.0200  0.0405
 1193SOL    HW115041   1.224   1.174   7.422  1.4999  0.7649 -0.3068
 1193SOL    HW215042   1.367   1.136   7.442  0.2773  0.0224 -0.0550
 1194SOL     OW15043   0.419   4.417   0.863  0.5406  0.8623 -0.2995
 1194SOL    HW115044   0.474   4.350   0.823 -1.2938 -0.2225 -1.0177
 1194SOL    HW215045   0.409   4.393   0.955  0.1810  0.3835 -0.4624
 1195SOL     OW15046   1.997   3.117   4.902 -0.9106 -0.0740 -0.0890
 1195SOL    HW115047   2.074   3.166   4.930 -1.8457  1.4851 -0.2427
 1195SOL    HW215048   1.964   3.076   4.982 -0.0495  0.2676  0.4380
 1196SOL     OW15049   0.429   1.108  11.975 -0.3038 -0.1750  0.4736
 1196SOL    HW115050   0.496   1.052  12.013 -1.3354  0.2973  2.9824
 1196SOL    HW215051   0.413   1.167  12.049 -0.3878 -1.1872  1.2626
 1197SOL     OW15052   2.440   2.371   1.046 -0.1676 -0.3854 -0.5854
 1197SOL    HW115053   2.361   2.422   1.025  0.4553  1.0799  0.6291
 1197SOL    HW215054   2.441   2.365   1.142  1.7530 -0.8545 -0.6409
 1198SOL     OW15055   2.812   2.431   7.142 -0.1700  0.2992  0.1038
 1198SOL    HW115056   2.830   2.347   7.100 -1.8285 -0.5110  0.9884
 1198SOL    HW215057   2.719   2.419   7.161 -0.0880  0.4005  0.5774
 1199SOL     OW15058   2.601   3.215   8.082  0.4006 -0.5814  0.2375
 1199SOL    HW115059   2.510   3.197   8.058  0.1483  1.5484 -0.4058
 1199SOL    HW215060   2.629   3.224   7.991 -0.7281 -0.7092 -0.1233
 1200SOL     OW15061   1.329   3.237   9.054  0.3883  0.0235  0.0924
 1200SOL    HW115062   1.350   3.167   9.116  2.2859  1.3020  0.9047
 1200SOL    HW215063   1.353   3.189   8.976 -3.7346 -0.7637 -0.7000
 1201SOL     OW15064   1.709   0.511   5.732 -0.1852 -0.2517 -0.3446
 1201SOL    HW115065   1.737   0.463   5.811  1.0497  1.7389  0.4375
 1201SOL    HW215066   1.797   0.512   5.695 -0.5744  1.7284 -1.1691
 1202SOL     OW15067   0.892   2.530  11.611  0.0030  0.2563  0.3839
 1202SOL    HW115068   0.926   2.581  11.537  0.3736 -1.1807 -0.4385
 1202SOL    HW215069   0.920   2.572  11.692 -0.9617 -0.4491  1.0818
 1203SOL     OW15070   1.433   0.503  13.028  0.1489 -0.1388 -0.1687
 1203SOL    HW115071   1.514   0.537  12.990 -0.4923  1.9622  0.3339
 1203SOL    HW215072   1.431   0.548  13.113 -1.1853  1.4291 -1.0152
 1204SOL     OW15073   0.779   0.645   3.395 -0.4499  0.1414  0.3528
 1204SOL    HW115074   0.818   0.601   3.470  0.7625 -1.0790 -0.9759
 1204SOL    HW215075   0.740   0.722   3.437  0.7640  0.8404  0.1813
 1205SOL     OW15076   4.282   2.515   6.695  0.3817 -0.2685  0.1326
 1205SOL    HW115077   4.281   2.427   6.658  1.3624 -0.3465  0.2882
 1205SOL    HW215078   4.188   2.528   6.703  0.2900  0.2574 -1.9592
 1206SOL     OW15079   3.292   0.373   4.993  0.3102 -0.0151  0.5109
 1206SOL    HW115080   3.291   0.283   5.025  3.6110 -0.0879  0.4822
 1206SOL    HW215081   3.326   0.371   4.904  1.4953  2.7989  0.9027
 1207SOL     OW15082   1.905   1.188   1.216  0.1925  0.4742 -0.3321
 1207SOL    HW115083   1.865   1.203   1.131  1.1877  0.1344 -0.8551
 1207SOL    HW215084   1.995   1.164   1.193  0.1338 -0.6666  0.5897
 1208SOL     OW15085   2.842   1.608  16.703  0.3157  0.1775  0.1150
 1208SOL    HW115086   2.937   1.601  16.697  0.5788  0.9123  3.5899
 1208SOL    HW215087   2.814   1.612  16.612 -0.6931  2.8086  0.5558
 1209SOL     OW15088   4.280   0.267   1.485 -0.0967  0.0063 -0.4032
 1209SOL    HW115089   4.292   0.179   1.520 -0.0996  0.4101  0.6064
 1209SOL    HW215090   4.351   0.311   1.533 -2.0562  1.4585  1.1603
 1210SOL     OW15091   2.029   4.396   9.479 -0.1043  0.3757  0.1212
 1210SOL    HW115092   2.057   4.445   9.556  2.0387  1.5780 -1.4346
 1210SOL    HW215093   1.962   4.451   9.438 -1.5302 -0.6636  1.0330
 1211SOL     OW15094   0.219   0.111   1.828  0.4079 -0.5540  0.0176
 1211SOL    HW115095   0.240   0.157   1.909  1.3594 -1.2437  0.1660
 1211SOL    HW215096   0.257   0.170   1.762 -0.2788 -2.3138 -1.9468
 1212SOL     OW15097   3.787   2.406   7.596  0.1905 -0.0553  0.2830
 1212SOL    HW115098   3.837   2.478   7.631 -1.1373 -1.8130  5.7576
 1212SOL    HW215099   3.733   2.439   7.524 -0.6135 -0.3357  0.7454
 1213SOL     OW15100   2.584   4.227   3.023 -0.5789  0.2989  0.1443
 1213SOL    HW115101   2.511   4.286   3.002 -1.5819 -0.0561  2.6969
 1213SOL    HW215102   2.652   4.277   2.979  1.0366 -0.4938  1.7750
 1214SOL     OW15103   1.039   0.784  17.076 -0.7433  0.4693 -0.1239
 1214SOL    HW115104   0.964   0.783  17.017  0.0750 -0.1274 -1.1580
 1214SOL    HW215105   0.980   0.782  17.151 -1.5689  0.8388 -0.7658
 1215SOL     OW15106   3.828   4.422  14.919 -0.1313  0.6145  0.3971
 1215SOL    HW115107   3.918   4.453  14.926  0.4754 -1.4802  1.6030
 1215SOL    HW215108   3.814   4.387  15.007 -1.2124 -1.0228 -0.4267
 1216SOL     OW15109   3.081   4.600   4.268  0.2704 -0.1237 -0.5987
 1216SOL    HW115110   3.063   4.551   4.187  2.5902 -0.5287 -0.8800
 1216SOL    HW215111   3.003   4.651   4.287  0.3947  0.1624 -0.8461
 1217SOL     OW15112   1.084   3.577   6.426 -0.0175  0.0131 -0.2848
 1217SOL    HW115113   1.084   3.483   6.444  0.2563 -0.0403 -0.5636
 1217SOL    HW215114   1.155   3.595   6.364 -0.1547 -0.7365 -0.6563
 1218SOL     OW15115   3.722   4.680   7.147 -1.2379 -0.2738 -0.4206
 1218SOL    HW115116   3.689   0.020   7.078 -0.3313 -0.3947 -0.9491
 1218SOL    HW215117   3.781   4.628   7.093  0.1423 -0.4916  1.2917
 1219SOL     OW15118   2.732   0.971   4.424  0.4352 -0.1535  0.0031
 1219SOL    HW115119   2.717   0.969   4.519  2.8224  1.8842  0.4162
 1219SOL    HW215120   2.813   1.022   4.420  0.0260  0.4517 -0.6911
 1220SOL     OW15121   0.657   1.124   8.337  0.0025 -0.3505  0.1583
 1220SOL    HW115122   0.609   1.042   8.330  0.7232 -0.6473 -1.5136
 1220SOL    HW215123   0.696   1.121   8.249 -1.5865 -0.6850 -0.5347
 1221SOL     OW15124   1.815   2.967   3.459  0.0797 -0.8295  0.0450
 1221SOL    HW115125   1.789   2.952   3.368 -4.0664 -0.7382  1.1810
 1221SOL    HW215126   1.869   3.046   3.449  0.3363 -0.8884  0.9834
 1222SOL     OW15127   1.901   0.084  12.115  0.2771 -0.1392  0.5971
 1222SOL    HW115128   1.830   0.052  12.060 -0.3163 -0.7338  1.7127
 1222SOL    HW215129   1.867   0.079  12.204 -2.3764  0.1492 -0.4280
 1223SOL     OW15130   3.532   3.938   1.026 -0.5843  0.4033 -0.0792
 1223SOL    HW115131   3.503   3.864   0.973 -3.3541  0.6490  1.1059
 1223SOL    HW215132   3.478   3.930   1.104  0.7514 -0.4755  0.7591
 1224SOL     OW15133   3.922   4.022   2.876  0.2507  0.3214  0.5799
 1224SOL    HW115134   3.874   4.066   2.805  1.6425  1.1879  0.1890
 1224SOL    HW215135   4.011   4.047   2.852  0.0829  0.1036 -0.2846
 1225SOL     OW15136   3.907   4.355   6.759  0.1339 -0.5685  0.0504
 1225SOL    HW115137   3.918   4.260   6.758 -1.1159 -0.7117  1.2561
 1225SOL    HW215138   3.987   4.386   6.716  1.0996 -2.7161  0.2801
 1226SOL     OW15139   0.121   3.325   7.895  0.1642  0.1320  0.1107
 1226SOL    HW115140   0.070   3.276   7.960 -0.4136  0.3216 -0.2048
 1226SOL    HW215141   0.199   3.273   7.877  0.9172  1.3497 -0.1593
 1227SOL     OW15142   1.523   0.787   4.122  0.5145 -0.2633 -0.1842
 1227SOL    HW115143   1.428   0.797   4.117  0.3676 -2.0449 -0.8939
 1227SOL    HW215144   1.534   0.737   4.203 -0.3240  2.2423  1.4449
 1228SOL     OW15145   3.149   2.859  13.126  0.5798 -0.4206  0.5576
 1228SOL    HW115146   3.228   2.824  13.168 -0.0625  0.7889  2.7685
 1228SOL    HW215147   3.187   2.897  13.047 -1.0879 -1.5246 -0.7727
 1229SOL     OW15148   0.097   3.484   4.358  0.0699 -0.7012  0.0898
 1229SOL    HW115149   0.148   3.557   4.322  0.1658  0.1162  1.8705
 1229SOL    HW215150   0.039   3.523   4.423 -0.8396  0.6563 -1.5335
 1230SOL     OW15151   1.328   3.562   6.212 -0.3244 -0.2630  0.4665
 1230SOL    HW115152   1.409   3.512   6.216 -0.0803  0.0627 -0.3889
 1230SOL    HW215153   1.286   3.529   6.132  0.1521 -1.9062  0.8975
 1231SOL     OW15154   4.346   3.300   1.848 -0.3789  0.1099 -0.1326
 1231SOL    HW115155   4.285   3.373   1.838 -0.7782 -0.3108 -0.7538
 1231SOL    HW215156   4.275   3.236   1.851 -2.4251  2.2658 -1.8292
 1232SOL     OW15157   2.134   1.252   4.566 -0.4240  0.4805  0.3842
 1232SOL    HW115158   2.042   1.264   4.543  0.2505  0.0223 -2.4656
 1232SOL    HW215159   2.145   1.159   4.550 -0.5841  0.6416 -0.6596
 1233SOL     OW15160   3.306   0.082   5.058  0.2012 -0.0235 -0.1082
 1233SOL    HW115161   3.243   0.019   5.092 -0.8083  1.1124  0.1128
 1233SOL    HW215162   3.350   0.027   4.993  0.2878  1.4298 -1.2943
 1234SOL     OW15163   0.613   4.178   5.782 -0.5553 -0.5059 -0.2363
 1234SOL    HW115164   0.608   4.169   5.687 -0.3734  0.9772 -0.3738
 1234SOL    HW215165   0.548   4.244   5.804  0.1190 -0.0264  0.2881
 1235SOL     OW15166   4.605   2.276   3.460 -0.2292 -0.5135  0.8007
 1235SOL    HW115167   4.578   2.368   3.449  1.3414  0.1200  2.3879
 1235SOL    HW215168   4.556   2.233   3.389  1.7089 -0.1932 -0.7293
 1236SOL     OW15169   1.674   1.299   2.736  0.0286  0.2610 -0.2004
 1236SOL    HW115170   1.752   1.264   2.692 -0.5030 -1.6220  0.3758
 1236SOL    HW215171   1.717   1.304   2.822 -0.0489  1.6279 -0.2354
 1237SOL     OW15172   4.585   3.154   3.990  0.5816 -0.0076 -0.4831
 1237SOL    HW115173   4.577   3.195   4.076  0.1862 -1.7868  0.3240
 1237SOL    HW215174   4.635   3.224   3.948 -0.7908  1.2518 -0.0066
 1238SOL     OW15175   0.064   2.824  14.600 -0.2609 -0.2306 -0.3421
 1238SOL    HW115176   0.014   2.807  14.520 -0.9458  0.2388 -0.0114
 1238SOL    HW215177   0.131   2.874  14.554 -0.5332 -0.4372 -0.9671
 1239SOL     OW15178   0.546   4.557  15.569 -0.2932 -0.0298 -0.2385
 1239SOL    HW115179   0.632   4.538  15.531 -0.6001 -2.8763  0.4779
 1239SOL    HW215180   0.569   4.581  15.658  0.9134  1.4023 -0.9439
 1240SOL     OW15181   2.477   2.403   8.967  0.6756 -0.9786 -0.0765
 1240SOL    HW115182   2.463   2.308   8.974 -2.3664 -0.6062 -1.2084
 1240SOL    HW215183   2.499   2.413   9.059 -0.5832 -0.9117  0.2145
 1241SOL     OW15184   1.469   3.564  15.519 -0.0971  0.5090 -0.1755
 1241SOL    HW115185   1.499   3.475  15.498 -0.0660  1.0855 -2.6021
 1241SOL    HW215186   1.478   3.607  15.434 -0.9039 -0.2098 -0.6286
 1242SOL     OW15187   4.418   0.687  15.727 -0.2917 -0.4247  0.0063
 1242SOL    HW115188   4.394   0.741  15.802  0.5461 -3.1472  2.2121
 1242SOL    HW215189   4.499   0.729  15.699 -0.5234  0.5476  0.7810
 1243SOL     OW15190   0.806   3.086   2.029 -0.6684 -0.3096  0.7701
 1243SOL    HW115191   0.895   3.070   1.997 -0.9620 -2.4674  1.0613
 1243SOL    HW215192   0.765   3.033   1.961 -2.6370  1.1957  0.7963
 1244SOL     OW15193   3.703   3.092  17.273 -0.2430 -0.0955  0.0734
 1244SOL    HW115194   3.625   3.091  17.330 -0.3221 -2.5795 -0.0829
 1244SOL    HW215195   3.685   3.018  17.215 -1.1130 -0.0355  0.2610
 1245SOL     OW15196   4.347   2.464   1.975  0.3584  0.1324  0.4429
 1245SOL    HW115197   4.391   2.459   1.889  0.8581  0.8913  0.6521
 1245SOL    HW215198   4.402   2.398   2.017  0.0401  0.0255  0.6831
 1246SOL     OW15199   1.354   2.148  15.847 -0.2648  0.0026 -0.2943
 1246SOL    HW115200   1.270   2.114  15.817 -0.4795  0.1064  0.1758
 1246SOL    HW215201   1.339   2.240  15.870  0.4740  0.0888 -0.1528
 1247SOL     OW15202   0.910   0.324   8.529  0.2301 -0.4391  0.2781
 1247SOL    HW115203   0.906   0.404   8.477 -1.5574 -0.5542  0.2594
 1247SOL    HW215204   0.985   0.282   8.488 -0.2311 -0.3855 -0.6223
 1248SOL     OW15205   0.111   3.241   6.686 -0.2443  0.6171 -0.1011
 1248SOL    HW115206   0.136   3.317   6.739 -1.1662  0.5023  0.4971
 1248SOL    HW215207   0.049   3.277   6.623  1.6661  0.8917 -1.8232
 1249SOL     OW15208   0.805   3.916   5.607  0.0121 -0.5345 -0.0803
 1249SOL    HW115209   0.850   3.997   5.629  0.6200 -0.7092 -0.6838
 1249SOL    HW215210   0.878   3.857   5.627  0.1939 -0.7175 -1.2872
 1250SOL     OW15211   1.186   1.701   5.097 -0.6562  0.4900  0.4867
 1250SOL    HW115212   1.164   1.763   5.027 -0.1573  0.9153  0.7068
 1250SOL    HW215213   1.226   1.629   5.049  0.8101  1.2772  0.5176
 1251SOL     OW15214   2.193   3.735   7.515  0.0244  0.7966 -0.0029
 1251SOL    HW115215   2.154   3.648   7.514  0.4525  0.6064 -0.2279
 1251SOL    HW215216   2.215   3.751   7.423 -0.4167  0.8300 -0.1042
 1252SOL     OW15217   0.201   3.749   7.679  0.1866 -0.0200  0.3427
 1252SOL    HW115218   0.291   3.717   7.671  0.2474 -0.1702  1.5552
 1252SOL    HW215219   0.153   3.666   7.670  0.3475  0.1841 -2.1821
 1253SOL     OW15220   2.557   3.360  11.961  0.1370 -0.4541 -0.1368
 1253SOL    HW115221   2.541   3.436  11.905 -2.1755  0.5382  1.8566
 1253SOL    HW215222   2.649   3.372  11.984 -0.4302  2.3117  0.7244
 1254SOL     OW15223   4.148   0.061   5.388 -0.0395 -0.4112  0.0316
 1254SOL    HW115224   4.229   0.032   5.431  0.2157 -0.2564 -0.3407
 1254SOL    HW215225   4.165   0.028   5.299 -0.3635  1.3484 -0.6929
 1255SOL     OW15226   4.398   0.847   4.240 -0.2943  0.7157 -0.2359
 1255SOL    HW115227   4.330   0.796   4.196 -1.3113 -1.4205  3.7531
 1255SOL    HW215228   4.429   0.783   4.304 -0.2456 -1.2249 -2.2038
 1256SOL     OW15229   2.181   0.650   2.322  0.0929 -0.4777 -0.2857
 1256SOL    HW115230   2.198   0.569   2.370  2.6589  1.0314  1.3533
 1256SOL    HW215231   2.122   0.619   2.253  0.8473  1.6034 -1.8438
 1257SOL     OW15232   2.771   1.727   5.107  0.1343 -0.1294  0.1490
 1257SOL    HW115233   2.742   1.671   5.180  0.6734 -1.1250 -0.4140
 1257SOL    HW215234   2.858   1.738   5.145  0.0074 -0.5850  0.5696
 1258SOL     OW15235   0.148   2.738   7.877 -0.5989  0.0202 -0.5478
 1258SOL    HW115236   0.192   2.798   7.936 -1.2580 -0.4001  0.3881
 1258SOL    HW215237   0.073   2.700   7.924 -1.5155  2.1407 -0.3173
 1259SOL     OW15238   3.573   3.131   6.905 -0.5435  0.1762  0.4668
 1259SOL    HW115239   3.573   3.082   6.987 -1.3390  0.1543  0.4583
 1259SOL    HW215240   3.584   3.064   6.838 -0.0273  1.1007 -0.3691
 1260SOL     OW15241   0.075   3.560   2.235 -0.0654  0.4970  0.3311
 1260SOL    HW115242   0.135   3.492   2.267 -1.4345 -0.3396  1.0804
 1260SOL    HW215243   4.707   3.539   2.272  0.0607  1.1078  0.9741
 1261SOL     OW15244   1.353   1.221   2.349  0.3604 -0.0470  0.1422
 1261SOL    HW115245   1.365   1.303   2.398 -0.9610  0.4045 -0.2939
 1261SOL    HW215246   1.445   1.203   2.330 -0.1998 -0.1343 -2.4394
 1262SOL     OW15247   3.820   0.503   4.672 -0.1960  0.7849 -0.2834
 1262SOL    HW115248   3.789   0.502   4.581 -2.4387  0.5320  0.4848
 1262SOL    HW215249   3.861   0.416   4.677 -1.0018  0.3574 -1.1338
 1263SOL     OW15250   2.251   1.384   4.937  0.3345  0.2619  0.1093
 1263SOL    HW115251   2.248   1.443   4.861  1.5267  2.3240  1.6788
 1263SOL    HW215252   2.159   1.358   4.928 -0.0602  1.0332  1.8916
 1264SOL     OW15253   1.316   0.089  12.250  0.1264  0.0586  0.6498
 1264SOL    HW115254   1.229   0.075  12.289  0.3071 -0.5567  0.8289
 1264SOL    HW215255   1.309   0.181  12.226 -0.2250 -0.2125 -0.2927
 1265SOL     OW15256   1.746   1.846   1.844 -0.1858  0.1554 -0.3584
 1265SOL    HW115257   1.833   1.814   1.819 -0.4574 -1.8215  1.2907
 1265SOL    HW215258   1.767   1.935   1.874  0.8497 -0.9972  2.2997
 1266SOL     OW15259   0.851   3.702   1.665  0.0048 -0.2567 -0.2224
 1266SOL    HW115260   0.928   3.700   1.723  0.8051 -0.1067 -1.2666
 1266SOL    HW215261   0.858   3.611   1.636 -0.8149 -0.1126 -0.8633
 1267SOL     OW15262   2.574   2.379   1.759  0.3216  0.1112 -0.1795
 1267SOL    HW115263   2.506   2.426   1.711 -0.8295 -1.9104 -0.5366
 1267SOL    HW215264   2.550   2.286   1.751 -1.5598  0.7098 -1.4328
 1268SOL     OW15265   1.919   1.632  15.638  0.2538  0.1022 -0.0540
 1268SOL    HW115266   1.908   1.596  15.726  0.0883  1.3958  0.4499
 1268SOL    HW215267   1.901   1.724  15.654  1.0953  0.1485  0.6064
 1269SOL     OW15268   3.339   3.189   5.021  0.9483 -0.5017  0.0477
 1269SOL    HW115269   3.361   3.113   5.075  0.7300  0.5360  1.5758
 1269SOL    HW215270   3.406   3.179   4.953  1.6099 -2.1817  0.9149
 1270SOL     OW15271   0.736   3.947   0.565 -0.6424 -0.0866 -0.5985
 1270SOL    HW115272   0.737   3.858   0.530  1.8083 -0.5281  0.5641
 1270SOL    HW215273   0.817   3.981   0.525 -0.8639  1.1591  0.0023
 1271SOL     OW15274   3.852   2.754   7.167  0.3059  0.4520  0.0084
 1271SOL    HW115275   3.931   2.804   7.144  1.7711 -1.9902 -0.2429
 1271SOL    HW215276   3.847   2.766   7.262  0.4226 -0.4858  0.1337
 1272SOL     OW15277   4.192   1.317  17.102 -0.1316  0.6703 -0.0526
 1272SOL    HW115278   4.154   1.404  17.087 -0.9130  0.7687  2.5156
 1272SOL    HW215279   4.115   1.270  17.134 -0.9342  1.0399 -1.4329
 1273SOL     OW15280   4.537   2.704   7.265 -0.7721 -0.7551 -0.0497
 1273SOL    HW115281   4.541   2.771   7.197  1.5587  0.0121  0.8581
 1273SOL    HW215282   4.536   2.762   7.341  0.3650 -1.5145  0.5454
 1274SOL     OW15283   1.494   2.659   7.939  0.2263 -0.3207 -0.0360
 1274SOL    HW115284   1.482   2.744   7.896 -0.9154  0.5105  1.9324
 1274SOL    HW215285   1.429   2.607   7.890 -0.0474 -1.8887  1.9761
 1275SOL     OW15286   4.370   3.789   1.894 -0.1236  0.6568 -0.4491
 1275SOL    HW115287   4.277   3.773   1.912 -0.1552 -1.0598 -2.1847
 1275SOL    HW215288   4.404   3.800   1.983 -0.3837  0.8816 -0.3765
 1276SOL     OW15289   2.040   3.458   4.300  0.4703 -0.3619 -0.0951
 1276SOL    HW115290   2.037   3.513   4.221  0.2410  0.0552  0.2082
 1276SOL    HW215291   2.132   3.440   4.318  0.1023 -0.4089  1.6619
 1277SOL     OW15292   0.763   3.564  11.991  0.2821  0.0759  0.1908
 1277SOL    HW115293   0.724   3.646  12.021 -0.0848  0.0526 -0.2319
 1277SOL    HW215294   0.853   3.582  11.963  0.5889  0.1177  1.2127
 1278SOL     OW15295   3.438   0.088   0.801  0.0514  0.4958  0.0538
 1278SOL    HW115296   3.504   0.020   0.805  3.8889  4.2078  0.2701
 1278SOL    HW215297   3.439   0.132   0.887 -1.9356  0.7827 -0.0650
 1279SOL     OW15298   4.657   1.820   2.349  1.1121  0.0556 -0.0652
 1279SOL    HW115299   0.029   1.837   2.378  1.4669 -0.2284 -0.9815
 1279SOL    HW215300   4.610   1.877   2.410 -1.8675 -1.6493 -0.7396
 1280SOL     OW15301   4.108   3.916  12.556  0.4305 -0.4197  0.0941
 1280SOL    HW115302   4.060   3.943  12.634  0.0898  0.0314 -0.2712
 1280SOL    HW215303   4.195   3.918  12.597  1.0308 -0.0537 -1.1952
 1281SOL     OW15304   1.329   2.249   6.681 -0.0371  0.0131  0.3861
 1281SOL    HW115305   1.364   2.246   6.593  0.0589 -0.0982  0.4284
 1281SOL    HW215306   1.237   2.229   6.663  0.7361 -1.6722 -1.5761
 1282SOL     OW15307   1.185   0.174   6.004 -0.4715  0.3135 -0.6802
 1282SOL    HW115308   1.188   0.165   6.099  0.9778  1.4538 -0.6110
 1282SOL    HW215309   1.258   0.126   5.965 -0.2317  0.1789 -0.0621
 1283SOL     OW15310   1.137   3.609  14.739 -0.0323 -0.4895 -0.1433
 1283SOL    HW115311   1.084   3.566  14.806 -0.5852  1.7152  0.8122
 1283SOL    HW215312   1.223   3.602  14.779  0.7075 -0.9619 -1.8202
 1284SOL     OW15313   3.451   2.460   8.744  0.6404 -0.5112 -0.7168
 1284SOL    HW115314   3.402   2.389   8.702 -4.1069  1.9862  0.5508
 1284SOL    HW215315   3.385   2.481   8.810  1.2375  0.1656 -0.3314
 1285SOL     OW15316   1.150   0.429   4.749  0.2677 -0.1726  0.0142
 1285SOL    HW115317   1.223   0.368   4.738  0.3207 -0.1723  0.3654
 1285SOL    HW215318   1.123   0.453   4.661  0.5466 -1.2419 -0.3664
 1286SOL     OW15319   2.720   1.008   6.580  0.3495  0.5632  0.3568
 1286SOL    HW115320   2.702   1.019   6.673  1.2646 -2.8077  0.9318
 1286SOL    HW215321   2.766   1.091   6.570  1.2079  0.3385  2.4671
 1287SOL     OW15322   3.981   3.222   7.799  0.5354 -0.2134 -0.1166
 1287SOL    HW115323   4.065   3.181   7.823  1.2230 -1.6643 -4.9454
 1287SOL    HW215324   4.012   3.293   7.742  1.2652  1.7190  2.7236
 1288SOL     OW15325   1.373   0.845   8.464  0.4145 -0.0642 -0.1649
 1288SOL    HW115326   1.338   0.800   8.541  0.6134 -0.3467 -0.2412
 1288SOL    HW215327   1.336   0.932   8.481 -1.3614 -0.2563 -3.0994
 1289SOL     OW15328   2.571   1.534   7.730  0.3610  0.1541  0.1054
 1289SOL    HW115329   2.534   1.589   7.799  1.2159  1.9883 -0.9000
 1289SOL    HW215330   2.632   1.595   7.689 -1.0767  1.3098 -0.3111
 1290SOL     OW15331   1.047   3.551   7.713  0.1142  0.2546 -0.3099
 1290SOL    HW115332   1.103   3.534   7.789 -0.2117  2.0473  0.3232
 1290SOL    HW215333   1.110   3.544   7.641  0.3349  3.1645 -0.4124
 1291SOL     OW15334   1.533   3.188   7.862  0.2553  0.0147  0.7416
 1291SOL    HW115335   1.621   3.150   7.873  0.6310  0.9211  0.8445
 1291SOL    HW215336   1.557   3.277   7.887  0.4199 -0.0961  0.9810
 1292SOL     OW15337   3.811   2.922  17.468  0.7182  0.1860 -0.3249
 1292SOL    HW115338   3.782   2.980  17.397 -0.6467  0.4172  0.4273
 1292SOL    HW215339   3.780   2.842  17.426 -2.3300  1.7262 -1.0849
 1293SOL     OW15340   2.675   2.525   7.667 -0.3427  0.4341 -0.4539
 1293SOL    HW115341   2.742   2.581   7.628  0.9234 -1.0725 -0.4285
 1293SOL    HW215342   2.728   2.497   7.742 -1.9485  0.0485  0.5313
 1294SOL     OW15343   2.989   2.871  10.272 -0.4237  0.0991  0.4102
 1294SOL    HW115344   2.973   2.792  10.221  2.5032 -1.6544  2.1945
 1294SOL    HW215345   2.899   2.886  10.303 -0.4820  1.2319 -0.2967
 1295SOL     OW15346   0.748   4.294   3.950  0.0877 -0.7836 -0.4587
 1295SOL    HW115347   0.730   4.239   4.026 -1.6318  0.3451 -0.0485
 1295SOL    HW215348   0.728   4.238   3.875 -2.5296  0.7396 -0.9174
 1296SOL     OW15349   3.163   3.454  10.936 -0.0614  0.8692 -0.1188
 1296SOL    HW115350   3.165   3.393  10.862  0.3652  1.0009 -0.2127
 1296SOL    HW215351   3.257   3.450  10.951 -0.1419  0.1597  0.2336
 1297SOL     OW15352   2.790   2.696   4.912 -0.8247 -0.3086  0.0320
 1297SOL    HW115353   2.698   2.673   4.928 -0.3837 -1.2615  1.2075
 1297SOL    HW215354   2.778   2.765   4.848  0.5995 -0.4326 -0.3684
 1298SOL     OW15355   3.641   3.118   0.827 -0.3051 -0.1962  0.3962
 1298SOL    HW115356   3.630   3.036   0.777 -0.7364 -0.7793  1.4549
 1298SOL    HW215357   3.594   3.103   0.909  0.7389 -0.5636  0.9269
 1299SOL     OW15358   2.813   1.300   9.259  0.3199 -0.1667 -0.1499
 1299SOL    HW115359   2.810   1.392   9.283  2.9640 -0.2424  0.4008
 1299SOL    HW215360   2.900   1.303   9.220 -1.0627 -0.4459 -3.2082
 1300SOL     OW15361   2.468   0.374   1.121 -0.2803 -0.0756  0.0498
 1300SOL    HW115362   2.482   0.398   1.212  1.5293  1.5934 -0.6631
 1300SOL    HW215363   2.462   0.462   1.083  0.8926  1.0549  2.4704
 1301SOL     OW15364   4.043   0.789   1.069  0.4452  0.6393  0.1021
 1301SOL    HW115365   4.001   0.851   1.129 -2.1394 -0.9646 -0.0711
 1301SOL    HW215366   4.007   0.705   1.098 -1.6750  0.9504 -1.6774
 1302SOL     OW15367   0.321   2.047   3.602  0.0763 -0.0895  0.2922
 1302SOL    HW115368   0.282   2.060   3.515  1.5456  2.2175 -0.0013
 1302SOL    HW215369   0.409   2.021   3.576  0.3067  1.2789 -0.2965
 1303SOL     OW15370   3.920   4.330  14.212  0.0673  0.3360 -0.0214
 1303SOL    HW115371   3.851   4.266  14.193 -1.0328  1.0993  1.3938
 1303SOL    HW215372   3.869   4.402  14.175  0.8182  0.6794 -0.3767
 1304SOL     OW15373   0.742   4.649   1.434 -0.5272  0.1811  0.3217
 1304SOL    HW115374   0.657   4.617   1.462  0.3543 -2.2171  0.2717
 1304SOL    HW215375   0.795   4.589   1.486 -0.5508  0.2499  0.4251
 1305SOL     OW15376   3.126   2.315   9.277  0.4944 -0.3291  0.4510
 1305SOL    HW115377   3.205   2.357   9.243 -1.0529  3.2113  1.1510
 1305SOL    HW215378   3.122   2.353   9.365  1.4141 -0.0671  0.3845
 1306SOL     OW15379   2.302   4.060  11.178 -0.6682  0.4202 -0.1246
 1306SOL    HW115380   2.261   3.977  11.154 -0.0185 -0.0976  0.5702
 1306SOL    HW215381   2.309   4.050  11.273 -1.3896  1.4380  0.0400
 1307SOL     OW15382   3.102   1.827   3.472 -0.5608  0.1557 -0.5957
 1307SOL    HW115383   3.043   1.899   3.494 -1.0997 -0.6579  0.5873
 1307SOL    HW215384   3.119   1.869   3.388 -1.1790  0.4002 -0.5978
 1308SOL     OW15385   4.340   0.759   7.812 -0.1491 -0.2664 -0.0705
 1308SOL    HW115386   4.367   0.772   7.721  0.5866 -0.9725  0.0514
 1308SOL    HW215387   4.415   0.706   7.838 -0.1328 -0.0284  0.3788
 1309SOL     OW15388   1.678   0.084   4.875 -0.2100 -0.2717  0.0319
 1309SOL    HW115389   1.758   0.054   4.831 -0.8407 -0.5103 -0.9606
 1309SOL    HW215390   1.665   0.174   4.844 -0.8863  0.4465  2.4091
 1310SOL     OW15391   0.630   1.225   5.009 -0.4345 -0.4670  0.2166
 1310SOL    HW115392   0.631   1.320   5.022  0.8619 -0.3186 -0.9288
 1310SOL    HW215393   0.693   1.209   5.079 -0.6518  1.1607  0.7842
 1311SOL     OW15394   0.569   3.672  10.467 -0.8762  0.0245 -0.4399
 1311SOL    HW115395   0.610   3.689  10.382  2.2196  0.5456  1.1751
 1311SOL    HW215396   0.605   3.585  10.486  0.7779  1.2505  2.0765
 1312SOL     OW15397   2.679   0.785  16.862 -0.2725 -0.1710  0.8476
 1312SOL    HW115398   2.667   0.842  16.786 -0.5147  0.3104  1.2435
 1312SOL    HW215399   2.604   0.727  16.852 -1.0295  1.1504 -1.1197
 1313SOL     OW15400   2.025   2.315  13.195  0.3680 -0.6102 -0.0892
 1313SOL    HW115401   1.942   2.267  13.199 -0.5444  0.9925  0.1197
 1313SOL    HW215402   1.988   2.402  13.209  1.9190  0.1076 -0.4899
 1314SOL     OW15403   2.093   2.956   8.536  0.1105  0.0851 -0.4074
 1314SOL    HW115404   2.106   3.036   8.485 -2.6702  1.5111  1.1198
 1314SOL    HW215405   2.030   2.977   8.606 -2.1082 -0.1939 -2.3061
 1315SOL     OW15406   3.537   4.169   6.549 -0.3206 -0.6824 -0.3709
 1315SOL    HW115407   3.593   4.221   6.608  0.3365 -1.4227 -0.3482
 1315SOL    HW215408   3.461   4.170   6.607  0.5732  0.2109  0.7888
 1316SOL     OW15409   3.159   4.412   8.868 -0.0871 -0.2134  0.0758
 1316SOL    HW115410   3.137   4.495   8.910  0.1899  0.3378 -0.8884
 1316SOL    HW215411   3.093   4.355   8.908  0.0540 -0.4645 -0.0470
 1317SOL     OW15412   2.548   0.565   5.891 -0.2076 -0.2786 -0.3717
 1317SOL    HW115413   2.550   0.642   5.835 -3.3625 -1.3796 -1.9928
 1317SOL    HW215414   2.538   0.599   5.980 -0.7815  1.0433 -0.9321
 1318SOL     OW15415   0.005   0.564   1.608 -0.0056  0.0817  0.3252
 1318SOL    HW115416   0.053   0.488   1.576 -2.1951 -0.7001 -1.1635
 1318SOL    HW215417   0.001   0.608   1.523  1.7019  0.6970  0.5645
 1319SOL     OW15418   3.197   2.889   7.646 -0.5817  0.2242  0.3675
 1319SOL    HW115419   3.244   2.827   7.702 -0.2792  0.4683  0.3890
 1319SOL    HW215420   3.210   2.855   7.557 -0.6781  1.8656 -0.2769
 1320SOL     OW15421   2.357   0.871   8.288 -0.1528  0.2590  0.3219
 1320SOL    HW115422   2.416   0.795   8.295  2.2141  2.2144  1.5401
 1320SOL    HW215423   2.341   0.883   8.381 -0.1676  1.8148  0.1182
 1321SOL     OW15424   0.273   2.636   5.467  0.1148  0.4959  0.3164
 1321SOL    HW115425   0.221   2.560   5.438 -2.2798  0.9179  3.5607
 1321SOL    HW215426   0.259   2.688   5.388 -1.4466 -0.0389  0.2390
 1322SOL     OW15427   0.795   2.832   5.438 -0.2986  0.0207  0.1545
 1322SOL    HW115428   0.766   2.744   5.460 -0.5841  0.5089  1.6835
 1322SOL    HW215429   0.716   2.871   5.400  0.8019  0.3972 -1.7429
 1323SOL     OW15430   1.450   4.607   9.071  0.2766  0.0600  0.6186
 1323SOL    HW115431   1.445   4.647   8.984  0.2685 -1.3404 -0.0280
 1323SOL    HW215432   1.452   4.684   9.127 -0.9751  0.8739 -0.4730
 1324SOL     OW15433   3.350   4.063   2.629 -0.2962  0.5144 -0.6318
 1324SOL    HW115434   3.408   4.129   2.589  0.7743 -0.9110 -1.4239
 1324SOL    HW215435   3.381   3.979   2.597 -0.1837  0.4628 -0.3897
 1325SOL     OW15436   2.918   1.026   3.821  0.2700  0.3468  0.0324
 1325SOL    HW115437   2.882   1.111   3.794 -2.0079 -0.5514  0.2924
 1325SOL    HW215438   2.864   0.995   3.894  0.0408 -1.2986 -0.8550
 1326SOL     OW15439   3.904   4.340   0.450 -0.5587  0.7180  0.4032
 1326SOL    HW115440   3.811   4.364   0.442 -0.7109 -0.0121 -0.0067
 1326SOL    HW215441   3.950   4.409   0.403  1.1199  0.0533  1.1036
 1327SOL     OW15442   2.353   0.593  15.999  0.0872  0.5245  0.4203
 1327SOL    HW115443   2.382   0.656  16.065 -1.7066 -0.1267  1.8214
 1327SOL    HW215444   2.323   0.516  16.048  0.1122 -0.0517 -0.4784
 1328SOL     OW15445   1.271   1.651  14.167  0.4955  0.4642 -0.1562
 1328SOL    HW115446   1.310   1.661  14.254 -0.6228 -1.6069  0.5769
 1328SOL    HW215447   1.188   1.614  14.195  1.3779 -0.8100  0.7731
 1329SOL     OW15448   2.838   4.525   3.888 -0.0421  0.6775 -0.6086
 1329SOL    HW115449   2.749   4.494   3.871 -0.9909  2.4163  1.2330
 1329SOL    HW215450   2.865   4.522   3.796 -2.0232 -0.1327 -1.1764
 1330SOL     OW15451   0.085   4.717   1.388  0.0370 -0.5663  0.0368
 1330SOL    HW115452   0.059   4.657   1.318 -2.9720  0.3249  0.3910
 1330SOL    HW215453   4.714   0.007   1.424  0.2035  0.3267  0.2649
 1331SOL     OW15454   3.637   2.688   7.600 -0.2624 -0.1676  0.2522
 1331SOL    HW115455   3.564   2.649   7.551  0.0375  1.1668 -1.2604
 1331SOL    HW215456   3.674   2.746   7.533  0.1322  0.4554  1.0166
 1332SOL     OW15457   2.229   4.352   4.706  1.0359 -0.1663 -0.4119
 1332SOL    HW115458   2.316   4.367   4.669  0.0054  2.0084 -1.9933
 1332SOL    HW215459   2.259   4.352   4.797  0.1119 -1.8753 -0.1058
 1333SOL     OW15460   2.431   4.034   6.362  0.0102 -0.5086  0.1720
 1333SOL    HW115461   2.509   4.047   6.416  0.1008 -0.2647 -0.0201
 1333SOL    HW215462   2.364   4.028   6.430 -0.0651 -1.2068  0.0427
 1334SOL     OW15463   1.191   1.885   7.819  0.3318 -0.3284  0.1170
 1334SOL    HW115464   1.097   1.891   7.837  0.7686 -2.0966  2.9806
 1334SOL    HW215465   1.223   1.919   7.903  1.2245  1.0981 -0.7946
 1335SOL     OW15466   3.475   0.772  13.328  0.4902  0.2201 -0.4936
 1335SOL    HW115467   3.569   0.765  13.345  0.3674 -0.4166 -0.0633
 1335SOL    HW215468   3.461   0.692  13.279 -1.1185 -0.6171  1.2960
 1336SOL     OW15469   2.978   2.225   8.128 -0.2846 -0.1057 -1.0471
 1336SOL    HW115470   3.020   2.284   8.190  2.3516 -2.8621 -0.2522
 1336SOL    HW215471   2.888   2.258   8.128  0.3451  1.6247  0.7456
 1337SOL     OW15472   3.775   4.404  17.477  0.3336 -0.0538 -0.1751
 1337SOL    HW115473   3.689   4.369  17.498 -0.7379  1.0573 -2.6784
 1337SOL    HW215474   3.808   4.427  17.563 -1.9810 -0.3018  0.7678
 1338SOL     OW15475   0.111   0.452  14.764  0.5081 -0.2779 -0.1247
 1338SOL    HW115476   0.089   0.364  14.735  1.7008 -0.8082  0.6128
 1338SOL    HW215477   0.024   0.490  14.746  0.4025 -0.4767 -0.0270
 1339SOL     OW15478   2.471   4.350   4.179  0.3412 -0.5989  0.5016
 1339SOL    HW115479   2.431   4.424   4.134  0.5920 -1.0557 -0.4718
 1339SOL    HW215480   2.395   4.292   4.176 -0.3651  0.3326  0.5367
 1340SOL     OW15481   1.020   2.598  15.091  0.5232 -0.2318 -0.2951
 1340SOL    HW115482   1.030   2.635  15.003 -0.4939 -0.3440 -0.4666
 1340SOL    HW215483   0.942   2.541  15.086 -1.8713  2.7876  2.6890
 1341SOL     OW15484   2.469   0.794  16.144 -0.1805 -0.0663  0.5004
 1341SOL    HW115485   2.553   0.786  16.189 -0.5155 -3.4827  0.4513
 1341SOL    HW215486   2.409   0.815  16.215 -1.4362 -0.2537 -0.4966
 1342SOL     OW15487   1.345   3.220   7.149 -0.5317  0.5778 -0.1230
 1342SOL    HW115488   1.399   3.269   7.211 -2.1724  0.8038  1.1072
 1342SOL    HW215489   1.397   3.143   7.121  0.4767  0.4466  2.1456
 1343SOL     OW15490   0.795   0.649   2.731 -0.2851 -0.0370 -0.1196
 1343SOL    HW115491   0.884   0.616   2.734  0.1299  1.0438 -0.3623
 1343SOL    HW215492   0.803   0.728   2.678  2.6973 -0.2931 -0.0532
 1344SOL     OW15493   0.349   1.614  10.042  0.5147 -0.3033 -0.2728
 1344SOL    HW115494   0.419   1.621  10.107 -0.2247  1.8221  0.3004
 1344SOL    HW215495   0.395   1.617   9.958 -1.7971  0.0370 -1.5056
 1345SOL     OW15496   3.071   1.214   8.551  0.0614  0.0543 -0.3136
 1345SOL    HW115497   3.042   1.202   8.641  1.2404 -2.9085 -0.3163
 1345SOL    HW215498   3.108   1.303   8.556  0.8560 -0.1809 -1.7249
 1346SOL     OW15499   4.697   3.957  14.880 -0.3859 -0.3791  0.2895
 1346SOL    HW115500   4.667   3.935  14.792  3.3811  1.3370 -1.4193
 1346SOL    HW215501   4.648   3.902  14.940  0.4819 -0.3528  1.0227
 1347SOL     OW15502   3.401   2.955   3.486  0.3451 -0.2520  0.4853
 1347SOL    HW115503   3.397   2.897   3.562 -0.0973 -2.0455 -0.9060
 1347SOL    HW215504   3.320   2.998   3.511  0.0708 -0.5094  0.0450
 1348SOL     OW15505   1.224   4.051   2.249  0.0692  0.4721  0.1674
 1348SOL    HW115506   1.314   4.080   2.265  0.0326  0.9192 -0.4077
 1348SOL    HW215507   1.173   4.132   2.241 -0.3173  0.1580 -0.5356
 1349SOL     OW15508   2.256   0.321   5.863  0.2992 -0.4153  0.6302
 1349SOL    HW115509   2.223   0.406   5.831  1.6327 -0.0612  0.2018
 1349SOL    HW215510   2.228   0.259   5.796  1.1005  0.3058 -0.3775
 1350SOL     OW15511   4.713   4.646  14.851  0.2241 -0.2886 -0.7139
 1350SOL    HW115512   0.071   4.659  14.908 -0.4389  0.4811 -0.0142
 1350SOL    HW215513   0.043   4.589  14.790 -0.4439 -0.0082 -1.4978
 1351SOL     OW15514   0.875   0.301   0.396  0.4773  0.1197 -0.4259
 1351SOL    HW115515   0.894   0.389   0.362  0.4534  0.6230  0.8655
 1351SOL    HW215516   0.798   0.274   0.346  0.4120  0.4263 -0.4909
 1352SOL     OW15517   3.063   1.345   3.934 -0.4476 -0.5887 -0.1164
 1352SOL    HW115518   3.133   1.295   3.978  1.7474  2.3784 -0.2004
 1352SOL    HW215519   3.092   1.326   3.845 -0.7756  3.8528 -1.1548
 1353SOL     OW15520   3.872   0.576   8.830 -0.1242 -0.1768 -0.1123
 1353SOL    HW115521   3.882   0.522   8.909 -0.5635  0.6468  0.5107
 1353SOL    HW215522   3.780   0.601   8.824  0.8555  3.0635 -1.5216
 1354SOL     OW15523   0.904   4.514   4.237  0.7415 -0.7198  0.7888
 1354SOL    HW115524   0.829   4.499   4.180  2.7841  1.2691 -2.4640
 1354SOL    HW215525   0.865   4.582   4.292 -0.6761 -1.2544  0.4367
 1355SOL     OW15526   2.480   1.101   8.352 -0.5375  0.0722 -0.2214
 1355SOL    HW115527   2.506   1.154   8.277 -0.9706  0.3903 -0.1511
 1355SOL    HW215528   2.434   1.025   8.314 -1.3327 -0.6776  2.1752
 1356SOL     OW15529   3.820   2.025  15.937  0.6429  0.2757  0.0776
 1356SOL    HW115530   3.862   1.977  15.865  1.0228 -0.6928  0.9529
 1356SOL    HW215531   3.882   2.017  16.009 -0.7326 -1.1568  1.0943
 1357SOL     OW15532   4.016   0.740   5.033 -1.0857  0.3229  0.6275
 1357SOL    HW115533   3.932   0.764   5.071 -1.3262 -0.4925  0.5895
 1357SOL    HW215534   3.988   0.662   4.986  1.3347 -1.1015  1.5465
 1358SOL     OW15535   2.494   3.290   4.846 -0.1087 -0.1269  0.0484
 1358SOL    HW115536   2.405   3.281   4.812  0.7957 -1.0029 -2.0940
 1358SOL    HW215537   2.504   3.196   4.863  2.0202  0.5763  2.5847
 1359SOL     OW15538   2.126   1.833  17.208  0.3829 -0.2170  0.3356
 1359SOL    HW115539   2.099   1.842  17.299 -1.6177  0.8426 -0.3726
 1359SOL    HW215540   2.138   1.924  17.183  3.9801 -1.0633 -0.9898
 1360SOL     OW15541   1.320   3.832   2.401 -0.1452 -0.1024 -0.2337
 1360SOL    HW115542   1.230   3.856   2.424  0.0345  0.2752  0.0812
 1360SOL    HW215543   1.329   3.766   2.470  1.6575  0.2586 -0.1305
 1361SOL     OW15544   2.211   3.196   8.374  0.9680  0.5916  0.0675
 1361SOL    HW115545   2.211   3.262   8.305  0.2148  1.7022  1.1408
 1361SOL    HW215546   2.301   3.162   8.370  1.1122  0.8292  1.5034
 1362SOL     OW15547   3.071   2.404  13.249  0.3755  0.3178  0.1809
 1362SOL    HW115548   2.988   2.413  13.296 -0.8533  1.1449 -2.1493
 1362SOL    HW215549   3.046   2.440  13.164  3.1847  0.5629 -0.5379
 1363SOL     OW15550   2.066   1.882  16.760 -0.0837 -0.7966 -0.2424
 1363SOL    HW115551   2.011   1.931  16.821  0.8602 -0.6144  0.4642
 1363SOL    HW215552   2.142   1.864  16.815  0.1742  0.5510 -0.1376
 1364SOL     OW15553   4.286   4.286   3.619 -0.3668 -0.5199  0.1953
 1364SOL    HW115554   4.372   4.259   3.651 -0.7293 -0.2057  1.4271
 1364SOL    HW215555   4.250   4.201   3.594 -1.5044 -0.1888  0.7193
 1365SOL     OW15556   1.010   0.279   4.959 -0.3191  0.0839 -0.3669
 1365SOL    HW115557   1.048   0.321   4.882  1.8369 -0.0641  0.5944
 1365SOL    HW215558   1.065   0.318   5.028 -0.9571  1.5487 -0.6909
 1366SOL     OW15559   1.609   0.996   2.635  0.1948 -0.1737  0.7176
 1366SOL    HW115560   1.621   0.904   2.611  3.4395  0.7552 -1.2573
 1366SOL    HW215561   1.634   1.050   2.560 -0.2587  0.2648  0.8749
 1367SOL     OW15562   2.972   0.407   3.324  0.1168 -0.1491  0.5990
 1367SOL    HW115563   3.067   0.404   3.315  0.3374 -0.9406  3.1211
 1367SOL    HW215564   2.940   0.322   3.293  1.0112  0.4385 -1.8731
 1368SOL     OW15565   0.993   2.600   5.350  0.2018 -0.2361  0.9739
 1368SOL    HW115566   0.963   2.676   5.401  0.6472  0.0196  0.8582
 1368SOL    HW215567   0.926   2.537   5.374  0.3283 -1.1046 -0.9632
 1369SOL     OW15568   0.800   0.153   5.169 -0.1187  0.5535 -0.5207
 1369SOL    HW115569   0.886   0.163   5.128  0.5532 -1.8174  0.3029
 1369SOL    HW215570   0.823   0.179   5.259  1.7491  2.4678 -1.5597
 1370SOL     OW15571   1.350   4.573  10.825  0.6456  0.3362  0.1606
 1370SOL    HW115572   1.385   4.489  10.795 -1.8582  0.4001 -2.9640
 1370SOL    HW215573   1.291   4.551  10.897  2.0520  0.3633  1.3254
 1371SOL     OW15574   1.013   4.581  12.454 -0.3330  0.0316 -0.0753
 1371SOL    HW115575   1.013   4.653  12.391  2.5905 -0.3035 -0.4704
 1371SOL    HW215576   1.029   4.507  12.395 -0.5574  0.0778 -0.1917
 1372SOL     OW15577   2.686   4.649  13.434 -0.4250 -0.4912  0.3305
 1372SOL    HW115578   2.689   4.567  13.484 -0.5464 -0.6655  0.0488
 1372SOL    HW215579   2.643   4.710  13.494  0.0726 -0.3675  0.5659
 1373SOL     OW15580   4.306   2.044   8.517 -0.4458  0.9588  0.5469
 1373SOL    HW115581   4.216   2.019   8.537  0.3364 -1.8496  0.5627
 1373SOL    HW215582   4.316   2.022   8.424 -0.2639  1.1690  0.5165
 1374SOL     OW15583   3.971   1.797   2.618  0.7791 -0.0401  0.3152
 1374SOL    HW115584   3.998   1.745   2.694  2.0189 -0.4078 -0.3730
 1374SOL    HW215585   3.924   1.727   2.572 -0.6029  0.9016  0.3309
 1375SOL     OW15586   4.223   0.210  15.952 -0.2192  0.0517 -0.4983
 1375SOL    HW115587   4.312   0.186  15.927 -0.3244 -0.1873 -0.6395
 1375SOL    HW215588   4.225   0.296  15.911  0.7752  0.4859  0.4554
 1376SOL     OW15589   2.549   1.245  13.459  0.1714 -0.0634 -0.2568
 1376SOL    HW115590   2.542   1.332  13.499  0.6822 -0.6439  1.0859
 1376SOL    HW215591   2.539   1.191  13.538  2.7635  2.1819  1.6183
 1377SOL     OW15592   2.972   3.897   3.906  0.2017 -0.1381 -0.0730
 1377SOL    HW115593   2.955   3.903   3.812  1.0476 -0.2365 -0.2287
 1377SOL    HW215594   3.063   3.870   3.904  0.3685  0.2695  3.2729
 1378SOL     OW15595   2.663   1.314   7.878 -0.4655  0.3441 -0.1252
 1378SOL    HW115596   2.717   1.273   7.811 -0.0373  2.0396 -0.8022
 1378SOL    HW215597   2.620   1.383   7.828 -1.0915 -1.2158 -1.7408
 1379SOL     OW15598   4.026   2.790   2.499  0.4256  0.2285 -0.3849
 1379SOL    HW115599   3.944   2.819   2.539  0.9233  1.3308 -0.1899
 1379SOL    HW215600   4.086   2.826   2.565 -1.1682  1.3510  0.4483
 1380SOL     OW15601   3.248   1.181   4.888  0.1202 -0.1486 -0.2428
 1380SOL    HW115602   3.203   1.099   4.864 -0.4129  0.1698 -0.3377
 1380SOL    HW215603   3.257   1.220   4.802 -1.9421 -2.3881 -1.4932
 1381SOL     OW15604   4.383   1.692   3.567 -0.4694  0.3036 -0.1191
 1381SOL    HW115605   4.472   1.714   3.593  0.1062 -0.7089 -1.2782
 1381SOL    HW215606   4.364   1.758   3.500 -2.0318  0.0697  0.0910
 1382SOL     OW15607   2.871   3.174   3.261  0.5424 -0.0104 -1.0191
 1382SOL    HW115608   2.874   3.093   3.310 -0.5311  0.0474 -0.8671
 1382SOL    HW215609   2.954   3.170   3.212  1.2457  1.2695  0.0573
 1383SOL     OW15610   0.975   3.244   4.534  0.2955 -0.0425  0.7000
 1383SOL    HW115611   0.939   3.239   4.446  0.4441 -1.2496  0.7082
 1383SOL    HW215612   1.004   3.335   4.540  0.2938 -0.1283  2.0052
 1384SOL     OW15613   1.175   4.090   1.968  0.1013  0.2006  0.0791
 1384SOL    HW115614   1.199   4.054   2.054  3.0005 -2.9447 -2.0430
 1384SOL    HW215615   1.086   4.111   1.995  1.0147  1.8475  1.8038
 1385SOL     OW15616   4.427   3.003  11.895 -0.1242 -0.2281 -0.5863
 1385SOL    HW115617   4.487   2.967  11.830 -0.3733 -0.1255 -0.8779
 1385SOL    HW215618   4.393   2.920  11.928  1.0378  0.0620  1.3453
 1386SOL     OW15619   0.960   4.451   0.234 -0.6460 -0.4612 -0.4735
 1386SOL    HW115620   0.983   4.475   0.144 -0.0178  1.1350  0.1152
 1386SOL    HW215621   0.908   4.530   0.247 -1.0865 -0.4958 -2.1213
 1387SOL     OW15622   0.269   0.668  10.955 -0.1632  0.1611  1.3127
 1387SOL    HW115623   0.332   0.738  10.943 -0.2872 -0.0038 -0.2324
 1387SOL    HW215624   0.279   0.652  11.049 -0.8972  1.7282  1.6737
 1388SOL     OW15625   3.250   1.909   6.757 -0.1482  0.2061  0.6868
 1388SOL    HW115626   3.270   1.995   6.795  1.3958  0.4659 -0.7305
 1388SOL    HW215627   3.293   1.847   6.817  1.1033 -1.5741 -2.0396
 1389SOL     OW15628   0.245   3.588   5.310 -0.1700 -0.3715  0.5748
 1389SOL    HW115629   0.153   3.614   5.303  0.2107  0.6900 -0.5034
 1389SOL    HW215630   0.275   3.603   5.399 -1.6741 -0.5650  1.1154
 1390SOL     OW15631   3.941   2.618  14.572  0.2125  0.0825 -0.0259
 1390SOL    HW115632   3.943   2.610  14.477 -0.5228 -0.2390 -0.0165
 1390SOL    HW215633   3.886   2.697  14.575  0.0382 -0.0686  0.7238
 1391SOL     OW15634   1.421   1.718  16.898  0.3097 -0.7934 -0.2179
 1391SOL    HW115635   1.369   1.757  16.828  0.7007  1.3667  0.6784
 1391SOL    HW215636   1.479   1.656  16.853 -1.1887 -1.5198 -1.1161
 1392SOL     OW15637   0.745   1.816  10.517  0.3337  0.5428  0.2957
 1392SOL    HW115638   0.668   1.825  10.572  0.4003 -2.0783  0.8377
 1392SOL    HW215639   0.812   1.860  10.569 -0.2423  0.6588  0.9370
 1393SOL     OW15640   0.802   1.848   5.535 -0.4519  0.0880  0.2498
 1393SOL    HW115641   0.707   1.845   5.527 -0.2436 -0.7806 -2.0245
 1393SOL    HW215642   0.802   1.938   5.567  0.2786  0.3028 -0.3562
 1394SOL     OW15643   0.146   4.537   6.205  0.1699  0.4402 -0.7150
 1394SOL    HW115644   0.073   4.589   6.239  0.5519  0.4587  0.0967
 1394SOL    HW215645   0.210   4.606   6.188  1.4355 -0.6587 -0.4560
 1395SOL     OW15646   2.984   0.836   7.765 -0.2621 -0.1574  0.0421
 1395SOL    HW115647   2.916   0.769   7.765 -0.1147 -0.3035 -0.6193
 1395SOL    HW215648   3.030   0.830   7.849 -1.2585 -0.4721  0.5581
 1396SOL     OW15649   2.568   2.615   9.205 -0.4544  0.4951 -0.7181
 1396SOL    HW115650   2.640   2.551   9.210  0.1524  1.1252 -1.4825
 1396SOL    HW215651   2.509   2.591   9.276  0.5319  0.8976  0.2440
 1397SOL     OW15652   2.205   2.524   8.842  0.1654 -0.6911 -0.0350
 1397SOL    HW115653   2.297   2.515   8.868  0.4407  1.2988 -0.3033
 1397SOL    HW215654   2.194   2.491   8.753 -1.8539 -0.4073  0.0967
 1398SOL     OW15655   3.020   1.248   5.277  0.2148  0.0054  0.0225
 1398SOL    HW115656   3.059   1.331   5.249  1.6754 -0.4971  0.5606
 1398SOL    HW215657   2.948   1.239   5.214 -1.0369  2.1515  1.1248
 1399SOL     OW15658   3.558   2.682   4.614 -0.7140 -0.4220 -1.1419
 1399SOL    HW115659   3.542   2.771   4.647 -1.0795 -1.2153  0.8065
 1399SOL    HW215660   3.620   2.645   4.677 -0.4988  0.1001 -1.0454
 1400SOL     OW15661   1.738   3.324  15.235 -0.0809 -0.2722  0.7955
 1400SOL    HW115662   1.787   3.372  15.302 -0.4342  0.9657  0.1519
 1400SOL    HW215663   1.704   3.246  15.278  0.0534  0.1073  1.5965
 1401SOL     OW15664   0.669   1.889   5.016 -0.1636  0.1278 -0.6644
 1401SOL    HW115665   0.600   1.825   5.000  0.6399 -0.0374 -3.5032
 1401SOL    HW215666   0.631   1.967   4.975 -1.7515 -0.3787 -0.1552
 1402SOL     OW15667   2.525   4.196  17.669  0.3309 -0.3830 -0.1565
 1402SOL    HW115668   2.431   4.186   0.009  0.1661  1.9487  0.4785
 1402SOL    HW215669   2.544   4.229   0.084 -1.3238 -4.0958  1.5843
 1403SOL     OW15670   3.194   4.009  14.002  0.4053  0.1549  0.1953
 1403SOL    HW115671   3.203   3.920  13.969  2.3185  1.0943 -1.8703
 1403SOL    HW215672   3.136   4.005  14.077  2.1369  0.7306  1.5586
 1404SOL     OW15673   3.186   3.716   2.425  0.0482  0.2740 -0.0707
 1404SOL    HW115674   3.137   3.798   2.432  2.4554  1.8579 -1.7330
 1404SOL    HW215675   3.213   3.704   2.516  0.1098 -0.0747 -0.1328
 1405SOL     OW15676   2.672   0.155   2.196 -0.0117  0.2844  0.0390
 1405SOL    HW115677   2.747   0.108   2.232 -1.1866 -3.0561 -1.8972
 1405SOL    HW215678   2.601   0.130   2.255 -1.4770 -0.8194 -2.2231
 1406SOL     OW15679   1.383   1.752   4.136 -0.8410  0.2831 -0.2756
 1406SOL    HW115680   1.383   1.676   4.194 -0.7918  0.9716  0.6224
 1406SOL    HW215681   1.323   1.725   4.066 -0.7025  0.1635 -0.3477
 1407SOL     OW15682   0.680   3.463   8.638 -0.2169 -0.0594  0.0174
 1407SOL    HW115683   0.609   3.445   8.700  1.0066  2.0146  2.0169
 1407SOL    HW215684   0.705   3.373   8.616 -0.8504 -0.5289  1.1827
 1408SOL     OW15685   3.837   3.978   6.112  0.3979  0.1179  0.5124
 1408SOL    HW115686   3.896   3.975   6.037 -2.0436 -2.7515 -1.2792
 1408SOL    HW215687   3.873   3.900   6.155 -1.8812 -1.1344  0.1716
 1409SOL     OW15688   4.124   2.531  14.006  0.0329  0.6905  0.2187
 1409SOL    HW115689   4.108   2.474  14.081  1.3796  0.0227  0.0019
 1409SOL    HW215690   4.087   2.479  13.936 -1.0028  1.1349  0.4443
 1410SOL     OW15691   0.040   2.304   6.790  0.3971 -0.1113 -0.0292
 1410SOL    HW115692   0.028   2.396   6.766 -1.7745 -0.0663  1.1907
 1410SOL    HW215693   4.691   2.259   6.738 -0.9250  2.2278 -0.3871
 1411SOL     OW15694   4.276   0.623   6.987  0.0401 -0.4876  0.0115
 1411SOL    HW115695   4.243   0.576   6.910  0.2953 -0.8877  0.1483
 1411SOL    HW215696   4.367   0.595   7.000  0.3528  0.5617  0.0714
 1412SOL     OW15697   1.788   2.431   7.732 -0.3254  0.0815 -0.1794
 1412SOL    HW115698   1.863   2.463   7.683 -0.9634  0.7408 -0.7244
 1412SOL    HW215699   1.772   2.345   7.694 -1.7648 -0.5419  1.8316
 1413SOL     OW15700   2.346   2.488   5.119  0.4271  0.5402  0.3721
 1413SOL    HW115701   2.366   2.398   5.146  1.2790  0.6055 -0.0513
 1413SOL    HW215702   2.273   2.505   5.179  0.1512  0.3223  0.0958
 1414SOL     OW15703   0.250   1.931   3.981  0.0761 -0.3454  0.3181
 1414SOL    HW115704   0.190   1.955   4.051 -0.2875 -1.0726  0.2531
 1414SOL    HW215705   0.269   1.841   4.009 -0.0811 -0.6841 -0.6499
 1415SOL     OW15706   3.319   1.016   6.337  0.4027 -0.4911  0.2401
 1415SOL    HW115707   3.354   1.018   6.248 -1.3720 -1.4452 -0.4876
 1415SOL    HW215708   3.321   0.922   6.355 -3.3444 -1.4589 -4.2167
 1416SOL     OW15709   4.419   2.466   7.171 -0.3226 -0.1668 -0.2928
 1416SOL    HW115710   4.487   2.427   7.117 -0.8187 -0.1373 -0.9395
 1416SOL    HW215711   4.455   2.546   7.210 -1.5925  0.1760  0.2044
 1417SOL     OW15712   2.066   1.019   4.177  0.2840  0.0618  0.6014
 1417SOL    HW115713   2.092   0.930   4.154 -2.5544 -0.2391 -1.4100
 1417SOL    HW215714   2.141   1.046   4.230  0.0054  1.0393  0.5005
 1418SOL     OW15715   2.677   1.982   6.024 -0.1925 -0.3177  0.0252
 1418SOL    HW115716   2.704   1.890   6.015 -2.0943 -1.1240  2.6899
 1418SOL    HW215717   2.656   2.006   5.934  0.4609  2.1255  0.5416
 1419SOL     OW15718   1.497   0.900   4.901  0.2219 -0.0256 -0.0293
 1419SOL    HW115719   1.569   0.932   4.847  1.3095  0.5648  1.7508
 1419SOL    HW215720   1.433   0.953   4.854  1.2201  0.8033 -0.4635
 1420SOL     OW15721   4.257   2.081   4.153 -0.2341  0.3636 -0.2220
 1420SOL    HW115722   4.315   2.026   4.100  0.2217  1.9784 -1.4077
 1420SOL    HW215723   4.326   2.114   4.211 -0.8498  1.5008 -0.1393
 1421SOL     OW15724   0.024   1.349   5.785  0.8053 -0.4741 -0.1803
 1421SOL    HW115725   0.014   1.311   5.697  0.2658 -1.7065  0.4059
 1421SOL    HW215726   0.102   1.303   5.817  0.6410  1.2457  2.6377
 1422SOL     OW15727   2.905   2.298   1.128 -0.0813  0.4460  0.1427
 1422SOL    HW115728   2.995   2.316   1.155 -0.9151  3.3676  1.0182
 1422SOL    HW215729   2.889   2.383   1.086  0.6326  0.5499  0.0803
 1423SOL     OW15730   4.387   2.956   4.098  0.4244 -0.0843 -0.9895
 1423SOL    HW115731   4.439   2.999   4.030  1.7992  0.5656  0.4520
 1423SOL    HW215732   4.430   2.998   4.173 -0.9441 -0.3401 -0.0698
 1424SOL     OW15733   2.115   2.212   1.127  0.0359  0.8103 -0.0323
 1424SOL    HW115734   2.037   2.228   1.181 -0.1075  0.3645 -0.1126
 1424SOL    HW215735   2.135   2.300   1.094  0.1080  1.2082  1.0562
 1425SOL     OW15736   2.585   1.805   6.936 -0.3891  0.5470  0.1277
 1425SOL    HW115737   2.620   1.872   6.878  0.5839  0.3432  0.4910
 1425SOL    HW215738   2.623   1.830   7.020 -1.5999 -0.5525  0.9970
 1426SOL     OW15739   0.801   4.627  13.991  0.6324  0.4902 -0.5236
 1426SOL    HW115740   0.792   4.589  13.903  1.4323 -0.0246 -0.3774
 1426SOL    HW215741   0.735   4.574  14.036  0.2192  0.5352 -1.0724
 1427SOL     OW15742   1.134   1.083   7.039  0.2555 -0.0347  0.5798
 1427SOL    HW115743   1.133   1.104   7.133 -1.5756  0.8435  0.3681
 1427SOL    HW215744   1.050   1.121   7.015 -0.6983 -2.9257 -0.5977
 1428SOL     OW15745   4.066   4.403  14.783 -0.2096  0.0558 -0.0977
 1428SOL    HW115746   4.101   4.492  14.775  0.4430 -0.0591  1.4664
 1428SOL    HW215747   4.094   4.395  14.874  2.4970 -1.7702 -1.0504
 1429SOL     OW15748   0.592   1.718   1.359  0.2053  0.5977  0.4277
 1429SOL    HW115749   0.572   1.807   1.388  0.1712  0.9852 -0.7856
 1429SOL    HW215750   0.507   1.675   1.361  0.3358  0.2322 -1.5010
 1430SOL     OW15751   3.674   0.444   0.090  0.6734  0.6133  0.2178
 1430SOL    HW115752   3.607   0.483   0.146  0.9672  1.6809 -0.1868
 1430SOL    HW215753   3.697   0.520   0.037 -0.1608  0.7238  0.0112
 1431SOL     OW15754   0.793   2.598  12.072  1.0377  0.0343  0.3796
 1431SOL    HW115755   0.751   2.515  12.052 -0.1673  0.8982 -0.6682
 1431SOL    HW215756   0.721   2.660  12.084  0.2791  0.0072 -4.1975
 1432SOL     OW15757   0.827   2.935  10.006 -0.2970 -0.5661 -0.3398
 1432SOL    HW115758   0.811   2.972  10.093 -2.4044  0.5905 -1.2330
 1432SOL    HW215759   0.803   3.009   9.950  1.0535 -0.9565 -1.4323
 1433SOL     OW15760   2.728   2.382   2.359  0.4931  0.1756  0.1257
 1433SOL    HW115761   2.643   2.381   2.401  0.1316 -0.3048 -0.6066
 1433SOL    HW215762   2.786   2.403   2.432  1.0870  2.0751 -0.8785
 1434SOL     OW15763   3.706   0.012   0.500 -0.0259 -0.1367  0.3965
 1434SOL    HW115764   3.711   4.649   0.551 -0.5750 -1.5589 -1.7865
 1434SOL    HW215765   3.630   0.060   0.530 -1.0979  0.3980 -3.1583
 1435SOL     OW15766   1.136   4.655   8.166 -0.3740 -0.5191  0.8107
 1435SOL    HW115767   1.184   0.016   8.137 -0.8985 -0.9663 -1.2353
 1435SOL    HW215768   1.052   4.693   8.192 -0.2004  1.5129 -1.5755
 1436SOL     OW15769   2.148   1.148   6.166  0.2167  0.3406 -0.1762
 1436SOL    HW115770   2.145   1.054   6.183  0.4676  0.2191 -0.7941
 1436SOL    HW215771   2.071   1.176   6.215  1.2429 -0.7661  2.0732
 1437SOL     OW15772   0.712   0.344   2.677  0.3276  0.2132 -0.3368
 1437SOL    HW115773   0.722   0.337   2.582 -0.5660 -2.4337 -0.2428
 1437SOL    HW215774   0.718   0.439   2.684  0.4032  0.1209  0.8601
 1438SOL     OW15775   0.426   1.754   4.423  0.2268  0.3332  0.0394
 1438SOL    HW115776   0.382   1.751   4.338 -0.8617  0.1742  0.6198
 1438SOL    HW215777   0.515   1.783   4.400  0.7013 -0.5199  0.8012
 1439SOL     OW15778   0.748   3.264   9.018  0.5419  0.4033  0.4087
 1439SOL    HW115779   0.838   3.287   8.997  1.7352 -0.6601  4.4249
 1439SOL    HW215780   0.754   3.168   9.026  0.1228  0.3104 -0.3936
 1440SOL     OW15781   0.669   3.360   5.351  0.3763 -0.6236  0.5485
 1440SOL    HW115782   0.656   3.428   5.418  2.1834  1.4493 -1.2234
 1440SOL    HW215783   0.686   3.289   5.412  0.6503  1.0190  2.3999
 1441SOL     OW15784   3.682   0.609  12.331 -0.0762  0.2990 -0.3968
 1441SOL    HW115785   3.706   0.568  12.248 -0.6399  1.1275 -0.9772
 1441SOL    HW215786   3.670   0.697  12.297  2.0149 -0.0594 -2.0661
 1442SOL     OW15787   3.592   3.758   3.329  0.2047  0.1875 -0.6339
 1442SOL    HW115788   3.659   3.689   3.328 -0.3800 -0.3693 -1.6744
 1442SOL    HW215789   3.663   3.822   3.330 -0.4666  0.9742 -2.3592
 1443SOL     OW15790   1.923   2.114  10.261 -0.3750  0.7449  0.2309
 1443SOL    HW115791   1.918   2.032  10.213  0.1154 -0.3599  2.1025
 1443SOL    HW215792   1.982   2.166  10.206 -0.5718  2.1714  1.3447
 1444SOL     OW15793   2.810   0.019   5.042 -0.1837  0.6609 -0.1270
 1444SOL    HW115794   2.721   0.018   5.076  0.1699  0.7620  0.7983
 1444SOL    HW215795   2.866   0.056   5.110  1.7830  3.3547 -3.2084
 1445SOL     OW15796   0.124   4.361   5.854  0.2565 -0.0365 -0.7833
 1445SOL    HW115797   0.077   4.296   5.801  2.6274  0.0370 -3.0306
 1445SOL    HW215798   0.173   4.303   5.912 -1.2636 -0.7824 -0.2566
 1446SOL     OW15799   0.066   4.686   2.137  0.0173 -0.2230 -0.1883
 1446SOL    HW115800   0.050   4.594   2.116  0.5793 -0.1533 -0.9063
 1446SOL    HW215801   4.713   0.016   2.093 -0.6036  0.2368  1.2949
 1447SOL     OW15802   2.060   2.496  12.926  0.0009  0.0606  0.4717
 1447SOL    HW115803   1.981   2.445  12.909 -0.7661  1.1520  0.7872
 1447SOL    HW215804   2.032   2.534  13.009 -0.0729 -1.2683  1.0607
 1448SOL     OW15805   4.211   2.456  11.644 -0.1991 -0.6505  0.1281
 1448SOL    HW115806   4.164   2.498  11.572  1.9698  0.5731 -0.5706
 1448SOL    HW215807   4.133   2.406  11.667 -0.4607  0.0510  0.7755
 1449SOL     OW15808   2.523   0.757  13.962  0.3450  0.5505 -0.3787
 1449SOL    HW115809   2.591   0.694  13.986 -1.8396 -1.1746  1.2786
 1449SOL    HW215810   2.454   0.695  13.939 -0.0980  0.6285  0.7818
 1450SOL     OW15811   2.116   0.625  14.229 -0.5609 -0.0124 -0.3269
 1450SOL    HW115812   2.188   0.675  14.267  0.8366 -1.9073 -0.5134
 1450SOL    HW215813   2.064   0.700  14.199  0.8917  0.9538 -0.4149
 1451SOL     OW15814   1.456   2.443   4.421 -0.4751 -0.0202  0.6238
 1451SOL    HW115815   1.395   2.461   4.349  0.1688 -1.3905 -0.2485
 1451SOL    HW215816   1.462   2.527   4.467  2.9103 -0.2418  0.6085
 1452SOL     OW15817   0.144   0.982   7.057 -0.2728  0.4293  0.1369
 1452SOL    HW115818   0.116   1.061   7.104 -0.4619  0.3306  0.1915
 1452SOL    HW215819   0.060   0.937   7.058  0.9993 -1.9642 -0.8430
 1453SOL     OW15820   0.518   2.900   6.159  0.1213  0.8307  0.1458
 1453SOL    HW115821   0.505   2.885   6.253  2.5513  0.3748  0.3997
 1453SOL    HW215822   0.495   2.994   6.158  0.1641  0.8207 -1.1698
 1454SOL     OW15823   2.924   2.708  11.250 -0.5056  0.1028  0.1046
 1454SOL    HW115824   2.929   2.714  11.155  0.3248 -0.0470  0.1351
 1454SOL    HW215825   2.951   2.618  11.268  0.1051  0.4497  0.9309
 1455SOL     OW15826   4.659   3.357   6.458 -0.3351  0.1245 -0.1728
 1455SOL    HW115827   4.684   3.267   6.433 -0.3193  0.9726 -3.1572
 1455SOL    HW215828   4.631   3.403   6.380  1.6773 -0.6538 -1.3790
 1456SOL     OW15829   3.198   2.341   4.162 -0.1483  0.2936  0.0807
 1456SOL    HW115830   3.280   2.312   4.121  0.1459  0.8374  0.2961
 1456SOL    HW215831   3.230   2.348   4.252 -0.2139 -0.8113  0.1997
 1457SOL     OW15832   3.498   3.756   2.787 -0.2950 -0.2275 -0.6221
 1457SOL    HW115833   3.492   3.692   2.857  2.0825  1.5570  1.2220
 1457SOL    HW215834   3.421   3.808   2.809  0.8909  1.5622 -0.6012
 1458SOL     OW15835   1.062   1.571   7.750  0.2856 -0.2620  0.2131
 1458SOL    HW115836   1.039   1.486   7.713  1.1179 -0.0069 -0.9154
 1458SOL    HW215837   0.971   1.590   7.772  0.3914  0.3657  0.1342
 1459SOL     OW15838   2.914   1.569   3.261 -0.3739 -0.4441 -0.0287
 1459SOL    HW115839   2.876   1.612   3.339 -0.2043 -1.2273  0.4812
 1459SOL    HW215840   2.837   1.585   3.206  0.2297 -1.1295 -1.0428
 1460SOL     OW15841   0.970   4.708  14.346  0.0819 -0.6939  0.2311
 1460SOL    HW115842   0.901   0.055  14.329 -1.4726 -1.8299  2.3525
 1460SOL    HW215843   0.993   0.017  14.435 -1.7121 -0.1086  0.5294
 1461SOL     OW15844   2.368   0.204   4.296 -0.2036 -0.1693  0.0851
 1461SOL    HW115845   2.380   0.293   4.263  0.4201  0.1142  1.0958
 1461SOL    HW215846   2.335   0.220   4.384 -4.1883  1.2223 -1.6871
 1462SOL     OW15847   1.895   2.727  13.737 -0.4223 -0.1874 -0.3247
 1462SOL    HW115848   1.890   2.632  13.725 -0.1248 -0.3957  1.1844
 1462SOL    HW215849   1.817   2.759  13.691 -0.5261  0.8676  0.5843
 1463SOL     OW15850   2.270   2.074   4.476  0.4743  0.5299 -0.5011
 1463SOL    HW115851   2.180   2.040   4.476 -0.4706  3.0289 -1.4804
 1463SOL    HW215852   2.263   2.121   4.393  0.2064 -0.4806 -1.0493
 1464SOL     OW15853   4.275   2.970   8.567 -0.6108 -0.1763 -0.3520
 1464SOL    HW115854   4.252   2.893   8.619  0.3211 -0.9423 -1.0719
 1464SOL    HW215855   4.237   3.037   8.624  1.0625 -2.2570  3.2319
 1465SOL     OW15856   3.835   1.521   6.154  0.2664  0.0153  0.8573
 1465SOL    HW115857   3.815   1.453   6.089  1.7920  0.7566 -0.3710
 1465SOL    HW215858   3.753   1.570   6.154  0.6030  0.5828 -0.0864
 1466SOL     OW15859   2.165   2.117   1.730  0.4876 -0.2105 -0.1972
 1466SOL    HW115860   2.073   2.118   1.756  0.4509 -0.3993 -0.3248
 1466SOL    HW215861   2.158   2.160   1.645 -3.1601  0.5163  0.4869
 1467SOL     OW15862   2.323   1.430   8.437 -0.1921  0.6968  0.3181
 1467SOL    HW115863   2.256   1.498   8.444 -1.8363 -0.9271  0.2394
 1467SOL    HW215864   2.396   1.487   8.413 -1.1510  2.9721  2.8414
 1468SOL     OW15865   4.566   3.688   6.263 -0.1180  0.2571 -0.0505
 1468SOL    HW115866   4.587   3.712   6.353  0.4025 -0.6290  0.0613
 1468SOL    HW215867   4.478   3.725   6.258 -0.5880 -0.9262 -0.4103
 1469SOL     OW15868   2.712   4.210   8.125 -0.0118 -0.4441  0.0793
 1469SOL    HW115869   2.743   4.122   8.145 -0.7111 -0.6927  0.0557
 1469SOL    HW215870   2.793   4.259   8.109 -1.1527  0.0130 -4.0722
 1470SOL     OW15871   4.107   1.383   7.316 -0.0603  0.3733 -0.2459
 1470SOL    HW115872   4.148   1.358   7.399 -0.3600  1.8547  0.3621
 1470SOL    HW215873   4.055   1.460   7.342  0.5927  0.2539  1.4189
 1471SOL     OW15874   2.460   1.024  14.325 -0.0381 -0.1687 -0.3211
 1471SOL    HW115875   2.479   1.064  14.240  0.3426  2.1698  0.8570
 1471SOL    HW215876   2.469   1.099  14.383 -2.7923 -1.3686  1.6345
 1472SOL     OW15877   0.503   1.828   8.325  0.2241 -0.2562 -0.4165
 1472SOL    HW115878   0.487   1.855   8.415 -0.9055 -1.4228 -0.2689
 1472SOL    HW215879   0.521   1.734   8.336 -0.0348 -0.4894 -1.8990
 1473SOL     OW15880   1.684   2.583   5.252 -0.0004  0.3861  0.1142
 1473SOL    HW115881   1.743   2.512   5.277  0.1952  1.1316  1.7487
 1473SOL    HW215882   1.614   2.573   5.317  0.5367 -1.4840  0.4140
 1474SOL     OW15883   1.596   3.976   0.039 -0.4117 -0.2114 -0.3677
 1474SOL    HW115884   1.611   4.062   0.079 -2.6731  1.3706 -2.9182
 1474SOL    HW215885   1.545   4.002  17.635  1.5015  3.1527 -0.5048
 1475SOL     OW15886   2.219   4.553   6.721 -0.4988  0.0312 -0.0005
 1475SOL    HW115887   2.192   4.502   6.645  0.5951  0.6833 -0.8255
 1475SOL    HW215888   2.141   4.608   6.727  0.0854  0.9163 -0.5695
 1476SOL     OW15889   1.382   3.960   1.024  0.0207  0.4510 -0.4594
 1476SOL    HW115890   1.471   3.926   1.029  0.5148  1.8897  0.3798
 1476SOL    HW215891   1.343   3.903   1.090  0.5390 -1.2166 -1.5996
 1477SOL     OW15892   2.827   2.890   6.362  0.0472  0.2044  0.2533
 1477SOL    HW115893   2.841   2.945   6.286 -1.0226 -1.6003 -1.2547
 1477SOL    HW215894   2.913   2.902   6.402 -0.0411  1.1349  0.1585
 1478SOL     OW15895   3.416   3.465   7.200  0.2481  0.1366 -0.0810
 1478SOL    HW115896   3.354   3.538   7.200 -1.6787 -1.5031 -0.2266
 1478SOL    HW215897   3.469   3.484   7.123 -0.3701 -1.5162 -0.9048
 1479SOL     OW15898   3.168   0.743   4.744  0.2035 -0.3066 -0.3040
 1479SOL    HW115899   3.256   0.723   4.777 -0.0988 -1.8758 -0.4303
 1479SOL    HW215900   3.123   0.787   4.817  0.9965  1.1155 -0.6708
 1480SOL     OW15901   3.705   0.510  16.118  0.2056  0.0751 -0.3064
 1480SOL    HW115902   3.627   0.549  16.158 -0.3511 -1.7082  0.3491
 1480SOL    HW215903   3.748   0.592  16.092 -0.0355  0.3207  0.0624
 1481SOL     OW15904   1.092   4.253  11.980  0.0023 -0.2386  0.8970
 1481SOL    HW115905   1.085   4.158  11.975 -2.5068  0.0297 -0.3021
 1481SOL    HW215906   1.181   4.263  11.946 -0.5240  0.3401 -0.3049
 1482SOL     OW15907   3.244   3.670   7.181 -0.4875 -0.2446  0.2571
 1482SOL    HW115908   3.150   3.677   7.197 -0.4791  2.2982 -0.8046
 1482SOL    HW215909   3.245   3.647   7.088 -0.8692  1.2047 -0.1087
 1483SOL     OW15910   1.807   0.587  12.027 -0.6018  0.6056 -0.8853
 1483SOL    HW115911   1.864   0.658  12.058 -1.0342  0.5759 -0.0166
 1483SOL    HW215912   1.722   0.628  12.015 -0.3456  2.2259  2.6919
 1484SOL     OW15913   0.698   0.153   0.241  0.5497  0.4630  0.2091
 1484SOL    HW115914   0.605   0.174   0.232  0.6347  0.4031 -0.8137
 1484SOL    HW215915   0.708   0.077   0.184  1.6740  1.9542 -1.6033
 1485SOL     OW15916   1.094   4.041  11.528 -0.0526 -0.1043  0.0177
 1485SOL    HW115917   1.140   4.124  11.545 -0.7301 -0.1261  1.8921
 1485SOL    HW215918   1.031   4.080  11.467  0.7676  1.0158 -0.1136
 1486SOL     OW15919   3.084   1.318   7.772 -0.1315 -0.2373 -0.6596
 1486SOL    HW115920   3.008   1.304   7.827  0.2095  2.7631  0.5871
 1486SOL    HW215921   3.138   1.240   7.783  0.4445  0.0750 -1.2140
 1487SOL     OW15922   0.681   0.869   5.774 -0.3335  0.3064 -0.3037
 1487SOL    HW115923   0.740   0.844   5.845  0.3668 -0.4928 -1.1496
 1487SOL    HW215924   0.731   0.845   5.696  2.6193  1.1734  1.3474
 1488SOL     OW15925   4.494   2.007  13.699  0.3224  0.2676  0.2333
 1488SOL    HW115926   4.416   2.061  13.710 -0.8610 -1.7071  1.4417
 1488SOL    HW215927   4.479   1.970  13.611 -0.9674  1.1276  0.0859
 1489SOL     OW15928   1.791   3.123   7.571  0.3434 -0.2266 -0.1373
 1489SOL    HW115929   1.800   3.138   7.665  2.6520  1.5473 -0.6293
 1489SOL    HW215930   1.802   3.211   7.534 -1.6085  0.3223  0.5914
 1490SOL     OW15931   4.006   4.235   7.073  0.1848  0.0343  0.5523
 1490SOL    HW115932   3.938   4.171   7.052  0.5228  0.1753 -0.9751
 1490SOL    HW215933   4.052   4.172   7.128  1.7767 -0.5586 -1.4640
 1491SOL     OW15934   1.865   4.609   4.026 -0.2082  0.1169 -0.2025
 1491SOL    HW115935   1.870   4.626   3.932 -1.5815 -0.8913 -0.4606
 1491SOL    HW215936   1.781   4.571   4.050 -0.0913 -0.0233 -0.0173
 1492SOL     OW15937   0.617   3.357   8.012 -0.6537  0.0509  0.3032
 1492SOL    HW115938   0.555   3.308   8.067 -1.9433  2.8624  1.3291
 1492SOL    HW215939   0.686   3.387   8.070 -0.8340  0.4168  0.3311
 1493SOL     OW15940   0.704   1.149  13.207  0.3876  0.1231 -0.7367
 1493SOL    HW115941   0.623   1.122  13.251  1.3064 -0.4239  0.6152
 1493SOL    HW215942   0.678   1.141  13.115 -2.2785 -1.4622  0.1396
 1494SOL     OW15943   4.338   1.535  16.008 -0.1395  0.0951  0.0690
 1494SOL    HW115944   4.379   1.613  15.970  1.3264 -1.1148 -0.7814
 1494SOL    HW215945   4.276   1.507  15.941 -1.8083 -0.2005  1.7399
 1495SOL     OW15946   4.304   4.667  11.446  0.6031  0.0874  0.7024
 1495SOL    HW115947   4.279   4.699  11.359  1.2715  1.0597  0.8728
 1495SOL    HW215948   4.374   0.014  11.459  2.2595 -1.1112 -2.1482
 1496SOL     OW15949   1.984   1.980   7.312 -0.2133 -0.2725 -1.0669
 1496SOL    HW115950   1.967   1.903   7.366  0.9096  0.7667  0.7847
 1496SOL    HW215951   1.970   1.943   7.224  1.3683 -2.3248 -0.4581
 1497SOL     OW15952   2.384   4.675   0.449 -0.0025 -0.7278 -0.0776
 1497SOL    HW115953   2.342   0.042   0.430  2.8911  0.7173  0.0144
 1497SOL    HW215954   2.353   4.676   0.539 -0.4876 -2.0276 -0.2313
 1498SOL     OW15955   0.663   1.489   5.072 -1.2433 -0.4142  0.3306
 1498SOL    HW115956   0.592   1.533   5.025 -1.9079 -0.5051  1.2263
 1498SOL    HW215957   0.732   1.513   5.011 -1.6148 -1.2733 -0.4390
 1499SOL     OW15958   4.418   2.587   8.271 -0.8237  0.2579 -0.4516
 1499SOL    HW115959   4.392   2.602   8.361  1.6184  3.7461 -0.3495
 1499SOL    HW215960   4.454   2.498   8.280  2.3533  1.4482 -1.4398
 1500SOL     OW15961   4.260   2.621   8.511  0.4237  0.2335  0.3397
 1500SOL    HW115962   4.226   2.677   8.580 -1.3181  0.5735 -0.7960
 1500SOL    HW215963   4.238   2.531   8.536  1.6405 -0.7508 -2.0942
 1501SOL     OW15964   4.217   2.939  11.048 -0.2270  0.8816  0.4423
 1501SOL    HW115965   4.199   3.012  10.989 -2.1058 -0.8620 -1.1387
 1501SOL    HW215966   4.128   2.913  11.069 -0.4473  2.2190  1.1502
 1502SOL     OW15967   1.915   1.076  10.126 -0.4640 -0.2137 -0.2746
 1502SOL    HW115968   1.947   1.000  10.174  3.0969  0.0370 -2.1933
 1502SOL    HW215969   2.001   1.106  10.097  0.4215 -1.7041  0.7877
 1503SOL     OW15970   1.256   3.843  13.155  0.2117  0.5943 -0.4588
 1503SOL    HW115971   1.283   3.782  13.224  2.1598 -0.4344 -2.1707
 1503SOL    HW215972   1.318   3.915  13.170  0.0317  0.7966 -0.6874
 1504SOL     OW15973   2.969   3.886  11.251  0.2452 -0.6646  0.6360
 1504SOL    HW115974   2.937   3.812  11.303 -0.9015 -0.7653 -0.2349
 1504SOL    HW215975   2.905   3.885  11.180  0.5034 -0.9982  0.4087
 1505SOL     OW15976   4.181   4.067   3.074  0.9499  0.0855  0.8118
 1505SOL    HW115977   4.218   4.144   3.032 -3.4043  2.1399  0.7936
 1505SOL    HW215978   4.247   4.054   3.142  1.1512 -0.2559  0.5528
 1506SOL     OW15979   0.640   3.704   2.296  0.2551  0.0013 -0.0384
 1506SOL    HW115980   0.644   3.633   2.360  1.3292  1.2535  1.2684
 1506SOL    HW215981   0.697   3.654   2.237 -0.2412 -1.0919  0.3983
 1507SOL     OW15982   0.202   0.084   5.360 -0.4505  0.0703 -0.3479
 1507SOL    HW115983   0.251   0.002   5.361 -1.8915 -0.7894 -0.3887
 1507SOL    HW215984   0.117   0.057   5.394 -0.7653  3.1896  1.4132
 1508SOL     OW15985   0.747   3.687   0.462 -0.1027 -0.5120  0.1824
 1508SOL    HW115986   0.816   3.629   0.432  0.5401 -0.3507  1.3344
 1508SOL    HW215987   0.693   3.681   0.384  2.5603 -1.0944 -1.6043
 1509SOL     OW15988   1.077   0.774   7.259  0.4833  0.2427  0.0846
 1509SOL    HW115989   1.011   0.818   7.313  0.7774  0.3307  0.3688
 1509SOL    HW215990   1.081   0.693   7.309 -2.0069 -0.9286 -1.6177
 1510SOL     OW15991   0.929   2.099   4.703  0.2235 -0.5506  0.5916
 1510SOL    HW115992   0.933   2.050   4.621  1.5282  1.6767 -0.6830
 1510SOL    HW215993   0.933   2.030   4.769  0.5239  0.8688  2.0686
 1511SOL     OW15994   0.030   4.044   8.611  0.1315 -0.4238 -0.1556
 1511SOL    HW115995   0.113   4.027   8.566 -0.5199  1.4323 -2.0293
 1511SOL    HW215996   0.009   3.958   8.647  0.7966 -1.2029 -1.6247
 1512SOL     OW15997   1.266   2.191   7.716 -0.3640 -0.6888  0.7621
 1512SOL    HW115998   1.195   2.247   7.683 -0.0816 -0.7570  0.0374
 1512SOL    HW215999   1.209   2.118   7.740  0.2501 -0.7669  2.0020
 1513SOL     OW16000   1.361   0.270   3.524 -0.2994 -0.1206  0.3846
 1513SOL    HW116001   1.341   0.210   3.452 -0.7232 -0.1288  0.5066
 1513SOL    HW216002   1.412   0.338   3.481  0.9458 -0.9317  0.5776
 1514SOL     OW16003   1.568   1.061   7.201 -0.5997  0.2281 -0.4478
 1514SOL    HW116004   1.530   1.149   7.200  1.1546  0.9775 -1.7835
 1514SOL    HW216005   1.595   1.049   7.292  1.7446  2.6216 -0.8150
 1515SOL     OW16006   4.694   2.082  13.888 -0.8442 -0.0396  0.0395
 1515SOL    HW116007   0.023   2.141  13.829 -1.8374  1.7088  1.0323
 1515SOL    HW216008   4.640   2.034  13.826 -1.8247  1.6286 -0.3949
 1516SOL     OW16009   0.671   0.242   8.630  0.2532  0.3411  0.2901
 1516SOL    HW116010   0.658   0.218   8.538 -1.6465 -0.3193  0.7274
 1516SOL    HW216011   0.766   0.253   8.624  0.2660  1.1469  1.8785
 1517SOL     OW16012   3.475   0.593  16.256  0.2809  0.1030 -0.1469
 1517SOL    HW116013   3.418   0.670  16.261  1.1536  0.9828 -3.8600
 1517SOL    HW216014   3.498   0.594  16.349 -2.0340  1.8143  0.3967
 1518SOL     OW16015   1.517   0.732  15.916 -0.3420  0.2271  0.1266
 1518SOL    HW116016   1.612   0.743  15.910 -0.7216  2.4394 -1.8040
 1518SOL    HW216017   1.489   0.787  15.843 -0.8583 -2.1393 -1.4675
 1519SOL     OW16018   4.081   3.403   6.936  0.0839  0.3401  0.2933
 1519SOL    HW116019   4.161   3.437   6.895 -0.3607  0.8006 -0.1993
 1519SOL    HW216020   4.106   3.350   7.012  1.1336  1.7170  0.9194
 1520SOL     OW16021   1.840   1.190   8.274  0.0871  0.5618 -0.6220
 1520SOL    HW116022   1.791   1.109   8.261  1.2759 -0.3818  0.7882
 1520SOL    HW216023   1.776   1.247   8.231 -0.3120  0.1676 -0.5487
 1521SOL     OW16024   4.643   1.537   5.534  0.5090 -0.0851 -0.4067
 1521SOL    HW116025   4.703   1.594   5.486  0.8179 -0.5263 -0.5420
 1521SOL    HW216026   4.651   1.577   5.621 -1.9885 -0.2665 -0.0997
 1522SOL     OW16027   1.019   4.433   6.700  0.0030 -0.0624 -0.3280
 1522SOL    HW116028   0.993   4.502   6.639  2.0432  1.1579  0.1782
 1522SOL    HW216029   0.966   4.365   6.658 -0.6742 -1.1255  2.2667
 1523SOL     OW16030   1.788   3.520  10.814  0.0593  0.6591  0.0902
 1523SOL    HW116031   1.835   3.547  10.735 -2.3903 -1.4337 -2.1180
 1523SOL    HW216032   1.698   3.541  10.787  0.5742  1.5812 -0.9210
 1524SOL     OW16033   2.925   1.361  13.148  0.0761  0.6590 -0.4763
 1524SOL    HW116034   2.962   1.357  13.236  2.7445 -0.3310 -1.6563
 1524SOL    HW216035   2.935   1.455  13.138 -0.8745  0.7262 -0.8361
 1525SOL     OW16036   0.991   3.707   0.095  0.8034  0.0690  0.4090
 1525SOL    HW116037   0.942   3.788   0.102 -1.1075 -1.0379 -0.3421
 1525SOL    HW216038   0.987   3.681   0.187  0.3864 -1.9830 -0.1867
 1526SOL     OW16039   2.197   0.687  15.796  0.4653 -0.0737 -0.2188
 1526SOL    HW116040   2.268   0.690  15.861  0.1701 -1.9085  0.1728
 1526SOL    HW216041   2.135   0.630  15.841  2.4628 -2.1457 -0.0415
 1527SOL     OW16042   1.003   4.257   0.645  0.5911  0.1167  0.2193
 1527SOL    HW116043   1.011   4.281   0.737  0.3642 -2.1995  0.8369
 1527SOL    HW216044   1.025   4.164   0.642 -1.0797 -0.2603 -0.7237
 1528SOL     OW16045   1.299   2.829  10.378 -0.9109 -0.1152 -0.2608
 1528SOL    HW116046   1.309   2.734  10.379 -1.1130 -0.1732 -2.4322
 1528SOL    HW216047   1.274   2.839  10.469  1.8616  0.9627  0.3929
 1529SOL     OW16048   2.939   0.724   5.366 -0.0904  0.2511  0.0247
 1529SOL    HW116049   2.949   0.815   5.392  0.5440 -0.2081  1.3720
 1529SOL    HW216050   3.008   0.721   5.300  0.7744 -1.3965  0.9977
 1530SOL     OW16051   4.677   3.105   6.378 -0.4748  0.9704  0.2462
 1530SOL    HW116052   4.660   3.095   6.285 -0.6427 -0.0584  0.3835
 1530SOL    HW216053   0.017   3.029   6.389 -2.4407 -0.5389  0.1101
 1531SOL     OW16054   4.241   4.695   1.701  0.1784 -0.0528  0.1831
 1531SOL    HW116055   4.164   0.008   1.654  0.0347 -1.4757 -0.5156
 1531SOL    HW216056   4.235   4.600   1.708  1.0144  0.0614  2.4371
 1532SOL     OW16057   1.167   2.303   9.170 -0.3376 -0.3291  0.0679
 1532SOL    HW116058   1.100   2.267   9.111 -0.6439 -0.2233  0.3516
 1532SOL    HW216059   1.131   2.265   9.250  0.7616  0.3420  0.8775
 1533SOL     OW16060   4.160   3.145  11.368  0.4913  0.1712 -0.3180
 1533SOL    HW116061   4.144   3.051  11.378 -3.4967  0.7077 -1.7595
 1533SOL    HW216062   4.256   3.144  11.373  0.6858  1.6802 -3.4578
 1534SOL     OW16063   3.392   2.752   5.452  0.3514  0.1887  0.0970
 1534SOL    HW116064   3.423   2.661   5.460  1.0686  0.4777  0.5314
 1534SOL    HW216065   3.385   2.768   5.358  0.7862 -0.9150 -0.1247
 1535SOL     OW16066   0.757   2.976   9.048 -0.2118 -0.5400  0.1533
 1535SOL    HW116067   0.823   2.923   9.003  2.1000  0.5336  2.2165
 1535SOL    HW216068   0.721   2.917   9.114 -0.1611  0.2644  0.9155
 1536SOL     OW16069   0.392   3.977   4.199 -1.1671  0.1176  0.3222
 1536SOL    HW116070   0.363   4.025   4.277 -1.2414 -1.7687  1.4668
 1536SOL    HW216071   0.315   4.003   4.149 -2.4461 -1.5731  1.3836
 1537SOL     OW16072   2.140   0.371  14.661  0.4299 -0.4326  0.1664
 1537SOL    HW116073   2.181   0.339  14.581 -1.3141 -0.0573 -0.8746
 1537SOL    HW216074   2.213   0.342  14.717  1.0503  1.7312  0.4554
 1538SOL     OW16075   2.629   3.333   0.272  0.1463 -0.1115 -0.1806
 1538SOL    HW116076   2.711   3.374   0.246  0.4038 -1.2169 -1.1244
 1538SOL    HW216077   2.660   3.243   0.266 -0.2219 -0.2504  0.0239
 1539SOL     OW16078   3.608   4.554   0.768  0.1241 -0.4470  0.0498
 1539SOL    HW116079   3.609   4.460   0.747 -0.1805 -1.1013  2.9317
 1539SOL    HW216080   3.634   4.547   0.860  0.7081 -0.9084 -0.1511
 1540SOL     OW16081   2.881   3.781   6.162  0.5910  0.4738 -0.3087
 1540SOL    HW116082   2.801   3.731   6.181  1.8475 -2.0902 -1.7766
 1540SOL    HW216083   2.900   3.811   6.251 -0.4373  0.0695  0.0521
 1541SOL     OW16084   1.167   3.244  16.862 -0.2966  1.0580  0.4561
 1541SOL    HW116085   1.259   3.219  16.866 -0.9068 -1.5175 -1.0104
 1541SOL    HW216086   1.177   3.338  16.846  0.5357  0.8573 -0.2037
 1542SOL     OW16087   2.848   2.822  11.711  0.0753 -0.1367 -0.0861
 1542SOL    HW116088   2.759   2.809  11.678  0.2073  0.8856 -0.8155
 1542SOL    HW216089   2.836   2.814  11.806 -0.0960 -0.8905 -0.1658
 1543SOL     OW16090   1.440   3.209   3.729 -0.6958  0.1162  0.4033
 1543SOL    HW116091   1.459   3.220   3.823  0.4003 -1.4797  0.3744
 1543SOL    HW216092   1.514   3.249   3.684 -0.4652  0.0062  0.6808
 1544SOL     OW16093   4.418   4.416   1.536  0.3623  0.2099 -0.0071
 1544SOL    HW116094   4.404   4.351   1.605  0.7573 -0.7716 -0.8452
 1544SOL    HW216095   4.334   4.423   1.490 -0.2306 -0.1588  1.0062
 1545SOL     OW16096   2.586   2.879  14.890 -0.2825  0.1850 -0.2934
 1545SOL    HW116097   2.595   2.965  14.930 -0.8187  0.6370 -1.1432
 1545SOL    HW216098   2.635   2.891  14.808 -0.0180 -0.0832 -0.1743
 1546SOL     OW16099   2.685   2.541   4.207  0.0229 -0.4869  0.0852
 1546SOL    HW116100   2.687   2.521   4.114  1.5830 -1.4501  0.3215
 1546SOL    HW216101   2.647   2.463   4.248 -0.9869 -1.2013 -2.2613
 1547SOL     OW16102   4.385   4.606   4.784  0.2276 -0.7176  0.3423
 1547SOL    HW116103   4.436   4.648   4.853  2.0538 -0.7961 -0.9643
 1547SOL    HW216104   4.437   4.628   4.706 -1.3417  2.1048  0.0804
 1548SOL     OW16105   4.301   2.752   9.594 -0.0313  0.0942 -0.0976
 1548SOL    HW116106   4.288   2.707   9.677 -1.8513  0.9881  0.1051
 1548SOL    HW216107   4.320   2.681   9.532  0.8787  1.5393 -1.4771
 1549SOL     OW16108   2.136   2.823   7.444  0.2747  0.4322 -0.7047
 1549SOL    HW116109   2.047   2.810   7.476  0.2934 -0.0625 -0.8509
 1549SOL    HW216110   2.173   2.862   7.522 -2.5675 -0.2408  0.9729
 1550SOL     OW16111   2.427   1.620   3.850  0.3780 -0.0406 -0.4602
 1550SOL    HW116112   2.366   1.693   3.860 -0.3029 -0.7420  0.3700
 1550SOL    HW216113   2.476   1.635   3.931  1.3453 -0.0251 -1.0434
 1551SOL     OW16114   0.335   0.158   0.551 -0.1061  0.2891 -0.2323
 1551SOL    HW116115   0.356   0.193   0.637 -2.1743  1.4252 -0.1607
 1551SOL    HW216116   0.254   0.209   0.554  1.5623  3.0177 -1.3438
 1552SOL     OW16117   1.730   1.287  15.192 -1.0219 -0.3546 -0.3069
 1552SOL    HW116118   1.790   1.319  15.259 -0.4176 -2.0995 -0.0297
 1552SOL    HW216119   1.762   1.337  15.116  2.5354 -0.5587  1.0843
 1553SOL     OW16120   3.233   0.962   0.733  0.6048  0.4699 -0.2381
 1553SOL    HW116121   3.164   1.008   0.685  1.2552  1.5176 -0.1947
 1553SOL    HW216122   3.204   0.871   0.735 -1.2064  0.9934 -3.1758
 1554SOL     OW16123   3.817   3.577   1.240  0.0421  0.4301 -0.4095
 1554SOL    HW116124   3.879   3.515   1.200  0.4299 -0.5954  1.7927
 1554SOL    HW216125   3.749   3.578   1.172 -0.6360 -2.2559  0.2329
 1555SOL     OW16126   1.245   1.779   2.691  0.1375 -0.1517  0.4728
 1555SOL    HW116127   1.261   1.722   2.616 -1.7368  1.0480 -0.8292
 1555SOL    HW216128   1.154   1.801   2.675  0.2578  1.6270  2.1698
 1556SOL     OW16129   3.223   4.470   7.604  0.0351 -0.1482  0.3801
 1556SOL    HW116130   3.229   4.565   7.604  0.1909 -0.1607  2.1479
 1556SOL    HW216131   3.299   4.451   7.549  0.0197 -1.0757  0.6765
 1557SOL     OW16132   1.583   1.979   9.697 -0.8033  0.4896  0.9342
 1557SOL    HW116133   1.673   1.962   9.671 -1.1423  1.5968 -0.9059
 1557SOL    HW216134   1.596   2.005   9.789 -0.3060  1.6644  0.5259
 1558SOL     OW16135   0.314   1.478   7.780  0.3925  0.0126 -0.6671
 1558SOL    HW116136   0.322   1.384   7.798 -0.3868  0.3089  1.1705
 1558SOL    HW216137   0.405   1.507   7.790 -0.1338  0.7783  1.9446
 1559SOL     OW16138   0.280   1.669   8.142 -0.4226 -0.0259 -0.0310
 1559SOL    HW116139   0.230   1.745   8.171 -2.4375 -1.0435 -0.8116
 1559SOL    HW216140   0.325   1.633   8.219 -0.1556 -1.9531 -1.0731
 1560SOL     OW16141   0.388   0.265   2.853  0.0749  0.1156 -0.4957
 1560SOL    HW116142   0.309   0.217   2.878  0.5412  0.7712  2.1564
 1560SOL    HW216143   0.362   0.357   2.847  1.2280  0.4697 -0.0283
 1561SOL     OW16144   0.804   3.332   3.815  0.1155 -0.1042 -0.2079
 1561SOL    HW116145   0.801   3.426   3.832  1.4984 -0.3214  1.2325
 1561SOL    HW216146   0.740   3.322   3.744  0.3066  0.5557 -0.4802
 1562SOL     OW16147   2.664   2.892   5.642  0.1060 -0.0886 -0.5338
 1562SOL    HW116148   2.709   2.811   5.621 -0.5140 -0.1597 -1.6379
 1562SOL    HW216149   2.739   2.941   5.675  1.0242 -2.3035  0.6087
 1563SOL     OW16150   0.299   3.328   5.579  1.0489  0.5087 -0.0212
 1563SOL    HW116151   0.283   3.275   5.500 -2.8631 -0.9343  1.7790
 1563SOL    HW216152   0.219   3.380   5.576 -0.5280 -2.0449 -2.6392
 1564SOL     OW16153   3.809   0.302   7.099  0.6684  0.1632  0.2185
 1564SOL    HW116154   3.853   0.220   7.080  0.5856 -0.5721  3.2011
 1564SOL    HW216155   3.878   0.361   7.128  0.0898  0.3194  1.2813
 1565SOL     OW16156   4.267   3.764   0.333 -0.4450  0.7972 -0.3712
 1565SOL    HW116157   4.212   3.800   0.263 -2.1219 -3.2151 -1.1257
 1565SOL    HW216158   4.355   3.795   0.314  0.6338 -1.1910  1.3295
 1566SOL     OW16159   2.425   0.513   2.173 -0.2546  0.6135 -0.1985
 1566SOL    HW116160   2.434   0.606   2.151  1.3312 -0.1679 -2.8284
 1566SOL    HW216161   2.363   0.480   2.108 -0.2572  0.5162 -0.1453
 1567SOL     OW16162   1.477   3.823   5.847 -0.1991 -0.2069 -0.1246
 1567SOL    HW116163   1.384   3.801   5.842 -0.3696  0.5746 -0.3384
 1567SOL    HW216164   1.475   3.858   5.758 -2.0926 -0.8337 -0.3123
 1568SOL     OW16165   3.933   4.333  16.629 -0.3985 -0.1347  0.2562
 1568SOL    HW116166   3.953   4.303  16.540  4.0867 -2.3694  2.0447
 1568SOL    HW216167   3.936   4.428  16.621 -1.1609 -0.0082  1.5011
 1569SOL     OW16168   1.388   1.061   0.192  0.1160 -0.4558 -0.4875
 1569SOL    HW116169   1.316   1.119   0.169  0.2220 -0.4871 -0.9150
 1569SOL    HW216170   1.437   1.077   0.111  0.1338 -0.6579 -0.5191
 1570SOL     OW16171   3.311   2.255   2.582 -0.4152  0.1441 -0.1623
 1570SOL    HW116172   3.278   2.278   2.495 -0.9041 -0.0626 -0.0351
 1570SOL    HW216173   3.318   2.161   2.567 -1.3239 -0.1138  1.0325
 1571SOL     OW16174   2.302   0.937   0.032  0.1818  0.0468  0.3631
 1571SOL    HW116175   2.394   0.908   0.025  0.7083  2.0436 -0.8688
 1571SOL    HW216176   2.280   0.951  17.614 -1.1110  1.8931  0.9568
 1572SOL     OW16177   0.334   2.754  17.599 -0.0948  0.1424 -0.0787
 1572SOL    HW116178   0.337   2.739   0.020 -0.2065  0.6705  0.0133
 1572SOL    HW216179   0.361   2.846  17.605  0.8572 -0.1782  0.5613
 1573SOL     OW16180   0.750   0.079  15.394  0.4222 -0.0592 -0.2799
 1573SOL    HW116181   0.818   0.115  15.337 -0.2375 -1.2392 -1.8419
 1573SOL    HW216182   0.794   0.005  15.435 -0.4380 -0.6248 -0.3619
 1574SOL     OW16183   2.414   2.993   5.682 -0.7249 -0.0418 -0.5310
 1574SOL    HW116184   2.477   2.929   5.650 -0.2146 -0.1509  0.7262
 1574SOL    HW216185   2.464   3.074   5.668 -0.8016 -0.3750 -2.7228
 1575SOL     OW16186   0.656   2.902   4.426  0.0171  0.0188  0.3130
 1575SOL    HW116187   0.606   2.839   4.374 -0.2366  0.7523 -0.3479
 1575SOL    HW216188   0.617   2.986   4.399  0.1942 -0.4464 -1.4053
 1576SOL     OW16189   3.335   0.122   3.245 -0.0601  0.6336  0.2999
 1576SOL    HW116190   3.353   0.074   3.327  2.4583  1.6675  0.3711
 1576SOL    HW216191   3.428   0.144   3.233 -0.0707  0.4007 -0.1970
 1577SOL     OW16192   1.156   0.915   3.544  0.4477 -0.6553 -0.2605
 1577SOL    HW116193   1.116   0.853   3.483  0.8973  0.8290 -2.0703
 1577SOL    HW216194   1.174   0.852   3.614 -1.0448 -1.3491 -0.5065
 1578SOL     OW16195   2.160   4.347   6.545  0.6697  0.2065  0.0415
 1578SOL    HW116196   2.180   4.312   6.459 -0.4511 -0.1007 -0.0988
 1578SOL    HW216197   2.083   4.293   6.565 -0.0445  1.9194  1.8713
 1579SOL     OW16198   4.536   1.372   9.338  0.2250 -0.3150  0.2434
 1579SOL    HW116199   4.588   1.406   9.265 -2.3417  0.9227 -0.9828
 1579SOL    HW216200   4.586   1.411   9.410  1.6076 -0.4016 -0.6607
 1580SOL     OW16201   4.037   2.144  11.062  0.1771 -0.2449 -0.1286
 1580SOL    HW116202   4.108   2.149  11.126 -2.1563  2.7208  2.1906
 1580SOL    HW216203   3.965   2.105  11.111  1.2681 -1.3073  0.6356
 1581SOL     OW16204   3.970   3.354   0.224 -0.1060 -0.1379 -0.2283
 1581SOL    HW116205   3.980   3.340   0.318 -0.6610  0.8005 -0.0283
 1581SOL    HW216206   4.016   3.276   0.194  0.0204  0.1774 -0.8531
 1582SOL     OW16207   4.472   0.183   0.892  0.0206 -0.2243 -0.0830
 1582SOL    HW116208   4.525   0.144   0.962  0.4645  1.4800  0.5211
 1582SOL    HW216209   4.455   0.109   0.834  0.1353 -0.2589 -0.0722
 1583SOL     OW16210   4.226   2.072   2.432  0.0487  0.4915 -0.8941
 1583SOL    HW116211   4.297   2.125   2.395  0.3677  0.2620 -0.6060
 1583SOL    HW216212   4.157   2.137   2.448  1.6707  2.0917 -0.3068
 1584SOL     OW16213   4.431   1.524   0.569 -0.1962 -0.1898 -0.4195
 1584SOL    HW116214   4.344   1.547   0.535 -0.7894  1.2750  2.1046
 1584SOL    HW216215   4.484   1.554   0.495  0.4192 -0.4285 -0.0715
 1585SOL     OW16216   4.454   0.293   8.461  0.9757 -0.4907 -0.4323
 1585SOL    HW116217   4.426   0.322   8.548  3.4881 -2.6488  1.0858
 1585SOL    HW216218   4.498   0.369   8.423  0.1208 -0.6937 -1.8183
 1586SOL     OW16219   3.874   1.249   3.099  0.1249 -0.3676  0.1445
 1586SOL    HW116220   3.893   1.244   3.005  0.0678 -2.0744  0.2226
 1586SOL    HW216221   3.791   1.203   3.110  0.2184 -0.6266 -0.2061
 1587SOL     OW16222   4.628   0.720   0.118 -0.2749 -0.1694  1.0157
 1587SOL    HW116223   4.656   0.765   0.038 -1.2641  0.6797  1.1511
 1587SOL    HW216224   4.540   0.699   0.086  1.1185  0.4847 -3.2402
 1588SOL     OW16225   0.586   0.712   3.967 -0.3555 -0.3607  0.5543
 1588SOL    HW116226   0.618   0.801   3.984  0.5838 -0.6565  0.3231
 1588SOL    HW216227   0.646   0.670   3.906 -0.4681 -0.9473  0.8467
 1589SOL     OW16228   3.329   0.717   2.416 -0.0639 -0.1232 -0.2159
 1589SOL    HW116229   3.278   0.638   2.396 -0.6186  0.2295 -0.1824
 1589SOL    HW216230   3.278   0.783   2.369 -1.0515  0.1875  1.3161
 1590SOL     OW16231   4.608   1.309   7.815 -0.0774 -0.4023 -0.3497
 1590SOL    HW116232   4.528   1.359   7.801  0.5422  0.4633 -0.7402
 1590SOL    HW216233   4.661   1.344   7.744 -0.0563  1.9556  0.8304
 1591SOL     OW16234   2.260   4.428  14.199 -0.3172 -0.3309 -0.2232
 1591SOL    HW116235   2.347   4.394  14.220 -0.1677  0.5964  0.6314
 1591SOL    HW216236   2.232   4.479  14.274 -2.1122 -2.9096  0.8747
 1592SOL     OW16237   1.278   1.260   6.499  0.0531  0.7103 -0.2363
 1592SOL    HW116238   1.259   1.179   6.546  3.0066  0.9592  1.3903
 1592SOL    HW216239   1.194   1.306   6.504 -1.0563 -1.3263 -0.1930
 1593SOL     OW16240   3.787   4.228  11.055  0.4214 -0.0071  0.2808
 1593SOL    HW116241   3.710   4.247  11.002 -0.3535 -2.1951  0.6227
 1593SOL    HW216242   3.808   4.321  11.067  0.7971  0.4110 -3.5702
 1594SOL     OW16243   3.790   0.528   1.761 -0.2247 -0.2179 -0.1285
 1594SOL    HW116244   3.864   0.587   1.752  1.3001 -2.0257  0.6182
 1594SOL    HW216245   3.761   0.557   1.848 -0.6260 -0.8964 -0.0388
 1595SOL     OW16246   1.934   2.252   3.057 -0.4518  0.4724 -0.2042
 1595SOL    HW116247   1.899   2.297   2.979 -0.9607 -1.7818 -1.2797
 1595SOL    HW216248   1.979   2.185   3.006  0.4002  0.7616  0.1731
 1596SOL     OW16249   0.859   1.705   7.946  0.4708 -0.7509  0.1657
 1596SOL    HW116250   0.836   1.777   7.888 -1.4294 -0.3397  1.4490
 1596SOL    HW216251   0.794   1.714   8.016  0.5166  1.9958 -0.1731
 1597SOL     OW16252   2.734   3.789   6.806  0.1720 -0.1054 -0.7329
 1597SOL    HW116253   2.682   3.860   6.844  1.2360 -0.5157  1.4778
 1597SOL    HW216254   2.818   3.806   6.849  0.0759 -0.5217 -0.3845
 1598SOL     OW16255   1.401   0.422   3.922 -0.0844 -0.0874 -0.0843
 1598SOL    HW116256   1.406   0.327   3.933 -0.0903 -0.0238  0.4475
 1598SOL    HW216257   1.491   0.451   3.909  0.2852 -1.8515 -1.4683
 1599SOL     OW16258   0.611   4.035  16.132  0.3667  0.4262  0.6612
 1599SOL    HW116259   0.599   3.957  16.078  1.1218 -1.4924  3.3029
 1599SOL    HW216260   0.688   4.070  16.085 -1.7066  1.5042 -1.9601
 1600SOL     OW16261   3.719   1.749   3.029 -0.2745 -0.3990  0.4645
 1600SOL    HW116262   3.662   1.806   3.081 -1.1372 -0.7747 -0.0780
 1600SOL    HW216263   3.684   1.763   2.941  3.2964 -0.3387 -0.9576
 1601SOL     OW16264   1.077   0.003  13.367 -0.5879  0.0352  0.1042
 1601SOL    HW116265   1.113   0.052  13.440 -0.5974 -0.8656  0.7170
 1601SOL    HW216266   1.117   4.639  13.397 -0.7844 -0.6434 -1.4338
 1602SOL     OW16267   3.162   1.285   4.675  0.3561  0.0681 -0.8748
 1602SOL    HW116268   3.164   1.380   4.670  1.1407 -0.0324 -2.5536
 1602SOL    HW216269   3.070   1.282   4.649 -0.2946  1.0178  1.3492
 1603SOL     OW16270   4.431   2.851   0.362 -0.1091 -0.0726 -0.4488
 1603SOL    HW116271   4.486   2.773   0.362 -0.2464 -0.1780 -2.8378
 1603SOL    HW216272   4.393   2.835   0.449 -0.5351  2.5149 -0.1712
 1604SOL     OW16273   2.046   1.961  17.441 -0.3432 -0.5606  0.0667
 1604SOL    HW116274   2.027   2.053  17.456  0.3169 -1.0013  3.6179
 1604SOL    HW216275   1.964   1.922  17.472 -0.0286  1.6396  3.6361
 1605SOL     OW16276   0.198   1.764   5.988  0.1044 -0.4561 -0.2525
 1605SOL    HW116277   0.178   1.670   5.986  0.8460 -0.5762 -2.1916
 1605SOL    HW216278   0.112   1.797   6.015  0.3519 -0.2728  0.3205
 1606SOL     OW16279   3.804   2.633   7.796 -0.0958 -0.2050  0.7213
 1606SOL    HW116280   3.743   2.630   7.870 -1.0856  2.0062  0.0221
 1606SOL    HW216281   3.733   2.647   7.733 -1.6168 -1.1209  2.2201
 1607SOL     OW16282   2.983   0.163   5.204  0.5856 -0.8934  0.4515
 1607SOL    HW116283   3.058   0.178   5.147 -0.2828 -0.4598 -0.5575
 1607SOL    HW216284   2.952   0.253   5.211 -1.8670 -1.8352  1.7545
 1608SOL     OW16285   0.883   0.886   7.388  0.2197  0.6494 -0.3288
 1608SOL    HW116286   0.873   0.879   7.483  0.5617  2.2276 -0.1712
 1608SOL    HW216287   0.858   0.977   7.371  0.4931  1.1490  1.8501
 1609SOL     OW16288   4.472   0.529   3.201  0.4793 -0.6930 -0.0699
 1609SOL    HW116289   4.383   0.499   3.220  0.0972 -1.1064 -2.4375
 1609SOL    HW216290   4.462   0.623   3.191 -0.9966 -0.9557 -1.0651
 1610SOL     OW16291   1.602   1.594  14.714  0.2251  0.8167 -0.1716
 1610SOL    HW116292   1.673   1.534  14.736 -0.7934  0.3234  1.7664
 1610SOL    HW216293   1.643   1.675  14.745  1.2556  0.6263 -1.0313
 1611SOL     OW16294   1.611   4.470   7.421 -0.2135 -0.3510 -0.4050
 1611SOL    HW116295   1.590   4.377   7.418 -0.4296 -0.3394  0.6276
 1611SOL    HW216296   1.575   4.490   7.508 -0.5775 -0.3605 -0.5529
 1612SOL     OW16297   2.964   1.305   3.181 -0.0540 -0.0655 -0.3514
 1612SOL    HW116298   2.940   1.386   3.228 -1.4908 -0.5813 -0.1947
 1612SOL    HW216299   3.058   1.302   3.166  0.1557  1.2248  0.7099
 1613SOL     OW16300   0.251   2.411   4.751  0.2634 -0.0142  0.2068
 1613SOL    HW116301   0.321   2.406   4.816  0.8516  0.4775 -0.3999
 1613SOL    HW216302   0.280   2.338   4.697 -1.7690  0.4837 -1.5774
 1614SOL     OW16303   1.966   4.243   2.467  0.4146 -0.1857 -0.0093
 1614SOL    HW116304   1.952   4.148   2.467 -0.1368 -0.1022  0.3442
 1614SOL    HW216305   2.037   4.249   2.531  1.9446 -0.8276 -1.6257
 1615SOL     OW16306   0.968   4.686   3.271 -0.3056 -0.0304 -0.0655
 1615SOL    HW116307   0.875   4.675   3.255 -0.4777  0.8374  0.3531
 1615SOL    HW216308   1.002   4.602   3.240 -1.8185 -0.6865  0.0456
 1616SOL     OW16309   0.986   0.458  10.473  0.1315  0.5263 -0.6278
 1616SOL    HW116310   0.993   0.460  10.569  0.7337  2.2691 -0.7070
 1616SOL    HW216311   0.920   0.388  10.469  0.1478  0.4863 -0.2365
 1617SOL     OW16312   4.402   2.488   4.319 -0.0379  0.3036 -0.7146
 1617SOL    HW116313   4.483   2.499   4.271 -0.0582 -0.5597 -0.9394
 1617SOL    HW216314   4.425   2.526   4.404 -1.4345  2.2510 -1.2093
 1618SOL     OW16315   4.087   0.480   7.820 -0.1520 -0.2969 -0.1178
 1618SOL    HW116316   4.097   0.396   7.864  1.1672  0.3069  0.7537
 1618SOL    HW216317   4.156   0.522   7.871  0.5851 -0.5490 -0.9128
 1619SOL     OW16318   0.813   2.871   8.705 -0.2600 -0.3036  0.3418
 1619SOL    HW116319   0.863   2.839   8.780 -0.6637  1.5529  1.4184
 1619SOL    HW216320   0.806   2.790   8.655  0.6199  0.7986 -1.5555
 1620SOL     OW16321   1.836   3.352   0.860  0.6185 -0.0256  0.1350
 1620SOL    HW116322   1.929   3.332   0.871  0.5295  0.0175  0.9629
 1620SOL    HW216323   1.820   3.344   0.766  0.8887 -2.3070  0.2954
 1621SOL     OW16324   0.311   0.553  13.326  1.2282  0.3088 -0.3260
 1621SOL    HW116325   0.389   0.590  13.367  1.0261  0.3934 -0.0144
 1621SOL    HW216326   0.347   0.484  13.270 -0.1233  0.0460 -0.8748
 1622SOL     OW16327   4.413   2.674  11.708 -0.4815  0.8121  0.3568
 1622SOL    HW116328   4.472   2.686  11.782 -0.1980 -0.1174  0.2821
 1622SOL    HW216329   4.367   2.593  11.729 -0.5667  0.6707 -0.3844
 1623SOL     OW16330   1.771   3.987   5.759 -0.7203  0.0649  0.0956
 1623SOL    HW116331   1.787   3.893   5.770  1.1737  0.3657 -0.1634
 1623SOL    HW216332   1.860   4.015   5.738 -1.2426  1.8562  0.2263
 1624SOL     OW16333   2.987   0.672   9.285  0.0651  0.1152  0.0055
 1624SOL    HW116334   2.953   0.753   9.325 -1.4771 -0.3615 -0.3285
 1624SOL    HW216335   2.904   0.645   9.245 -0.0211  1.0358 -0.4355
 1625SOL     OW16336   0.009   0.445   5.168 -0.3122 -0.2177  0.3640
 1625SOL    HW116337   0.031   0.389   5.243  1.6880  0.2653  0.1551
 1625SOL    HW216338   4.716   0.530   5.211  0.8240  0.4363 -0.6434
 1626SOL     OW16339   3.293   0.810   7.150 -0.6387  0.1531  0.5052
 1626SOL    HW116340   3.254   0.722   7.154 -0.4264  0.0176 -0.4310
 1626SOL    HW216341   3.212   0.859   7.136 -2.2209 -1.9800  2.0010
 1627SOL     OW16342   1.494   1.173  12.636 -0.0501 -0.5420  0.4629
 1627SOL    HW116343   1.531   1.199  12.551 -2.0790  0.2430 -0.1609
 1627SOL    HW216344   1.496   1.257  12.681 -0.2314  0.1852 -0.8775
 1628SOL     OW16345   0.232   2.341  14.828  0.1451 -0.6267 -0.8116
 1628SOL    HW116346   0.175   2.279  14.875 -1.7324  0.0470 -2.1770
 1628SOL    HW216347   0.293   2.283  14.783  0.9926  0.2327 -0.7632
 1629SOL     OW16348   2.063   1.042   8.173  0.3490  0.0066 -0.3336
 1629SOL    HW116349   2.001   1.114   8.169  0.8172  0.4530  0.6202
 1629SOL    HW216350   2.147   1.086   8.160  0.2609  0.1889 -0.2734
 1630SOL     OW16351   0.104   0.638  11.494 -0.0005  0.5438 -0.2406
 1630SOL    HW116352   0.179   0.644  11.552 -0.5971  0.5534  0.5334
 1630SOL    HW216353   0.036   0.668  11.555 -1.2161  0.8402 -1.7330
 1631SOL     OW16354   0.882   2.703   0.814 -0.2252 -0.3761 -0.3798
 1631SOL    HW116355   0.968   2.746   0.818 -1.7636  2.5686  0.8348
 1631SOL    HW216356   0.849   2.741   0.732 -1.2522  0.7135  0.5377
 1632SOL     OW16357   1.590   3.643   7.591 -0.0862 -0.4769  0.0562
 1632SOL    HW116358   1.585   3.738   7.582 -0.1089 -0.5394 -0.5733
 1632SOL    HW216359   1.558   3.623   7.503  1.9706 -2.1009 -0.3277
 1633SOL     OW16360   4.170   4.011  12.279  0.1109  0.0213 -0.3477
 1633SOL    HW116361   4.158   4.010  12.374  0.5487  1.7740 -0.2754
 1633SOL    HW216362   4.253   3.963  12.277  0.3967  0.4387  0.9753
 1634SOL     OW16363   0.255   3.442   8.332 -0.0313  0.0894 -0.0037
 1634SOL    HW116364   0.246   3.458   8.426 -0.2523 -1.2721  0.2087
 1634SOL    HW216365   0.192   3.505   8.298 -0.3440  0.2002  0.7676
 1635SOL     OW16366   0.002   4.407   8.263  0.3016 -0.4156  0.5307
 1635SOL    HW116367   0.097   4.409   8.267  0.4110  0.3349 -2.5485
 1635SOL    HW216368   4.704   4.322   8.304  2.4275 -1.4316 -0.7793
 1636SOL     OW16369   0.760   3.987  16.976 -0.3165  0.0889  0.1767
 1636SOL    HW116370   0.777   3.926  16.905 -1.4621 -0.5198  0.4227
 1636SOL    HW216371   0.796   3.938  17.050 -0.7586 -1.2442 -0.4922
 1637SOL     OW16372   2.750   4.699  10.466  0.6081  0.3082 -0.6872
 1637SOL    HW116373   2.828   0.006  10.516  1.1850 -0.0643 -1.4101
 1637SOL    HW216374   2.792   4.685  10.381  1.7751  0.4529 -0.1335
 1638SOL     OW16375   1.048   1.933   6.514 -0.0235 -0.5633 -0.3833
 1638SOL    HW116376   1.014   1.917   6.425 -0.6786  0.8063 -0.3784
 1638SOL    HW216377   1.135   1.971   6.498  0.2046 -2.0301 -2.6963
 1639SOL     OW16378   3.146   2.433  17.669  0.0909  0.1378 -0.0118
 1639SOL    HW116379   3.188   2.518   0.005  0.4809 -0.4206  3.1017
 1639SOL    HW216380   3.158   2.389   0.080  1.7269  0.1797 -0.2172
 1640SOL     OW16381   3.415   4.316   2.278  0.1038 -0.4223  0.2816
 1640SOL    HW116382   3.325   4.343   2.266 -0.1536 -1.3154  0.1746
 1640SOL    HW216383   3.452   4.370   2.209 -2.7159  0.9462 -0.1439
 1641SOL     OW16384   1.952   0.983   7.070  0.0691 -0.1324 -0.1019
 1641SOL    HW116385   1.933   0.904   7.121 -1.0986 -0.0299 -0.3728
 1641SOL    HW216386   1.921   1.054   7.125 -1.4029  0.3785 -1.5897
 1642SOL     OW16387   0.649   3.332  15.484 -0.3946  0.4651  0.1032
 1642SOL    HW116388   0.642   3.264  15.416  2.4562  1.1058 -0.8514
 1642SOL    HW216389   0.713   3.389  15.442  2.4144 -0.0783  3.6411
 1643SOL     OW16390   1.357   4.436   3.330  0.2328 -0.6589 -0.0227
 1643SOL    HW116391   1.379   4.441   3.237 -0.0142  1.6989  0.0257
 1643SOL    HW216392   1.377   4.526   3.357 -1.8072  0.0678 -0.8887
 1644SOL     OW16393   4.038   4.546   6.317  0.3317  0.4270  0.1117
 1644SOL    HW116394   3.965   4.601   6.288  0.8924 -0.3952 -2.9043
 1644SOL    HW216395   4.100   4.608   6.356  0.4702  0.9024 -0.8434
 1645SOL     OW16396   0.233   3.512   0.560  0.1691 -0.4459  0.8883
 1645SOL    HW116397   0.166   3.538   0.623 -0.6647  0.5052 -0.4017
 1645SOL    HW216398   0.288   3.455   0.614 -0.0956 -0.9017  0.6731
 1646SOL     OW16399   4.454   3.572   0.448 -0.5481  0.1662 -0.0960
 1646SOL    HW116400   4.475   3.506   0.381 -0.9825 -0.3264  0.2525
 1646SOL    HW216401   4.390   3.626   0.401 -0.1817 -0.0115 -0.8011
 1647SOL     OW16402   2.960   3.577  16.055 -0.5248 -1.2910 -0.1612
 1647SOL    HW116403   2.905   3.647  16.018  1.3430  0.7439  0.8927
 1647SOL    HW216404   2.961   3.583  16.150  3.3834  1.7459 -0.3928
 1648SOL     OW16405   3.853   3.372   3.536 -0.6023 -0.5789  0.0223
 1648SOL    HW116406   3.856   3.310   3.609 -0.7285  0.1678  0.6723
 1648SOL    HW216407   3.905   3.438   3.582  0.4791 -1.2242 -0.2793
 1649SOL     OW16408   1.986   3.727   5.206  0.8468  0.1561 -0.0542
 1649SOL    HW116409   1.901   3.697   5.173  1.5246 -0.8081 -0.9236
 1649SOL    HW216410   1.987   3.689   5.293  1.8433  0.4213  0.0498
 1650SOL     OW16411   0.380   3.983   6.951 -0.8972 -0.0563  0.3368
 1650SOL    HW116412   0.463   4.005   6.911 -0.3209 -0.5780  1.2390
 1650SOL    HW216413   0.407   3.988   7.043 -1.5149 -0.7381  0.5652
 1651SOL     OW16414   1.151   2.833   7.138 -0.0836  0.0055  0.5971
 1651SOL    HW116415   1.219   2.822   7.205  0.1172  0.1595  0.4186
 1651SOL    HW216416   1.098   2.910   7.161 -3.2459 -1.2525 -2.5542
 1652SOL     OW16417   0.603   1.297   4.110 -0.5853  0.4606  0.6372
 1652SOL    HW116418   0.652   1.266   4.034  1.9517  1.8005  1.7342
 1652SOL    HW216419   0.579   1.388   4.092 -2.3078 -0.1815 -0.3277
 1653SOL     OW16420   1.545   2.972   6.447  0.4967 -0.1964 -0.3315
 1653SOL    HW116421   1.576   2.969   6.537  2.9450  2.7412 -1.0854
 1653SOL    HW216422   1.457   3.008   6.458  0.8141  0.5650 -0.3113
 1654SOL     OW16423   4.199   2.700  10.884 -0.1322  0.5695 -0.0068
 1654SOL    HW116424   4.223   2.745  10.966 -1.8118  0.2914  0.6290
 1654SOL    HW216425   4.186   2.772  10.822  0.7763  1.4171  0.7803
 1655SOL     OW16426   3.409   4.320   9.538 -0.4385  0.2071  0.5634
 1655SOL    HW116427   3.493   4.287   9.570  1.2440  1.9853 -2.0032
 1655SOL    HW216428   3.349   4.250   9.561 -0.3603 -0.3156 -0.8026
 1656SOL     OW16429   3.354   3.284   1.106 -0.5756  0.5734 -0.3776
 1656SOL    HW116430   3.443   3.301   1.135 -0.1945 -2.6999  0.3622
 1656SOL    HW216431   3.346   3.352   1.039  0.4902 -0.4930 -1.5843
 1657SOL     OW16432   0.096   2.003   6.551 -0.5362  0.0659  0.3868
 1657SOL    HW116433   0.100   2.050   6.468 -0.9749 -1.2389 -0.3771
 1657SOL    HW216434   0.020   2.046   6.591 -0.3704  0.5540  0.1736
 1658SOL     OW16435   4.472   2.941  11.217 -0.0358 -0.2572  0.1129
 1658SOL    HW116436   4.387   2.897  11.209 -1.2717  2.1271  0.0765
 1658SOL    HW216437   4.456   3.016  11.275  1.8114 -0.1735  0.5248
 1659SOL     OW16438   4.072   2.302  11.949 -0.0318 -0.1102 -0.1350
 1659SOL    HW116439   4.010   2.326  11.880 -0.0786  0.5665  0.1414
 1659SOL    HW216440   4.006   2.275  12.012  0.6208 -0.7978  0.2523
 1660SOL     OW16441   0.240   3.366   4.075 -0.5873 -0.3994  0.1140
 1660SOL    HW116442   0.150   3.395   4.060 -0.5585  0.1320  0.9972
 1660SOL    HW216443   0.269   3.325   3.993 -0.2919 -1.7361  0.8798
 1661SOL     OW16444   0.394   2.967   5.071 -0.1040 -0.9509  0.1138
 1661SOL    HW116445   0.401   3.021   4.991 -1.5919 -0.1848  0.5026
 1661SOL    HW216446   0.301   2.981   5.089  0.1825  0.6934  0.2971
 1662SOL     OW16447   1.668   0.535   3.763  0.2554  0.3316  0.1309
 1662SOL    HW116448   1.649   0.628   3.753 -2.4873 -0.0786  1.4494
 1662SOL    HW216449   1.734   0.528   3.832  0.3867 -1.7672 -0.2092
 1663SOL     OW16450   2.930   2.147   2.534 -0.1398 -0.4992  0.5264
 1663SOL    HW116451   2.907   2.176   2.622  2.8522 -0.9997  1.4570
 1663SOL    HW216452   2.897   2.057   2.529 -3.1836  0.6773 -0.5163
 1664SOL     OW16453   0.501   2.967  15.524 -0.2453  0.4625 -0.3189
 1664SOL    HW116454   0.585   2.924  15.509 -1.5278 -1.1595 -2.9173
 1664SOL    HW216455   0.437   2.908  15.483  0.7645 -0.2213 -0.9015
 1665SOL     OW16456   4.611   4.226   7.955 -0.0606  0.6910  0.1050
 1665SOL    HW116457   4.556   4.260   8.025 -0.3241  2.0347 -0.7410
 1665SOL    HW216458   4.694   4.217   8.002  1.4901 -1.6599 -3.0829
 1666SOL     OW16459   4.615   2.613   0.378  0.5257 -0.1098 -0.0519
 1666SOL    HW116460   4.659   2.550   0.321 -3.9331 -4.3046  1.1225
 1666SOL    HW216461   4.524   2.589   0.365  0.2196  1.0252  0.0159
 1667SOL     OW16462   2.259   3.033   2.980 -0.2817  0.4280 -0.2800
 1667SOL    HW116463   2.255   3.045   2.885  0.5107 -1.3003 -0.5393
 1667SOL    HW216464   2.197   3.098   3.012  0.9014  1.6699 -0.5074
 1668SOL     OW16465   0.244   1.681   2.149  0.3631 -0.2032 -0.1619
 1668SOL    HW116466   0.214   1.737   2.221 -0.3776 -0.3700 -0.3452
 1668SOL    HW216467   0.338   1.696   2.143  0.2861  0.3523  0.0820
 1669SOL     OW16468   1.160   4.562   5.754  0.7265 -0.5516  0.3598
 1669SOL    HW116469   1.180   4.654   5.740 -0.5613 -0.7756 -2.9332
 1669SOL    HW216470   1.068   4.558   5.726  1.0561 -0.5326 -0.7070
 1670SOL     OW16471   4.507   4.409   0.384  0.4747  0.4384  0.3051
 1670SOL    HW116472   4.480   4.323   0.416 -0.6002 -0.0975 -2.0796
 1670SOL    HW216473   4.602   4.399   0.381  0.2187 -2.7414  1.6604
 1671SOL     OW16474   0.117   0.025  12.550 -0.3345  0.3093 -0.6250
 1671SOL    HW116475   0.112   0.119  12.532 -1.2751 -0.1394 -2.7740
 1671SOL    HW216476   0.076   0.017  12.636 -1.7567  0.8883 -1.2385
 1672SOL     OW16477   3.710   1.110   2.203 -0.2777  1.0511  0.0355
 1672SOL    HW116478   3.781   1.112   2.139 -0.6878  0.0308 -0.4490
 1672SOL    HW216479   3.671   1.028   2.174  4.0077 -1.4732  1.4352
 1673SOL     OW16480   4.056   2.343   3.571 -0.2985 -0.2267 -0.3493
 1673SOL    HW116481   4.028   2.252   3.577 -0.1099 -0.2396  0.3804
 1673SOL    HW216482   4.148   2.323   3.590 -0.0197  0.9032 -0.4946
 1674SOL     OW16483   3.527   0.398   8.134 -0.0431  0.3690 -0.7915
 1674SOL    HW116484   3.600   0.341   8.159  0.8604  2.2888  0.9941
 1674SOL    HW216485   3.538   0.476   8.188  1.6821  0.4771 -1.2938
 1675SOL     OW16486   1.024   4.523   4.924  0.3262 -0.0078 -0.1943
 1675SOL    HW116487   0.957   4.533   4.992  0.8336  1.5127  0.0748
 1675SOL    HW216488   1.083   4.597   4.933 -0.2960  0.4923 -0.1959
 1676SOL     OW16489   2.363   4.059   4.791  0.5275 -0.1545  0.0976
 1676SOL    HW116490   2.380   4.043   4.884  4.1460  1.5492 -0.2855
 1676SOL    HW216491   2.367   4.154   4.799 -2.2562  0.1646 -2.3650
 1677SOL     OW16492   0.840   3.803   3.921  0.7734  0.3333 -0.0620
 1677SOL    HW116493   0.839   3.812   4.016  2.4088  0.1846 -0.0435
 1677SOL    HW216494   0.834   3.895   3.892  1.8370 -0.8441 -4.0153
 1678SOL     OW16495   3.589   0.440   2.611 -0.1643 -0.2374 -0.2640
 1678SOL    HW116496   3.568   0.499   2.539 -1.9220  0.5736  0.9162
 1678SOL    HW216497   3.569   0.352   2.581  0.5231 -0.7632  0.7979
 1679SOL     OW16498   0.225   4.611   0.223 -0.4319  0.6059 -0.0520
 1679SOL    HW116499   0.281   4.572   0.156  0.3304  1.1394  0.2722
 1679SOL    HW216500   0.160   4.649   0.163 -1.6672  0.7473  1.3816
 1680SOL     OW16501   4.471   0.165   7.743  0.3713 -0.3577  0.4169
 1680SOL    HW116502   4.381   0.193   7.727 -0.0379 -0.3582  2.7913
 1680SOL    HW216503   4.447   0.121   7.824 -2.2226  0.1317 -0.0916
 1681SOL     OW16504   3.567   1.915   5.099  0.3031  0.1230  0.2115
 1681SOL    HW116505   3.609   1.978   5.157  1.9052 -0.5225 -0.2618
 1681SOL    HW216506   3.477   1.923   5.133 -0.2946 -0.2222 -1.2937
 1682SOL     OW16507   0.157   3.568   1.706  0.1480  0.4235  0.0139
 1682SOL    HW116508   0.174   3.662   1.701 -0.8311  0.6674  1.1992
 1682SOL    HW216509   0.168   3.558   1.801  2.0890  0.1147 -0.2413
 1683SOL     OW16510   3.066   3.743   4.415 -0.4810 -0.3136  0.3069
 1683SOL    HW116511   3.018   3.824   4.397  1.9840  1.0778  0.0555
 1683SOL    HW216512   3.111   3.735   4.331 -0.0402  0.1342  0.5026
 1684SOL     OW16513   1.451   4.664  14.617  0.2108  0.1944 -0.1029
 1684SOL    HW116514   1.458   4.573  14.588 -1.1162  0.6225 -1.7832
 1684SOL    HW216515   1.451   4.713  14.535  3.0283  0.6695  0.1632
 1685SOL     OW16516   2.813   3.246   5.723 -0.0501 -0.2322  0.3262
 1685SOL    HW116517   2.871   3.171   5.731  0.7161  0.4226  0.8355
 1685SOL    HW216518   2.853   3.296   5.651  1.0518  1.7539  2.3122
 1686SOL     OW16519   3.174   3.394   3.870 -0.8448 -0.0803 -0.1305
 1686SOL    HW116520   3.245   3.334   3.889  0.2221  0.3712 -2.7498
 1686SOL    HW216521   3.111   3.342   3.820  0.3251 -2.0960  0.4999
 1687SOL     OW16522   2.479   3.929   6.969 -0.0871 -0.1848 -0.4627
 1687SOL    HW116523   2.390   3.953   6.997 -0.0157 -2.1591  1.4879
 1687SOL    HW216524   2.531   3.975   7.035 -1.4170  1.8341 -0.8359
 1688SOL     OW16525   3.774   1.631   6.607  0.4186  0.3207 -0.1328
 1688SOL    HW116526   3.692   1.656   6.650  0.0845  0.7707 -1.0382
 1688SOL    HW216527   3.759   1.547   6.566  0.0472 -0.3940  1.4695
 1689SOL     OW16528   1.861   2.328  12.927  0.1372 -0.2816 -0.7247
 1689SOL    HW116529   1.832   2.288  12.845  1.8379 -2.6463 -0.1889
 1689SOL    HW216530   1.923   2.259  12.950  0.9431  0.4856 -0.5938
 1690SOL     OW16531   4.710   4.081   3.234 -0.3783  0.4200  0.0315
 1690SOL    HW116532   4.672   4.080   3.322  0.8780 -0.7713  0.5504
 1690SOL    HW216533   0.084   4.074   3.262 -0.3126 -0.4049 -0.4036
 1691SOL     OW16534   0.960   1.046  14.610  0.2964  0.1757 -0.2952
 1691SOL    HW116535   0.906   1.107  14.660  1.3656 -1.0410  2.3663
 1691SOL    HW216536   0.961   1.084  14.523  1.4423  0.4800 -0.1590
 1692SOL     OW16537   0.972   1.193   6.694 -0.6922 -0.1378 -0.0026
 1692SOL    HW116538   1.025   1.116   6.672  3.2580  2.5681  0.0349
 1692SOL    HW216539   0.967   1.186   6.789 -0.5045  1.6773  0.1309
 1693SOL     OW16540   3.831   1.565  10.709  0.6593  0.0489 -0.2098
 1693SOL    HW116541   3.827   1.658  10.732 -0.5807  0.0138 -0.2929
 1693SOL    HW216542   3.780   1.516  10.773  1.2280  0.0518  0.2483
 1694SOL     OW16543   2.330   2.249   5.240 -0.0709 -0.0897 -0.8850
 1694SOL    HW116544   2.255   2.201   5.275  0.8858  0.1869  1.5407
 1694SOL    HW216545   2.383   2.261   5.319 -1.3804  1.4751 -0.2380
 1695SOL     OW16546   4.488   2.943   7.102  0.1304 -0.7307 -0.7152
 1695SOL    HW116547   4.537   3.019   7.073 -1.1638  0.8049  1.1231
 1695SOL    HW216548   4.403   2.959   7.061 -0.6272 -1.7688  0.4175
 1696SOL     OW16549   4.292   1.221   4.047 -0.3229  0.1409  0.0808
 1696SOL    HW116550   4.242   1.139   4.040 -0.7153  0.2002  2.2067
 1696SOL    HW216551   4.379   1.189   4.066 -0.8761 -1.0999  0.4967
 1697SOL     OW16552   3.555   0.566   2.949 -0.1386 -0.9709 -0.1506
 1697SOL    HW116553   3.496   0.496   2.923 -0.4617 -0.9417  0.5066
 1697SOL    HW216554   3.564   0.607   2.863 -0.2018 -0.9437 -0.1441
 1698SOL     OW16555   0.108   3.881   2.055  0.2619  0.4032  0.4774
 1698SOL    HW116556   0.035   3.917   2.106  2.3446  1.7371  2.5357
 1698SOL    HW216557   0.099   3.787   2.065 -0.3373  0.2048 -1.9414
 1699SOL     OW16558   2.430   0.573   5.549  0.2854  0.0788  0.0410
 1699SOL    HW116559   2.437   0.614   5.463  1.9670  1.3002  0.7619
 1699SOL    HW216560   2.431   0.649   5.607 -0.9592  0.7065 -0.7638
 1700SOL     OW16561   4.613   0.659   3.970 -0.1927 -0.3143  0.3628
 1700SOL    HW116562   4.608   0.738   3.917  3.1046  0.2490  0.9290
 1700SOL    HW216563   4.670   0.606   3.915  1.2644 -0.4713  2.0271
 1701SOL     OW16564   3.592   1.049   8.406  0.9069 -0.0367  0.4918
 1701SOL    HW116565   3.578   0.982   8.339  2.0225  0.6226 -0.4155
 1701SOL    HW216566   3.512   1.042   8.459  2.1322  0.7461  2.4362
 1702SOL     OW16567   4.008   4.193   8.424  0.2796 -0.1097  0.2919
 1702SOL    HW116568   3.968   4.265   8.472 -0.6520 -0.1708 -0.3921
 1702SOL    HW216569   3.939   4.176   8.359  1.4088 -2.6867 -0.2293
 1703SOL     OW16570   2.694   0.282   5.716  0.3528  0.0595 -0.1609
 1703SOL    HW116571   2.642   0.333   5.779 -0.9549  0.0835 -1.2605
 1703SOL    HW216572   2.704   0.198   5.761 -2.5432  0.2130  0.7696
 1704SOL     OW16573   1.000   3.620   4.268  0.4360 -0.3102 -0.5598
 1704SOL    HW116574   1.019   3.539   4.221  0.5261 -0.5223 -0.1581
 1704SOL    HW216575   1.029   3.604   4.358 -1.3267 -0.5757 -0.0564
 1705SOL     OW16576   1.635   4.068  11.920 -0.2622  0.4715  0.1408
 1705SOL    HW116577   1.609   4.146  11.871  1.1080  1.7357  1.4173
 1705SOL    HW216578   1.691   4.111  11.985 -1.6363  2.6256 -0.1148
 1706SOL     OW16579   1.175   4.405   3.639  0.4995  0.2923  0.4151
 1706SOL    HW116580   1.266   4.386   3.617 -0.5732 -0.0408 -3.7217
 1706SOL    HW216581   1.135   4.325   3.605 -1.1160  0.9834  0.6724
 1707SOL     OW16582   1.435   2.848  13.582 -0.0875  0.0143  0.0085
 1707SOL    HW116583   1.372   2.834  13.511  0.4922 -2.1083 -0.0919
 1707SOL    HW216584   1.377   2.862  13.656 -1.3708  2.5363 -1.4544
 1708SOL     OW16585   2.900   3.871  10.375  0.3893  0.0794  0.2485
 1708SOL    HW116586   2.890   3.939  10.309  1.5235 -2.0704 -2.1501
 1708SOL    HW216587   2.814   3.862  10.417  0.7420 -0.5933  0.8374
 1709SOL     OW16588   1.978   2.409  11.819  0.6840  0.4250 -0.1219
 1709SOL    HW116589   1.961   2.348  11.747  1.3043 -0.1992  0.2554
 1709SOL    HW216590   1.911   2.391  11.885  2.4115 -1.9277  0.9984
 1710SOL     OW16591   0.779   0.750  13.598  0.4191 -0.2397  0.1824
 1710SOL    HW116592   0.732   0.807  13.537 -0.2484 -2.0943 -1.0195
 1710SOL    HW216593   0.707   0.759  13.660  0.4025 -2.3903  0.4563
 1711SOL     OW16594   3.396   4.638  12.285 -0.1030  0.0129  0.2624
 1711SOL    HW116595   3.360   4.686  12.210  1.7160 -1.2828 -1.4581
 1711SOL    HW216596   3.478   4.687  12.298  0.2773 -0.1797 -1.3586
 1712SOL     OW16597   1.718   1.727   4.785 -0.2128 -0.2884 -0.1488
 1712SOL    HW116598   1.625   1.733   4.765  0.1415  2.0963 -1.1599
 1712SOL    HW216599   1.712   1.659   4.852 -0.8989  0.7116  0.8201
 1713SOL     OW16600   3.972   4.486  16.074  0.1318  0.0149  0.7957
 1713SOL    HW116601   4.050   4.430  16.069 -0.2207 -0.5118  1.3228
 1713SOL    HW216602   4.008   4.571  16.097 -0.7566  0.8067 -0.7186
 1714SOL     OW16603   0.019   2.586   7.102  0.1230 -0.1491 -0.2183
 1714SOL    HW116604   4.688   2.627   7.030  0.6938 -0.8580 -1.0015
 1714SOL    HW216605   0.000   2.648   7.172 -0.8613 -1.4183  0.6307
 1715SOL     OW16606   2.614   2.498   6.571 -0.3477 -0.3638  0.0587
 1715SOL    HW116607   2.706   2.495   6.596  0.3902  0.3506 -2.5452
 1715SOL    HW216608   2.607   2.592   6.552  1.6318 -0.0259  1.0797
 1716SOL     OW16609   1.246   0.591  17.631  0.0251 -0.2684 -0.6056
 1716SOL    HW116610   1.264   0.667   0.012 -1.5342 -0.2639 -0.1146
 1716SOL    HW216611   1.154   0.575  17.651  0.2736 -0.7016  0.2129
 1717SOL     OW16612   4.447   1.258  10.950  0.7444  0.1285 -0.2048
 1717SOL    HW116613   4.485   1.334  10.995  0.1997 -0.4059  1.1531
 1717SOL    HW216614   4.361   1.241  10.989  1.2160 -0.2369  0.6815
 1718SOL     OW16615   0.934   1.311   8.117  0.3279  0.1117  0.8047
 1718SOL    HW116616   0.952   1.331   8.209  3.0279  0.1543  0.2689
 1718SOL    HW216617   1.021   1.327   8.080  0.3201 -1.3226  0.1644
 1719SOL     OW16618   4.401   4.184   6.951  0.1676 -0.2505 -0.0248
 1719SOL    HW116619   4.345   4.260   6.967  1.2761  0.8134 -1.1219
 1719SOL    HW216620   4.484   4.209   6.992  0.1640 -0.3122  0.0194
 1720SOL     OW16621   0.527   3.913   5.914 -0.3773  0.0255 -0.5064
 1720SOL    HW116622   0.432   3.908   5.929 -0.1663 -0.6799  0.5751
 1720SOL    HW216623   0.540   4.002   5.880 -2.8719  0.9357  0.8620
 1721SOL     OW16624   3.668   1.005   6.854 -0.1063  0.1681 -0.1878
 1721SOL    HW116625   3.654   0.927   6.908 -0.6179 -0.7159 -1.5977
 1721SOL    HW216626   3.597   1.057   6.889  0.6467  0.8545  0.3246
 1722SOL     OW16627   3.525   2.006   8.367 -0.0811 -0.0680 -0.1683
 1722SOL    HW116628   3.461   1.935   8.375  1.1227 -1.1194  0.1615
 1722SOL    HW216629   3.580   1.974   8.439  0.5864 -0.1375 -0.7057
 1723SOL     OW16630   3.422   4.697   9.934 -0.0714  0.5464  0.0463
 1723SOL    HW116631   3.366   4.620   9.925 -1.6491  1.5006  1.6907
 1723SOL    HW216632   3.474   4.666  10.008 -0.2108 -3.6193 -1.5608
 1724SOL     OW16633   4.243   0.133   1.054  0.4068  0.1875 -0.4016
 1724SOL    HW116634   4.305   0.160   0.987  1.0070 -0.5134 -0.1307
 1724SOL    HW216635   4.291   0.064   1.100 -1.2232 -0.4973  0.2550
 1725SOL     OW16636   2.170   2.386   5.747 -0.6087  0.7763 -0.4538
 1725SOL    HW116637   2.195   2.325   5.677 -0.6334 -1.2260  1.2802
 1725SOL    HW216638   2.205   2.349   5.828  0.2540 -0.3970 -1.3623
 1726SOL     OW16639   4.652   4.036   1.015 -0.4547  0.1063 -0.6619
 1726SOL    HW116640   4.714   4.105   1.035 -0.0951 -0.3777 -0.1007
 1726SOL    HW216641   4.697   3.971   0.962 -2.3759  0.1016 -2.2971
 1727SOL     OW16642   0.235   1.507   6.813  0.5621  0.3099 -0.2005
 1727SOL    HW116643   0.294   1.579   6.792  0.9253 -0.3295 -1.3654
 1727SOL    HW216644   0.179   1.540   6.883 -2.2931  0.1326 -2.4192
 1728SOL     OW16645   1.400   3.524   1.023  0.4948 -0.2974 -0.5584
 1728SOL    HW116646   1.359   3.533   1.109 -2.1678  0.4448 -1.9070
 1728SOL    HW216647   1.406   3.428   1.025  0.2568 -0.2973  0.2324
 1729SOL     OW16648   1.044   0.787  14.249 -0.6356  0.3098 -0.3006
 1729SOL    HW116649   1.022   0.754  14.162 -0.4901  0.5276 -0.4212
 1729SOL    HW216650   1.094   0.718  14.292  0.6160  0.2985 -1.7781
 1730SOL     OW16651   4.690   0.228   6.500 -0.0323  1.2195 -0.4327
 1730SOL    HW116652   4.714   0.160   6.437  2.8230 -0.0514  2.0546
 1730SOL    HW216653   4.595   0.233   6.489 -0.2399 -1.4987  0.0893
 1731SOL     OW16654   4.217   0.446   5.601 -0.8470  0.2721  0.1942
 1731SOL    HW116655   4.169   0.417   5.523 -0.9339  0.4208  0.1918
 1731SOL    HW216656   4.278   0.513   5.570 -0.2535 -0.5493 -0.4089
 1732SOL     OW16657   3.180   2.493   6.181 -0.0017  0.0374 -0.0803
 1732SOL    HW116658   3.232   2.488   6.261 -0.5190  1.2258  0.3442
 1732SOL    HW216659   3.100   2.536   6.213 -0.2427 -0.7048  0.3053
 1733SOL     OW16660   0.934   0.942   4.078 -0.8107  0.3374  0.2588
 1733SOL    HW116661   0.838   0.945   4.082 -0.7061  3.5415  0.6430
 1733SOL    HW216662   0.960   0.918   4.167 -0.7917 -3.4876 -0.7904
 1734SOL     OW16663   3.580   3.860  17.486 -0.1453 -0.1605  0.0335
 1734SOL    HW116664   3.616   3.877  17.399  3.0205 -2.4347  0.8651
 1734SOL    HW216665   3.560   3.766  17.488  0.0196 -0.1928  0.1844
 1735SOL     OW16666   3.289   1.776   0.126  0.0610 -0.3104  0.5549
 1735SOL    HW116667   3.281   1.775   0.221 -1.4863 -0.1986  0.4318
 1735SOL    HW216668   3.205   1.820   0.111  0.6471  0.8139  0.5907
 1736SOL     OW16669   3.843   4.627   3.089  0.0367 -0.0630  0.1360
 1736SOL    HW116670   3.910   4.590   3.146  0.9217  1.4404  0.0651
 1736SOL    HW216671   3.902   4.684   3.041  1.3164 -1.6369 -0.1563
 1737SOL     OW16672   3.180   1.117  16.056  0.5406  0.2716  0.0403
 1737SOL    HW116673   3.252   1.112  15.993  0.1844 -0.9099 -0.2577
 1737SOL    HW216674   3.138   1.198  16.026  1.8440  0.1092 -2.2412
 1738SOL     OW16675   1.102   0.325   5.570  0.0535  0.3763 -0.4537
 1738SOL    HW116676   1.120   0.401   5.624  3.4330 -0.3895 -0.5106
 1738SOL    HW216677   1.155   0.253   5.605  1.8748  0.5418 -2.8551
 1739SOL     OW16678   1.537   1.252   9.583 -0.0910 -0.0929  0.0096
 1739SOL    HW116679   1.494   1.337   9.570 -0.2016  0.2864  2.8742
 1739SOL    HW216680   1.534   1.248   9.678 -1.0705 -1.3064 -0.0777
 1740SOL     OW16681   0.689   1.871   8.107 -0.4803 -0.6984 -0.3095
 1740SOL    HW116682   0.755   1.941   8.105 -0.9737 -0.2444 -0.7881
 1740SOL    HW216683   0.684   1.844   8.199  1.5318 -1.3921 -0.3860
 1741SOL     OW16684   0.328   4.564   5.374  0.2957 -0.1517 -0.5371
 1741SOL    HW116685   0.321   4.469   5.359  1.0277 -0.0763 -1.3257
 1741SOL    HW216686   0.419   4.576   5.400  0.1302 -0.0147 -0.0124
 1742SOL     OW16687   4.005   3.248  14.339 -0.8190  0.3317  0.4730
 1742SOL    HW116688   3.964   3.174  14.294  5.6685 -2.6820 -0.5646
 1742SOL    HW216689   3.965   3.317  14.287  2.0549  1.6702  0.0505
 1743SOL     OW16690   3.301   3.583   6.677  0.3163  0.0359  0.4761
 1743SOL    HW116691   3.241   3.559   6.606  0.3474 -1.4656  0.9446
 1743SOL    HW216692   3.301   3.679   6.677  0.8133  0.0368  0.2221
 1744SOL     OW16693   2.264   3.486   6.040  0.3158  0.4072  0.0775
 1744SOL    HW116694   2.300   3.449   5.960 -0.7002 -0.6799  0.1250
 1744SOL    HW216695   2.296   3.434   6.114 -0.3404 -0.5498 -0.3152
 1745SOL     OW16696   1.517   0.736   3.578  0.5331  0.3555  0.1776
 1745SOL    HW116697   1.473   0.821   3.575  0.9331  0.4803 -2.2182
 1745SOL    HW216698   1.604   0.758   3.543 -0.2556  3.1525 -0.0936
 1746SOL     OW16699   3.655   1.740  16.915  0.2424 -0.2906 -0.3804
 1746SOL    HW116700   3.591   1.703  16.976  0.7960  1.1494  1.0852
 1746SOL    HW216701   3.613   1.825  16.905  0.4586 -0.2950 -1.3382
 1747SOL     OW16702   4.453   2.237   2.751 -0.0611 -0.5841 -0.4754
 1747SOL    HW116703   4.537   2.215   2.792 -1.1340  1.2749  2.7076
 1747SOL    HW216704   4.482   2.267   2.665  1.7852 -1.3362 -0.1295
 1748SOL     OW16705   3.733   2.025  15.559 -0.6041  0.2605  0.0047
 1748SOL    HW116706   3.815   1.992  15.595 -1.1912 -0.7525  0.4106
 1748SOL    HW216707   3.694   2.087  15.621 -0.8399 -1.0874  1.2224
 1749SOL     OW16708   1.645   0.091   7.644  0.1375  0.7377  0.1282
 1749SOL    HW116709   1.587   0.136   7.706  1.3183  2.5315 -0.0537
 1749SOL    HW216710   1.688   0.045   7.716  1.8247 -0.8043 -1.8743
 1750SOL     OW16711   4.195   2.833   7.889  0.8040 -0.1141  0.5613
 1750SOL    HW116712   4.230   2.847   7.976  2.3261 -2.1182  0.2641
 1750SOL    HW216713   4.252   2.765   7.854  1.7682  1.0429 -0.0964
 1751SOL     OW16714   3.899   2.881   5.799  0.1106 -0.0201  0.3234
 1751SOL    HW116715   3.895   2.833   5.882 -0.3701 -0.0928  0.2574
 1751SOL    HW216716   3.836   2.829   5.749  0.8044 -0.2730 -0.2976
 1752SOL     OW16717   1.806   0.811   9.286  0.0398  0.0509  0.1712
 1752SOL    HW116718   1.790   0.792   9.378  0.5645  0.8270  0.4179
 1752SOL    HW216719   1.861   0.738   9.256 -0.8511 -0.3844 -0.3958
 1753SOL     OW16720   0.460   3.940  10.978  0.2075 -0.1198 -0.0508
 1753SOL    HW116721   0.471   3.939  10.883  0.3407  0.0918 -0.0386
 1753SOL    HW216722   0.529   3.888  11.019 -0.5824 -0.5165  0.7655
 1754SOL     OW16723   0.158   2.485   1.769 -0.2426 -0.2959  0.2802
 1754SOL    HW116724   0.218   2.463   1.697  0.0467  1.0348  0.1085
 1754SOL    HW216725   0.071   2.456   1.742  1.0155 -2.7602 -1.1188
 1755SOL     OW16726   1.734   3.281   5.908  0.8951 -0.6599  0.3575
 1755SOL    HW116727   1.655   3.241   5.943  0.4538  0.5939  0.7799
 1755SOL    HW216728   1.755   3.220   5.837  0.8285 -0.4929  0.1935
 1756SOL     OW16729   0.827   1.186   5.196  0.0052 -0.0197  0.5638
 1756SOL    HW116730   0.855   1.196   5.287 -1.7167  0.4871  1.0306
 1756SOL    HW216731   0.912   1.178   5.151  0.7656  0.4184  1.9375
 1757SOL     OW16732   3.732   2.820   9.940  0.2794 -0.1168 -0.0617
 1757SOL    HW116733   3.794   2.755   9.907 -1.4326 -1.7258 -0.1374
 1757SOL    HW216734   3.753   2.909   9.914 -0.8908  0.4511  0.9287
 1758SOL     OW16735   3.843   0.004   6.247 -0.6965 -0.5417  0.2451
 1758SOL    HW116736   3.805   0.089   6.267  0.7588  0.5218 -1.5005
 1758SOL    HW216737   3.800   4.702   6.164 -1.1614  0.1394  0.3326
 1759SOL     OW16738   2.932   2.972   3.862 -0.0391  0.2024 -0.3224
 1759SOL    HW116739   2.895   3.044   3.913  0.9904  0.4567  0.0634
 1759SOL    HW216740   2.944   2.909   3.933  0.0082  0.1305 -0.3939
 1760SOL     OW16741   2.818   1.378   8.251  0.1137 -0.1779 -0.6728
 1760SOL    HW116742   2.785   1.468   8.243  3.5945  1.1046 -0.6388
 1760SOL    HW216743   2.872   1.391   8.329 -3.3989  1.5176  1.4568
 1761SOL     OW16744   1.994   4.455  16.663  0.0938  0.1978  0.0296
 1761SOL    HW116745   1.975   4.362  16.651  2.9844 -0.2994 -0.6761
 1761SOL    HW216746   1.915   4.493  16.701  0.7590  2.1935 -0.5644
 1762SOL     OW16747   3.316   1.259   6.476  0.3393  0.1443 -0.0234
 1762SOL    HW116748   3.301   1.176   6.430 -2.5067  0.2318  0.7455
 1762SOL    HW216749   3.263   1.319   6.424  1.3808  0.7206 -0.4243
 1763SOL     OW16750   0.281   2.972   4.270 -0.5028  0.6638 -0.6045
 1763SOL    HW116751   0.355   3.026   4.243 -0.2935  0.3584 -0.6364
 1763SOL    HW216752   0.221   3.036   4.310  0.1406  2.5452 -2.6698
 1764SOL     OW16753   1.473   2.046   3.393 -0.6275  0.4819  0.0097
 1764SOL    HW116754   1.563   2.055   3.361 -0.8138  1.2913 -0.3022
 1764SOL    HW216755   1.421   2.049   3.312  0.2716 -1.5650 -0.6497
 1765SOL     OW16756   0.463   2.782   7.063  0.1204  0.2313 -0.0932
 1765SOL    HW116757   0.469   2.757   7.156 -1.1239  0.1803 -0.0307
 1765SOL    HW216758   0.506   2.867   7.057  0.6128 -0.1287 -1.5755
 1766SOL     OW16759   3.258   4.682   7.982  0.0313  0.0874  0.6494
 1766SOL    HW116760   3.190   0.009   7.933  0.4684 -0.6776 -0.6721
 1766SOL    HW216761   3.320   0.034   8.003 -2.1996  1.8971  1.1169
 1767SOL     OW16762   3.670   0.238   6.265  0.1589 -0.7272  0.9444
 1767SOL    HW116763   3.616   0.188   6.204 -0.6987  0.4333  0.7618
 1767SOL    HW216764   3.650   0.328   6.241 -0.2148 -1.4327 -1.3553
 1768SOL     OW16765   2.933   4.186  11.242  0.2833 -0.1331  0.3001
 1768SOL    HW116766   2.941   4.180  11.147  0.8800  2.0437  0.2190
 1768SOL    HW216767   3.008   4.131  11.267 -0.8385  0.2034  4.3977
 1769SOL     OW16768   0.429   1.294   4.440 -0.2011  0.2831 -0.1775
 1769SOL    HW116769   0.403   1.234   4.510  0.6830 -2.8335 -2.5477
 1769SOL    HW216770   0.408   1.378   4.482 -1.4597 -0.3476  0.4554
 1770SOL     OW16771   2.018   3.058   6.565  0.3779 -0.0106 -0.5925
 1770SOL    HW116772   2.045   3.117   6.495 -0.8314 -0.4091 -1.3876
 1770SOL    HW216773   2.062   2.979   6.532  0.4162 -0.1225 -0.2768
 1771SOL     OW16774   4.172   3.288   9.556 -0.2689 -0.8771 -0.0365
 1771SOL    HW116775   4.184   3.348   9.483 -0.4099  0.6068  1.1636
 1771SOL    HW216776   4.251   3.234   9.545 -0.4592 -0.4718 -3.2771
 1772SOL     OW16777   1.136   1.357   2.717  0.5526  0.7158 -0.4756
 1772SOL    HW116778   1.143   1.449   2.741 -1.8584  0.5392  0.8996
 1772SOL    HW216779   1.215   1.334   2.668 -0.8160 -1.5260 -1.6230
 1773SOL     OW16780   2.193   2.051  11.081  0.0502  0.0395  0.2364
 1773SOL    HW116781   2.137   2.086  11.012  0.4712  1.5700  0.6632
 1773SOL    HW216782   2.267   2.020  11.028 -0.8596 -0.0309 -1.0002
 1774SOL     OW16783   4.559   2.588   4.880  0.4476  0.2831 -0.5217
 1774SOL    HW116784   4.599   2.528   4.817  2.1354 -0.0244  0.8557
 1774SOL    HW216785   4.622   2.581   4.952  1.2171 -3.5017 -1.5712
 1775SOL     OW16786   1.722   1.452   0.095 -0.1842  0.4156 -0.3577
 1775SOL    HW116787   1.794   1.477   0.153  1.6553 -1.3977 -1.8746
 1775SOL    HW216788   1.725   1.357   0.103  0.3783  0.7247  3.1519
 1776SOL     OW16789   3.325   4.328   1.870 -0.3856 -0.4378  0.2476
 1776SOL    HW116790   3.275   4.359   1.795 -0.7643 -0.2060  0.5993
 1776SOL    HW216791   3.305   4.406   1.921 -1.1958 -0.6191  0.2115
 1777SOL     OW16792   4.050   0.622   5.408  0.0593 -0.4185  0.0786
 1777SOL    HW116793   4.072   0.540   5.364 -1.3865 -1.0161  0.4687
 1777SOL    HW216794   4.125   0.680   5.394  2.2310 -2.6137  2.6005
 1778SOL     OW16795   1.841   4.027   3.569  0.2282 -0.0536 -0.8832
 1778SOL    HW116796   1.793   4.002   3.647 -0.5238 -0.8609 -1.6088
 1778SOL    HW216797   1.925   4.046   3.611 -0.0995  0.2170 -0.3566
 1779SOL     OW16798   2.902   1.915  12.358  0.1535  0.3766  0.2490
 1779SOL    HW116799   2.867   1.979  12.296 -1.7895  0.4030  1.3880
 1779SOL    HW216800   2.831   1.919  12.422 -1.3714  3.1822 -1.6193
 1780SOL     OW16801   2.970   0.004  17.172 -0.7109 -0.0462 -0.4092
 1780SOL    HW116802   2.935   0.068  17.111 -0.1198  1.6539  1.0510
 1780SOL    HW216803   2.891   4.691  17.216  0.1946  0.4125  1.5304
 1781SOL     OW16804   0.924   4.405  14.161 -0.6830  0.6206  0.7059
 1781SOL    HW116805   0.893   4.315  14.155 -3.5722  1.7062 -0.6855
 1781SOL    HW216806   0.841   4.447  14.136 -1.6092 -0.3595  2.0736
 1782SOL     OW16807   3.203   1.237   2.185 -0.2183  0.3471  0.3193
 1782SOL    HW116808   3.118   1.272   2.158  0.2177  1.4945  0.4382
 1782SOL    HW216809   3.224   1.181   2.111  0.4940 -2.8899  2.9575
 1783SOL     OW16810   3.132   3.724   5.338  0.0946  0.2920 -0.2877
 1783SOL    HW116811   3.199   3.656   5.346 -1.1210 -0.5489  2.6198
 1783SOL    HW216812   3.162   3.771   5.260 -0.4607  0.4701 -0.3932
 1784SOL     OW16813   4.135   0.911   0.205 -0.4903 -0.7265  0.4592
 1784SOL    HW116814   4.147   0.954   0.290  0.1114 -0.1834  0.0930
 1784SOL    HW216815   4.129   0.820   0.232 -2.7202 -1.0923 -1.2901
 1785SOL     OW16816   2.192   3.412   5.178  0.0248  0.5816  0.3590
 1785SOL    HW116817   2.099   3.405   5.158  0.0929 -0.7399  0.4996
 1785SOL    HW216818   2.189   3.470   5.254 -0.6165  1.7916 -0.5741
 1786SOL     OW16819   1.785   4.158   1.416  0.4272 -0.4169 -0.6575
 1786SOL    HW116820   1.750   4.070   1.428  0.4078 -0.4979 -1.3012
 1786SOL    HW216821   1.776   4.197   1.502 -0.2039 -0.1416 -0.8501
 1787SOL     OW16822   0.048   0.079   4.784  0.0701  0.6518  0.0864
 1787SOL    HW116823   0.105   0.148   4.818  1.5731 -0.9425  0.8455
 1787SOL    HW216824   4.700   0.135   4.743  2.6432  1.2710 -3.2091
 1788SOL     OW16825   2.201   2.352   3.233  0.6759  0.3077 -0.7466
 1788SOL    HW116826   2.293   2.379   3.238  0.9392 -0.6514 -0.4489
 1788SOL    HW216827   2.158   2.438   3.240  1.7860  0.9564 -2.0678
 1789SOL     OW16828   3.607   2.542  13.958  0.0256  0.1061 -0.4793
 1789SOL    HW116829   3.663   2.599  14.010  0.9430  0.8797 -2.3082
 1789SOL    HW216830   3.514   2.559  13.974  0.2517  1.4657 -0.6560
 1790SOL     OW16831   1.741   0.391  10.723 -0.1413 -0.1926  0.1530
 1790SOL    HW116832   1.675   0.401  10.791 -1.5184  1.3015 -1.4075
 1790SOL    HW216833   1.815   0.439  10.759 -1.8653  1.4402  1.4837
 1791SOL     OW16834   4.396   0.136   3.903 -0.2358  0.4233 -0.0143
 1791SOL    HW116835   4.303   0.115   3.916 -0.0173 -1.0242 -0.7096
 1791SOL    HW216836   4.415   0.189   3.980 -0.1056  0.9590 -0.4165
 1792SOL     OW16837   2.664   2.811  13.910  0.4660  0.7771 -0.0897
 1792SOL    HW116838   2.653   2.719  13.886  0.1175  1.1405 -1.3239
 1792SOL    HW216839   2.583   2.856  13.886 -0.1599 -0.4938 -0.3917
 1793SOL     OW16840   1.116   2.375   8.028 -0.2937 -1.0085  0.1370
 1793SOL    HW116841   1.131   2.439   7.959  0.6699 -1.6074 -0.2134
 1793SOL    HW216842   1.140   2.431   8.101 -0.9505  0.8115 -1.0568
 1794SOL     OW16843   0.337   4.041  14.788 -0.0962 -0.0776 -0.1761
 1794SOL    HW116844   0.307   3.951  14.780  1.0830 -0.3925 -0.9732
 1794SOL    HW216845   0.308   4.054  14.879 -2.8599 -0.3535 -1.0101
 1795SOL     OW16846   3.142   2.337   1.292  0.3612 -0.3009 -0.5647
 1795SOL    HW116847   3.132   2.380   1.376 -2.0032 -0.1212 -0.9198
 1795SOL    HW216848   3.164   2.245   1.305 -0.0263 -0.2044  0.7463
 1796SOL     OW16849   0.908   4.128   1.952 -0.0902  0.4030  0.7124
 1796SOL    HW116850   0.870   4.084   2.028 -0.7599 -2.3227 -1.1753
 1796SOL    HW216851   0.862   4.089   1.877 -0.2290  0.4472  0.7747
 1797SOL     OW16852   2.911   2.454  10.378  0.2948 -0.0028 -0.2941
 1797SOL    HW116853   2.979   2.519  10.390 -0.7015  1.1215 -0.7529
 1797SOL    HW216854   2.914   2.436  10.284  2.8936  1.3868 -0.4693
 1798SOL     OW16855   1.442   4.199   6.688  0.3392  0.0664  0.0305
 1798SOL    HW116856   1.443   4.115   6.734 -0.3998 -0.3637 -0.7425
 1798SOL    HW216857   1.380   4.252   6.738  1.2689  1.6575 -0.4924
 1799SOL     OW16858   4.450   0.754   2.646  0.4352  0.2908  0.0114
 1799SOL    HW116859   4.427   0.688   2.581 -0.4890  1.5759 -0.9587
 1799SOL    HW216860   4.365   0.795   2.661 -0.2960 -0.9148 -0.8604
 1800SOL     OW16861   2.371   3.262   2.249  0.0746 -0.0609  0.1343
 1800SOL    HW116862   2.300   3.237   2.309  0.1270 -1.8990 -0.5576
 1800SOL    HW216863   2.408   3.174   2.238 -1.2902 -0.2757 -2.8685
 1801SOL     OW16864   4.457   0.415   1.143 -0.3426  0.0583 -0.2621
 1801SOL    HW116865   4.505   0.483   1.096  1.8628 -0.3819  1.3801
 1801SOL    HW216866   4.371   0.396   1.104 -0.4215  0.6320 -0.3833
 1802SOL     OW16867   3.360   0.721   8.841 -0.1070 -0.0010 -0.1273
 1802SOL    HW116868   3.275   0.737   8.800  1.0991  1.9341 -1.8477
 1802SOL    HW216869   3.333   0.694   8.929  0.0068 -1.9308 -0.6721
 1803SOL     OW16870   1.040   3.386   4.953 -0.2627 -0.3279  0.1317
 1803SOL    HW116871   0.972   3.343   5.006 -0.1637  0.2434  0.7287
 1803SOL    HW216872   0.988   3.428   4.884  0.1136 -0.6139 -0.3209
 1804SOL     OW16873   4.334   0.235  14.522  0.3150  0.1753 -0.1517
 1804SOL    HW116874   4.310   0.143  14.513  1.1895  0.2452 -3.2621
 1804SOL    HW216875   4.323   0.249  14.616  3.7791 -2.1410  0.5968
 1805SOL     OW16876   0.057   1.982   7.386  0.0546  0.9593  0.8124
 1805SOL    HW116877   4.695   1.935   7.361  1.5871 -2.6895  2.7726
 1805SOL    HW216878   0.026   2.072   7.379  2.6014  1.7885  0.2746
 1806SOL     OW16879   3.850   0.810   8.251  0.1858  0.0711 -0.4336
 1806SOL    HW116880   3.894   0.876   8.305 -1.6967 -0.1078  1.3227
 1806SOL    HW216881   3.813   0.755   8.320 -0.8675  1.9045  0.4663
 1807SOL     OW16882   0.600   0.117   2.793 -0.0732  0.3418  0.6072
 1807SOL    HW116883   0.656   0.184   2.753  0.4128  0.5491  1.6428
 1807SOL    HW216884   0.524   0.167   2.822 -0.2834  0.5886 -0.3758
 1808SOL     OW16885   3.246   1.338   3.268 -0.1974  0.4595  0.4848
 1808SOL    HW116886   3.307   1.411   3.272  1.6900 -1.0390 -0.4947
 1808SOL    HW216887   3.238   1.330   3.173  1.4697 -0.1271  0.3832
 1809SOL     OW16888   0.365   2.958   0.782 -0.2380 -0.2335 -0.1930
 1809SOL    HW116889   0.294   2.912   0.829  0.3285  1.8672  2.7406
 1809SOL    HW216890   0.333   2.936   0.695  1.3355 -0.3204 -0.7426
 1810SOL     OW16891   3.584   0.669   6.757 -0.1232 -0.0905 -0.5157
 1810SOL    HW116892   3.598   0.622   6.839 -1.7585 -0.5546 -0.5028
 1810SOL    HW216893   3.501   0.713   6.776  2.0064  3.1948  1.3196
 1811SOL     OW16894   2.516   0.918   3.831  0.1671  0.0727  0.5815
 1811SOL    HW116895   2.523   0.900   3.737 -4.3851 -3.8493  0.9976
 1811SOL    HW216896   2.437   0.970   3.843  1.7491  2.6213  0.1409
 1812SOL     OW16897   4.446   0.899   3.131  0.1606 -0.0528 -0.6258
 1812SOL    HW116898   4.430   0.839   3.203  1.8104 -0.1326 -0.3427
 1812SOL    HW216899   4.532   0.936   3.147 -0.6842  1.0152  1.4719
 1813SOL     OW16900   3.363   3.769   8.911 -0.1914 -0.3211  0.0457
 1813SOL    HW116901   3.451   3.739   8.891 -0.1603 -0.4365  0.3530
 1813SOL    HW216902   3.363   3.757   9.006 -1.2712  2.4522  0.4164
 1814SOL     OW16903   1.665   0.231   8.034  0.3424  1.1378  0.1700
 1814SOL    HW116904   1.759   0.226   8.014  0.0415  1.3095 -1.3420
 1814SOL    HW216905   1.664   0.295   8.105  1.2068 -0.4180  1.5902
 1815SOL     OW16906   1.861   4.129   7.160 -0.0111 -0.3806 -0.0905
 1815SOL    HW116907   1.899   4.197   7.104 -1.3083  0.3333 -0.1147
 1815SOL    HW216908   1.821   4.075   7.091 -1.2375 -1.0298  1.1352
 1816SOL     OW16909   1.006   3.053   2.323  0.4692  0.3231 -0.6511
 1816SOL    HW116910   1.088   3.061   2.276  1.9080  0.6931  1.9130
 1816SOL    HW216911   0.956   3.011   2.254  0.2512 -1.5741  0.6629
 1817SOL     OW16912   1.885   0.343   5.446 -0.4704 -0.2818  0.3651
 1817SOL    HW116913   1.969   0.373   5.411 -0.4878  2.1180  2.3972
 1817SOL    HW216914   1.828   0.358   5.371 -1.2819  0.4751  1.1410
 1818SOL     OW16915   1.300   4.199   6.383  0.8438 -0.8145 -0.2476
 1818SOL    HW116916   1.381   4.185   6.334  1.0662 -0.3798 -0.0027
 1818SOL    HW216917   1.323   4.227   6.472 -0.2178  2.9866 -1.1722
 1819SOL     OW16918   1.728   0.733   7.956  0.2061  0.4541  0.2805
 1819SOL    HW116919   1.817   0.703   7.941 -0.4650 -0.1930 -2.4537
 1819SOL    HW216920   1.683   0.697   7.879  1.6406 -0.3161 -0.1809
 1820SOL     OW16921   2.652   0.959   2.350  0.5048  0.3257 -0.3814
 1820SOL    HW116922   2.630   0.954   2.257  0.9322 -0.6791 -0.4256
 1820SOL    HW216923   2.603   0.889   2.393 -0.4130 -0.1662 -2.2125
 1821SOL     OW16924   3.284   1.464   6.696  0.1694  0.4206  0.5156
 1821SOL    HW116925   3.319   1.394   6.642 -2.5593 -0.7569  0.2767
 1821SOL    HW216926   3.230   1.500   6.626 -1.4595 -0.0698  1.5136
 1822SOL     OW16927   1.228   3.645   5.490  0.7800  0.5289  0.2260
 1822SOL    HW116928   1.164   3.652   5.419  1.8842 -0.8205 -0.8952
 1822SOL    HW216929   1.307   3.629   5.440  1.5724  0.5145  1.4874
 1823SOL     OW16930   3.396   1.009  17.060 -0.0638  0.1063  0.0338
 1823SOL    HW116931   3.477   1.051  17.088  0.3797 -0.1040 -0.9282
 1823SOL    HW216932   3.403   1.017  16.965 -0.7648 -1.8192 -0.1655
 1824SOL     OW16933   4.329   0.317   4.142 -0.0612  0.2186 -0.5397
 1824SOL    HW116934   4.342   0.411   4.134  0.4478  0.1234 -0.8121
 1824SOL    HW216935   4.246   0.305   4.095 -0.4931 -1.6397  0.6932
 1825SOL     OW16936   2.726   2.973   2.436  0.0621 -0.2583  0.7652
 1825SOL    HW116937   2.747   3.035   2.506 -1.5593  2.2759 -0.9615
 1825SOL    HW216938   2.816   2.963   2.406 -0.1360  1.0205 -0.2742
 1826SOL     OW16939   0.273   1.919  12.117 -0.3602 -0.2599 -0.0380
 1826SOL    HW116940   0.332   1.950  12.049 -0.5045  0.4045  0.1333
 1826SOL    HW216941   0.226   1.845  12.078 -2.9923  0.1333  2.3539
 1827SOL     OW16942   3.058   0.966   4.600 -0.5824 -0.2515  0.6255
 1827SOL    HW116943   3.014   1.004   4.676  0.5018 -0.2116  1.2345
 1827SOL    HW216944   3.088   0.882   4.634 -0.6389 -0.5400 -0.0328
 1828SOL     OW16945   1.683   0.813   8.857 -0.3635  0.4405  0.4968
 1828SOL    HW116946   1.600   0.857   8.877  0.0489  1.1444  0.6336
 1828SOL    HW216947   1.747   0.870   8.899  1.1124 -1.6407  1.0596
 1829SOL     OW16948   0.018   0.135   6.007 -0.3482  0.2790  0.2610
 1829SOL    HW116949   4.684   0.080   5.948  1.5340 -0.7324 -0.4272
 1829SOL    HW216950   4.670   0.200   6.035 -0.7489  0.6654 -1.5869
 1830SOL     OW16951   3.124   0.961  10.050 -0.5234  0.1158  0.1824
 1830SOL    HW116952   3.029   0.966  10.061 -0.3830  0.2747  1.3981
 1830SOL    HW216953   3.144   1.016   9.975  1.7046 -0.8932  0.0186
 1831SOL     OW16954   3.616   2.594   3.596 -0.1278  0.0135 -0.3219
 1831SOL    HW116955   3.545   2.554   3.545  1.6993 -1.9131 -1.3333
 1831SOL    HW216956   3.597   2.686   3.575 -0.1714  0.3331  1.1549
 1832SOL     OW16957   2.209   3.738   4.405 -0.6152  0.4759 -0.6444
 1832SOL    HW116958   2.233   3.784   4.485  0.0166 -1.0074  0.0194
 1832SOL    HW216959   2.297   3.712   4.380 -0.0530 -1.5628  3.5080
 1833SOL     OW16960   4.247   1.223   1.889 -0.5318 -0.0959  0.0043
 1833SOL    HW116961   4.258   1.129   1.876 -2.4178 -0.3971  0.5541
 1833SOL    HW216962   4.258   1.251   1.798 -0.4310 -0.3916 -0.0732
 1834SOL     OW16963   0.620   0.211  17.143  0.2775  0.5368 -0.3665
 1834SOL    HW116964   0.685   0.255  17.198 -1.5879  2.8912  0.0130
 1834SOL    HW216965   0.656   0.127  17.117 -1.3216 -0.3180  0.1428
 1835SOL     OW16966   2.287   0.000  14.949 -0.3396  0.0340  0.5569
 1835SOL    HW116967   2.211   0.058  14.959 -1.0023 -0.5480 -1.1207
 1835SOL    HW216968   2.335   0.024  15.029  2.1518 -1.8328 -0.3804
 1836SOL     OW16969   2.080   2.886  10.960  0.1251  0.2927 -0.1511
 1836SOL    HW116970   2.085   2.838  11.042  1.1573 -1.0317 -0.9674
 1836SOL    HW216971   2.171   2.907  10.938  0.1792  0.4397  0.2191
 1837SOL     OW16972   1.649   4.190   4.530 -0.0054  0.0987 -0.0418
 1837SOL    HW116973   1.623   4.098   4.535 -2.1679  0.7044  0.2390
 1837SOL    HW216974   1.713   4.184   4.460 -2.3942 -1.0132 -2.1200
 1838SOL     OW16975   4.518   2.737  16.287 -0.3314  0.5754  0.0254
 1838SOL    HW116976   4.576   2.812  16.304  0.2681  0.5045 -1.6818
 1838SOL    HW216977   4.462   2.773  16.218 -2.2513 -1.6047  0.4483
 1839SOL     OW16978   2.104   1.937   8.579  0.2645  0.1938  0.2977
 1839SOL    HW116979   2.198   1.926   8.562  0.3240 -1.2363  1.5885
 1839SOL    HW216980   2.074   1.931   8.488 -1.9217  1.2936  0.9607
 1840SOL     OW16981   4.413   1.855   7.597  0.1459  0.0757 -0.0130
 1840SOL    HW116982   4.411   1.948   7.619 -0.1858  0.3787 -1.3046
 1840SOL    HW216983   4.406   1.812   7.682  0.2172  0.1968  0.0554
 1841SOL     OW16984   3.321   3.844   6.690  0.4305  0.0775 -0.1590
 1841SOL    HW116985   3.315   3.896   6.610  0.1446  0.4456  0.1004
 1841SOL    HW216986   3.374   3.904   6.742 -0.2064  0.1670  0.3938
 1842SOL     OW16987   4.186   2.565   7.088 -0.3406  0.7607 -0.1942
 1842SOL    HW116988   4.205   2.653   7.056  0.6818  0.9002  0.7826
 1842SOL    HW216989   4.275   2.533   7.104 -1.5062 -3.2352 -1.6630
 1843SOL     OW16990   0.028   2.545   7.456  0.0429 -0.1747  0.1070
 1843SOL    HW116991   0.002   2.458   7.424 -1.4549  0.4400 -0.3421
 1843SOL    HW216992   0.121   2.539   7.436  0.2206 -0.9265  1.1165
 1844SOL     OW16993   0.987   1.428   5.780 -0.0531 -0.4770 -0.0934
 1844SOL    HW116994   1.072   1.396   5.750 -0.4324  1.4730 -3.2399
 1844SOL    HW216995   0.945   1.439   5.694  2.7038 -1.3569 -1.5629
 1845SOL     OW16996   2.543   2.886   9.315 -0.3758 -0.3294 -0.1580
 1845SOL    HW116997   2.548   2.793   9.293 -1.9435 -0.5846  0.5792
 1845SOL    HW216998   2.469   2.887   9.376  0.5431  1.6564  0.9168
 1846SOL     OW16999   4.264   2.230  12.462  0.6159  0.1352  0.6682
 1846SOL    HW117000   4.200   2.232  12.534  0.9198 -1.8061  1.0037
 1846SOL    HW217001   4.217   2.287  12.402  0.1748 -1.4267 -0.4667
 1847SOL     OW17002   4.380   4.657  10.574 -0.5180  0.5472 -0.2385
 1847SOL    HW117003   4.430   4.624  10.649 -0.8997 -1.5377 -0.8962
 1847SOL    HW217004   4.413   0.022  10.538  0.6424  0.1087 -0.2082
 1848SOL     OW17005   0.996   1.357   4.262  0.1927  0.1204 -0.6070
 1848SOL    HW117006   0.922   1.411   4.290 -0.3202 -2.4926  2.9892
 1848SOL    HW217007   1.004   1.378   4.169  1.0965  0.4929 -0.4426
 1849SOL     OW17008   0.896   1.968   9.223 -0.8118 -0.2006  0.4861
 1849SOL    HW117009   0.834   2.037   9.247 -0.2462  0.5736 -0.2780
 1849SOL    HW217010   0.863   1.951   9.134 -1.7127 -0.1988  0.8130
 1850SOL     OW17011   1.802   1.221  16.054 -0.4160  0.3345  0.0237
 1850SOL    HW117012   1.715   1.258  16.045 -1.2547 -1.3541  1.1282
 1850SOL    HW217013   1.852   1.285  16.003  1.0106 -0.0329  0.9568
 1851SOL     OW17014   1.312   2.823   6.072 -0.1730  0.1169  0.3091
 1851SOL    HW117015   1.332   2.785   5.987 -1.2060 -0.8816  0.5135
 1851SOL    HW217016   1.402   2.837   6.101 -0.8985 -1.2375  3.1878
 1852SOL     OW17017   2.072   1.882  14.151  0.0701 -0.0620  0.2822
 1852SOL    HW117018   2.166   1.871  14.158  0.0252 -0.0029  0.9955
 1852SOL    HW217019   2.068   1.958  14.093  0.2692 -1.3093 -1.3761
 1853SOL     OW17020   3.541   1.044  10.335  0.3111  0.4182  0.2006
 1853SOL    HW117021   3.459   1.059  10.288  0.2578  0.6802  0.3766
 1853SOL    HW217022   3.520   0.964  10.382 -1.4771  0.7669  0.0086
 1854SOL     OW17023   0.191   0.754   1.063  0.9678 -0.4720 -0.1380
 1854SOL    HW117024   0.197   0.837   1.111 -1.8264  0.8439 -2.0280
 1854SOL    HW217025   0.190   0.782   0.972 -1.3456  1.5676  0.5047
 1855SOL     OW17026   4.267   2.224  10.756  0.5652  0.1168 -0.4614
 1855SOL    HW117027   4.203   2.243  10.825 -0.6949  0.7512 -1.8180
 1855SOL    HW217028   4.221   2.160  10.702 -0.3796 -0.0246  0.5030
 1856SOL     OW17029   1.239   4.554  10.483 -0.3289  0.4310 -0.1022
 1856SOL    HW117030   1.300   4.534  10.412 -0.8661  1.2431 -0.7944
 1856SOL    HW217031   1.273   4.636  10.520 -0.0438  0.4002 -0.2920
 1857SOL     OW17032   3.175   3.230   1.363 -0.4122 -0.6508 -0.7244
 1857SOL    HW117033   3.185   3.148   1.413 -1.1527 -0.0286  0.4414
 1857SOL    HW217034   3.232   3.295   1.403 -1.6031 -0.3691  0.4989
 1858SOL     OW17035   0.110   2.099  10.548  0.1371  0.1699 -0.4818
 1858SOL    HW117036   0.160   2.084  10.628  0.1214  2.2618 -0.0978
 1858SOL    HW217037   0.040   2.035  10.564 -0.7138  1.2329  0.0242
 1859SOL     OW17038   2.024   0.517   6.384  0.1763 -0.4567  0.5160
 1859SOL    HW117039   1.994   0.431   6.412 -0.0681 -0.1600  1.1668
 1859SOL    HW217040   2.085   0.499   6.312 -0.1953 -0.5277  0.2221
 1860SOL     OW17041   0.500   2.827   5.443 -0.7638 -0.2170 -0.3734
 1860SOL    HW117042   0.437   2.755   5.446 -0.1191 -0.7640  0.1502
 1860SOL    HW217043   0.488   2.874   5.360 -1.8387 -0.6031 -0.4263
 1861SOL     OW17044   1.339   3.292   5.378  0.0728 -0.1168 -0.4235
 1861SOL    HW117045   1.327   3.378   5.338  0.8177 -0.5982 -1.6669
 1861SOL    HW217046   1.279   3.278   5.452 -0.3213 -1.2377 -0.9533
 1862SOL     OW17047   4.068   2.105   7.213  0.4200  0.1043 -0.4051
 1862SOL    HW117048   4.002   2.137   7.274  0.0626 -0.4379 -0.5068
 1862SOL    HW217049   4.036   2.136   7.128 -0.1102 -1.0954 -0.6411
 1863SOL     OW17050   4.695   4.653   6.529 -0.0675  0.2173 -0.1476
 1863SOL    HW117051   4.693   4.665   6.434 -0.4583  0.6105 -0.0938
 1863SOL    HW217052   0.064   4.683   6.555  0.3115 -0.4264 -0.6871
 1864SOL     OW17053   0.706   3.831   9.973  0.5569 -0.2947  0.4946
 1864SOL    HW117054   0.623   3.877   9.976  1.9392  2.5162 -3.1093
 1864SOL    HW217055   0.754   3.881   9.906 -0.5991  1.4929  1.0224
 1865SOL     OW17056   1.346   0.590   2.487 -0.0873 -0.0288 -0.1509
 1865SOL    HW117057   1.284   0.548   2.428  1.6925 -2.1587 -0.4963
 1865SOL    HW217058   1.420   0.598   2.427  0.3283  1.4522  0.5440
 1866SOL     OW17059   4.391   0.291   7.075 -0.2993 -0.1590 -0.0313
 1866SOL    HW117060   4.445   0.218   7.043  1.1226  0.7741  0.2171
 1866SOL    HW217061   4.421   0.298   7.166 -0.8354  3.2645 -0.1151
 1867SOL     OW17062   2.158   4.230  14.555  0.2010  0.1649 -0.0570
 1867SOL    HW117063   2.145   4.264  14.643 -0.5061  0.6074 -0.3294
 1867SOL    HW217064   2.240   4.266  14.522  0.2324 -0.4629 -0.6516
 1868SOL     OW17065   2.268   2.656   5.636  0.0612  0.5572  0.2928
 1868SOL    HW117066   2.233   2.573   5.670 -0.1765  0.0554 -1.1959
 1868SOL    HW217067   2.347   2.670   5.688 -0.1617 -0.7331  0.9836
 1869SOL     OW17068   3.579   3.386  10.448  0.3009  0.4515  0.4724
 1869SOL    HW117069   3.649   3.426  10.396  1.1375  3.1620  3.6924
 1869SOL    HW217070   3.512   3.451  10.465 -0.0120  0.1222  0.4982
 1870SOL     OW17071   3.730   2.134   8.626  0.1014 -0.4159 -0.2481
 1870SOL    HW117072   3.646   2.136   8.672  0.6995  1.4932  0.7549
 1870SOL    HW217073   3.748   2.044   8.598  0.7079 -0.1377 -0.7362
 1871SOL     OW17074   1.199   2.261  16.114 -0.0390 -0.0486 -0.0500
 1871SOL    HW117075   1.270   2.308  16.157  0.4234 -0.5080 -0.3145
 1871SOL    HW217076   1.138   2.335  16.118  1.8581  1.5094 -0.0109
 1872SOL     OW17077   4.113   0.703   2.667 -0.3574 -0.1849  0.6103
 1872SOL    HW117078   4.042   0.653   2.626  0.7086 -0.0714 -1.3439
 1872SOL    HW217079   4.164   0.624   2.685  0.4664  0.4513  1.1041
 1873SOL     OW17080   3.765   1.735   3.689 -0.0480 -0.4119 -0.3387
 1873SOL    HW117081   3.669   1.730   3.693 -0.0547  0.1481  0.0903
 1873SOL    HW217082   3.780   1.786   3.610 -0.5353  0.7627  0.3328
 1874SOL     OW17083   3.651   0.017   0.202 -0.2014 -0.4153  0.0133
 1874SOL    HW117084   3.626   4.662   0.145 -0.7055 -1.6195  1.7779
 1874SOL    HW217085   3.706   4.695   0.270 -0.7345 -2.2057 -0.6044
 1875SOL     OW17086   1.294   0.180   4.728  0.0021 -0.7827 -0.1192
 1875SOL    HW117087   1.318   0.087   4.730  1.0371 -0.4666  1.2773
 1875SOL    HW217088   1.348   0.198   4.650 -0.2137 -4.0699 -1.0202
 1876SOL     OW17089   0.401   0.583   8.050  0.2803 -0.4529  0.9970
 1876SOL    HW117090   0.478   0.631   8.081  1.8719 -2.4797  0.2356
 1876SOL    HW217091   0.434   0.513   7.993  1.7297  0.2282  0.9923
 1877SOL     OW17092   0.632   4.412  17.098 -0.4152 -0.4081  0.1078
 1877SOL    HW117093   0.564   4.420  17.165 -0.0165 -1.8617  0.6933
 1877SOL    HW217094   0.614   4.323  17.065 -2.2471  0.0409 -0.1007
 1878SOL     OW17095   2.588   0.230  10.481  0.3684 -0.2168 -0.3034
 1878SOL    HW117096   2.632   0.290  10.541  2.9051 -0.5358 -1.8834
 1878SOL    HW217097   2.647   0.156  10.492 -1.1873 -1.5843 -0.9962
 1879SOL     OW17098   2.352   2.054   0.480  0.4768 -0.1449 -0.2222
 1879SOL    HW117099   2.352   2.059   0.575 -0.2802 -0.4615 -0.2031
 1879SOL    HW217100   2.426   2.107   0.453 -0.2905 -0.0407 -2.1156
 1880SOL     OW17101   1.417   3.541   0.753 -0.1643  0.1498 -0.1231
 1880SOL    HW117102   1.415   3.538   0.849 -2.2535 -0.6061 -0.1847
 1880SOL    HW217103   1.347   3.604   0.736  1.3126  1.4177 -1.4721
 1881SOL     OW17104   1.318   2.305   4.639  0.6052 -0.1063 -0.1857
 1881SOL    HW117105   1.343   2.364   4.710 -1.3958 -1.6716  1.8094
 1881SOL    HW217106   1.342   2.349   4.558  0.9879 -0.0087 -0.0220
 1882SOL     OW17107   4.027   3.313   9.781 -0.2515 -0.5011 -0.4175
 1882SOL    HW117108   3.991   3.246   9.723 -1.8524 -0.3035  0.3581
 1882SOL    HW217109   4.096   3.345   9.723 -1.2492  1.4793 -0.5433
 1883SOL     OW17110   0.903   0.928   3.287  0.2565  0.3356  0.2139
 1883SOL    HW117111   0.995   0.916   3.263  0.7409  0.2768  2.0592
 1883SOL    HW217112   0.875   0.855   3.342 -0.7745  0.4649 -0.1439
 1884SOL     OW17113   1.745   0.418   4.378  0.3871 -0.2051 -0.2511
 1884SOL    HW117114   1.818   0.358   4.395  0.9804  0.0293 -1.9806
 1884SOL    HW217115   1.730   0.467   4.459  1.9581  1.0456 -0.7049
 1885SOL     OW17116   2.399   3.201  13.757 -0.0177  0.0938  0.5053
 1885SOL    HW117117   2.485   3.197  13.798  0.3606  0.2517 -0.2754
 1885SOL    HW217118   2.343   3.180  13.832 -0.1751  3.2307  1.3045
 1886SOL     OW17119   3.689   1.595   4.407  0.2729 -0.1401 -0.4997
 1886SOL    HW117120   3.649   1.648   4.339 -1.1587  2.0670  2.0972
 1886SOL    HW217121   3.783   1.615   4.404  0.2147  0.1299 -0.4963
 1887SOL     OW17122   0.984   3.660   2.171  0.6733  0.1434  0.2157
 1887SOL    HW117123   0.898   3.635   2.138  0.8935  3.0665 -2.5242
 1887SOL    HW217124   1.039   3.624   2.101  0.0679  0.7074 -0.5461
 1888SOL     OW17125   1.810   2.174   7.691  0.0754 -0.0843 -0.1870
 1888SOL    HW117126   1.742   2.107   7.682  0.9558 -1.1881  1.3173
 1888SOL    HW217127   1.822   2.176   7.786  0.7445 -1.3411 -0.2414
 1889SOL     OW17128   2.567   4.691  14.824  0.6959 -0.0069  0.7503
 1889SOL    HW117129   2.517   4.612  14.807  1.5697 -0.3359 -0.3192
 1889SOL    HW217130   2.635   4.660  14.883  0.4618 -0.2995  0.8632
 1890SOL     OW17131   1.411   2.074   1.999 -0.5362 -0.1210  0.1063
 1890SOL    HW117132   1.445   2.025   2.073  0.1672 -1.9236 -1.4081
 1890SOL    HW217133   1.323   2.103   2.022 -0.9809 -1.6078  0.2204
 1891SOL     OW17134   2.172   4.581   9.051 -0.3173  0.2971 -0.4199
 1891SOL    HW117135   2.144   4.509   9.108  0.4382 -0.4373 -0.9749
 1891SOL    HW217136   2.165   4.532   8.969 -2.2692  0.6977 -0.5032
 1892SOL     OW17137   1.516   2.118   6.419 -0.0873  0.1409 -0.1360
 1892SOL    HW117138   1.553   2.170   6.490  2.4673 -2.2457  0.2752
 1892SOL    HW217139   1.595   2.092   6.372  0.3509  0.7763  0.2511
 1893SOL     OW17140   1.604   3.809  14.162 -0.6425 -0.3513  0.0871
 1893SOL    HW117141   1.628   3.766  14.244 -1.6132 -0.1429  0.4812
 1893SOL    HW217142   1.574   3.890  14.205  3.2801  1.3953 -0.4993
 1894SOL     OW17143   4.143   2.472   9.307  0.5787  0.7051  0.3428
 1894SOL    HW117144   4.226   2.454   9.350 -1.2003 -2.5050  2.4922
 1894SOL    HW217145   4.160   2.481   9.213 -0.0332  0.1883  0.1804
 1895SOL     OW17146   2.307   1.450   0.481 -0.1699 -0.1698  0.0140
 1895SOL    HW117147   2.230   1.478   0.531  1.3863  2.6501  0.8468
 1895SOL    HW217148   2.375   1.465   0.546 -0.9079  0.9344  0.5295
 1896SOL     OW17149   2.220   4.020  11.794  0.3177 -0.3011 -0.2733
 1896SOL    HW117150   2.142   3.996  11.844  0.9784  0.5464  1.1529
 1896SOL    HW217151   2.180   4.013  11.707 -0.6626  0.8186  0.0851
 1897SOL     OW17152   1.917   0.561   2.808 -0.3197 -0.0345 -0.2573
 1897SOL    HW117153   1.869   0.608   2.876 -0.2073 -0.4208  0.0904
 1897SOL    HW217154   1.981   0.622   2.771 -1.2234  1.8529  1.2812
 1898SOL     OW17155   2.298   1.253   5.495  0.4836 -0.4933 -0.3609
 1898SOL    HW117156   2.387   1.216   5.488  0.2202 -1.3635  0.7554
 1898SOL    HW217157   2.320   1.339   5.531  4.8419 -0.8665 -2.1220
 1899SOL     OW17158   0.912   3.048   3.325  0.1774 -0.2115 -0.4617
 1899SOL    HW117159   0.989   3.021   3.374 -0.4039 -2.1677 -0.6161
 1899SOL    HW217160   0.882   2.962   3.295 -1.1868  0.4019 -0.8466
 1900SOL     OW17161   1.739   2.212   0.526  0.3047 -0.3657  0.4962
 1900SOL    HW117162   1.657   2.255   0.545  1.4027  1.7342  0.4246
 1900SOL    HW217163   1.745   2.214   0.431  0.2785 -1.4733  0.4674
 1901SOL     OW17164   1.027   3.040   7.742  0.0356  0.1469  0.3952
 1901SOL    HW117165   1.009   3.120   7.792 -0.8298  0.3466 -0.2316
 1901SOL    HW217166   0.950   2.990   7.770  0.0750  1.7978  3.4745
 1902SOL     OW17167   0.024   0.632   3.216 -0.6100 -0.5395  0.1612
 1902SOL    HW117168   0.053   0.697   3.280  0.8329 -1.2339  0.2037
 1902SOL    HW217169   4.656   0.603   3.247 -1.5799  0.8987 -1.1963
 1903SOL     OW17170   2.365   3.940   3.771  0.1678  0.5446 -0.4231
 1903SOL    HW117171   2.452   3.953   3.735 -0.0826  1.3103 -0.7440
 1903SOL    HW217172   2.374   3.851   3.806 -1.0380  1.6218  2.6672
 1904SOL     OW17173   2.464   1.405  16.075  0.4195  0.0112 -0.0937
 1904SOL    HW117174   2.541   1.396  16.020  0.3785 -0.0995 -0.1332
 1904SOL    HW217175   2.419   1.481  16.040 -0.4843 -1.0321 -1.2079
 1905SOL     OW17176   1.428   2.493  16.960 -0.0319 -0.1324  0.2060
 1905SOL    HW117177   1.445   2.414  16.909 -0.1085  0.4851 -0.7794
 1905SOL    HW217178   1.425   2.438  17.039  0.8902 -0.2831  0.1343
 1906SOL     OW17179   1.078   0.815   5.817  0.0830 -0.2013 -0.4431
 1906SOL    HW117180   1.066   0.909   5.830  0.3602  0.0895 -2.2697
 1906SOL    HW217181   1.159   0.812   5.767  0.8324 -0.3840  0.7854
 1907SOL     OW17182   2.758   2.422   5.317 -0.0559  0.0665 -0.0684
 1907SOL    HW117183   2.794   2.484   5.254 -1.7915  0.7676 -0.3527
 1907SOL    HW217184   2.771   2.340   5.268  2.1487 -0.3552  1.1873
 1908SOL     OW17185   2.823   1.396   7.418  0.2686  0.0731  0.3047
 1908SOL    HW117186   2.853   1.482   7.389  0.7268  0.3658  1.6179
 1908SOL    HW217187   2.872   1.332   7.368 -1.8463 -1.4728  0.2040
 1909SOL     OW17188   3.516   0.116  12.452  0.0148  0.0027  0.1009
 1909SOL    HW117189   3.595   0.103  12.400  0.4291  3.8923 -0.2880
 1909SOL    HW217190   3.507   0.212  12.448 -2.5594 -0.2358  0.3085
 1910SOL     OW17191   3.851   0.270   2.395  0.1341  0.3543 -0.1631
 1910SOL    HW117192   3.943   0.254   2.417 -0.0618  0.3085  0.6169
 1910SOL    HW217193   3.817   0.229   2.475  2.3944 -1.7663 -0.2907
 1911SOL     OW17194   4.107   0.857   2.266  0.9900  0.1652  0.5299
 1911SOL    HW117195   4.072   0.946   2.272 -1.1413 -0.5251 -1.4617
 1911SOL    HW217196   4.192   0.867   2.309  0.8541  0.7716  0.6554
 1912SOL     OW17197   1.166   4.345   2.312  0.2146  0.5200 -0.7554
 1912SOL    HW117198   1.072   4.363   2.311  0.2121  0.5148 -0.1675
 1912SOL    HW217199   1.181   4.385   2.397  1.2308 -2.5537  0.5156
 1913SOL     OW17200   2.431   2.460   3.303 -0.2708  0.3084  0.0354
 1913SOL    HW117201   2.396   2.537   3.348 -1.1878 -0.0086 -0.1339
 1913SOL    HW217202   2.505   2.500   3.255  2.2353 -2.9943  1.1859
 1914SOL     OW17203   0.567   1.976   1.476  0.1601  0.0130  0.6038
 1914SOL    HW117204   0.609   2.056   1.507 -0.0390 -0.4034  1.9519
 1914SOL    HW217205   0.486   1.976   1.527  0.2659  0.8861  0.7673
 1915SOL     OW17206   2.891   4.061  10.604 -0.2597 -0.0885 -0.6124
 1915SOL    HW117207   2.944   4.042  10.526 -0.6292 -1.6271 -0.4913
 1915SOL    HW217208   2.807   4.030  10.570 -0.6627 -1.4638  1.6197
 1916SOL     OW17209   0.473   2.731   6.799  0.1209 -0.4399 -0.7862
 1916SOL    HW117210   0.482   2.727   6.894  0.0131 -1.2019 -0.8082
 1916SOL    HW217211   0.451   2.823   6.785  0.6860 -0.0930  0.5525
 1917SOL     OW17212   1.879   2.755   5.503  0.6563 -0.1594 -0.1326
 1917SOL    HW117213   1.824   2.831   5.484 -0.0773 -0.7578 -0.4258
 1917SOL    HW217214   1.964   2.789   5.476  0.0004  1.6560  0.0784
 1918SOL     OW17215   4.180   1.247   8.503 -0.2176  0.2834 -0.0173
 1918SOL    HW117216   4.100   1.243   8.556 -0.3421  0.6680 -0.1739
 1918SOL    HW217217   4.235   1.309   8.549  0.0421  1.7959 -2.4073
 1919SOL     OW17218   3.542   3.471   6.963 -0.7310  0.7119  0.3998
 1919SOL    HW117219   3.629   3.497   6.933 -0.4525 -0.0535  0.5296
 1919SOL    HW217220   3.529   3.383   6.928  1.0157  0.0268  1.4315
 1920SOL     OW17221   0.714   2.782   2.390 -0.2356 -0.2681 -0.2671
 1920SOL    HW117222   0.802   2.778   2.353  0.6705 -0.8314  1.9853
 1920SOL    HW217223   0.690   2.867   2.353 -1.2656 -0.6787 -0.5382
 1921SOL     OW17224   0.978   3.710   1.412  0.2288 -0.1856 -0.9044
 1921SOL    HW117225   0.935   3.651   1.350  0.2967 -1.1874  0.0192
 1921SOL    HW217226   0.914   3.719   1.482 -1.1762 -0.2820 -2.1780
 1922SOL     OW17227   0.285   1.740   1.623 -0.2127  0.3131 -0.1291
 1922SOL    HW117228   0.345   1.687   1.674 -0.0665  0.0499 -0.5721
 1922SOL    HW217229   0.299   1.710   1.533 -1.1314 -0.2870 -0.0734
 1923SOL     OW17230   3.639   3.407  10.026 -0.2654  0.0703 -0.2616
 1923SOL    HW117231   3.709   3.405  10.091  0.2026 -2.0098 -0.8292
 1923SOL    HW217232   3.696   3.392   9.951 -0.4067 -2.7094  0.1904
 1924SOL     OW17233   3.562   1.982   6.568  0.4551  0.2803  0.9595
 1924SOL    HW117234   3.529   1.898   6.536  0.0351  0.8761 -0.1963
 1924SOL    HW217235   3.602   1.956   6.651  1.5705  2.5948  1.1523
 1925SOL     OW17236   1.717   4.656   1.900  0.1736 -0.0487  0.2274
 1925SOL    HW117237   1.804   4.641   1.863 -1.0751  0.9291 -3.0940
 1925SOL    HW217238   1.744   0.027   1.921  2.1390 -0.2753 -1.3866
 1926SOL     OW17239   1.863   4.638   6.751  0.3235 -0.7018  0.3898
 1926SOL    HW117240   1.787   4.675   6.707  1.7864  3.7504  1.5767
 1926SOL    HW217241   1.867   4.550   6.713 -1.9136 -0.7389  0.2361
 1927SOL     OW17242   2.837   3.446   6.402  0.2195  0.3072  0.4506
 1927SOL    HW117243   2.894   3.501   6.456 -2.1160  0.6507  2.5464
 1927SOL    HW217244   2.836   3.367   6.455  0.0616 -1.3495 -2.0551
 1928SOL     OW17245   4.705   2.838  11.309 -0.4320 -0.2258  0.3738
 1928SOL    HW117246   4.626   2.868  11.265 -0.8115  1.7504  2.4114
 1928SOL    HW217247   4.663   2.786  11.377 -2.8125 -0.4044 -1.2216
 1929SOL     OW17248   1.210   1.508   7.283 -0.1538 -0.5924 -0.0745
 1929SOL    HW117249   1.152   1.572   7.324 -2.0660 -2.4963  0.1744
 1929SOL    HW217250   1.259   1.576   7.235 -1.4662  0.3478 -0.0677
 1930SOL     OW17251   0.284   2.758   5.228 -0.1060  0.0966  0.0290
 1930SOL    HW117252   0.297   2.710   5.146  2.2648  1.0501 -0.1666
 1930SOL    HW217253   0.330   2.841   5.221  0.1830 -0.0386  0.3537
 1931SOL     OW17254   4.511   4.140  10.043  0.7649  0.2098  0.3379
 1931SOL    HW117255   4.520   4.227  10.080 -2.8386 -0.4292  2.7313
 1931SOL    HW217256   4.419   4.129  10.021  0.3384  2.3080  1.1699
 1932SOL     OW17257   3.389   0.987  15.019 -0.3849 -0.1443 -0.6212
 1932SOL    HW117258   3.447   0.985  14.943 -1.7655 -1.6198 -1.6301
 1932SOL    HW217259   3.378   0.893  15.027  0.5635 -0.3468 -1.7429
 1933SOL     OW17260   0.075   4.054  15.894 -0.1995  0.1828  0.0406
 1933SOL    HW117261   0.085   4.099  15.810 -0.4158  4.1209  2.1453
 1933SOL    HW217262   0.163   4.070  15.928  0.3219  1.6092 -1.9169
 1934SOL     OW17263   2.233   0.393  16.127 -0.6511 -0.2970 -0.2730
 1934SOL    HW117264   2.173   0.323  16.153 -1.0652 -0.1022 -0.7042
 1934SOL    HW217265   2.253   0.437  16.210 -2.1221 -0.1441 -0.0018
 1935SOL     OW17266   2.619   0.209   0.153 -0.0441 -0.3745  1.2880
 1935SOL    HW117267   2.599   0.130   0.203  1.7335  0.0464  2.6436
 1935SOL    HW217268   2.541   0.265   0.163  0.9135  0.9536  1.2936
 1936SOL     OW17269   0.305   4.691   5.627 -0.2894  0.9147 -0.1757
 1936SOL    HW117270   0.233   4.631   5.609  0.3219 -0.3088  1.3539
 1936SOL    HW217271   0.375   4.652   5.574  1.3583  2.4689  0.8453
 1937SOL     OW17272   2.915   1.341   0.508  0.4906  0.6619 -0.4865
 1937SOL    HW117273   2.852   1.358   0.439 -0.1055 -0.2526 -0.1725
 1937SOL    HW217274   2.876   1.260   0.541 -0.9261  1.2895 -0.6285
 1938SOL     OW17275   2.906   4.137  10.234  0.1142 -0.8182 -0.1577
 1938SOL    HW117276   2.948   4.180  10.308 -0.7932  0.8174 -0.6081
 1938SOL    HW217277   2.834   4.198  10.215 -1.1139 -1.8960  1.0263
 1939SOL     OW17278   1.663   2.822   7.699 -0.2607 -0.0958 -0.1067
 1939SOL    HW117279   1.715   2.837   7.778  0.1950 -3.1668  0.1643
 1939SOL    HW217280   1.580   2.851   7.735  0.3311  2.2420 -0.6526
 1940SOL     OW17281   3.006   1.211   7.021 -0.2967 -0.4907 -0.1761
 1940SOL    HW117282   3.091   1.218   6.979 -1.4924 -0.8661 -2.6558
 1940SOL    HW217283   3.001   1.118   7.043  1.3636 -0.2417  1.2205
 1941SOL     OW17284   2.259   0.182   7.894 -0.1702  0.6202  0.5277
 1941SOL    HW117285   2.293   0.093   7.904  2.5545  1.7335  1.1262
 1941SOL    HW217286   2.332   0.243   7.903  0.0719  0.1812  1.4505
 1942SOL     OW17287   3.100   1.004  13.939  0.0529  0.1493 -0.3148
 1942SOL    HW117288   3.086   1.029  14.030 -1.4503  3.7183 -1.5356
 1942SOL    HW217289   3.022   0.949  13.925 -0.6305  1.3444 -1.2137
 1943SOL     OW17290   1.039   1.530   3.032  0.0569 -0.3247 -0.1044
 1943SOL    HW117291   1.107   1.477   2.991  0.8724  0.5614  0.0932
 1943SOL    HW217292   1.097   1.601   3.059 -2.8382  1.9172  0.3214
 1944SOL     OW17293   3.907   4.273   2.003 -0.2907  0.4684  0.4400
 1944SOL    HW117294   3.874   4.350   1.958 -1.0866  1.1176  2.1516
 1944SOL    HW217295   3.961   4.314   2.071  0.4709  0.3778 -0.1063
 1945SOL     OW17296   3.756   0.263   6.769  0.2647  0.1388  0.7364
 1945SOL    HW117297   3.783   0.171   6.767  2.1265  0.6632  1.3011
 1945SOL    HW217298   3.811   0.294   6.697 -2.3640 -0.7489 -1.6600
 1946SOL     OW17299   3.406   1.884   2.866  0.3036 -0.6010 -0.2279
 1946SOL    HW117300   3.500   1.899   2.861  0.4304 -1.1934  0.4585
 1946SOL    HW217301   3.373   1.935   2.791  0.2938  0.6910  0.6587
 1947SOL     OW17302   1.361   2.459  11.426  0.2971 -0.3321 -0.1785
 1947SOL    HW117303   1.309   2.536  11.451  0.1698 -0.2425 -0.7263
 1947SOL    HW217304   1.324   2.403  11.494  2.4844 -3.6615 -1.7673
 1948SOL     OW17305   1.258   3.673   6.680 -0.4786 -0.2680  0.5729
 1948SOL    HW117306   1.299   3.595   6.644  2.5764  1.2492  0.7516
 1948SOL    HW217307   1.194   3.690   6.611  1.0335  0.1773 -0.7185
 1949SOL     OW17308   1.146   2.888   0.043 -0.1974  0.1014 -0.1402
 1949SOL    HW117309   1.096   2.937   0.108  0.8534  1.9055 -0.6878
 1949SOL    HW217310   1.225   2.942   0.037 -2.1365  2.9922  0.3176
 1950SOL     OW17311   1.851   0.491   3.949 -0.0241  0.2863  0.5127
 1950SOL    HW117312   1.866   0.502   4.043 -1.6017  1.7350  0.6102
 1950SOL    HW217313   1.933   0.447   3.927 -0.0269 -0.7000  2.5030
 1951SOL     OW17314   1.928   3.084  11.214 -0.3936  0.2925 -0.2651
 1951SOL    HW117315   1.927   2.992  11.239  0.2432  0.6803  1.2122
 1951SOL    HW217316   1.852   3.093  11.157 -1.4593 -1.7584  0.8292
 1952SOL     OW17317   2.057   4.560   1.333  0.2425 -0.4803  0.3272
 1952SOL    HW117318   2.058   4.466   1.351 -0.6500 -0.5037  0.2650
 1952SOL    HW217319   1.988   4.592   1.392  0.6538 -0.1331  0.6263
 1953SOL     OW17320   4.536   0.834   5.720 -0.0583 -0.7030 -0.4918
 1953SOL    HW117321   4.621   0.793   5.709  0.3076  0.2575 -1.3031
 1953SOL    HW217322   4.554   0.909   5.662 -0.3863  1.8119  2.6890
 1954SOL     OW17323   1.632   3.626  12.084  0.0450  0.0583  0.3881
 1954SOL    HW117324   1.580   3.703  12.061 -2.4276 -2.7236 -3.2045
 1954SOL    HW217325   1.572   3.584  12.146 -0.9338 -0.3229 -0.8328
 1955SOL     OW17326   3.655   0.194   4.352  0.5160 -0.6713  0.0276
 1955SOL    HW117327   3.569   0.166   4.384 -0.0038 -0.6718 -1.3651
 1955SOL    HW217328   3.700   0.113   4.376  0.7675 -0.9353 -1.3150
 1956SOL     OW17329   2.158   1.442  16.405  0.2398 -0.6714 -0.0581
 1956SOL    HW117330   2.090   1.500  16.372  0.8338 -0.1386 -0.3352
 1956SOL    HW217331   2.110   1.366  16.439  0.0464 -0.6742 -0.3311
 1957SOL     OW17332   3.982   1.088   7.890 -0.2565 -0.0874  0.2422
 1957SOL    HW117333   4.046   1.026   7.925 -0.8078 -1.6306 -1.4992
 1957SOL    HW217334   3.918   1.087   7.961  1.0351 -0.7796  1.4056
 1958SOL     OW17335   4.387   2.047   9.656 -0.1406  0.6378 -0.2100
 1958SOL    HW117336   4.407   2.036   9.563  0.4347  0.2083 -0.0340
 1958SOL    HW217337   4.440   2.122   9.683 -0.0360  0.8114 -0.9191
 1959SOL     OW17338   0.908   0.169   2.336 -0.5337  0.6626  0.1852
 1959SOL    HW117339   0.900   0.239   2.400 -2.2486  1.7402 -1.1791
 1959SOL    HW217340   0.961   0.104   2.382 -0.3951 -0.0136 -0.9266
 1960SOL     OW17341   4.331   3.845   6.322  0.1142  0.5171  0.1666
 1960SOL    HW117342   4.295   3.761   6.352  0.2996  0.3203 -0.1672
 1960SOL    HW217343   4.262   3.905   6.348 -0.1041  1.3588 -2.3604
 1961SOL     OW17344   2.139   2.833  15.609  0.1673 -0.1816  0.2188
 1961SOL    HW117345   2.114   2.793  15.526  1.4427  1.6733 -1.0623
 1961SOL    HW217346   2.216   2.782  15.634 -0.8228 -2.1823 -0.8970
 1962SOL     OW17347   2.522   4.390   1.814 -0.1061 -0.3079  0.1254
 1962SOL    HW117348   2.458   4.451   1.851  1.5725  1.9502 -0.6487
 1962SOL    HW217349   2.463   4.334   1.764  4.0635 -3.4602 -1.2946
 1963SOL     OW17350   1.911   1.748   6.291 -0.0696 -0.3046 -0.7562
 1963SOL    HW117351   1.823   1.774   6.266  0.0898  0.1809 -0.8142
 1963SOL    HW217352   1.917   1.757   6.386  1.5110 -3.3173 -0.5542
 1964SOL     OW17353   1.993   2.421   3.625 -0.2770  0.1133 -0.4482
 1964SOL    HW117354   1.903   2.400   3.649 -0.1085  0.9093  0.8652
 1964SOL    HW217355   1.973   2.499   3.571  1.3383  1.2526  0.6057
 1965SOL     OW17356   3.235   1.698  13.884 -0.4544  0.3678 -0.3537
 1965SOL    HW117357   3.237   1.793  13.874  2.0480  0.3402 -0.0060
 1965SOL    HW217358   3.170   1.681  13.816  1.1034 -1.9568 -1.2391
 1966SOL     OW17359   1.619   1.776   6.230 -0.4013 -0.2856 -0.1349
 1966SOL    HW117360   1.605   1.778   6.136 -0.9559 -1.8740 -0.0773
 1966SOL    HW217361   1.623   1.872   6.230 -0.5799 -0.2882 -2.4087
 1967SOL     OW17362   2.741   1.911   2.546  0.3583 -0.2244 -0.1029
 1967SOL    HW117363   2.716   1.914   2.639  0.4162  4.4461 -0.2220
 1967SOL    HW217364   2.655   1.923   2.508  0.6516 -2.1231 -1.3527
 1968SOL     OW17365   0.590   4.299  15.051 -0.2734 -0.6432 -0.0858
 1968SOL    HW117366   0.584   4.366  14.983 -0.2369 -0.7071 -0.1515
 1968SOL    HW217367   0.599   4.357  15.127 -2.3723 -0.1824 -0.1656
 1969SOL     OW17368   4.306   0.878   6.879  0.0718 -0.1733 -0.1418
 1969SOL    HW117369   4.249   0.864   6.803 -1.4935  1.0447  0.8085
 1969SOL    HW217370   4.310   0.785   6.900  0.3335  0.0552  0.8099
 1970SOL     OW17371   1.769   0.727   5.953 -0.2088 -1.0678 -0.0956
 1970SOL    HW117372   1.801   0.641   5.926 -0.4090 -1.5504  1.2440
 1970SOL    HW217373   1.692   0.732   5.896 -1.1107  0.2854  1.2698
 1971SOL     OW17374   3.516   3.508   3.620  0.6234 -0.1111 -0.0029
 1971SOL    HW117375   3.424   3.483   3.632  1.1721 -1.2977  1.8046
 1971SOL    HW217376   3.557   3.424   3.601  0.3885 -0.5483  1.3916
 1972SOL     OW17377   2.999   3.194   4.495 -0.0370 -0.0912  0.3599
 1972SOL    HW117378   2.960   3.254   4.430 -0.2940  1.4677  1.9558
 1972SOL    HW217379   2.963   3.108   4.474 -2.5729  0.7498  1.2377
 1973SOL     OW17380   0.641   0.938  15.252 -0.2553 -0.1644  0.5018
 1973SOL    HW117381   0.608   0.860  15.209  1.2674 -0.8942  0.6617
 1973SOL    HW217382   0.667   0.989  15.175  2.4074 -1.7251  0.3792
 1974SOL     OW17383   1.002   1.709  13.367  0.3782  0.4638  0.3604
 1974SOL    HW117384   1.054   1.630  13.355 -0.6892 -0.0102 -1.0858
 1974SOL    HW217385   1.025   1.735  13.456  0.6191 -0.0629  0.4533
 1975SOL     OW17386   2.880   4.452   2.548  0.0160 -0.2503 -0.0319
 1975SOL    HW117387   2.844   4.403   2.622  0.9453 -0.9544 -0.0565
 1975SOL    HW217388   2.824   4.420   2.477 -1.9953  0.0786  1.4153
 1976SOL     OW17389   3.218   4.121   6.019 -0.3248  0.6554  0.3827
 1976SOL    HW117390   3.210   4.111   5.924 -0.7498 -1.1616  0.6012
 1976SOL    HW217391   3.311   4.104   6.036  0.4354  2.2209 -2.3731
 1977SOL     OW17392   3.864   1.333   5.943 -0.1114 -0.5823  0.1780
 1977SOL    HW117393   3.850   1.351   5.849  2.3299  0.9026  0.1149
 1977SOL    HW217394   3.784   1.284   5.965  0.0118 -0.2051  1.4245
 1978SOL     OW17395   0.497   4.172  14.601 -0.3746  0.3396  0.1928
 1978SOL    HW117396   0.544   4.240  14.647  0.9508 -0.7601  0.4626
 1978SOL    HW217397   0.452   4.123  14.670  0.6418  2.5850  2.4161
 1979SOL     OW17398   1.438   0.020  14.286 -0.3163 -0.4537 -1.0439
 1979SOL    HW117399   1.533   0.025  14.274 -0.0348  0.2599  1.5379
 1979SOL    HW217400   1.420   0.100  14.335 -2.3272 -1.9490  0.6888
 1980SOL     OW17401   3.136   3.413   8.382  0.2817  0.0561 -0.6202
 1980SOL    HW117402   3.220   3.458   8.391  1.7341 -2.7735  0.1201
 1980SOL    HW217403   3.174   3.329   8.356  1.1008  0.2470 -0.0387
 1981SOL     OW17404   2.213   2.338  11.470 -0.0503  0.1133  0.1164
 1981SOL    HW117405   2.196   2.431  11.485 -0.8049 -0.4636  2.7053
 1981SOL    HW217406   2.180   2.341  11.380 -0.8375 -1.3887  0.3703
 1982SOL     OW17407   0.914   0.957   9.159  0.1421  0.3838  0.2815
 1982SOL    HW117408   0.935   0.997   9.243  1.5896  3.1254 -1.3988
 1982SOL    HW217409   0.988   0.895   9.157  2.1943  2.8484  0.4493
 1983SOL     OW17410   3.189   3.334   6.530  0.6885  0.6064 -0.4402
 1983SOL    HW117411   3.266   3.361   6.580 -0.3373 -1.3062  2.1666
 1983SOL    HW217412   3.129   3.323   6.604  4.1532  0.5041  2.3645
 1984SOL     OW17413   1.004   2.694   4.073  0.0324  0.1294  0.5571
 1984SOL    HW117414   0.910   2.679   4.071  0.3984 -2.0435 -0.1762
 1984SOL    HW217415   1.020   2.663   4.162 -0.6375 -1.6512  0.0615
 1985SOL     OW17416   1.189   3.010   5.077  0.1304 -0.1359  0.5005
 1985SOL    HW117417   1.109   3.055   5.106  1.3123  0.5695  2.6222
 1985SOL    HW217418   1.171   2.923   5.112  0.9305 -0.7814 -0.7022
 1986SOL     OW17419   2.406   3.765  10.705 -0.5597  0.2778 -0.0463
 1986SOL    HW117420   2.349   3.714  10.649  0.9516  1.6476 -2.8300
 1986SOL    HW217421   2.487   3.719  10.682 -0.5644 -0.2996  1.0940
 1987SOL     OW17422   3.745   2.609   8.472  0.3869  0.4627 -0.2123
 1987SOL    HW117423   3.669   2.629   8.526  1.4614 -0.2832  1.6011
 1987SOL    HW217424   3.708   2.530   8.434  0.5478  0.7315 -0.9296
 1988SOL     OW17425   2.820   1.999  16.975 -0.3333 -0.5309  0.0923
 1988SOL    HW117426   2.841   2.067  16.911  0.2372  1.7070  2.6705
 1988SOL    HW217427   2.765   2.040  17.041  2.4163  1.2589  1.2822
 1989SOL     OW17428   3.300   1.073   8.440  0.2381  0.3605 -0.0369
 1989SOL    HW117429   3.339   1.049   8.524 -0.4416 -0.1802  0.1188
 1989SOL    HW217430   3.233   1.133   8.474 -1.6908  0.3052 -3.7683
 1990SOL     OW17431   4.399   4.561  12.002 -0.1085  0.1046 -0.2343
 1990SOL    HW117432   4.333   4.554  12.071 -1.8713  0.2622 -1.9021
 1990SOL    HW217433   4.475   4.570  12.060 -1.4605 -1.2932  1.7796
 1991SOL     OW17434   2.144   2.820   6.541  0.0931  0.7331 -0.3802
 1991SOL    HW117435   2.208   2.754   6.516 -1.5164 -2.2736  3.5417
 1991SOL    HW217436   2.068   2.763   6.551 -0.1959  1.1578 -0.1112
 1992SOL     OW17437   0.487   3.498   1.378 -0.5545  0.1461 -0.0411
 1992SOL    HW117438   0.473   3.444   1.301  0.5647  1.5457 -1.2091
 1992SOL    HW217439   0.429   3.572   1.363 -0.5811  0.5851  2.1113
 1993SOL     OW17440   3.398   4.378   2.941  0.0413 -0.2685  0.4513
 1993SOL    HW117441   3.465   4.427   2.988  0.1950 -1.8691  1.8891
 1993SOL    HW217442   3.459   4.343   2.876 -1.5024 -1.0129 -0.6025
 1994SOL     OW17443   4.398   3.339  11.834  0.7201  0.7205 -0.2615
 1994SOL    HW117444   4.370   3.402  11.900  1.5518 -0.9820  1.6720
 1994SOL    HW217445   4.493   3.345  11.826  0.9506  0.6433  2.5872
 1995SOL     OW17446   2.231   4.356   1.449  0.9273  0.0478  0.0357
 1995SOL    HW117447   2.289   4.291   1.490  0.2708 -1.2998 -1.1716
 1995SOL    HW217448   2.273   4.359   1.363  1.0492  0.3150  0.1048
 1996SOL     OW17449   2.869   3.613  15.650 -0.2373  0.3478 -0.0080
 1996SOL    HW117450   2.845   3.643  15.738  3.1158  1.3265  0.5722
 1996SOL    HW217451   2.961   3.638  15.655  0.4738 -2.0670 -0.8636
 1997SOL     OW17452   1.362   1.452  16.270  0.1330  0.1280 -0.3153
 1997SOL    HW117453   1.314   1.528  16.303  0.1615 -0.5021  1.1738
 1997SOL    HW217454   1.292   1.387  16.283 -0.3703  0.7949  0.2791
 1998SOL     OW17455   4.127   4.106   2.360 -0.1413 -0.0689  0.1154
 1998SOL    HW117456   4.062   4.116   2.430  1.3411  0.9240  1.3463
 1998SOL    HW217457   4.068   4.088   2.286 -1.2726 -1.5572  1.3769
 1999SOL     OW17458   1.169   3.876   9.465 -0.2496  0.4396  0.1902
 1999SOL    HW117459   1.098   3.814   9.479  1.0399 -0.3380  3.2589
 1999SOL    HW217460   1.152   3.924   9.384  1.8651  0.4955 -0.2148
 2000SOL     OW17461   0.499   2.170   7.764  0.4163 -0.3368  0.2371
 2000SOL    HW117462   0.435   2.237   7.788  0.4192 -1.0791  2.3185
 2000SOL    HW217463   0.442   2.097   7.787 -0.2874 -0.1442 -0.8284
 2001SOL     OW17464   3.581   4.128   8.697 -0.0247  0.3095 -0.3285
 2001SOL    HW117465   3.612   4.191   8.632  1.4022 -1.5045 -1.4023
 2001SOL    HW217466   3.492   4.161   8.712  0.1695  1.8223 -2.5461
 2002SOL     OW17467   1.776   1.780  14.828 -0.0672 -0.2813  0.1417
 2002SOL    HW117468   1.853   1.726  14.812 -0.2537 -0.2417 -0.8482
 2002SOL    HW217469   1.811   1.869  14.823 -0.8873  0.0534  0.2479
 2003SOL     OW17470   3.454   2.334   2.830  0.3027  0.0940 -0.0569
 2003SOL    HW117471   3.489   2.259   2.783 -0.1049  1.6483 -2.8318
 2003SOL    HW217472   3.407   2.383   2.762  0.4498  2.4160  1.5021
 2004SOL     OW17473   0.082   4.039   6.764 -0.2051 -0.4652 -0.2202
 2004SOL    HW117474   0.036   3.966   6.805  1.3835 -0.9674  0.7097
 2004SOL    HW217475   0.015   4.084   6.714  0.5531  0.4400 -0.4281
 2005SOL     OW17476   3.082   1.126   6.645 -0.2965 -0.2076  0.2317
 2005SOL    HW117477   3.061   1.101   6.555  1.4058 -0.0745 -0.2031
 2005SOL    HW217478   3.061   1.220   6.642 -1.2145 -0.4659 -1.2344
 2006SOL     OW17479   0.207   2.457   4.280  0.0201  0.0332 -0.4250
 2006SOL    HW117480   0.254   2.522   4.228  1.0167  0.1489  0.5930
 2006SOL    HW217481   0.251   2.376   4.254 -0.4826 -0.0135 -1.1218
 2007SOL     OW17482   4.439   2.325  13.274 -0.4584 -0.0242 -0.2622
 2007SOL    HW117483   4.447   2.385  13.199 -0.8981 -0.5600 -0.7391
 2007SOL    HW217484   4.486   2.379  13.338 -1.3076 -0.1991  0.5050
 2008SOL     OW17485   3.164   2.630  17.035 -0.3750 -0.2484 -0.3450
 2008SOL    HW117486   3.154   2.646  16.941  0.0758 -2.9934 -0.8872
 2008SOL    HW217487   3.099   2.561  17.050  0.2916 -0.8737 -0.2995
 2009SOL     OW17488   4.198   0.744   6.253  0.1573 -0.3992  0.0721
 2009SOL    HW117489   4.118   0.796   6.236  2.2491  2.1685 -1.9336
 2009SOL    HW217490   4.188   0.671   6.192 -0.6045  2.3586 -3.1022
 2010SOL     OW17491   3.550   0.372   3.250  0.4767 -0.6382  0.3048
 2010SOL    HW117492   3.587   0.284   3.245 -2.2392 -1.6514 -1.7285
 2010SOL    HW217493   3.514   0.385   3.163  1.7000  1.0297  0.0475
 2011SOL     OW17494   2.911   1.474  13.845  1.1279 -0.0057 -0.3529
 2011SOL    HW117495   2.956   1.546  13.801 -0.4180 -0.5195 -2.8187
 2011SOL    HW217496   2.968   1.399  13.827 -0.9306 -1.3374 -1.3697
 2012SOL     OW17497   4.534   1.846   7.359  0.1938  0.4668 -0.2396
 2012SOL    HW117498   4.458   1.892   7.324  0.6768 -0.1931 -2.1375
 2012SOL    HW217499   4.499   1.824   7.446 -0.3801  0.0267 -0.5843
 2013SOL     OW17500   0.076   0.128   4.447  0.0370 -0.1105  0.4175
 2013SOL    HW117501   0.006   0.110   4.509 -1.9779  0.4048 -1.7362
 2013SOL    HW217502   0.080   0.046   4.398 -1.3281  0.1900 -0.1763
 2014SOL     OW17503   4.034   1.398   5.124  0.6809 -0.4948 -0.3173
 2014SOL    HW117504   3.964   1.399   5.057 -1.0987 -1.1958  1.5323
 2014SOL    HW217505   4.044   1.302   5.120 -0.4560 -0.6338 -0.0628
 2015SOL     OW17506   4.371   1.784   8.537  0.5589  0.2473 -0.2722
 2015SOL    HW117507   4.398   1.870   8.570  0.6986  1.0246 -2.3874
 2015SOL    HW217508   4.358   1.733   8.617 -2.8937 -0.0912 -1.0130
 2016SOL     OW17509   4.428   2.060  11.457  0.0437  0.1387 -0.4249
 2016SOL    HW117510   4.465   2.044  11.544 -0.0767  2.1525 -0.0087
 2016SOL    HW217511   4.453   2.146  11.425 -1.1058  0.9813  0.9486
 2017SOL     OW17512   1.303   1.932  13.729  0.1337 -0.1191 -0.3638
 2017SOL    HW117513   1.348   1.877  13.793 -0.7167  0.2423  0.5338
 2017SOL    HW217514   1.228   1.967  13.777 -1.5566 -1.6072 -1.9037
 2018SOL     OW17515   3.932   1.496  16.521 -0.8908 -0.1263  0.1868
 2018SOL    HW117516   3.870   1.538  16.581 -1.8501 -2.1641  0.6481
 2018SOL    HW217517   4.014   1.506  16.568 -2.1970  0.1263  2.4183
 2019SOL     OW17518   1.816   1.793   2.593 -0.7457 -0.0359 -0.1335
 2019SOL    HW117519   1.762   1.868   2.566  0.3658  0.8550  0.1373
 2019SOL    HW217520   1.783   1.788   2.683  1.3035 -0.1734  0.6016
 2020SOL     OW17521   2.606   4.627   5.466 -0.0282 -0.4533 -0.5866
 2020SOL    HW117522   2.596   4.576   5.386  3.5579 -1.3156 -0.4793
 2020SOL    HW217523   2.634   4.554   5.522  0.0405  0.2519  0.2984
 2021SOL     OW17524   2.132   3.649  16.288  0.4378  0.2222 -0.4719
 2021SOL    HW117525   2.040   3.669  16.308  0.6997  0.7785  0.2079
 2021SOL    HW217526   2.129   3.557  16.263 -0.3402  0.1359 -0.0600
 2022SOL     OW17527   0.269   4.648   6.605 -0.6432  0.6045  0.5395
 2022SOL    HW117528   0.284   0.019   6.637  2.0414  0.2044  0.3858
 2022SOL    HW217529   0.279   4.602   6.688  2.1724 -4.4831 -2.6183
 2023SOL     OW17530   4.166   4.453   4.413 -0.2694 -0.5144 -0.3078
 2023SOL    HW117531   4.154   4.508   4.336 -0.2774  0.6492  0.5177
 2023SOL    HW217532   4.079   4.417   4.429 -0.7307  0.9738  0.5827
 2024SOL     OW17533   0.626   3.697   6.862  0.5503  0.4498  0.0589
 2024SOL    HW117534   0.670   3.769   6.907  1.2155 -1.0411  1.8153
 2024SOL    HW217535   0.701   3.638   6.852 -0.0229 -0.1246 -0.8273
 2025SOL     OW17536   3.805   1.265  16.952 -0.4757  0.3329 -0.1831
 2025SOL    HW117537   3.738   1.333  16.956 -1.0669 -0.0853 -3.0030
 2025SOL    HW217538   3.757   1.189  16.984 -1.5629  1.3117  0.5162
 2026SOL     OW17539   0.432   1.420   9.153  0.8575 -0.3138  0.5043
 2026SOL    HW117540   0.464   1.469   9.077  2.4642 -1.4074  0.4807
 2026SOL    HW217541   0.494   1.455   9.217  1.6538  0.0281 -0.4507
 2027SOL     OW17542   2.251   3.353  16.490 -0.2633 -0.3510  0.2623
 2027SOL    HW117543   2.204   3.348  16.406  0.3021  2.1303 -0.2211
 2027SOL    HW217544   2.335   3.312  16.469  0.2055 -0.2140  1.8616
 2028SOL     OW17545   0.462   1.799   5.904 -0.1894 -0.4309  0.5291
 2028SOL    HW117546   0.489   1.769   5.991 -0.0949 -3.2629 -0.4815
 2028SOL    HW217547   0.368   1.796   5.920 -0.4091 -1.7000 -0.9935
 2029SOL     OW17548   0.978   4.297  15.290  0.5465  0.2396 -0.1225
 2029SOL    HW117549   1.004   4.386  15.269 -2.7312  0.8502 -1.5195
 2029SOL    HW217550   1.058   4.258  15.325 -0.3051 -1.4459 -0.0603
 2030SOL     OW17551   4.362   2.868   1.130  0.5154  0.1128  0.2833
 2030SOL    HW117552   4.454   2.852   1.154  0.4517 -2.4486 -1.2127
 2030SOL    HW217553   4.332   2.924   1.201 -1.5020  0.7842 -1.1188
 2031SOL     OW17554   3.986   3.606   1.454 -0.1702 -0.4696  0.5338
 2031SOL    HW117555   3.902   3.595   1.411 -0.9689  2.2379  1.3939
 2031SOL    HW217556   4.018   3.520   1.479 -1.7707 -1.1284  0.2761
 2032SOL     OW17557   1.942   0.407   9.755 -0.0640  0.1584 -0.1344
 2032SOL    HW117558   1.995   0.421   9.676 -0.8555 -1.9718 -1.0580
 2032SOL    HW217559   1.989   0.462   9.818  0.6084  0.9299 -1.3006
 2033SOL     OW17560   4.069   4.017  16.844  0.5230  0.3152 -0.4964
 2033SOL    HW117561   4.139   4.082  16.842  1.1763 -0.4642 -2.2832
 2033SOL    HW217562   3.989   4.068  16.853 -0.1651 -0.0340 -4.5980
 2034SOL     OW17563   1.761   0.642   0.674  0.2012  0.4621 -0.4742
 2034SOL    HW117564   1.785   0.722   0.627  2.2843 -0.6885 -1.3593
 2034SOL    HW217565   1.844   0.594   0.679  0.8262  1.5745 -0.1171
 2035SOL     OW17566   4.188   1.284   6.604 -0.3284  0.4454 -0.0649
 2035SOL    HW117567   4.198   1.364   6.552  3.0768  0.7460  1.0277
 2035SOL    HW217568   4.153   1.216   6.547  0.5856  1.1927 -1.5184
 2036SOL     OW17569   3.644   0.241   9.229 -0.8498 -0.2465 -1.2468
 2036SOL    HW117570   3.700   0.186   9.283 -2.0365 -0.2375 -0.0142
 2036SOL    HW217571   3.561   0.197   9.245 -0.0155 -1.1768  0.5161
 2037SOL     OW17572   2.682   0.017   7.274  0.1704  0.6721  0.1576
 2037SOL    HW117573   2.587   0.011   7.275  0.1367  0.9543 -1.3768
 2037SOL    HW217574   2.709   4.668   7.211 -1.0087 -0.2755  0.6598
 2038SOL     OW17575   3.931   0.732   9.919 -0.7469  0.1360  0.3149
 2038SOL    HW117576   4.024   0.730   9.898 -0.6243  1.7299  0.7243
 2038SOL    HW217577   3.917   0.808   9.863  1.9376  1.9663  2.1692
 2039SOL     OW17578   3.490   0.204   2.515 -0.4657  0.3105 -0.5873
 2039SOL    HW117579   3.512   0.111   2.520  1.0892  0.7533  0.8847
 2039SOL    HW217580   3.430   0.207   2.441 -1.1188 -0.9532 -0.1005
 2040SOL     OW17581   4.571   1.459   6.829  0.2329 -0.4428 -0.4036
 2040SOL    HW117582   4.536   1.408   6.902 -0.4673  1.5078  0.6300
 2040SOL    HW217583   4.488   1.487   6.790  0.8250  1.0633 -0.5697
 2041SOL     OW17584   1.416   3.716  15.716  0.0125  0.3103  0.4315
 2041SOL    HW117585   1.359   3.665  15.773  0.4026  0.0569  0.5968
 2041SOL    HW217586   1.420   3.659  15.638  1.5528  1.5625 -0.4064
 2042SOL     OW17587   2.599   1.873  14.974  0.1999  0.0471  0.2050
 2042SOL    HW117588   2.562   1.788  14.996  0.0980  0.1652  0.4834
 2042SOL    HW217589   2.692   1.851  14.968  0.2528 -0.7040  3.7894
 2043SOL     OW17590   0.668   3.476   7.786  0.1868  0.4893  0.3820
 2043SOL    HW117591   0.673   3.395   7.736 -0.3078  1.0658 -0.5937
 2043SOL    HW217592   0.651   3.448   7.876 -3.4597 -0.4944 -0.6111
 2044SOL     OW17593   3.784   1.496  15.192  0.5444 -0.3901  0.1662
 2044SOL    HW117594   3.732   1.435  15.244  0.2472 -0.2686  0.0115
 2044SOL    HW217595   3.716   1.536  15.138  0.0483 -2.0209 -0.4020
 2045SOL     OW17596   3.137   3.510  10.117 -0.1219  0.0271 -0.0168
 2045SOL    HW117597   3.180   3.577  10.062  0.5681 -1.2485 -1.0423
 2045SOL    HW217598   3.197   3.447  10.077  1.4652  0.9418  0.9174
 2046SOL     OW17599   3.564   4.716   9.565  0.2066 -0.0707  0.4445
 2046SOL    HW117600   3.472   0.022   9.550  0.3993  0.4961  0.1793
 2046SOL    HW217601   3.606   0.056   9.501  1.4720 -0.4898  0.9006
 2047SOL     OW17602   0.137   2.265  10.340 -0.0153 -0.1696 -0.4644
 2047SOL    HW117603   0.135   2.212  10.420  1.0909  0.6273  0.0815
 2047SOL    HW217604   0.146   2.355  10.370  0.6764 -0.1368 -0.7709
 2048SOL     OW17605   2.291   3.806  16.452  0.2543  0.2572  0.3157
 2048SOL    HW117606   2.215   3.805  16.511 -0.5455  0.7986 -0.7014
 2048SOL    HW217607   2.253   3.744  16.391  2.2298 -1.5905  0.9757
 2049SOL     OW17608   2.524   0.990  15.830 -0.0255 -0.1061  0.0346
 2049SOL    HW117609   2.560   0.929  15.895 -2.0857 -1.0244  0.3178
 2049SOL    HW217610   2.524   0.944  15.745 -1.8588 -1.1869  0.6084
 2050SOL     OW17611   0.536   1.149   9.054 -0.1416  0.3430 -0.3006
 2050SOL    HW117612   0.528   1.160   9.149  0.1483  0.9690 -0.3516
 2050SOL    HW217613   0.596   1.074   9.047 -1.0986 -0.1780 -2.8363
 2051SOL     OW17614   1.615   2.917  10.830 -0.2662  0.4030 -0.4932
 2051SOL    HW117615   1.684   2.854  10.850 -0.6006 -0.1895 -1.2204
 2051SOL    HW217616   1.646   2.992  10.881 -0.2838  1.1842 -1.6226
 2052SOL     OW17617   0.932   2.974  11.507 -0.0410  0.3836 -0.0501
 2052SOL    HW117618   1.021   2.964  11.472  0.2117 -0.5954  0.8845
 2052SOL    HW217619   0.875   2.951  11.434 -0.3331 -0.0106  0.3073
 2053SOL     OW17620   2.952   2.036   9.773  0.6572  0.4154  0.4291
 2053SOL    HW117621   2.888   2.013   9.706 -0.5783 -1.1586  2.1533
 2053SOL    HW217622   3.024   1.979   9.747 -1.4448 -1.6244 -0.8790
 2054SOL     OW17623   1.128   2.027   3.509 -0.2555  0.3859  0.3440
 2054SOL    HW117624   1.101   2.113   3.478 -1.4255 -0.2793 -0.4901
 2054SOL    HW217625   1.219   2.046   3.485 -0.1141 -0.1134  0.4803
 2055SOL     OW17626   4.555   2.775   3.882 -0.1006  0.2026  0.1486
 2055SOL    HW117627   4.481   2.786   3.941  0.7721 -0.8448  1.4795
 2055SOL    HW217628   4.634   2.784   3.937  1.0874  1.0931 -1.7109
 2056SOL     OW17629   2.674   3.565   5.791 -0.4527 -0.2543  0.1659
 2056SOL    HW117630   2.651   3.656   5.769 -0.3751 -0.4441 -0.7159
 2056SOL    HW217631   2.637   3.561   5.879 -1.4805 -3.9273 -0.4356
 2057SOL     OW17632   2.682   0.317   5.459  0.4338  0.5705  0.2403
 2057SOL    HW117633   2.687   0.290   5.551  3.5612 -1.1618 -0.4367
 2057SOL    HW217634   2.775   0.314   5.435  0.6213  1.3519  0.8566
 2058SOL     OW17635   0.580   1.519   7.797 -0.0816  0.0545 -0.8658
 2058SOL    HW117636   0.645   1.450   7.810  2.1384  2.8821  2.8916
 2058SOL    HW217637   0.623   1.591   7.751 -0.0042  0.3530 -0.3207
 2059SOL     OW17638   4.120   4.094   5.088  0.1252 -0.4795  0.4947
 2059SOL    HW117639   4.054   4.161   5.072  0.5207  0.1331  1.4538
 2059SOL    HW217640   4.196   4.149   5.102 -0.1990  1.0497 -3.7076
 2060SOL     OW17641   3.508   3.176   2.285  0.1088 -0.0556 -0.1577
 2060SOL    HW117642   3.445   3.106   2.303 -1.1953  1.5022  1.4511
 2060SOL    HW217643   3.482   3.242   2.349  1.7553  1.2802 -0.8759
 2061SOL     OW17644   2.469   4.448   2.765  0.1408 -0.1922 -0.5067
 2061SOL    HW117645   2.404   4.423   2.831  0.2419 -2.8869 -1.3943
 2061SOL    HW217646   2.469   4.359   2.729  0.8976 -1.3097  2.2523
 2062SOL     OW17647   0.923   1.072   4.721  0.0321 -0.3272  0.3143
 2062SOL    HW117648   0.918   1.005   4.653 -0.2906  0.9254 -0.8991
 2062SOL    HW217649   1.011   1.107   4.705  0.9111 -2.4104  0.4812
 2063SOL     OW17650   2.718   3.196  13.837 -0.1425  0.5538  0.6895
 2063SOL    HW117651   2.737   3.268  13.777  2.1920 -1.2223 -0.7090
 2063SOL    HW217652   2.776   3.123  13.816 -0.1598  1.3423 -2.2026
 2064SOL     OW17653   3.275   3.863   7.785  0.3974  0.0250 -0.5065
 2064SOL    HW117654   3.287   3.825   7.872  1.2716  1.1639 -0.1229
 2064SOL    HW217655   3.203   3.924   7.799  0.7011 -0.1028  1.5804
 2065SOL     OW17656   2.043   0.806   7.617 -0.5963  0.3275  0.6257
 2065SOL    HW117657   1.977   0.834   7.681 -1.2762  2.7903 -1.1136
 2065SOL    HW217658   2.048   0.879   7.555 -0.5458  1.4926  1.9993
 2066SOL     OW17659   4.701   1.769   4.875 -0.5137 -0.7425 -0.4215
 2066SOL    HW117660   4.637   1.700   4.887  0.0165 -1.0837  0.4442
 2066SOL    HW217661   4.644   1.837   4.839 -0.6344 -0.7290 -0.2036
 2067SOL     OW17662   2.969   3.927   7.473 -0.3367 -0.1709  0.5080
 2067SOL    HW117663   2.946   3.923   7.566 -0.8792 -0.4217  0.3695
 2067SOL    HW217664   2.909   3.854   7.455  1.3080 -2.0110  2.5098
 2068SOL     OW17665   3.884   1.549  14.331 -0.2496 -0.3433  0.2919
 2068SOL    HW117666   3.927   1.613  14.387 -1.6726  1.4655 -0.6937
 2068SOL    HW217667   3.848   1.604  14.261 -0.2647 -1.3453 -0.4976
 2069SOL     OW17668   4.003   1.303   6.196 -0.1605 -0.0714 -0.0596
 2069SOL    HW117669   3.957   1.386   6.196  1.7622  0.9873 -0.4720
 2069SOL    HW217670   3.991   1.266   6.109  2.4211  0.1937 -0.5501
 2070SOL     OW17671   0.201   4.278   5.562 -0.7082 -0.0814  0.3192
 2070SOL    HW117672   0.124   4.223   5.551  1.5485 -3.1247 -0.3217
 2070SOL    HW217673   0.237   4.274   5.473  0.9990 -0.3938  1.0213
 2071SOL     OW17674   2.128   3.579   0.498  0.2528  0.0116 -0.0008
 2071SOL    HW117675   2.164   3.622   0.576  0.1099 -0.8378  0.5401
 2071SOL    HW217676   2.034   3.591   0.509  0.0279 -0.4781 -1.5022
 2072SOL     OW17677   2.349   1.111   2.360  0.2058 -0.3287  0.2392
 2072SOL    HW117678   2.349   1.204   2.383  0.2871 -0.1926 -0.3186
 2072SOL    HW217679   2.393   1.117   2.275  2.5278 -1.0496  1.3792
 2073SOL     OW17680   4.505   4.698   1.783  0.7013  0.0614 -0.1123
 2073SOL    HW117681   4.528   4.609   1.808 -0.0014  0.2956  1.3631
 2073SOL    HW217682   4.420   4.691   1.740  0.9965 -0.5631 -0.5882
 2074SOL     OW17683   3.429   4.551   3.862 -0.0163  0.1832 -0.0847
 2074SOL    HW117684   3.392   4.519   3.944 -0.6470 -1.6122 -1.0771
 2074SOL    HW217685   3.508   4.497   3.865  0.6231  1.0957 -0.4639
 2075SOL     OW17686   2.556   2.040   4.238  0.4886  0.0307  0.3801
 2075SOL    HW117687   2.590   2.006   4.321  2.0532  1.9563  0.5392
 2075SOL    HW217688   2.628   2.012   4.180 -1.1157  0.3404 -1.7552
 2076SOL     OW17689   4.656   3.219   8.091  0.8259  0.0239 -0.0061
 2076SOL    HW117690   4.592   3.154   8.118 -0.2623 -0.4179 -3.5741
 2076SOL    HW217691   4.602   3.273   8.033 -0.3828 -0.6128  0.5503
 2077SOL     OW17692   3.475   4.276   7.117 -0.0427 -0.6993  0.1255
 2077SOL    HW117693   3.548   4.244   7.169 -0.1181 -0.3413  0.4512
 2077SOL    HW217694   3.504   4.366   7.098  2.4348 -0.9863  2.6467
 2078SOL     OW17695   1.001   2.306   4.004  0.9394  0.2409 -0.1363
 2078SOL    HW117696   0.951   2.324   4.084 -1.4404  1.4740 -1.9239
 2078SOL    HW217697   1.083   2.273   4.042 -0.9548 -0.7017  3.1309
 2079SOL     OW17698   1.688   1.546  12.236  0.0466  0.1007  0.0714
 2079SOL    HW117699   1.617   1.524  12.175  0.6534  2.0540 -1.3015
 2079SOL    HW217700   1.709   1.632  12.200  1.0488  0.1721  0.8519
 2080SOL     OW17701   1.985   4.609   1.793  0.7185 -0.5431 -0.4246
 2080SOL    HW117702   2.035   4.604   1.711 -0.6281  0.2554 -1.2903
 2080SOL    HW217703   2.052   4.624   1.860 -1.1127  0.6645  1.1209
 2081SOL     OW17704   4.176   3.534  16.202 -0.4625  0.3498  0.0777
 2081SOL    HW117705   4.150   3.604  16.143 -0.5628  0.7310  0.5709
 2081SOL    HW217706   4.090   3.498  16.224 -0.2978  0.7690  1.4421
 2082SOL     OW17707   2.125   1.151   6.568 -0.1479 -0.3151 -0.1268
 2082SOL    HW117708   2.103   1.192   6.484  1.4691  2.5730  0.8406
 2082SOL    HW217709   2.063   1.188   6.631  2.2918 -0.8181  2.5940
 2083SOL     OW17710   2.354   2.181   2.843  0.5733  0.7130 -0.1710
 2083SOL    HW117711   2.415   2.119   2.884 -0.0207  0.7748  0.8049
 2083SOL    HW217712   2.358   2.155   2.751  0.1366  0.1503 -0.0271
 2084SOL     OW17713   0.534   4.204   2.563 -0.0762 -0.2919  0.5024
 2084SOL    HW117714   0.517   4.151   2.486 -2.0966 -1.4998  1.7613
 2084SOL    HW217715   0.539   4.136   2.630  3.0764  0.4778  1.0378
 2085SOL     OW17716   2.677   2.396   0.940  0.2014  0.0203  0.1025
 2085SOL    HW117717   2.725   2.315   0.921  0.8252  0.0339  1.6355
 2085SOL    HW217718   2.594   2.368   0.979 -0.8601  0.3637 -1.9390
 2086SOL     OW17719   2.850   1.584   2.765  0.0002  0.0632 -0.3239
 2086SOL    HW117720   2.790   1.563   2.693  2.4305  1.4041 -2.7489
 2086SOL    HW217721   2.881   1.497   2.790 -3.4226 -1.5414 -1.6295
 2087SOL     OW17722   0.158   3.602   5.853 -0.2119  0.6111 -0.1123
 2087SOL    HW117723   0.083   3.606   5.913 -1.4971  0.4236 -1.7185
 2087SOL    HW217724   0.127   3.554   5.776  1.8558 -0.0304 -0.5476
 2088SOL     OW17725   4.592   2.686  10.968  0.4524  0.1893 -1.0689
 2088SOL    HW117726   4.616   2.778  10.974  0.6921  0.1570 -1.6220
 2088SOL    HW217727   4.634   2.649  11.046  1.3772  1.1226 -1.1382
 2089SOL     OW17728   4.559   0.179   3.458  0.1892  0.3261 -0.4631
 2089SOL    HW117729   4.578   0.233   3.535  1.6143 -1.6920  0.5853
 2089SOL    HW217730   4.582   0.247   3.394  0.0369  0.6195 -0.2110
 2090SOL     OW17731   3.057   3.355   9.015 -0.0323  0.4681 -0.6984
 2090SOL    HW117732   3.109   3.432   9.036 -1.5487  1.3282 -0.0941
 2090SOL    HW217733   3.119   3.290   9.049 -2.9410 -1.3181  1.2505
 2091SOL     OW17734   3.990   0.901  17.069  0.2087  0.4059  0.2258
 2091SOL    HW117735   3.963   0.909  16.977  0.6786  3.8724  0.3832
 2091SOL    HW217736   3.917   0.842  17.090 -1.1958  1.8617 -0.5825
 2092SOL     OW17737   2.885   3.903  14.914 -0.2372  0.2529  0.3474
 2092SOL    HW117738   2.903   3.989  14.951  2.5053 -0.0628 -0.2815
 2092SOL    HW217739   2.972   3.875  14.887 -0.9426 -0.4023 -1.2399
 2093SOL     OW17740   4.251   2.859   4.540 -0.7689  0.8100 -0.4499
 2093SOL    HW117741   4.179   2.914   4.570  0.5391  2.2757 -0.0087
 2093SOL    HW217742   4.313   2.929   4.520  0.0591  0.4808  0.9768
 2094SOL     OW17743   3.694   3.834   6.499  0.5110  0.2205 -0.7954
 2094SOL    HW117744   3.708   3.899   6.568  0.7041 -2.0449  1.3137
 2094SOL    HW217745   3.643   3.885   6.436 -1.8598 -0.7232  0.3793
 2095SOL     OW17746   2.217   4.439   6.999  0.6866  0.8113 -0.4697
 2095SOL    HW117747   2.175   4.425   6.913  1.3865 -2.5726 -0.2816
 2095SOL    HW217748   2.162   4.493   7.056  0.5550  0.4698 -0.2755
 2096SOL     OW17749   0.548   1.735   3.528  0.1018 -0.2791 -0.1869
 2096SOL    HW117750   0.519   1.822   3.501 -1.4706 -0.6781  0.1936
 2096SOL    HW217751   0.516   1.681   3.456  2.0627  0.1298 -1.3514
 2097SOL     OW17752   0.974   4.457   8.022 -0.3979 -0.4796 -0.2675
 2097SOL    HW117753   1.062   4.442   7.986 -0.1803 -1.9310  0.8452
 2097SOL    HW217754   0.920   4.461   7.943  0.5554  0.5164 -0.8630
 2098SOL     OW17755   4.026   4.682   1.937 -0.3900  0.2234  0.5529
 2098SOL    HW117756   3.997   0.050   1.907  0.2525 -0.2443 -1.3594
 2098SOL    HW217757   3.974   4.620   1.886 -0.5464  0.3451  0.5636
 2099SOL     OW17758   0.243   3.284   2.060 -0.2270 -0.7947  0.0381
 2099SOL    HW117759   0.196   3.235   2.127 -2.2079 -0.3681 -1.0220
 2099SOL    HW217760   0.178   3.284   1.989 -0.5706 -0.0472  0.3486
 2100SOL     OW17761   2.880   2.438  15.089  0.1044 -0.2609 -0.4384
 2100SOL    HW117762   2.942   2.403  15.024 -0.2231  3.1773 -2.5844
 2100SOL    HW217763   2.872   2.529  15.061 -2.6451 -0.6745 -0.9941
 2101SOL     OW17764   3.808   2.298   3.007 -0.1275 -0.4116  0.6100
 2101SOL    HW117765   3.881   2.326   2.953 -1.6124 -0.3845 -1.3857
 2101SOL    HW217766   3.819   2.205   2.988 -1.5854 -0.0387 -2.0479
 2102SOL     OW17767   2.494   1.692  16.642  0.8566 -0.1980 -0.3352
 2102SOL    HW117768   2.457   1.621  16.589  0.5063  0.6079 -1.1647
 2102SOL    HW217769   2.552   1.642  16.699 -0.7562 -1.3945  0.2537
 2103SOL     OW17770   1.234   4.204   3.358 -0.1936 -0.5177  0.7051
 2103SOL    HW117771   1.299   4.160   3.304  0.6369  1.9053 -0.3022
 2103SOL    HW217772   1.265   4.295   3.364  2.4573 -1.4299  0.7705
 2104SOL     OW17773   0.320   3.594   1.024  0.4732 -0.3191 -0.1421
 2104SOL    HW117774   0.264   3.669   1.043 -0.5966 -0.7807 -1.4725
 2104SOL    HW217775   0.392   3.644   0.986  0.6340  0.7748  1.5798
 2105SOL     OW17776   4.628   3.905   3.895  0.4710 -0.3984 -0.1236
 2105SOL    HW117777   4.627   3.987   3.845 -3.6468 -0.9502 -0.9511
 2105SOL    HW217778   4.534   3.886   3.891  1.1331 -3.2832 -1.9847
 2106SOL     OW17779   3.671   0.618   5.635  0.2775  0.4683  0.0529
 2106SOL    HW117780   3.724   0.639   5.558  1.3592  0.1950  0.7273
 2106SOL    HW217781   3.602   0.683   5.622  2.4570  2.4504 -1.5194
 2107SOL     OW17782   2.328   2.869   6.748 -0.1977  0.2692  0.1361
 2107SOL    HW117783   2.287   2.837   6.669 -0.4666  0.8362  0.0454
 2107SOL    HW217784   2.260   2.861   6.815  0.1447 -0.5947  0.3834
 2108SOL     OW17785   1.057   0.218   4.284  0.2929  0.1510  0.5779
 2108SOL    HW117786   1.104   0.137   4.265 -2.6428 -1.5247  0.5020
 2108SOL    HW217787   1.005   0.230   4.204 -1.3281 -0.7408  1.5055
 2109SOL     OW17788   3.031   1.626   0.456 -0.5005  0.1368 -0.2026
 2109SOL    HW117789   3.004   1.536   0.442 -0.1998  0.1168 -0.6423
 2109SOL    HW217790   2.972   1.666   0.392  1.8085  2.5142 -0.8233
 2110SOL     OW17791   3.986   4.178   8.006  0.4571 -0.0444 -0.7334
 2110SOL    HW117792   3.912   4.118   8.012  1.3837 -1.0913  0.2486
 2110SOL    HW217793   4.052   4.136   7.951  2.6800  1.8717  0.4210
 2111SOL     OW17794   1.931   1.726   6.873 -0.1120 -0.1922 -0.3822
 2111SOL    HW117795   1.992   1.800   6.872  0.9467 -1.0716 -0.7636
 2111SOL    HW217796   1.853   1.769   6.908  0.1487 -0.8802  1.0481
 2112SOL     OW17797   1.875   4.357   6.633  0.2493 -0.5956  0.7364
 2112SOL    HW117798   1.798   4.381   6.684 -0.6849 -1.9878 -0.0230
 2112SOL    HW217799   1.851   4.273   6.595  0.1970  0.1400 -0.8620
 2113SOL     OW17800   0.667   1.813   1.752  0.6048 -0.7461  0.0352
 2113SOL    HW117801   0.696   1.808   1.661  1.4267 -1.9845  0.3782
 2113SOL    HW217802   0.708   1.738   1.794 -0.9390 -2.1128 -0.9047
 2114SOL     OW17803   1.515   4.023  14.313 -0.5239 -0.2634 -0.2906
 2114SOL    HW117804   1.466   4.099  14.281 -1.4525 -0.5160  0.5254
 2114SOL    HW217805   1.451   3.999  14.380 -0.7326 -1.0404 -0.7624
 2115SOL     OW17806   4.525   4.171  10.918  0.2201  0.2461  0.4684
 2115SOL    HW117807   4.529   4.134  10.829 -3.4022  3.2665 -0.9435
 2115SOL    HW217808   4.564   4.103  10.972 -0.7945  0.1481  1.0806
 2116SOL     OW17809   2.079   0.300   8.176 -0.1786 -0.4689  0.6775
 2116SOL    HW117810   2.154   0.346   8.138 -0.1224  1.0303  2.6006
 2116SOL    HW217811   2.110   0.242   8.246  2.5814 -0.8932 -0.8917
 2117SOL     OW17812   3.269   0.039   7.531  0.1614 -0.4480 -0.3223
 2117SOL    HW117813   3.328   0.055   7.605 -2.1753  0.3888  1.3445
 2117SOL    HW217814   3.196   0.101   7.529  1.3409  0.9265 -1.1026
 2118SOL     OW17815   2.642   4.140   7.382  0.1905 -0.1154 -0.5852
 2118SOL    HW117816   2.609   4.088   7.309  1.4477 -2.8140  0.7758
 2118SOL    HW217817   2.570   4.122   7.443 -1.3172  0.7679 -2.1056
 2119SOL     OW17818   4.608   0.972   5.269  0.0998  0.1380  0.7036
 2119SOL    HW117819   4.692   1.012   5.248  0.9097 -1.3743  0.9968
 2119SOL    HW217820   4.556   0.970   5.189  1.5234  1.0512 -0.2284
 2120SOL     OW17821   4.687   4.657   5.421  0.8963  0.3468  0.2673
 2120SOL    HW117822   4.686   4.587   5.356  0.9380  0.5379  0.0581
 2120SOL    HW217823   0.001   4.604   5.493  3.0348  1.4332  0.1349
 2121SOL     OW17824   2.652   0.208   6.230  0.1053  0.0367 -0.2990
 2121SOL    HW117825   2.640   0.300   6.252 -0.4876  0.5815 -2.8870
 2121SOL    HW217826   2.718   0.173   6.290 -0.3066  1.6627  1.1083
 2122SOL     OW17827   3.843   2.479  14.243 -0.4840 -0.2718 -0.4889
 2122SOL    HW117828   3.901   2.404  14.226  1.8894  0.8114  2.7631
 2122SOL    HW217829   3.786   2.437  14.308 -0.6996 -2.3412 -2.0105
 2123SOL     OW17830   2.860   0.677   7.096  0.4247  0.3972 -0.4730
 2123SOL    HW117831   2.921   0.606   7.114  1.4608  1.8452  1.7463
 2123SOL    HW217832   2.782   0.641   7.138 -0.9320  1.5234 -2.0485
 2124SOL     OW17833   4.549   2.661   7.589  0.4465  0.6654 -0.2644
 2124SOL    HW117834   4.571   2.754   7.579  0.1095  0.7895  0.1720
 2124SOL    HW217835   4.620   2.624   7.536  0.4233 -0.4145  0.4743
 2125SOL     OW17836   0.097   0.573  13.633 -0.1678 -0.3297  0.0941
 2125SOL    HW117837   0.127   0.656  13.670 -2.0713  1.1163 -1.6740
 2125SOL    HW217838   0.178   0.526  13.613 -0.7774  0.4688 -4.2552
 2126SOL     OW17839   0.473   4.538   6.431 -0.5475  0.1749  0.2505
 2126SOL    HW117840   0.406   4.573   6.489 -2.2074 -2.1585 -0.2999
 2126SOL    HW217841   0.422   4.466   6.395 -2.3588  1.3570  0.4281
 2127SOL     OW17842   0.914   3.480  15.621 -0.5013  0.0385  0.1914
 2127SOL    HW117843   1.003   3.486  15.586 -0.7528  2.2361 -0.0421
 2127SOL    HW217844   0.897   3.574  15.624 -0.7422 -0.0310  0.9399
 2128SOL     OW17845   0.903   4.520  15.146  0.1528  0.3549  0.0350
 2128SOL    HW117846   0.900   4.614  15.132  0.9219  0.1632 -1.4631
 2128SOL    HW217847   0.811   4.503  15.165  0.4991  0.4491  1.7783
 2129SOL     OW17848   3.224   0.759   8.360 -0.2102 -0.1238  0.1156
 2129SOL    HW117849   3.162   0.830   8.349 -0.9600 -0.9357 -0.8631
 2129SOL    HW217850   3.172   0.679   8.370  1.2643 -0.9921  0.8898
 2130SOL     OW17851   4.624   1.565  16.898  0.1733  0.7480 -0.2127
 2130SOL    HW117852   4.578   1.499  16.845  1.2492 -0.7356  0.6964
 2130SOL    HW217853   4.704   1.582  16.848  0.5951  0.2881  0.3091
 2131SOL     OW17854   1.288   1.755   9.835  0.1611  0.2035 -0.6098
 2131SOL    HW117855   1.236   1.824   9.876  0.5224 -0.1642  0.4791
 2131SOL    HW217856   1.317   1.711   9.916 -0.8212  3.7695  1.6857
 2132SOL     OW17857   3.838   3.920   0.728 -0.2383  0.1093  0.1377
 2132SOL    HW117858   3.870   3.876   0.648 -0.0285  1.6703 -0.6436
 2132SOL    HW217859   3.789   3.847   0.765  0.8834 -0.7403 -0.0482
 2133SOL     OW17860   0.283   3.814   1.499 -0.4074  0.1309  0.1016
 2133SOL    HW117861   0.304   3.888   1.443 -1.5166  0.7224  0.4708
 2133SOL    HW217862   0.359   3.820   1.558 -0.2604  1.6127 -0.2490
 2134SOL     OW17863   1.234   2.847   8.601 -0.0225  0.5254  0.1093
 2134SOL    HW117864   1.303   2.914   8.605  0.4431  0.1126 -0.8646
 2134SOL    HW217865   1.161   2.907   8.615  0.2883  1.2338 -1.2397
 2135SOL     OW17866   3.402   3.941   5.752 -0.3163 -0.1151 -1.0926
 2135SOL    HW117867   3.353   4.021   5.731  0.1563  0.7295  1.0613
 2135SOL    HW217868   3.343   3.869   5.727 -1.2713  0.7576 -1.3460
 2136SOL     OW17869   0.185   4.611   4.313 -0.4063 -0.5008 -0.4893
 2136SOL    HW117870   0.092   4.615   4.288 -1.3103 -0.5076  2.8801
 2136SOL    HW217871   0.174   4.528   4.359 -1.3716 -0.5264 -0.7676
 2137SOL     OW17872   4.402   3.600   5.769  0.1946  0.4325 -0.3186
 2137SOL    HW117873   4.423   3.572   5.680 -1.6506  1.2127 -0.9926
 2137SOL    HW217874   4.489   3.613   5.808  0.3708 -1.0379 -0.2195
 2138SOL     OW17875   4.103   0.951   5.818  0.2641 -0.1621  0.1591
 2138SOL    HW117876   4.130   1.033   5.859  1.8058 -0.6751  0.1463
 2138SOL    HW217877   4.187   0.906   5.809  0.4055  0.0508  0.4428
 2139SOL     OW17878   2.548   0.591  12.767 -0.7676 -0.2116  0.2309
 2139SOL    HW117879   2.460   0.630  12.766 -0.6358  0.0404 -1.2018
 2139SOL    HW217880   2.584   0.639  12.841  2.3245 -0.5303 -1.0717
 2140SOL     OW17881   0.622   0.536  16.751 -0.1912 -0.3800 -0.1563
 2140SOL    HW117882   0.704   0.530  16.801  0.8764 -1.5947 -2.0515
 2140SOL    HW217883   0.602   0.628  16.768 -0.2513 -0.5557  0.7623
 2141SOL     OW17884   3.675   1.624   7.747  0.3002 -1.0045  0.2743
 2141SOL    HW117885   3.621   1.657   7.818  3.1850  1.6879  1.2024
 2141SOL    HW217886   3.628   1.659   7.671  2.3507  1.3323  0.1080
 2142SOL     OW17887   0.295   3.084   7.205  0.7540  0.0429  0.0068
 2142SOL    HW117888   0.254   3.003   7.174 -0.1383  0.8816 -1.0309
 2142SOL    HW217889   0.225   3.150   7.206 -0.4798 -1.2351 -0.6134
 2143SOL     OW17890   1.033   0.306  11.195 -0.2434  0.3798  0.2850
 2143SOL    HW117891   1.111   0.253  11.212  0.0525  0.5910 -0.4209
 2143SOL    HW217892   0.970   0.238  11.219 -0.0363  0.2901  0.5817
 2144SOL     OW17893   2.218   4.282   3.632 -0.7153  0.1371 -0.0102
 2144SOL    HW117894   2.292   4.258   3.575  0.1329  1.4742  0.5288
 2144SOL    HW217895   2.224   4.375   3.653  1.6914 -0.0544  0.1692
 2145SOL     OW17896   0.332   2.159   6.189  0.2584 -0.3019  0.0731
 2145SOL    HW117897   0.322   2.225   6.121  1.8980 -1.1929 -1.0296
 2145SOL    HW217898   0.360   2.201   6.271  0.8403  0.9570 -0.7761
 2146SOL     OW17899   3.010   1.849   6.653 -0.4489  0.0330  0.2022
 2146SOL    HW117900   2.992   1.780   6.717  1.2970 -0.5247  0.0929
 2146SOL    HW217901   3.103   1.866   6.669 -0.2775 -0.6942 -0.0306
 2147SOL     OW17902   3.467   3.053   1.019 -0.2371  0.0762 -0.0285
 2147SOL    HW117903   3.466   3.003   1.100 -0.6700  0.0004 -0.0810
 2147SOL    HW217904   3.427   3.138   1.040 -0.3947  0.0188 -0.0965
 2148SOL     OW17905   2.203   0.108   9.177  0.1360  0.2317  0.2249
 2148SOL    HW117906   2.183   0.043   9.110  0.8517 -0.4632  0.6922
 2148SOL    HW217907   2.161   0.069   9.253  1.0402 -0.3013  0.4398
 2149SOL     OW17908   0.060   1.367   4.109  0.0050  0.7121 -0.3501
 2149SOL    HW117909   0.061   1.401   4.199 -0.1105 -0.9868  0.2827
 2149SOL    HW217910   0.148   1.331   4.116  0.3719  1.7659  0.5018
 2150SOL     OW17911   4.337   1.723  10.090  0.6049  0.4870 -0.1497
 2150SOL    HW117912   4.376   1.663  10.027  2.5500 -1.1357  2.6243
 2150SOL    HW217913   4.336   1.669  10.169  2.0968  1.2992  0.4185
 2151SOL     OW17914   0.679   1.042   3.075 -0.2459  0.1294 -0.1795
 2151SOL    HW117915   0.598   1.007   3.036 -0.2696 -1.5235  1.3832
 2151SOL    HW217916   0.727   0.960   3.087  1.0042  0.8492 -0.3144
 2152SOL     OW17917   3.258   1.826  11.781  0.1830  0.4116  0.5870
 2152SOL    HW117918   3.226   1.915  11.793  1.9878  1.4401 -2.2563
 2152SOL    HW217919   3.314   1.819  11.859 -0.9530  0.5933  1.4175
 2153SOL     OW17920   3.481   3.733   6.928 -0.4157 -0.1649  0.1710
 2153SOL    HW117921   3.508   3.645   6.953 -0.6868 -0.5344 -0.8196
 2153SOL    HW217922   3.441   3.712   6.844 -0.6062  0.6504  0.0593
 2154SOL     OW17923   4.019   3.435   3.756  0.1027  0.0111 -0.1816
 2154SOL    HW117924   4.085   3.388   3.807 -0.1561  0.5247  0.6271
 2154SOL    HW217925   3.964   3.471   3.826 -0.2424 -1.9422  0.5393
 2155SOL     OW17926   4.077   3.457   2.394  0.3992  0.0235  0.3838
 2155SOL    HW117927   4.058   3.506   2.473  0.2074  0.7689 -0.1274
 2155SOL    HW217928   4.024   3.379   2.409  1.4120 -0.6466  0.5000
 2156SOL     OW17929   3.619   4.475  13.975  0.1029  0.2399 -0.2017
 2156SOL    HW117930   3.622   4.502  13.883 -1.6299 -0.4724 -0.4674
 2156SOL    HW217931   3.701   4.507  14.013  0.8996 -2.5703  0.4188
 2157SOL     OW17932   4.384   3.884   4.474 -0.1176  0.1060 -0.0304
 2157SOL    HW117933   4.376   3.799   4.431 -2.5230 -0.0566  0.7283
 2157SOL    HW217934   4.448   3.924   4.415 -1.7127  0.1091 -1.7519
 2158SOL     OW17935   3.993   3.367   5.644  0.0081 -0.0811 -0.1519
 2158SOL    HW117936   4.001   3.430   5.572  0.2230  0.5655  0.4302
 2158SOL    HW217937   4.081   3.382   5.681 -1.8879  0.8560  4.0206
 2159SOL     OW17938   0.744   2.435   8.750  0.1857  0.4424  0.0711
 2159SOL    HW117939   0.803   2.362   8.734  0.0085  0.8605 -2.4553
 2159SOL    HW217940   0.760   2.500   8.682  1.7126 -0.0611 -0.0389
 2160SOL     OW17941   0.384   2.037  14.266 -0.1594 -0.2063  0.5531
 2160SOL    HW117942   0.375   2.055  14.359  0.3338 -0.4550  0.6516
 2160SOL    HW217943   0.462   2.090  14.247  0.8401 -1.7180  0.4405
 2161SOL     OW17944   0.507   1.460   6.975 -0.2204 -0.0677 -0.7403
 2161SOL    HW117945   0.438   1.408   6.934 -0.9472  0.9014 -0.7587
 2161SOL    HW217946   0.462   1.543   6.987 -0.2793 -0.4592  1.6534
 2162SOL     OW17947   3.861   4.256  17.264 -0.1029  0.1023  0.3145
 2162SOL    HW117948   3.840   4.312  17.339  0.2908  4.1267 -2.5349
 2162SOL    HW217949   3.777   4.273  17.222 -0.1212  2.0322  1.1269
 2163SOL     OW17950   4.023   4.687  14.196 -0.1526  0.8208 -0.0364
 2163SOL    HW117951   3.998   4.650  14.280  0.3967  0.6037  0.0306
 2163SOL    HW217952   4.042   0.061  14.220 -1.2298  0.8974  0.5224
 2164SOL     OW17953   2.490   2.516  10.809  0.0794 -0.2770 -0.1265
 2164SOL    HW117954   2.536   2.466  10.742  2.2042 -0.3827  1.3893
 2164SOL    HW217955   2.524   2.602  10.784  1.0419  0.1771  2.6778
 2165SOL     OW17956   1.447   0.236   4.137 -0.7067 -0.1097  0.1572
 2165SOL    HW117957   1.474   0.253   4.228 -0.2407  0.6017 -0.1184
 2165SOL    HW217958   1.398   0.158   4.166  0.3136 -0.0555  2.0393
 2166SOL     OW17959   4.334   1.693  17.647 -0.6376 -0.6314 -0.3288
 2166SOL    HW117960   4.395   1.709  17.575  0.4533  1.1555  0.9695
 2166SOL    HW217961   4.321   1.599  17.648  0.1596 -0.7255  1.4722
 2167SOL     OW17962   0.696   0.856   4.376  0.7393  0.2350  0.0156
 2167SOL    HW117963   0.696   0.920   4.304 -0.5150 -0.2344 -0.3952
 2167SOL    HW217964   0.636   0.789   4.343  0.5408  0.8346 -0.8486
 2168SOL     OW17965   0.089   4.582  15.789 -0.3802 -0.2667  0.0720
 2168SOL    HW117966   0.134   4.622  15.863 -1.4196 -1.2470  1.2177
 2168SOL    HW217967   0.082   4.658  15.732 -2.8710  0.4707  1.3979
 2169SOL     OW17968   4.649   2.303  13.692  1.0447  0.2624  0.5040
 2169SOL    HW117969   0.009   2.313  13.637  1.3998 -1.4304  0.7054
 2169SOL    HW217970   4.647   2.396  13.715 -0.1164  0.1671  0.8213
 2170SOL     OW17971   4.220   3.728   2.581  0.2700  0.6286 -0.2181
 2170SOL    HW117972   4.130   3.699   2.600  2.8851 -5.8075  2.4901
 2170SOL    HW217973   4.257   3.736   2.669 -2.2030  3.6445  0.5526
 2171SOL     OW17974   1.651   2.423  11.444  0.5055  0.1911 -0.2779
 2171SOL    HW117975   1.556   2.423  11.438  0.1611  1.2317  4.8197
 2171SOL    HW217976   1.683   2.356  11.384  0.4132 -0.8497  0.8369
 2172SOL     OW17977   3.125   2.906   1.427  0.1708  0.0719 -0.0982
 2172SOL    HW117978   3.118   2.961   1.349 -0.3845  0.3855  0.1746
 2172SOL    HW217979   3.138   2.818   1.393  0.2451 -1.0148  2.6721
 2173SOL     OW17980   2.616   3.544   2.934  0.1805  0.0230 -0.0449
 2173SOL    HW117981   2.555   3.472   2.917 -1.3501  1.2134  0.3368
 2173SOL    HW217982   2.695   3.509   2.893  1.3163  1.8564  0.5891
 2174SOL     OW17983   3.005   3.858   3.372  0.2345 -0.0720 -0.6843
 2174SOL    HW117984   3.038   3.774   3.404  0.3625 -0.5152 -1.9629
 2174SOL    HW217985   3.086   3.893   3.336 -1.0539  2.5766 -0.9440
 2175SOL     OW17986   0.410   3.907   8.070  0.5559  0.0940 -0.3452
 2175SOL    HW117987   0.318   3.905   8.045 -0.0009 -0.5046  1.7478
 2175SOL    HW217988   0.434   3.999   8.078 -1.1767  0.5991 -1.1579
 2176SOL     OW17989   0.947   2.016   7.808  0.0560 -0.0789 -0.1856
 2176SOL    HW117990   0.934   2.085   7.873 -0.3796 -0.0181 -0.3369
 2176SOL    HW217991   0.869   1.964   7.826  0.8756 -1.4278 -0.5573
 2177SOL     OW17992   2.168   3.235   3.227  0.0704 -0.4222  0.5591
 2177SOL    HW117993   2.224   3.303   3.264 -0.4974 -0.3567  1.3014
 2177SOL    HW217994   2.148   3.271   3.140  3.1064  0.4315  0.2081
 2178SOL     OW17995   1.862   3.011   9.068 -0.0504 -0.5568  0.3818
 2178SOL    HW117996   1.857   3.093   9.020  0.5476 -1.1216 -0.6328
 2178SOL    HW217997   1.801   3.021   9.142 -0.4494  1.0227 -0.1639
 2179SOL     OW17998   4.253   4.543   8.255  0.4173  0.5356  0.2594
 2179SOL    HW117999   4.233   4.456   8.219  0.9871 -0.3614  2.1161
 2179SOL    HW218000   4.336   4.562   8.212  0.3533 -0.7751 -0.4563
 2180SOL     OW18001   4.566   3.973   1.285 -0.4694 -0.0517 -0.3364
 2180SOL    HW118002   4.604   3.975   1.197  0.0858 -1.0002 -0.1187
 2180SOL    HW218003   4.521   3.890   1.271 -0.8332  0.3676 -1.6388
 2181SOL     OW18004   1.416   1.627  12.557  0.5628 -0.3856 -0.1784
 2181SOL    HW118005   1.354   1.682  12.510  1.1444 -0.0569 -0.5686
 2181SOL    HW218006   1.498   1.663  12.522  1.0121 -3.1126 -1.9657
 2182SOL     OW18007   0.431   3.128   5.375  0.0148  0.1606  0.2799
 2182SOL    HW118008   0.370   3.153   5.306 -0.7432  0.2731  0.9933
 2182SOL    HW218009   0.493   3.201   5.372 -0.0095  0.1052 -1.3193
 2183SOL     OW18010   1.774   1.084   0.410 -0.0199 -0.2590 -0.4032
 2183SOL    HW118011   1.723   1.111   0.486  0.7066  2.0381 -0.7212
 2183SOL    HW218012   1.827   1.024   0.461 -0.7022  0.1604  0.8021
 2184SOL     OW18013   4.227   2.412   3.048  0.0922  0.1343 -0.2865
 2184SOL    HW118014   4.321   2.407   3.032  0.3493 -2.0448  1.9248
 2184SOL    HW218015   4.190   2.499   3.033  0.7327  0.4626  0.0516
 2185SOL     OW18016   4.487   2.767  13.797 -0.0064 -0.3133 -0.4126
 2185SOL    HW118017   4.445   2.764  13.882 -0.0347  3.0277 -0.2939
 2185SOL    HW218018   4.426   2.827  13.753 -2.6103 -2.8837 -0.2516
 2186SOL     OW18019   1.847   4.044   5.457 -0.2002 -0.9339  0.5797
 2186SOL    HW118020   1.910   4.052   5.385  0.5053 -0.4486  1.2515
 2186SOL    HW218021   1.900   4.075   5.530 -1.2443  0.4249  0.7708
 2187SOL     OW18022   0.808   1.547   5.601  0.2135 -0.0171 -0.1606
 2187SOL    HW118023   0.825   1.623   5.546 -0.4525  1.0722  1.1268
 2187SOL    HW218024   0.747   1.594   5.659  0.3232  0.3888 -0.3720
 2188SOL     OW18025   0.447   1.784   7.519 -0.3310  0.2618  0.3055
 2188SOL    HW118026   0.418   1.772   7.428 -1.1963 -0.2757  0.6546
 2188SOL    HW218027   0.386   1.850   7.553 -0.1191  1.5235 -1.7266
 2189SOL     OW18028   2.606   3.945   4.986  0.2153  0.1751  0.1267
 2189SOL    HW118029   2.566   3.880   4.929 -0.7779  1.1102 -0.2361
 2189SOL    HW218030   2.578   3.928   5.076  0.2234  0.0771  0.1107
 2190SOL     OW18031   2.160   3.925   5.757  0.0256 -0.2310 -0.5637
 2190SOL    HW118032   2.199   3.845   5.721 -0.4660 -0.8849  0.3363
 2190SOL    HW218033   2.142   3.900   5.847 -1.6361 -0.6708 -1.0109
 2191SOL     OW18034   1.747   1.604  12.732 -0.0178 -0.2668 -0.6851
 2191SOL    HW118035   1.798   1.523  12.732 -1.8326 -1.4084 -0.4598
 2191SOL    HW218036   1.690   1.590  12.656 -1.9656  4.6721 -0.1092
 2192SOL     OW18037   3.991   1.117   6.439  0.4470  0.8281 -0.2813
 2192SOL    HW118038   4.040   1.054   6.491 -0.7353  0.5304  0.4741
 2192SOL    HW218039   3.992   1.076   6.353 -0.4391 -0.9246  0.5473
 2193SOL     OW18040   1.432   3.622  12.706  0.2838 -0.6341  0.1188
 2193SOL    HW118041   1.448   3.608  12.613 -1.0562 -1.8116  0.0722
 2193SOL    HW218042   1.492   3.693  12.729 -0.1190  0.0865 -1.0693
 2194SOL     OW18043   4.053   4.209   9.949  0.4002  0.1728  0.0550
 2194SOL    HW118044   3.984   4.227  10.013 -1.5799  2.1139 -2.6375
 2194SOL    HW218045   4.051   4.288   9.896 -1.9096  1.0725  1.4982
 2195SOL     OW18046   2.105   0.678   8.495 -0.1906  0.2993  0.8280
 2195SOL    HW118047   2.029   0.674   8.438  1.1509  0.2396 -0.9500
 2195SOL    HW218048   2.075   0.612   8.558 -1.5783 -0.7117 -0.9085
 2196SOL     OW18049   3.762   3.451  10.844  0.3107  0.0433 -0.1119
 2196SOL    HW118050   3.784   3.544  10.849 -0.2475  0.1829 -0.2320
 2196SOL    HW218051   3.783   3.414  10.930 -0.2921  2.4469  1.0560
 2197SOL     OW18052   0.887   4.175   0.327  0.3181 -0.2201 -0.4791
 2197SOL    HW118053   0.925   4.087   0.329 -2.6743 -1.4385  1.9703
 2197SOL    HW218054   0.862   4.177   0.235  0.6487  1.0403 -0.5388
 2198SOL     OW18055   0.518   0.557   6.353 -0.1466 -0.6415 -0.0226
 2198SOL    HW118056   0.433   0.598   6.371  0.9364  0.2485  2.9480
 2198SOL    HW218057   0.576   0.632   6.367 -0.0485 -0.7673  0.2367
 2199SOL     OW18058   2.070   2.814   5.826  0.1279  0.0464 -0.2789
 2199SOL    HW118059   2.131   2.760   5.877 -0.0024 -0.6804 -0.8910
 2199SOL    HW218060   2.116   2.821   5.742  0.2293 -0.8647 -0.2997
 2200SOL     OW18061   1.048   4.115   8.581 -0.1707 -0.8106 -0.2154
 2200SOL    HW118062   1.011   4.105   8.493  0.2393  0.7099 -0.5659
 2200SOL    HW218063   1.141   4.109   8.561  0.7370  1.3135  3.3873
 2201SOL     OW18064   0.747   3.933  17.390 -0.7414 -0.5238  0.1958
 2201SOL    HW118065   0.761   4.023  17.359  0.0643 -1.3596 -1.8682
 2201SOL    HW218066   0.744   3.954  17.483 -3.0807  0.6128 -0.1375
 2202SOL     OW18067   3.873   3.592   3.037 -0.1935 -0.4809 -0.4611
 2202SOL    HW118068   3.956   3.558   3.005  0.0507  0.5124 -0.8470
 2202SOL    HW218069   3.886   3.588   3.132  0.8498  0.2963 -0.5812
 2203SOL     OW18070   1.810   1.243   1.465  0.6197  0.3222  0.1364
 2203SOL    HW118071   1.746   1.311   1.446  0.1978 -0.7181 -2.1469
 2203SOL    HW218072   1.841   1.218   1.378 -0.5259 -0.5047 -0.0314
 2204SOL     OW18073   1.973   2.024   0.502 -0.4427  0.4265 -0.0745
 2204SOL    HW118074   1.886   2.062   0.499 -0.4973  0.4302  1.5375
 2204SOL    HW218075   2.006   2.047   0.589  1.2677 -0.0919 -0.5898
 2205SOL     OW18076   4.376   3.325  14.107  0.3814 -0.6075 -0.0061
 2205SOL    HW118077   4.333   3.290  14.185  1.3112 -2.7120 -0.4188
 2205SOL    HW218078   4.426   3.244  14.093  1.9152  0.4950 -0.9185
 2206SOL     OW18079   3.329   3.287   3.565 -0.2500  0.2790  0.3140
 2206SOL    HW118080   3.352   3.276   3.658  1.7647  4.2178  0.2777
 2206SOL    HW218081   3.249   3.236   3.563  0.1940 -0.3269 -2.3155
 2207SOL     OW18082   2.741   0.596   5.519 -1.0863  0.4664 -0.0832
 2207SOL    HW118083   2.687   0.518   5.510  2.8299 -1.9333 -2.4100
 2207SOL    HW218084   2.807   0.581   5.452 -2.3698  1.5958 -1.5850
 2208SOL     OW18085   0.066   2.748   1.736  0.7835  0.3160  0.0065
 2208SOL    HW118086   0.120   2.678   1.771 -2.3249 -2.1509 -0.0935
 2208SOL    HW218087   0.131   2.796   1.685 -0.4614  0.1327 -1.7433
 2209SOL     OW18088   0.480   4.671   9.610  0.4169  0.0614 -0.3956
 2209SOL    HW118089   0.465   0.040   9.572 -2.4864  0.2888  1.3196
 2209SOL    HW218090   0.566   4.643   9.576 -0.6398 -2.8766 -0.6363
 2210SOL     OW18091   4.271   0.783  13.863  0.0615  0.3512 -0.4938
 2210SOL    HW118092   4.251   0.690  13.853  1.3590 -0.1756  1.8970
 2210SOL    HW218093   4.254   0.781  13.957  0.2726 -2.2605 -0.5204
 2211SOL     OW18094   0.127   3.220   4.301 -0.1978  0.5326  0.5274
 2211SOL    HW118095   0.140   3.240   4.394 -0.2453  1.8236  0.2583
 2211SOL    HW218096   0.107   3.307   4.267 -0.3112 -0.3629 -1.6858
 2212SOL     OW18097   4.390   4.037   3.254  0.2225 -0.2468 -0.9163
 2212SOL    HW118098   4.422   4.126   3.270 -1.3041  0.1847 -0.3301
 2212SOL    HW218099   4.392   4.011   3.346  2.0519  0.9884 -0.6126
 2213SOL     OW18100   0.436   2.791   3.781  0.3069  0.3586  0.9539
 2213SOL    HW118101   0.348   2.781   3.816 -0.3296  0.0947 -0.7535
 2213SOL    HW218102   0.489   2.730   3.833  0.3736 -0.8064 -0.4925
 2214SOL     OW18103   1.287   3.880   3.145 -0.8489 -0.1669 -0.5605
 2214SOL    HW118104   1.296   3.970   3.178 -0.9394 -0.1333 -0.6250
 2214SOL    HW218105   1.353   3.843   3.203 -1.0710  0.9334  0.3930
 2215SOL     OW18106   4.470   2.463   2.891  0.5094 -0.0325 -0.2444
 2215SOL    HW118107   4.485   2.513   2.810  2.3906 -0.7172 -0.3093
 2215SOL    HW218108   4.442   2.377   2.859  1.5584 -0.1286 -0.9020
 2216SOL     OW18109   1.226   0.065   3.854  0.5002  0.0638 -0.1642
 2216SOL    HW118110   1.137   0.033   3.839  0.2653 -0.2603  1.9269
 2216SOL    HW218111   1.216   0.140   3.795 -2.0515 -0.6559 -0.6436
 2217SOL     OW18112   4.454   1.121   9.297  0.0067  0.3694  0.7310
 2217SOL    HW118113   4.459   1.213   9.322  1.0686  1.1078 -2.1876
 2217SOL    HW218114   4.527   1.103   9.237 -0.0737  0.7454  0.5180
 2218SOL     OW18115   2.584   3.838   8.703 -0.3446  0.7972  0.4809
 2218SOL    HW118116   2.597   3.783   8.781  2.5900 -0.4104 -0.8568
 2218SOL    HW218117   2.496   3.816   8.672  0.0059  0.5788 -0.3511
 2219SOL     OW18118   0.248   1.356  15.931  0.1328 -0.0010 -0.2180
 2219SOL    HW118119   0.322   1.300  15.911  0.4380  0.2868  0.1219
 2219SOL    HW218120   0.218   1.319  16.014 -2.0041 -0.1298 -1.0368
 2220SOL     OW18121   4.341   2.553   9.762 -0.3445  0.0113  0.5682
 2220SOL    HW118122   4.322   2.516   9.848 -0.6547  0.4462  0.6912
 2220SOL    HW218123   4.437   2.550   9.761 -0.4446 -2.5622 -1.0721
 2221SOL     OW18124   0.160   0.070   5.094  0.4806  0.3184  0.2697
 2221SOL    HW118125   0.188   0.086   5.184  0.4208 -0.2819  0.3939
 2221SOL    HW218126   0.183   0.153   5.052 -2.1298  3.6026  5.3826
 2222SOL     OW18127   4.244   4.521  12.791  0.2685 -0.0121  0.3620
 2222SOL    HW118128   4.318   4.562  12.745  0.2483  1.2867  1.4977
 2222SOL    HW218129   4.280   4.468  12.862  1.2828  0.0242 -0.1252
 2223SOL     OW18130   2.176   1.911   0.335  0.0044 -0.6780 -0.6251
 2223SOL    HW118131   2.107   1.956   0.383  0.4217 -0.7215  0.0264
 2223SOL    HW218132   2.247   1.957   0.380 -0.2900  1.0320 -1.9354
 2224SOL     OW18133   0.307   4.605   1.279 -0.1101 -0.0886 -0.4274
 2224SOL    HW118134   0.328   4.647   1.196 -0.8191  1.9496  0.4284
 2224SOL    HW218135   0.247   4.670   1.315  0.2356  0.4140 -0.7613
 2225SOL     OW18136   4.259   2.253   0.335 -0.2609  0.4216 -0.5542
 2225SOL    HW118137   4.223   2.180   0.284  1.0536 -0.6414  0.0268
 2225SOL    HW218138   4.245   2.235   0.428 -1.2968  0.9101 -0.6235
 2226SOL     OW18139   0.643   3.729   8.622 -0.1055 -0.2936  0.1471
 2226SOL    HW118140   0.678   3.756   8.707  2.5722 -1.4871 -0.5893
 2226SOL    HW218141   0.673   3.639   8.616 -0.7865 -0.5770  0.9655
 2227SOL     OW18142   2.336   4.668   4.854 -0.1130  0.3940 -1.0094
 2227SOL    HW118143   2.291   4.669   4.770  0.1575 -0.0284 -1.1600
 2227SOL    HW218144   2.423   4.641   4.823 -0.0073 -0.4588  0.0005
 2228SOL     OW18145   4.550   3.162  12.730 -0.4536 -0.7233  0.3889
 2228SOL    HW118146   4.611   3.100  12.769  0.7504 -0.4456 -1.0335
 2228SOL    HW218147   4.557   3.147  12.636  2.0516  2.8416 -0.0266
 2229SOL     OW18148   3.125   4.200   8.492 -0.0253  0.2547  0.3553
 2229SOL    HW118149   3.179   4.279   8.494 -2.0135  1.6576 -1.4395
 2229SOL    HW218150   3.086   4.211   8.579 -0.6815  3.0205 -0.2905
 2230SOL     OW18151   2.987   1.744   1.930 -0.0821  0.3352  0.2918
 2230SOL    HW118152   2.906   1.795   1.931  0.0964  0.6202  1.0350
 2230SOL    HW218153   3.034   1.802   1.991  1.8959 -0.5432 -0.4097
 2231SOL     OW18154   3.358   4.585  16.164 -0.2635  0.2147 -0.0169
 2231SOL    HW118155   3.267   4.608  16.186 -0.6139  0.9862 -2.2401
 2231SOL    HW218156   3.367   4.593  16.069 -0.1492 -3.1999 -0.2946
 2232SOL     OW18157   1.740   0.168  13.772  0.4253 -0.1492 -0.2864
 2232SOL    HW118158   1.807   0.209  13.716  1.0670  0.9553  1.2697
 2232SOL    HW218159   1.704   0.099  13.717 -0.8822 -0.9848  1.6096
 2233SOL     OW18160   4.063   4.072  17.208  0.1441  0.0540  0.0743
 2233SOL    HW118161   4.120   4.143  17.237 -0.7872  0.6949  0.3518
 2233SOL    HW218162   3.977   4.113  17.212 -1.0073 -2.2816 -0.8212
 2234SOL     OW18163   2.708   0.295   8.884  0.2827  0.1166  0.1365
 2234SOL    HW118164   2.689   0.344   8.964 -0.4760  1.9386 -1.1725
 2234SOL    HW218165   2.786   0.332   8.844  0.1403 -1.0106 -1.1835
 2235SOL     OW18166   4.165   4.445   1.743 -0.7062 -0.2466  0.8382
 2235SOL    HW118167   4.094   4.475   1.686  1.1034  0.1640 -1.2081
 2235SOL    HW218168   4.146   4.352   1.749  2.0276 -1.1018 -3.3907
 2236SOL     OW18169   2.323   2.576  12.503  0.5238  0.0238 -0.0718
 2236SOL    HW118170   2.272   2.579  12.583 -1.5225 -3.8476 -1.2268
 2236SOL    HW218171   2.383   2.649  12.521  0.4916 -0.1785  0.8448
 2237SOL     OW18172   3.060   1.646  17.472 -0.1477 -0.3064 -0.8070
 2237SOL    HW118173   3.044   1.635  17.378  2.6958  2.8423 -1.6790
 2237SOL    HW218174   2.985   1.697  17.501 -1.0216 -2.2851  0.3959
 2238SOL     OW18175   3.327   1.584  12.301 -0.0078  0.5155  0.6390
 2238SOL    HW118176   3.315   1.519  12.232 -1.5256  1.3026  0.1599
 2238SOL    HW218177   3.366   1.527  12.367 -1.4690 -2.5081 -1.1074
 2239SOL     OW18178   1.158   1.025   6.595 -0.0176  0.3290  0.4166
 2239SOL    HW118179   1.219   0.967   6.641  0.1565  1.0897  1.1507
 2239SOL    HW218180   1.119   0.963   6.534 -2.2648  0.2996  1.9125
 2240SOL     OW18181   2.621   0.818  11.954  0.6198  0.0774  0.6007
 2240SOL    HW118182   2.647   0.904  11.921 -2.1325  0.8474  0.4127
 2240SOL    HW218183   2.605   0.767  11.874  1.7977 -0.6424  0.8221
 2241SOL     OW18184   0.860   1.336   9.226  0.1570  0.3336  0.1457
 2241SOL    HW118185   0.871   1.346   9.131  1.2402 -1.1984  0.1046
 2241SOL    HW218186   0.875   1.241   9.226  0.6297  0.3998 -2.6645
 2242SOL     OW18187   2.435   2.095   9.356 -0.1228  0.0322 -0.1042
 2242SOL    HW118188   2.489   2.101   9.435 -0.8172 -2.1006  0.5277
 2242SOL    HW218189   2.459   2.012   9.313  0.9482 -0.3912  1.3083
 2243SOL     OW18190   0.838   0.431  17.442  0.1670  0.3046  0.1273
 2243SOL    HW118191   0.870   0.402  17.357  1.3566  1.0239  0.3449
 2243SOL    HW218192   0.832   0.349  17.492 -1.9519  0.2607 -0.1799
 2244SOL     OW18193   4.404   4.704   5.463  0.1077 -0.1167 -0.1963
 2244SOL    HW118194   4.472   4.656   5.416  0.0621 -1.3800  1.0184
 2244SOL    HW218195   4.453   0.066   5.483  1.5585 -0.7767 -1.1229
 2245SOL     OW18196   4.003   3.073   1.319 -0.6252  1.0240 -0.0484
 2245SOL    HW118197   3.934   3.007   1.324  0.5979 -0.3059 -0.6351
 2245SOL    HW218198   3.967   3.123   1.245 -1.0195 -0.7046 -1.0413
 2246SOL     OW18199   3.742   0.630   0.682 -0.1141 -0.0971  0.3296
 2246SOL    HW118200   3.821   0.681   0.702 -0.7082  0.0900  2.2219
 2246SOL    HW218201   3.681   0.691   0.723  0.5896  1.1524 -0.4906
 2247SOL     OW18202   2.463   2.648   7.214  0.3634 -0.3671 -0.4484
 2247SOL    HW118203   2.487   2.582   7.279  1.0130  2.4568  2.1648
 2247SOL    HW218204   2.470   2.594   7.135  0.8058  1.0169 -1.3541
 2248SOL     OW18205   1.936   3.636   8.692 -0.0941  0.5527 -0.1101
 2248SOL    HW118206   1.958   3.629   8.599 -0.2488  0.6898 -0.1560
 2248SOL    HW218207   1.844   3.617   8.675 -0.0283 -0.1734  0.3382
 2249SOL     OW18208   1.461   2.583   8.865 -0.1326  0.3607  0.3612
 2249SOL    HW118209   1.505   2.574   8.949  0.8472  0.4242 -0.1372
 2249SOL    HW218210   1.442   2.677   8.871  1.6821  0.6257  1.8179
 2250SOL     OW18211   0.482   0.300  16.917  0.3955 -0.1776 -0.2503
 2250SOL    HW118212   0.512   0.214  16.886  0.1764 -0.5798  0.6527
 2250SOL    HW218213   0.544   0.312  16.989 -3.6149  0.3281  3.1258
 2251SOL     OW18214   3.636   4.326  17.175  0.3458 -0.5033 -0.3476
 2251SOL    HW118215   3.549   4.287  17.189  0.3617 -0.9348 -1.4585
 2251SOL    HW218216   3.631   4.419  17.199 -1.9958 -0.9403  0.9485
 2252SOL     OW18217   4.451   4.240   8.161  0.2787  0.1806 -0.3045
 2252SOL    HW118218   4.355   4.241   8.162  0.2897  0.6219  0.3509
 2252SOL    HW218219   4.474   4.213   8.250 -0.1621  1.7905  0.2882
 2253SOL     OW18220   0.593   4.634  15.888  0.4488  0.2078  0.2970
 2253SOL    HW118221   0.503   4.613  15.915 -0.1755  1.2577 -0.9840
 2253SOL    HW218222   0.641   4.579  15.950  1.5676 -0.3238 -1.0382
 2254SOL     OW18223   4.281   1.412  17.669 -0.6473 -0.2976 -0.5022
 2254SOL    HW118224   4.303   1.349   0.064  1.9040  1.5579  0.3688
 2254SOL    HW218225   4.258   1.357  17.594  1.1532 -0.5884 -0.8324
 2255SOL     OW18226   1.686   1.062   6.386 -0.0129 -0.2195 -0.2948
 2255SOL    HW118227   1.631   1.141   6.389  0.3696  0.0752 -0.9309
 2255SOL    HW218228   1.727   1.073   6.471 -1.2876  1.0116  0.1594
 2256SOL     OW18229   2.667   1.880   7.199  0.2458 -0.1411  0.1697
 2256SOL    HW118230   2.623   1.843   7.276  0.8135  0.4361  0.7694
 2256SOL    HW218231   2.736   1.941   7.225 -0.3234  0.4707  0.2455
 2257SOL     OW18232   0.103   0.019   2.395  0.0258  1.3970  0.0419
 2257SOL    HW118233   0.089   4.716   2.303  0.0497  2.7200 -0.2590
 2257SOL    HW218234   0.158   0.097   2.387  3.2791 -1.0198 -1.4739
 2258SOL     OW18235   1.756   2.929  14.907  0.2047 -0.0546 -0.2392
 2258SOL    HW118236   1.760   3.024  14.899 -0.3622  0.0959  1.1223
 2258SOL    HW218237   1.759   2.913  15.002 -0.4174  0.1499 -0.1865
 2259SOL     OW18238   3.496   4.496   2.104  0.6128 -0.1227 -0.1015
 2259SOL    HW118239   3.542   4.485   2.021 -3.4941  1.2366 -2.5364
 2259SOL    HW218240   3.405   4.498   2.077 -0.3572 -2.5564  2.9951
 2260SOL     OW18241   0.793   0.565   9.021  1.1411  0.1652 -0.0227
 2260SOL    HW118242   0.839   0.556   9.105  0.1984 -2.8634  0.1735
 2260SOL    HW218243   0.824   0.486   8.977  0.7402  0.3243 -0.5925
 2261SOL     OW18244   0.765   3.935   1.783 -0.0580  0.8221  0.8908
 2261SOL    HW118245   0.705   3.895   1.845  0.5500 -1.2864  0.0998
 2261SOL    HW218246   0.782   3.854   1.736  3.0487  1.1028  1.5183
 2262SOL     OW18247   2.603   1.898  10.065  0.6908 -0.2942  0.1065
 2262SOL    HW118248   2.665   1.855  10.124  1.0870 -0.5711 -0.5071
 2262SOL    HW218249   2.626   1.989  10.085  1.2197 -0.3067 -0.4256
 2263SOL     OW18250   2.720   3.417  11.660  0.1963  0.4224 -0.0769
 2263SOL    HW118251   2.790   3.479  11.681 -0.3677  1.1895 -0.4596
 2263SOL    HW218252   2.652   3.480  11.638 -1.5343 -0.9544  1.3312
 2264SOL     OW18253   1.579   3.936   6.355  0.2503  0.0869 -0.0793
 2264SOL    HW118254   1.496   3.897   6.330  0.5763 -0.9589  0.4627
 2264SOL    HW218255   1.574   4.027   6.325  1.8768 -0.0323 -0.7059
 2265SOL     OW18256   2.979   3.849   9.723  0.5441 -0.3850  0.2325
 2265SOL    HW118257   2.904   3.802   9.758  2.2656 -1.9946  1.7384
 2265SOL    HW218258   2.987   3.926   9.779  0.6839  0.7176 -1.2840
 2266SOL     OW18259   4.710   0.838   2.474  0.3256  0.1835 -0.0451
 2266SOL    HW118260   4.631   0.811   2.428  0.1129 -0.3225  0.6126
 2266SOL    HW218261   0.061   0.805   2.415  0.2878  0.8033 -0.4380
 2267SOL     OW18262   3.560   0.372   5.656  0.2878  0.3683  0.5126
 2267SOL    HW118263   3.584   0.463   5.671 -0.1879  0.8313 -1.4783
 2267SOL    HW218264   3.554   0.345   5.748 -1.7555  0.5809  0.4503
 2268SOL     OW18265   3.900   2.075  10.376 -0.4899  0.8388  0.1778
 2268SOL    HW118266   3.849   2.135  10.431 -0.8343  0.8590 -0.1622
 2268SOL    HW218267   3.838   2.004  10.362 -0.2706  0.7663 -0.4401
 2269SOL     OW18268   0.155   1.013   6.586  0.4572  0.1845 -0.3999
 2269SOL    HW118269   0.245   1.025   6.556 -0.4760 -1.0395 -3.6758
 2269SOL    HW218270   0.106   1.074   6.531 -2.4796 -0.5481  1.4095
 2270SOL     OW18271   1.759   0.468   8.404 -0.1795 -0.2075  0.3510
 2270SOL    HW118272   1.810   0.527   8.348  0.2557 -0.1671  0.7870
 2270SOL    HW218273   1.752   0.531   8.476 -0.7421 -0.1793  0.2704
 2271SOL     OW18274   0.423   3.951   7.710  0.1982 -0.6166 -0.2658
 2271SOL    HW118275   0.514   3.980   7.715 -0.1204  0.0336  1.5589
 2271SOL    HW218276   0.436   3.856   7.716 -3.5827 -0.9815  1.6739
 2272SOL     OW18277   1.230   0.709   5.287  1.1408 -0.3043 -0.6974
 2272SOL    HW118278   1.243   0.617   5.312 -0.1450 -0.5764 -1.0429
 2272SOL    HW218279   1.320   0.740   5.279  0.8321  1.2223  1.8249
 2273SOL     OW18280   4.150   3.109   9.292 -0.0410  0.3885 -0.4357
 2273SOL    HW118281   4.220   3.173   9.305 -2.5301  2.6435  2.0492
 2273SOL    HW218282   4.187   3.027   9.324 -0.7415 -0.2008 -1.1597
 2274SOL     OW18283   4.401   0.581  16.123 -0.0208  0.0212  0.0956
 2274SOL    HW118284   4.374   0.494  16.093 -0.1113  0.2258 -0.4000
 2274SOL    HW218285   4.446   0.555  16.204  0.3657  2.0762  0.5464
 2275SOL     OW18286   3.841   1.946   7.568 -0.3094 -0.1602  0.4539
 2275SOL    HW118287   3.842   2.004   7.644 -0.2606  2.0824 -1.2609
 2275SOL    HW218288   3.928   1.908   7.572 -0.7802 -0.9998  3.0458
 2276SOL     OW18289   0.728   4.576  17.396 -0.0911  0.6566  0.5521
 2276SOL    HW118290   0.783   4.651  17.373 -0.1963 -0.9445 -4.8584
 2276SOL    HW218291   0.640   4.608  17.377  0.1515  0.2682 -1.1919
 2277SOL     OW18292   4.604   3.215   7.117  0.3474 -0.1335  0.2488
 2277SOL    HW118293   4.669   3.205   7.187 -0.8732  1.4802  1.5976
 2277SOL    HW218294   4.533   3.267   7.153  0.7519 -1.6305  3.1910
 2278SOL     OW18295   2.649   3.570  11.427 -0.5458 -0.3498 -0.1515
 2278SOL    HW118296   2.624   3.645  11.372  0.2493 -0.5146 -0.7343
 2278SOL    HW218297   2.586   3.504  11.399  0.5010 -1.3343 -0.1657
 2279SOL     OW18298   4.055   1.923  14.296 -0.7640 -0.0676  0.2872
 2279SOL    HW118299   3.984   1.978  14.264 -0.8181 -0.3976 -0.1499
 2279SOL    HW218300   4.011   1.894  14.376  2.0251  1.4472  2.3979
 2280SOL     OW18301   0.836   3.569  13.218 -0.4088 -0.4185 -0.5142
 2280SOL    HW118302   0.893   3.550  13.293  0.1696 -0.3729 -0.9341
 2280SOL    HW218303   0.910   3.575  13.157  0.9035 -0.6060  1.0295
 2281SOL     OW18304   0.422   2.310  13.146 -0.5280  1.0413 -0.2518
 2281SOL    HW118305   0.334   2.346  13.159 -0.8905  0.4580 -1.0371
 2281SOL    HW218306   0.421   2.280  13.055 -0.3295 -0.5562  0.2661
 2282SOL     OW18307   2.428   1.143   7.172 -0.0780  0.2615  0.1876
 2282SOL    HW118308   2.400   1.130   7.082 -1.8737 -3.2793  1.2726
 2282SOL    HW218309   2.456   1.054   7.194 -1.5683 -0.4414 -0.7576
 2283SOL     OW18310   0.401   1.641  12.069 -0.4262  0.2270  0.9068
 2283SOL    HW118311   0.380   1.684  12.152 -3.0904 -0.2964  0.5047
 2283SOL    HW218312   0.460   1.705  12.028  1.2715 -0.9627  1.5027
 2284SOL     OW18313   2.126   3.546  13.925 -0.2736 -0.0203  0.1754
 2284SOL    HW118314   2.137   3.640  13.937  0.7985  0.0427 -1.2383
 2284SOL    HW218315   2.031   3.551  13.937 -0.3870 -1.0332 -0.2988
 2285SOL     OW18316   2.561   4.385  15.719 -0.6506  0.2568  0.0975
 2285SOL    HW118317   2.639   4.382  15.775 -0.6224  0.4803  0.0697
 2285SOL    HW218318   2.573   4.464  15.667 -0.9410  0.2060 -0.0461
 2286SOL     OW18319   2.904   0.131   9.174 -0.3655  0.1620 -0.0697
 2286SOL    HW118320   2.929   0.221   9.197 -1.0599  0.1816  0.5879
 2286SOL    HW218321   2.810   0.127   9.188 -0.3495  2.1994  0.6984
 2287SOL     OW18322   3.167   1.578   7.117 -0.0618 -0.1272 -0.6268
 2287SOL    HW118323   3.145   1.666   7.148 -1.7827 -1.4280  1.9066
 2287SOL    HW218324   3.132   1.518   7.183 -3.0803  1.3047 -0.9124
 2288SOL     OW18325   1.611   4.501   3.852 -0.3176 -0.5224 -0.3922
 2288SOL    HW118326   1.538   4.533   3.799 -1.1808 -0.4586  0.8337
 2288SOL    HW218327   1.630   4.410   3.829  0.2341 -0.9919  1.8311
 2289SOL     OW18328   4.536   1.976   2.156  0.6071  0.7688  0.1537
 2289SOL    HW118329   4.572   1.916   2.221 -2.3596 -2.6500 -1.3356
 2289SOL    HW218330   4.476   1.913   2.116  1.1711  0.5213 -0.2996
 2290SOL     OW18331   1.508   3.364   6.148  0.2770 -0.0407  0.0620
 2290SOL    HW118332   1.484   3.392   6.060  3.6736  1.1739 -0.4750
 2290SOL    HW218333   1.519   3.271   6.126 -0.4240  0.2977 -1.6930
 2291SOL     OW18334   2.843   3.124   4.063 -0.9399 -0.6329  0.2850
 2291SOL    HW118335   2.876   3.194   4.119 -1.6372  0.8648 -1.1715
 2291SOL    HW218336   2.814   3.058   4.126  1.0943  0.8906  2.8133
 2292SOL     OW18337   1.545   3.873   6.638 -0.2620 -0.0733 -0.2074
 2292SOL    HW118338   1.543   3.877   6.543 -2.9139 -0.6100 -0.1821
 2292SOL    HW218339   1.454   3.895   6.658 -0.2404  0.0914 -0.2899
 2293SOL     OW18340   1.609   2.770   1.822 -0.2900 -0.2208  0.1748
 2293SOL    HW118341   1.520   2.797   1.799 -0.2660 -0.1677  0.1443
 2293SOL    HW218342   1.613   2.764   1.917  0.7909  0.1254  0.1525
 2294SOL     OW18343   4.195   4.167   0.191  0.1455  0.6061 -0.0065
 2294SOL    HW118344   4.248   4.105   0.140 -0.4517 -0.0587  0.1884
 2294SOL    HW218345   4.241   4.156   0.274 -0.0479 -0.9984 -0.1168
 2295SOL     OW18346   1.666   1.776  15.924 -0.3092  0.6934 -0.0513
 2295SOL    HW118347   1.598   1.754  15.860 -0.1276  1.0174 -0.3527
 2295SOL    HW218348   1.612   1.746  15.998  0.4475  0.5821  0.4531
 2296SOL     OW18349   0.341   1.464  11.856  0.3227  0.0049 -0.3070
 2296SOL    HW118350   0.373   1.483  11.944 -1.2863  0.0069  0.2759
 2296SOL    HW218351   0.318   1.371  11.867  0.0747  0.2312  1.0712
 2297SOL     OW18352   1.987   0.800   9.907 -0.1102 -0.0631 -0.6579
 2297SOL    HW118353   2.070   0.753   9.899  0.1528  0.0997  1.1482
 2297SOL    HW218354   1.989   0.840   9.994 -0.0598  0.5895 -0.9592
 2298SOL     OW18355   2.099   2.553   7.543 -0.3358 -0.1127  0.3145
 2298SOL    HW118356   2.186   2.593   7.545 -0.3484 -0.0467 -0.2547
 2298SOL    HW218357   2.061   2.588   7.462 -3.3709  0.5036  1.9920
 2299SOL     OW18358   4.326   1.240   8.791 -0.0954 -0.1303 -0.0363
 2299SOL    HW118359   4.390   1.243   8.863  2.6521  0.8595 -2.4865
 2299SOL    HW218360   4.310   1.146   8.795 -1.5105  0.0950 -0.5647
 2300SOL     OW18361   3.845   2.829   1.525 -0.3836 -0.5112 -0.6450
 2300SOL    HW118362   3.876   2.777   1.451  0.3085 -0.6643 -0.2463
 2300SOL    HW218363   3.828   2.768   1.597 -2.4299  0.6021 -0.1918
 2301SOL     OW18364   3.749   1.556   1.637  0.2448 -0.5505  0.0689
 2301SOL    HW118365   3.732   1.465   1.660  0.4149 -0.7318 -0.5189
 2301SOL    HW218366   3.741   1.553   1.542 -0.5772  0.9254  0.0847
 2302SOL     OW18367   4.096   2.804   5.120  0.3762  0.3442  0.6815
 2302SOL    HW118368   4.183   2.845   5.127  0.3995  0.7755 -2.3179
 2302SOL    HW218369   4.107   2.726   5.174 -0.7933 -1.1281 -1.2072
 2303SOL     OW18370   4.012   1.613   4.644 -0.5627 -0.7693  0.1363
 2303SOL    HW118371   3.975   1.525   4.638 -1.8188 -0.2524  0.2661
 2303SOL    HW218372   3.981   1.655   4.564 -0.3131 -0.4724  0.1932
 2304SOL     OW18373   2.858   0.348   7.854  0.0922  0.8441 -0.3428
 2304SOL    HW118374   2.882   0.428   7.901 -1.0020 -1.0482  3.3933
 2304SOL    HW218375   2.861   0.280   7.921 -0.7151  0.4077 -0.7588
 2305SOL     OW18376   2.067   3.063   3.811 -0.0803 -0.1398  0.2728
 2305SOL    HW118377   2.100   3.148   3.839  0.3794  0.1064 -1.0026
 2305SOL    HW218378   2.065   3.075   3.716 -1.6498  2.0680  0.5730
 2306SOL     OW18379   0.043   3.195   7.336 -0.1005 -0.4571  0.2299
 2306SOL    HW118380   0.044   3.103   7.362 -2.1457 -0.4676  0.2603
 2306SOL    HW218381   0.082   3.218   7.420  0.8626  1.2842 -0.6765
 2307SOL     OW18382   4.670   3.580   4.592 -0.3326  0.3295  0.2694
 2307SOL    HW118383   0.016   3.540   4.651  0.2422  1.4762  0.4143
 2307SOL    HW218384   4.588   3.537   4.619 -0.8287  2.3408  1.9673
 2308SOL     OW18385   4.480   1.394   2.018  0.4313  0.0599  0.1143
 2308SOL    HW118386   4.551   1.365   2.076 -0.0116 -0.5605  0.3449
 2308SOL    HW218387   4.516   1.470   1.973  1.4294  0.2046  1.1313
 2309SOL     OW18388   1.792   1.817  13.429 -0.3386 -0.1977 -0.4597
 2309SOL    HW118389   1.781   1.835  13.335  2.6752  1.1214 -0.5638
 2309SOL    HW218390   1.702   1.790  13.448 -0.3358 -0.1377 -0.3649
 2310SOL     OW18391   4.038   4.227   7.597  0.6784 -0.2634 -0.0714
 2310SOL    HW118392   3.960   4.206   7.647  2.6219 -1.9555  2.2451
 2310SOL    HW218393   4.080   4.146   7.570 -0.6833 -0.9287 -0.1744
 2311SOL     OW18394   2.913   4.569   8.882 -0.3269  0.1664 -0.6093
 2311SOL    HW118395   2.839   4.617   8.845 -1.7630 -0.6587  1.2256
 2311SOL    HW218396   2.883   4.480   8.865  1.1704 -0.5254  0.3051
 2312SOL     OW18397   3.605   0.688   2.387 -0.0776  0.2570  0.2703
 2312SOL    HW118398   3.511   0.708   2.388 -0.3857 -1.1402 -0.3490
 2312SOL    HW218399   3.643   0.775   2.392 -0.9248  0.6235  0.4529
 2313SOL     OW18400   2.584   3.323   8.389 -0.0268 -0.1034  0.3016
 2313SOL    HW118401   2.541   3.247   8.428 -0.7854  0.3222  0.2925
 2313SOL    HW218402   2.676   3.298   8.398  0.2870  1.0856  0.4158
 2314SOL     OW18403   4.629   2.993   6.854 -0.5412 -0.2257 -0.0975
 2314SOL    HW118404   4.580   2.975   6.774  1.4716  0.5673 -1.5119
 2314SOL    HW218405   4.678   3.072   6.831 -0.5606  0.0282  0.7121
 2315SOL     OW18406   0.291   0.884   3.926  0.3068  0.3822 -0.4547
 2315SOL    HW118407   0.254   0.924   4.005 -0.6756  2.0701 -1.7599
 2315SOL    HW218408   0.299   0.789   3.939  1.1508  0.7576  1.8864
 2316SOL     OW18409   0.541   2.630   3.227  0.0608  0.3405 -0.4442
 2316SOL    HW118410   0.509   2.717   3.254  1.7314  1.4277 -2.0205
 2316SOL    HW218411   0.466   2.574   3.248  0.5201 -0.3020 -0.5229
 2317SOL     OW18412   2.719   2.058   6.502  0.3738 -0.1779 -0.1646
 2317SOL    HW118413   2.681   2.057   6.590 -1.1297 -0.5505 -0.8237
 2317SOL    HW218414   2.664   2.128   6.466  0.4680  0.8153  1.6165
 2318SOL     OW18415   1.176   0.301  13.310 -0.7231  0.5139 -0.6574
 2318SOL    HW118416   1.171   0.382  13.360  1.5116  0.2040  0.0476
 2318SOL    HW218417   1.258   0.311  13.262 -0.4600  0.0407 -0.3041
 2319SOL     OW18418   1.612   1.122   2.352 -0.2690  0.2213 -0.2162
 2319SOL    HW118419   1.610   1.028   2.336 -2.1870  0.1851  0.1821
 2319SOL    HW218420   1.705   1.145   2.347  0.3406 -2.9665 -2.9963
 2320SOL     OW18421   3.815   2.721   0.723  0.1550 -0.3735 -0.2275
 2320SOL    HW118422   3.814   2.671   0.641  0.5852 -0.7781  0.0148
 2320SOL    HW218423   3.740   2.779   0.711  0.4351  0.3921  1.8807
 2321SOL     OW18424   1.671   0.656   6.482  0.2374 -0.0969 -0.4743
 2321SOL    HW118425   1.714   0.571   6.478 -0.1120 -0.3179  0.5848
 2321SOL    HW218426   1.625   0.652   6.565  0.3012  1.4817 -0.3678
 2322SOL     OW18427   0.196   4.253   0.314 -0.2449 -0.2210  0.6717
 2322SOL    HW118428   0.111   4.248   0.270  1.0944  1.6013 -2.0702
 2322SOL    HW218429   0.201   4.335   0.362  0.3929 -0.3553  0.8380
 2323SOL     OW18430   2.148   1.103   8.561  0.2914 -0.0159  0.3312
 2323SOL    HW118431   2.144   1.152   8.478  1.2736  1.3656  1.0934
 2323SOL    HW218432   2.062   1.129   8.595  0.6049  1.3386  0.1063
 2324SOL     OW18433   4.388   1.745  10.784 -0.0423 -0.2005  0.1500
 2324SOL    HW118434   4.478   1.762  10.810 -0.7706  2.3347  0.9996
 2324SOL    HW218435   4.369   1.675  10.847 -0.5710 -1.1619 -1.0671
 2325SOL     OW18436   4.010   2.492   7.278  0.0063  0.0235 -0.5074
 2325SOL    HW118437   4.018   2.573   7.328  1.2591  0.0125 -0.6851
 2325SOL    HW218438   4.072   2.511   7.207 -0.2826  0.2822 -0.6851
 2326SOL     OW18439   3.525   1.707   6.747  0.3120 -0.6254 -0.3072
 2326SOL    HW118440   3.468   1.690   6.672 -0.6551  2.1789 -0.2315
 2326SOL    HW218441   3.470   1.712   6.825  0.6962  2.1336 -0.1943
 2327SOL     OW18442   4.153   3.733   0.599 -0.2478 -0.4912  0.5608
 2327SOL    HW118443   4.204   3.739   0.518  0.7047  1.6548  1.3206
 2327SOL    HW218444   4.084   3.676   0.565  0.1252  0.1500 -1.2646
 2328SOL     OW18445   0.989   3.912   2.255  0.2928  0.3892  0.5806
 2328SOL    HW118446   1.074   3.954   2.246  0.5434 -0.6023 -1.6939
 2328SOL    HW218447   1.007   3.825   2.222  0.4280  0.4397  0.5240
 2329SOL     OW18448   4.693   1.633   7.239 -0.3431 -0.6001 -0.7179
 2329SOL    HW118449   4.636   1.559   7.260  1.8840 -1.3016  2.8124
 2329SOL    HW218450   4.628   1.698   7.264  1.2651  0.8171 -0.2153
 2330SOL     OW18451   0.802   0.383  13.953  0.5495 -0.8556 -0.1594
 2330SOL    HW118452   0.790   0.407  13.862 -4.4489 -2.1066  0.1838
 2330SOL    HW218453   0.888   0.340  13.948  0.2485 -1.5794  0.9479
 2331SOL     OW18454   4.352   0.093   5.041  0.5938  0.0610  0.0077
 2331SOL    HW118455   4.439   0.054   5.046  0.4231 -0.1201  1.5970
 2331SOL    HW218456   4.366   0.186   5.024 -0.3878  0.1779 -0.1339
 2332SOL     OW18457   3.314   0.710   9.423 -0.5704  0.8339  0.2751
 2332SOL    HW118458   3.243   0.649   9.404 -0.8547  0.8061  1.4453
 2332SOL    HW218459   3.281   0.736   9.509 -0.3161 -0.2508  0.6958
 2333SOL     OW18460   0.598   1.141   5.763 -0.1260  0.3421  0.4184
 2333SOL    HW118461   0.618   1.150   5.856  1.0635  0.3593  0.1719
 2333SOL    HW218462   0.587   1.046   5.765  2.1228  0.0497 -0.2410
 2334SOL     OW18463   0.957   1.257  12.609 -0.0767 -0.1401 -0.4212
 2334SOL    HW118464   1.013   1.187  12.576 -1.9262 -1.4201 -0.8229
 2334SOL    HW218465   0.979   1.270  12.701  0.1023  3.4145 -0.9688
 2335SOL     OW18466   2.253   2.051   0.959  0.1523 -0.1667  0.2045
 2335SOL    HW118467   2.190   2.117   0.988 -0.4442  0.6363 -2.9119
 2335SOL    HW218468   2.300   2.032   1.040  0.3904  2.0615  0.5784
 2336SOL     OW18469   0.831   0.469  15.298  0.3088 -0.2851 -0.2853
 2336SOL    HW118470   0.877   0.553  15.305  0.0713 -0.2051  0.3625
 2336SOL    HW218471   0.766   0.488  15.230  1.6289  1.3829 -1.0744
 2337SOL     OW18472   1.543   1.193   3.691  0.2652 -0.6054  0.8821
 2337SOL    HW118473   1.561   1.150   3.774  2.8146 -1.5932 -0.1956
 2337SOL    HW218474   1.591   1.275   3.704 -0.1971 -0.1061 -0.5490
 2338SOL     OW18475   0.967   2.902   5.629 -0.2703 -0.4009  0.1628
 2338SOL    HW118476   0.904   2.861   5.569 -0.7932  2.8542 -1.5267
 2338SOL    HW218477   0.991   2.828   5.685 -2.3317  0.5968  2.3933
 2339SOL     OW18478   1.300   0.576   3.637  0.0670 -0.6280 -0.0998
 2339SOL    HW118479   1.338   0.491   3.614 -1.6863 -1.6582  0.8361
 2339SOL    HW218480   1.365   0.642   3.610 -0.0638 -0.8204 -0.8840
 2340SOL     OW18481   0.194   2.796   1.157  0.4731 -0.8253  0.2710
 2340SOL    HW118482   0.100   2.798   1.177  0.8622  0.8965  2.0004
 2340SOL    HW218483   0.220   2.715   1.202  0.2757 -1.2903 -0.4473
 2341SOL     OW18484   2.163   4.560  14.421 -0.2534 -0.0585  0.3339
 2341SOL    HW118485   2.241   4.524  14.463  1.1161  1.0344 -1.2859
 2341SOL    HW218486   2.156   4.645  14.465 -0.8076  0.3498 -0.5349
 2342SOL     OW18487   1.963   4.639  15.027 -0.0249  0.2061 -0.0673
 2342SOL    HW118488   1.921   4.601  14.950 -1.0463 -1.6879  1.4312
 2342SOL    HW218489   1.999   0.006  14.998  0.1117 -0.1489 -0.9278
 2343SOL     OW18490   1.788   0.729   3.462  0.0290 -0.3722  0.1196
 2343SOL    HW118491   1.814   0.749   3.552  3.0017  0.4726 -0.9204
 2343SOL    HW218492   1.820   0.809   3.421  2.1954 -0.8260  0.9103
 2344SOL     OW18493   4.350   0.584   4.029  0.0606  0.2446 -0.4700
 2344SOL    HW118494   4.301   0.576   3.947  0.0360 -0.1507 -0.4188
 2344SOL    HW218495   4.433   0.620   3.998 -1.1795  1.0536 -2.8183
 2345SOL     OW18496   1.028   2.089  16.905  0.1685 -0.3853  0.2035
 2345SOL    HW118497   1.011   2.099  16.811 -1.3581  2.2730  0.7863
 2345SOL    HW218498   0.988   2.163  16.949 -0.3736 -1.0719  0.8705
 2346SOL     OW18499   4.403   2.350   7.725 -0.7774  0.2337 -0.1527
 2346SOL    HW118500   4.433   2.418   7.785  1.9526 -1.0517 -0.0582
 2346SOL    HW218501   4.452   2.368   7.644 -1.9906  0.4393 -0.8496
 2347SOL     OW18502   2.849   3.543   2.643  0.1622  0.4376  0.0817
 2347SOL    HW118503   2.776   3.534   2.581 -0.7930 -2.5239  1.6186
 2347SOL    HW218504   2.856   3.458   2.685  3.2961  0.2257 -0.8775
 2348SOL     OW18505   2.546   4.275  15.452 -0.3280  0.6642 -0.0398
 2348SOL    HW118506   2.642   4.279  15.456 -0.4117  3.3715 -0.9078
 2348SOL    HW218507   2.515   4.280  15.543 -1.1425 -0.0112 -0.2827
 2349SOL     OW18508   2.106   0.764   8.847  0.1567 -0.4096  0.3681
 2349SOL    HW118509   2.048   0.809   8.786  0.3318 -1.9383 -0.9185
 2349SOL    HW218510   2.061   0.680   8.853 -1.1225  0.1966 -0.8993
 2350SOL     OW18511   1.200   1.483  12.866  0.0653 -0.2271  0.6036
 2350SOL    HW118512   1.136   1.485  12.794  0.8430  1.7934 -0.0409
 2350SOL    HW218513   1.141   1.519  12.932 -0.4342  2.2875 -1.1988
 2351SOL     OW18514   3.321   4.031   8.370  0.0404 -0.1777 -0.4069
 2351SOL    HW118515   3.337   3.977   8.447 -0.9297  0.6915  0.4042
 2351SOL    HW218516   3.259   4.093   8.409 -0.4291  0.3635 -1.9990
 2352SOL     OW18517   0.495   3.845   4.816  0.4203 -0.4871 -0.0949
 2352SOL    HW118518   0.444   3.920   4.847 -0.4607 -0.5435 -1.3749
 2352SOL    HW218519   0.455   3.835   4.729 -1.1706  0.4805  0.5378
 2353SOL     OW18520   1.361   3.220   8.763  0.3084 -0.1731 -0.1289
 2353SOL    HW118521   1.271   3.187   8.759  0.8830 -1.6325 -1.1691
 2353SOL    HW218522   1.396   3.229   8.674 -0.2755 -2.5384 -0.5985
 2354SOL     OW18523   3.295   4.650   5.814  0.1331 -0.0995 -0.3849
 2354SOL    HW118524   3.281   0.001   5.880 -1.0789  0.4423 -1.2026
 2354SOL    HW218525   3.318   4.701   5.736  0.1417  0.9011  0.2685
 2355SOL     OW18526   4.701   4.039   5.460 -0.2518 -0.6779  0.0461
 2355SOL    HW118527   4.668   4.060   5.373  0.2443 -0.8650 -0.1901
 2355SOL    HW218528   4.661   4.115   5.502  0.6091  0.1533 -0.6437
 2356SOL     OW18529   3.218   3.039   3.976 -0.3470  0.5055 -0.1152
 2356SOL    HW118530   3.210   2.957   4.026 -0.9575  2.6014  3.2316
 2356SOL    HW218531   3.192   3.101   4.044 -0.6652 -0.1346  0.3472
 2357SOL     OW18532   3.906   1.589   3.182 -0.4609 -0.2869  0.0540
 2357SOL    HW118533   3.924   1.503   3.144 -1.1400 -1.0295  1.3989
 2357SOL    HW218534   3.866   1.635   3.108 -1.1669 -0.7324  0.1608
 2358SOL     OW18535   0.943   1.319   3.392 -0.2997  0.0552 -0.3361
 2358SOL    HW118536   1.011   1.252   3.381  0.0695 -0.2128  3.8069
 2358SOL    HW218537   0.871   1.276   3.346 -1.8698  1.6353  0.6977
 2359SOL     OW18538   3.044   3.588   3.522  0.3095 -0.7847  0.2571
 2359SOL    HW118539   3.120   3.574   3.578  1.5041 -0.1504 -1.1900
 2359SOL    HW218540   2.977   3.620   3.582  1.8056 -0.7312  1.8913
 2360SOL     OW18541   0.061   3.361  13.729  0.1417  0.1947  0.0788
 2360SOL    HW118542   0.125   3.410  13.677  0.4058 -0.6368 -0.3728
 2360SOL    HW218543   0.035   3.425  13.795  0.4748  0.4154 -0.0046
 2361SOL     OW18544   2.266   0.830  13.177 -0.9013 -0.8794  0.2610
 2361SOL    HW118545   2.275   0.838  13.272  1.8757 -1.0847  0.0153
 2361SOL    HW218546   2.328   0.899  13.156 -0.3774 -0.8652  1.8409
 2362SOL     OW18547   1.299   1.729  10.824 -0.0087  0.1958  0.1037
 2362SOL    HW118548   1.237   1.741  10.753 -0.2002  1.6133  0.5207
 2362SOL    HW218549   1.343   1.645  10.807 -0.3947  0.3049 -1.3834
 2363SOL     OW18550   1.032   2.042  15.473 -0.0343  0.2582  0.0965
 2363SOL    HW118551   1.057   2.119  15.422  1.4394  0.7627  1.5584
 2363SOL    HW218552   0.938   2.041  15.459  0.1027  0.5221 -0.8636
 2364SOL     OW18553   2.272   1.361   6.965  0.5814  0.1180 -0.4848
 2364SOL    HW118554   2.227   1.290   6.919 -1.5992  1.2755 -0.1334
 2364SOL    HW218555   2.363   1.329   6.966  0.2488 -0.7991  0.4645
 2365SOL     OW18556   2.614   3.619   2.429  0.0865 -0.2477 -0.1086
 2365SOL    HW118557   2.531   3.644   2.469  0.1162 -1.9443  1.0514
 2365SOL    HW218558   2.664   3.700   2.419  1.3167 -1.0104 -0.1788
 2366SOL     OW18559   0.780   1.774   4.692  0.5207 -0.3638  0.1838
 2366SOL    HW118560   0.728   1.854   4.683 -1.6212 -1.9722 -1.6199
 2366SOL    HW218561   0.782   1.756   4.598 -0.9142  1.3757 -0.1959
 2367SOL     OW18562   2.716   0.187   8.085  0.0731  0.3691  0.7444
 2367SOL    HW118563   2.806   0.213   8.104  1.0258 -0.1619 -3.1725
 2367SOL    HW218564   2.698   0.120   8.151 -0.8238  1.0718  1.2156
 2368SOL     OW18565   0.571   2.030   1.888 -0.0548 -0.4625 -0.1236
 2368SOL    HW118566   0.516   2.069   1.820  2.6092  2.4144 -0.6227
 2368SOL    HW218567   0.587   1.945   1.847 -0.8407 -1.6076  1.9498
 2369SOL     OW18568   3.565   4.045   6.051  0.5574 -0.0477 -0.6532
 2369SOL    HW118569   3.514   4.025   6.129  0.5967  0.9885 -0.3675
 2369SOL    HW218570   3.653   4.045   6.090  0.4531  0.5047 -0.4209
 2370SOL     OW18571   3.453   4.300  16.527 -0.4546 -0.0886  0.6544
 2370SOL    HW118572   3.503   4.360  16.582  0.7698 -1.3650  0.9310
 2370SOL    HW218573   3.378   4.352  16.499 -0.5638 -0.4018  0.3677
 2371SOL     OW18574   1.422   2.694   4.507  0.1313  0.9028  0.3891
 2371SOL    HW118575   1.359   2.736   4.448 -1.5109 -1.6255  0.3281
 2371SOL    HW218576   1.413   2.754   4.581 -1.2083  1.0125  0.1453
 2372SOL     OW18577   0.425   3.126  14.817  0.4140  1.0273  0.0937
 2372SOL    HW118578   0.435   3.131  14.722  1.3730 -1.9979  0.0163
 2372SOL    HW218579   0.386   3.211  14.833 -0.1217  0.6365  0.8366
 2373SOL     OW18580   0.428   2.241   9.210 -0.0367  0.6170 -0.1406
 2373SOL    HW118581   0.516   2.277   9.196  0.5056 -1.9010 -3.2051
 2373SOL    HW218582   0.423   2.244   9.305 -0.7745 -1.3450 -0.1236
 2374SOL     OW18583   2.676   1.057   2.004  0.1098 -0.4531  0.3173
 2374SOL    HW118584   2.687   1.137   1.952 -0.9105 -1.3886 -1.3738
 2374SOL    HW218585   2.582   1.040   1.990 -0.3161  1.8497  0.4832
 2375SOL     OW18586   4.237   2.747   6.030 -0.1340  0.0447  0.2232
 2375SOL    HW118587   4.301   2.703   6.085 -0.3025 -0.3263  0.1227
 2375SOL    HW218588   4.178   2.781   6.098  2.5539  0.2560  2.4149
 2376SOL     OW18589   3.788   3.583   3.350 -0.1206 -0.4376  0.4337
 2376SOL    HW118590   3.769   3.521   3.420 -2.4381 -0.4942 -0.2418
 2376SOL    HW218591   3.883   3.574   3.345 -0.3161 -1.3802 -1.6390
 2377SOL     OW18592   0.938   4.391   6.150  0.3365 -0.3423 -0.6047
 2377SOL    HW118593   0.873   4.407   6.082 -2.6173 -0.1103  2.2242
 2377SOL    HW218594   0.973   4.475   6.179  1.2986 -1.7476  2.3424
 2378SOL     OW18595   0.104   2.446   7.972  0.0542 -0.4864 -0.6333
 2378SOL    HW118596   0.047   2.441   8.049  1.5179  1.7356  0.6165
 2378SOL    HW218597   0.045   2.456   7.898  1.1019 -0.0107 -1.4119
 2379SOL     OW18598   0.915   0.068  17.476  0.5428  0.2799 -0.0481
 2379SOL    HW118599   0.879   0.121  17.547  0.1278  0.0981 -0.1272
 2379SOL    HW218600   1.005   0.100  17.464 -0.5106  2.1675 -2.9944
 2380SOL     OW18601   2.539   3.159  12.383  0.5132 -0.6190 -0.1065
 2380SOL    HW118602   2.521   3.119  12.298 -0.8892  0.3355 -0.2560
 2380SOL    HW218603   2.608   3.224  12.366  0.5896 -0.6007  0.2823
 2381SOL     OW18604   3.565   4.537   0.028 -0.1354  0.3910 -0.2414
 2381SOL    HW118605   3.648   4.493   0.042  0.0256  0.2560 -1.6424
 2381SOL    HW218606   3.541   4.515  17.611 -2.4022 -0.7507  0.6181
 2382SOL     OW18607   2.462   2.875  14.175 -0.0425  0.3531 -0.4818
 2382SOL    HW118608   2.456   2.930  14.098  0.4286 -1.7148 -1.9927
 2382SOL    HW218609   2.371   2.851  14.194  0.2474  0.3986  0.9792
 2383SOL     OW18610   3.032   2.216   1.601  0.5466 -0.3366  0.0465
 2383SOL    HW118611   3.024   2.194   1.694 -0.9173  0.6475  0.1432
 2383SOL    HW218612   3.126   2.233   1.602  0.5358 -0.1572 -1.6738
 2384SOL     OW18613   3.932   1.185   8.264  0.0454  0.1149 -0.3586
 2384SOL    HW118614   3.883   1.140   8.196 -3.3812  3.2775 -0.0105
 2384SOL    HW218615   3.915   1.278   8.248 -1.5682  0.0820  1.1837
 2385SOL     OW18616   1.273   2.703  10.862  0.1386 -0.1554 -0.6881
 2385SOL    HW118617   1.258   2.793  10.890  0.1305  0.1039 -1.5281
 2385SOL    HW218618   1.341   2.670  10.921 -0.2719 -1.8278 -1.1541
 2386SOL     OW18619   2.100   4.362   9.191  0.5905 -0.5346 -0.1963
 2386SOL    HW118620   2.114   4.269   9.177  2.8561 -0.2505  0.1569
 2386SOL    HW218621   2.091   4.368   9.286 -0.3806 -1.0542 -0.2474
 2387SOL     OW18622   0.332   2.992  10.045  0.1408 -0.1069 -0.2630
 2387SOL    HW118623   0.373   3.078  10.034  0.3182  0.0131  1.3864
 2387SOL    HW218624   0.412   2.942  10.060  0.4548  0.2028 -0.8628
 2388SOL     OW18625   3.108   1.550   4.943 -0.2693  0.3986  0.6505
 2388SOL    HW118626   3.116   1.524   4.852  3.2181 -2.1594  1.6853
 2388SOL    HW218627   3.169   1.624   4.937 -0.2716  0.4141  0.8186
 2389SOL     OW18628   2.006   3.849  15.390  0.3338  0.0267 -0.1599
 2389SOL    HW118629   1.942   3.892  15.447 -1.1886  1.3352 -2.8708
 2389SOL    HW218630   1.950   3.809  15.323 -0.0361 -1.6085  1.1349
 2390SOL     OW18631   2.505   0.608  13.510  0.2909 -0.4036  0.6639
 2390SOL    HW118632   2.542   0.676  13.567 -2.6704  0.8654  1.0950
 2390SOL    HW218633   2.565   0.606  13.436 -1.4595 -0.9743 -0.7392
 2391SOL     OW18634   1.243   2.834   7.544 -0.4528 -0.2920  0.1188
 2391SOL    HW118635   1.299   2.851   7.469 -0.2847  0.2542  0.3706
 2391SOL    HW218636   1.308   2.814   7.611  1.4201  0.3026 -1.5192
 2392SOL     OW18637   0.350   3.740   6.381 -0.4748  0.2446 -0.1626
 2392SOL    HW118638   0.339   3.686   6.459  0.7051  1.6102  0.9518
 2392SOL    HW218639   0.302   3.819   6.406  0.1882 -0.4407  3.2040
 2393SOL     OW18640   0.496   3.607   9.230 -0.2285 -0.1638 -0.4136
 2393SOL    HW118641   0.523   3.562   9.151  4.5951  1.9201  0.0933
 2393SOL    HW218642   0.407   3.618   9.196 -0.6672 -1.0199  0.4379
 2394SOL     OW18643   2.573   1.365   7.032  0.6190  0.1023 -0.0811
 2394SOL    HW118644   2.554   1.428   7.101 -0.3733 -0.1287 -0.1439
 2394SOL    HW218645   2.555   1.279   7.072  1.0382 -0.1443 -0.4246
 2395SOL     OW18646   1.672   0.557   8.977  0.1067 -0.1376  0.0736
 2395SOL    HW118647   1.693   0.646   8.947  0.9079 -0.9491 -1.7299
 2395SOL    HW218648   1.582   0.581   9.000  0.6382  4.5938 -2.7752
 2396SOL     OW18649   3.365   1.057   6.733  0.2919 -0.1934  0.2133
 2396SOL    HW118650   3.274   1.084   6.722 -0.2829 -1.6467  1.4151
 2396SOL    HW218651   3.368   1.052   6.829  1.8961  2.9161  0.3232
 2397SOL     OW18652   0.568   3.743   4.324  0.8131 -0.4286 -0.2898
 2397SOL    HW118653   0.572   3.775   4.234 -0.0886 -1.1317 -0.5735
 2397SOL    HW218654   0.544   3.651   4.316 -0.8327  0.1326 -1.7600
 2398SOL     OW18655   4.049   4.331  15.245  0.5048  0.0169  0.5539
 2398SOL    HW118656   4.020   4.411  15.289 -0.2346 -1.3038  2.4256
 2398SOL    HW218657   3.969   4.299  15.205 -1.2667  1.0393  3.3055
 2399SOL     OW18658   4.275   3.677   4.764 -0.7535  0.4562  0.3400
 2399SOL    HW118659   4.209   3.733   4.803  0.2449  0.9818  1.2900
 2399SOL    HW218660   4.315   3.735   4.700  2.6660 -3.0903 -0.7437
 2400SOL     OW18661   4.390   2.863  16.078 -0.1937  0.5214  0.5466
 2400SOL    HW118662   4.454   2.934  16.080  0.5160 -0.0764 -1.5650
 2400SOL    HW218663   4.320   2.911  16.033 -0.4274 -1.0110 -0.7250
 2401SOL     OW18664   3.902   1.237   2.563  0.4506  0.2164  0.2332
 2401SOL    HW118665   3.948   1.213   2.483  0.3133  0.4106  0.0950
 2401SOL    HW218666   3.807   1.231   2.549  0.8895 -0.0855 -2.5050
 2402SOL     OW18667   1.611   3.594   4.762  0.2552  0.4446 -0.2062
 2402SOL    HW118668   1.644   3.510   4.731 -1.3116 -0.1472 -0.2832
 2402SOL    HW218669   1.689   3.617   4.812 -0.2904 -3.0747  2.2810
 2403SOL     OW18670   0.942   2.772   4.672 -0.1116  0.1386 -0.0678
 2403SOL    HW118671   0.959   2.817   4.755  1.0891 -0.8181  0.2057
 2403SOL    HW218672   0.929   2.850   4.617 -1.0228 -1.0879 -1.5842
 2404SOL     OW18673   3.658   2.375   8.329  0.4021 -0.1261  0.1465
 2404SOL    HW118674   3.646   2.363   8.235 -1.8940 -0.5539  0.4952
 2404SOL    HW218675   3.568   2.353   8.353 -0.3307 -0.1234 -2.6493
 2405SOL     OW18676   0.965   3.930   3.418  1.0313  0.0040  0.1955
 2405SOL    HW118677   1.028   3.862   3.442  0.5836 -0.5102 -0.0865
 2405SOL    HW218678   0.887   3.903   3.467  0.4987 -0.3032 -0.8291
 2406SOL     OW18679   2.948   1.390   0.784  0.1456 -0.3535  0.3782
 2406SOL    HW118680   2.964   1.364   0.693  0.1541 -1.2431  0.6326
 2406SOL    HW218681   2.934   1.311   0.835 -0.0309 -0.3446  0.3441
 2407SOL     OW18682   3.795   0.381   0.590 -0.0472 -0.0945 -0.0311
 2407SOL    HW118683   3.810   0.460   0.642  0.0504  0.6673 -1.1932
 2407SOL    HW218684   3.717   0.350   0.634  1.0126  0.5959  2.3116
 2408SOL     OW18685   2.417   3.153   2.599  0.2550  0.3270 -0.1714
 2408SOL    HW118686   2.375   3.239   2.602  0.4580  0.3288  2.7913
 2408SOL    HW218687   2.353   3.094   2.640 -1.5754  1.3286 -1.6048
 2409SOL     OW18688   0.422   4.587   7.384  0.8751 -0.2009  0.1209
 2409SOL    HW118689   0.373   4.505   7.380  0.8963 -0.2250  0.3825
 2409SOL    HW218690   0.408   4.633   7.301 -1.4662  0.1784  0.7354
 2410SOL     OW18691   1.095   3.587  12.148  0.0610 -0.0768  0.0036
 2410SOL    HW118692   1.090   3.680  12.169 -3.3120 -0.3717  0.4497
 2410SOL    HW218693   1.061   3.589  12.059  0.1269  1.7878  0.0055
 2411SOL     OW18694   2.705   4.146  17.251 -0.1610 -0.2242  0.5738
 2411SOL    HW118695   2.684   4.079  17.317 -0.9061  0.3997  0.9689
 2411SOL    HW218696   2.642   4.121  17.183  0.9273 -1.4630  0.0142
 2412SOL     OW18697   0.217   0.377   8.194 -0.1148 -0.1492 -0.5709
 2412SOL    HW118698   0.217   0.466   8.229  3.0519 -0.9220  1.3111
 2412SOL    HW218699   0.304   0.348   8.221  0.1684 -0.8950 -2.2815
 2413SOL     OW18700   2.784   2.485  15.331  0.5259  0.1518  0.1080
 2413SOL    HW118701   2.848   2.553  15.351  0.4887  0.8758 -2.2490
 2413SOL    HW218702   2.824   2.464  15.246 -0.6851 -0.3545 -0.3457
 2414SOL     OW18703   2.672   1.086   9.193  0.5970 -0.6214 -0.2894
 2414SOL    HW118704   2.617   1.133   9.255  0.9033  1.3772 -1.5094
 2414SOL    HW218705   2.737   1.155   9.183  0.0190 -0.1290 -0.6438
 2415SOL     OW18706   2.860   4.666  11.268  0.6596 -0.4049 -0.8288
 2415SOL    HW118707   2.781   4.716  11.247 -0.1445 -1.6570 -0.7720
 2415SOL    HW218708   2.852   4.651  11.362  2.5854 -1.3846 -0.8107
 2416SOL     OW18709   0.256   0.774  12.261 -0.5161 -1.2782 -0.0109
 2416SOL    HW118710   0.230   0.866  12.264  0.6923 -0.8907 -1.4702
 2416SOL    HW218711   0.230   0.753  12.171 -0.6322  0.8824 -0.4865
 2417SOL     OW18712   0.017   1.781  15.035  0.3224 -0.4618  0.0011
 2417SOL    HW118713   0.011   1.693  14.997 -0.8972  0.7216 -2.5890
 2417SOL    HW218714   0.092   1.772  15.092  2.1026  0.8023 -2.1262
 2418SOL     OW18715   1.865   3.269   4.116  0.1066 -0.3683  0.6404
 2418SOL    HW118716   1.813   3.342   4.150 -0.3389 -0.5990  0.4586
 2418SOL    HW218717   1.824   3.193   4.159 -1.2554 -0.4079 -0.7415
 2419SOL     OW18718   2.036   4.695   5.654 -0.1024 -0.4300 -0.5122
 2419SOL    HW118719   2.009   0.069   5.667  0.1483 -0.4358  0.0352
 2419SOL    HW218720   2.123   4.696   5.694  0.8498 -0.5317 -2.5634
 2420SOL     OW18721   0.803   1.528   4.527  0.1632  0.1953 -0.3998
 2420SOL    HW118722   0.745   1.535   4.603 -0.7769  1.9033 -1.2673
 2420SOL    HW218723   0.756   1.469   4.467  0.8258 -0.0299 -0.6962
 2421SOL     OW18724   0.046   1.374  10.756 -0.6293  0.3430  0.4637
 2421SOL    HW118725   0.075   1.383  10.846 -0.6467 -0.6666  0.5713
 2421SOL    HW218726   0.082   1.288  10.734 -2.4341 -0.5855  1.2216
 2422SOL     OW18727   2.321   1.459  11.025 -0.1169  0.0065  0.3978
 2422SOL    HW118728   2.289   1.413  10.948  0.4467  0.8909 -0.3652
 2422SOL    HW218729   2.317   1.552  11.004 -0.5404 -0.5428 -1.9339
 2423SOL     OW18730   3.157   3.037   4.251 -0.6190 -0.2406  0.2249
 2423SOL    HW118731   3.133   2.948   4.228 -0.1893  0.2178 -1.9986
 2423SOL    HW218732   3.080   3.059   4.303 -1.1671  0.0970 -0.7395
 2424SOL     OW18733   3.314   3.865   3.300  0.3615  0.1407 -0.3900
 2424SOL    HW118734   3.383   3.805   3.327  2.2116  2.2656 -0.3526
 2424SOL    HW218735   3.364   3.945   3.283 -2.1577  1.8008  0.0275
 2425SOL     OW18736   1.310   1.672   7.677 -0.1033 -0.2245 -0.5997
 2425SOL    HW118737   1.289   1.738   7.743  1.3239 -0.0691 -0.3059
 2425SOL    HW218738   1.217   1.650   7.671 -0.1139  0.6929 -3.7268
 2426SOL     OW18739   0.258   4.365   8.265 -0.3555  0.1228 -0.0858
 2426SOL    HW118740   0.330   4.308   8.293  1.0288  2.7237  1.6487
 2426SOL    HW218741   0.317   4.433   8.232  0.1121 -0.1103  0.2747
 2427SOL     OW18742   0.860   0.108   4.622 -0.3215 -0.0316  0.2386
 2427SOL    HW118743   0.807   0.061   4.686  0.2421 -0.2993  0.5061
 2427SOL    HW218744   0.934   0.051   4.600 -1.6785 -1.1580 -1.3531
 2428SOL     OW18745   4.378   3.891   6.925 -0.2718  0.1652 -0.5180
 2428SOL    HW118746   4.333   3.853   7.000  2.1028 -2.4915 -0.4678
 2428SOL    HW218747   4.363   3.986   6.924  0.7652  0.3286  0.6232
 2429SOL     OW18748   3.720   4.536   4.280 -0.5016 -0.2616 -0.4569
 2429SOL    HW118749   3.630   4.568   4.276 -0.7049 -0.5752  1.5401
 2429SOL    HW218750   3.739   4.560   4.189  0.7154 -1.0776 -0.4149
 2430SOL     OW18751   2.479   1.799   2.421  0.6266 -0.7469  0.1197
 2430SOL    HW118752   2.392   1.778   2.388  0.5089  1.1344 -0.7482
 2430SOL    HW218753   2.525   1.760   2.347  0.5882 -2.4260  0.9738
 2431SOL     OW18754   2.891   2.037   3.541  0.1120  0.2736  0.5003
 2431SOL    HW118755   2.801   2.010   3.559  0.2522 -1.9516 -1.9700
 2431SOL    HW218756   2.924   2.080   3.620 -3.7677 -0.0022  2.2621
 2432SOL     OW18757   3.063   2.027  15.990 -0.1772 -0.6247 -0.0654
 2432SOL    HW118758   3.017   1.973  15.926  2.6675 -1.6347 -1.2633
 2432SOL    HW218759   3.025   1.996  16.073  0.6553  0.5650  0.7523
 2433SOL     OW18760   0.231   2.418   5.153  0.6605  0.1654  0.3198
 2433SOL    HW118761   0.319   2.380   5.160  1.0445  0.6614 -1.9496
 2433SOL    HW218762   0.235   2.463   5.068 -0.4839 -0.2127  0.0636
 2434SOL     OW18763   4.510   3.854   0.285 -0.0749 -0.6499 -0.0682
 2434SOL    HW118764   4.525   3.881   0.375 -1.0070 -1.1340  0.2329
 2434SOL    HW218765   4.585   3.797   0.268  1.7241  0.8782  2.7210
 2435SOL     OW18766   0.426   1.050   6.568  0.4126 -0.3350 -0.4396
 2435SOL    HW118767   0.442   1.123   6.627 -0.6757 -0.1783 -0.3538
 2435SOL    HW218768   0.427   1.094   6.483 -5.3553  0.7253  0.0616
 2436SOL     OW18769   2.888   2.747   9.138 -0.1604  0.7144 -0.4243
 2436SOL    HW118770   2.972   2.708   9.115 -1.4473 -2.8968  1.0286
 2436SOL    HW218771   2.857   2.673   9.190 -0.2130  0.8360 -0.2818
 2437SOL     OW18772   0.584   3.492   3.439  0.6574  0.1578 -0.4882
 2437SOL    HW118773   0.630   3.426   3.387 -0.8261 -0.6655 -0.7563
 2437SOL    HW218774   0.567   3.431   3.511  0.7298  1.0660  0.2952
 2438SOL     OW18775   3.206   2.997   2.220  0.0983  0.8887  0.1040
 2438SOL    HW118776   3.293   2.968   2.248  0.3735  0.4274 -1.2246
 2438SOL    HW218777   3.162   2.922   2.180  0.3195  0.5111  0.5713
 2439SOL     OW18778   2.868   2.542   3.133  0.4389  0.7955 -0.6659
 2439SOL    HW118779   2.915   2.532   3.216 -2.2018 -1.4362  0.5723
 2439SOL    HW218780   2.935   2.510   3.073  0.6118  1.1017 -0.6332
 2440SOL     OW18781   2.718   0.026   5.807  0.4110  0.3609  0.3404
 2440SOL    HW118782   2.785   4.690   5.765 -0.3169  1.0749 -1.7101
 2440SOL    HW218783   2.685   4.682   5.872 -0.2201  1.4269  1.0449
 2441SOL     OW18784   3.566   4.267   4.939  0.3782  0.4607 -0.1174
 2441SOL    HW118785   3.543   4.177   4.963  2.3386 -0.0300 -0.0520
 2441SOL    HW218786   3.486   4.300   4.897 -0.1165 -1.4632 -0.6846
 2442SOL     OW18787   3.576   3.620   0.480  0.1891  0.0755  0.1078
 2442SOL    HW118788   3.509   3.680   0.448 -2.0199 -1.6676  1.4380
 2442SOL    HW218789   3.582   3.546   0.420 -0.2829  2.5248 -2.9478
 2443SOL     OW18790   4.688   4.655   8.881  0.2829 -0.1566  0.2984
 2443SOL    HW118791   4.666   4.576   8.931 -2.1489  0.6380  0.4810
 2443SOL    HW218792   0.021   4.610   8.813  0.1309 -0.9615  0.7242
 2444SOL     OW18793   3.626   3.973  10.800  0.5595  0.0846  0.4076
 2444SOL    HW118794   3.613   4.062  10.831  0.5900  0.2181  0.0349
 2444SOL    HW218795   3.550   3.956  10.744 -0.4863  0.1381  1.7902
 2445SOL     OW18796   0.432   0.630  12.676 -0.5131  0.4182  0.3007
 2445SOL    HW118797   0.521   0.621  12.708  0.1652  0.3138 -1.6178
 2445SOL    HW218798   0.418   0.724  12.669 -0.3994  0.4229  0.1206
 2446SOL     OW18799   3.695   0.306   4.101  0.1107  0.1962 -0.2934
 2446SOL    HW118800   3.669   0.248   4.172 -1.6371  0.3695 -0.8003
 2446SOL    HW218801   3.612   0.349   4.081  0.7100  1.0206 -1.0468
 2447SOL     OW18802   2.497   1.428  16.344  0.0190 -0.7802 -0.4157
 2447SOL    HW118803   2.470   1.405  16.255  1.2297 -1.0141 -0.7259
 2447SOL    HW218804   2.411   1.438  16.386  0.6954 -1.1784  1.0552
 2448SOL     OW18805   3.023   4.240   8.992  0.5471  0.7864  0.0398
 2448SOL    HW118806   2.986   4.268   9.075 -1.7084 -2.4693  0.1255
 2448SOL    HW218807   3.107   4.201   9.017  0.0417 -0.2110  0.1772
 2449SOL     OW18808   3.019   2.161   3.147 -0.2539 -0.2927  0.0509
 2449SOL    HW118809   2.993   2.193   3.060  0.1031  0.6102  0.2805
 2449SOL    HW218810   2.944   2.195   3.197  0.5450  1.7605 -0.1451
 2450SOL     OW18811   2.421   1.520  10.766  0.2326 -0.1093  0.0700
 2450SOL    HW118812   2.483   1.479  10.826 -0.7751 -0.3920  0.9176
 2450SOL    HW218813   2.356   1.449  10.769 -0.4982  0.7408  3.7786
 2451SOL     OW18814   1.230   4.568  14.230 -0.2890  0.4336  0.0859
 2451SOL    HW118815   1.276   4.542  14.150 -2.6996  1.1007 -1.5390
 2451SOL    HW218816   1.300   4.624  14.264  1.5417 -1.3579 -0.7376
 2452SOL     OW18817   4.094   2.071  10.600  0.2592 -0.0306 -0.4868
 2452SOL    HW118818   4.042   2.084  10.521 -1.4320 -1.9042  0.2931
 2452SOL    HW218819   4.035   2.099  10.670 -0.4964 -1.2794 -0.6072
 2453SOL     OW18820   1.525   2.167  14.849 -0.0260  0.0635  0.3991
 2453SOL    HW118821   1.616   2.195  14.861  0.7013 -1.3526 -1.6599
 2453SOL    HW218822   1.535   2.107  14.774  2.7153  3.1278 -1.7062
 2454SOL     OW18823   3.448   0.415   7.100  0.0035 -0.1288 -0.0419
 2454SOL    HW118824   3.465   0.451   7.187  0.7418 -1.8686  0.5405
 2454SOL    HW218825   3.357   0.388   7.112 -0.6276  2.2108  0.3781
 2455SOL     OW18826   1.018   0.710  10.384 -0.1811 -0.2524  0.4494
 2455SOL    HW118827   1.021   0.618  10.410 -0.0491 -0.3827 -0.0155
 2455SOL    HW218828   1.000   0.747  10.470 -2.7421  1.5355 -0.8547
 2456SOL     OW18829   3.225   2.895   8.046 -0.2013  0.1904 -0.0392
 2456SOL    HW118830   3.288   2.913   7.976 -1.3279  1.1825 -0.8120
 2456SOL    HW218831   3.271   2.818   8.079  1.1531  1.6878  1.5586
 2457SOL     OW18832   0.201   3.812  14.061 -0.4363  0.3715  0.7974
 2457SOL    HW118833   0.167   3.815  14.151 -1.6472  0.2667  0.3434
 2457SOL    HW218834   0.295   3.812  14.078 -0.4715 -0.1656  0.9725
 2458SOL     OW18835   1.804   2.543   6.343 -0.0522 -0.3544 -0.0435
 2458SOL    HW118836   1.713   2.540   6.312 -0.1201 -1.9481  0.3312
 2458SOL    HW218837   1.810   2.455   6.380 -1.3977 -0.7396 -0.7128
 2459SOL     OW18838   3.739   0.340   2.943  0.8319 -0.1616  0.2418
 2459SOL    HW118839   3.834   0.339   2.959  0.7276 -2.0898  0.7630
 2459SOL    HW218840   3.715   0.432   2.957 -0.8963 -0.6678  0.4980
 2460SOL     OW18841   2.567   4.566  13.169 -0.1168  0.3526  0.2151
 2460SOL    HW118842   2.596   4.609  13.249  1.2550 -0.8210  0.3488
 2460SOL    HW218843   2.501   4.509  13.208 -0.1586 -0.4161 -0.9709
 2461SOL     OW18844   3.242   2.474   0.524  0.5044  0.1935  0.5918
 2461SOL    HW118845   3.308   2.424   0.572 -0.1324  0.0916  1.3697
 2461SOL    HW218846   3.200   2.510   0.603 -2.2560  0.4219 -1.0060
 2462SOL     OW18847   4.610   1.701   5.774 -0.4061 -0.0895  0.1597
 2462SOL    HW118848   4.568   1.619   5.799 -0.5672 -0.6346 -1.9490
 2462SOL    HW218849   4.630   1.740   5.860  0.0517 -1.1026  0.5147
 2463SOL     OW18850   3.747   4.153   2.298 -0.3738  0.2574 -0.3256
 2463SOL    HW118851   3.706   4.070   2.275 -0.6560  0.0527  0.8873
 2463SOL    HW218852   3.794   4.185   2.220  1.6912  0.7895  1.1132
 2464SOL     OW18853   0.827   2.882   7.874 -0.1783 -0.7666 -0.2357
 2464SOL    HW118854   0.814   2.909   7.964  0.1678 -1.1377 -0.0746
 2464SOL    HW218855   0.732   2.880   7.856  0.1322  0.4806 -2.0566
 2465SOL     OW18856   4.161   0.976  17.409  0.5620 -1.0731  0.3050
 2465SOL    HW118857   4.173   0.974  17.314  1.8106  1.3539  0.4396
 2465SOL    HW218858   4.204   0.893  17.431  1.0146 -0.7547  0.6251
 2466SOL     OW18859   3.734   0.778   4.153 -0.3805  0.3330 -0.0088
 2466SOL    HW118860   3.674   0.851   4.164  0.1487  0.7567  0.0295
 2466SOL    HW218861   3.690   0.733   4.081 -1.8420 -0.5458  1.4299
 2467SOL     OW18862   2.349   3.513   4.209  0.0814 -0.7214 -0.6215
 2467SOL    HW118863   2.442   3.535   4.219 -0.5876  0.5059  2.8918
 2467SOL    HW218864   2.350   3.480   4.119  2.5778 -2.9467  0.2328
 2468SOL     OW18865   0.359   3.842   3.417 -0.1543 -0.1295  0.1498
 2468SOL    HW118866   0.324   3.794   3.342  0.9447 -0.3671 -0.2066
 2468SOL    HW218867   0.447   3.808   3.426 -1.1735 -2.7875  0.0260
 2469SOL     OW18868   4.375   2.873   1.951  0.0139 -0.1555 -0.6639
 2469SOL    HW118869   4.465   2.901   1.963 -0.2522  0.0130  0.9684
 2469SOL    HW218870   4.394   2.796   1.899  0.6804 -0.4848  0.0783
 2470SOL     OW18871   1.128   2.370   4.858 -1.0230  0.2938 -0.4362
 2470SOL    HW118872   1.080   2.303   4.906 -0.2072 -1.0218 -1.4695
 2470SOL    HW218873   1.140   2.319   4.778 -3.5635  0.5299 -0.9567
 2471SOL     OW18874   1.199   2.969   6.917 -0.6930  0.0440  0.1022
 2471SOL    HW118875   1.176   2.906   6.985 -0.8804 -1.2530 -1.1427
 2471SOL    HW218876   1.290   2.989   6.938  0.8896 -5.2052 -1.6541
 2472SOL     OW18877   0.462   4.002   8.380 -0.1690  0.3729 -0.1904
 2472SOL    HW118878   0.543   3.979   8.335  1.4533  2.7959  1.4758
 2472SOL    HW218879   0.496   4.012   8.469 -2.0070 -0.7472  0.6288
 2473SOL     OW18880   4.368   4.044   8.477 -0.0509 -0.4672  0.6546
 2473SOL    HW118881   4.374   4.003   8.563 -1.4470  0.8992  1.4072
 2473SOL    HW218882   4.459   4.065   8.457 -0.6217 -0.9037 -2.4575
 2474SOL     OW18883   3.709   2.848   6.321 -0.7305 -0.4867 -0.3154
 2474SOL    HW118884   3.723   2.875   6.231 -0.7545 -0.1560 -0.2188
 2474SOL    HW218885   3.623   2.806   6.312 -1.0761  0.3513 -0.9282
 2475SOL     OW18886   2.346   1.380   2.418  0.1690 -0.1518  0.1528
 2475SOL    HW118887   2.324   1.364   2.509  0.9315 -0.9594  0.2033
 2475SOL    HW218888   2.346   1.474   2.401 -0.8906 -0.3950 -1.2420
 2476SOL     OW18889   1.352   1.354  10.575 -0.5676 -0.6008  0.5598
 2476SOL    HW118890   1.359   1.389  10.664  1.0996 -1.0042  0.5772
 2476SOL    HW218891   1.346   1.258  10.582  0.4663 -0.8138 -1.6712
 2477SOL     OW18892   1.813   0.402   7.773  0.0031  0.3997  0.0156
 2477SOL    HW118893   1.784   0.418   7.863 -2.3934 -1.3401 -0.4549
 2477SOL    HW218894   1.895   0.353   7.785  0.3331  0.9400 -0.0164
 2478SOL     OW18895   0.222   1.240   3.539  0.0621 -0.4113 -0.0492
 2478SOL    HW118896   0.283   1.217   3.468 -0.1936 -2.0953  0.2948
 2478SOL    HW218897   0.261   1.324   3.565 -0.9452 -0.5825  1.9681
 2479SOL     OW18898   2.588   3.473  10.709  0.6897  0.5584 -0.0842
 2479SOL    HW118899   2.580   3.379  10.696 -1.1130  0.8715 -1.2385
 2479SOL    HW218900   2.525   3.482  10.780  0.8156  0.7457  0.0054
 2480SOL     OW18901   2.266   1.749   3.603  0.5772 -0.1263  0.0912
 2480SOL    HW118902   2.232   1.661   3.621  0.5863 -0.2272 -0.3736
 2480SOL    HW218903   2.263   1.791   3.688 -1.2872 -3.4430  1.6759
 2481SOL     OW18904   4.228   0.455   2.701  0.2882 -0.0566  0.1237
 2481SOL    HW118905   4.220   0.372   2.654 -0.4222 -1.5087  2.8088
 2481SOL    HW218906   4.305   0.435   2.753  0.1928 -1.0447 -0.1107
 2482SOL     OW18907   4.619   1.730   3.221 -0.2201 -0.1029 -0.5022
 2482SOL    HW118908   4.692   1.774   3.263 -0.6932 -0.7457  0.9826
 2482SOL    HW218909   4.545   1.729   3.281  1.1928  0.3739  1.2265
 2483SOL     OW18910   3.142   2.563   1.463  0.1522  0.6140 -0.7167
 2483SOL    HW118911   3.236   2.575   1.457 -0.0817  1.5942 -2.1843
 2483SOL    HW218912   3.122   2.600   1.549  2.2632  0.0836 -0.0052
 2484SOL     OW18913   2.838   2.246   2.769 -0.0505  0.6209  0.2842
 2484SOL    HW118914   2.823   2.255   2.863  0.8648  0.8127  0.4139
 2484SOL    HW218915   2.863   2.337   2.754 -0.1306  0.3780 -1.3509
 2485SOL     OW18916   3.392   3.850  11.042  0.5335  0.1251  0.2018
 2485SOL    HW118917   3.403   3.761  11.008 -2.0366 -0.2215  0.2226
 2485SOL    HW218918   3.481   3.882  11.056  0.6428 -0.1587  0.1666
 2486SOL     OW18919   2.777   2.484  12.159  0.0744  0.0879  0.0304
 2486SOL    HW118920   2.701   2.478  12.218 -0.7275 -1.5884 -1.1675
 2486SOL    HW218921   2.751   2.548  12.093  0.3493 -0.4498 -0.5964
 2487SOL     OW18922   1.568   3.894   7.509  0.2817  0.1980  0.1004
 2487SOL    HW118923   1.584   3.901   7.415  0.4000 -2.4948 -0.0927
 2487SOL    HW218924   1.496   3.956   7.514 -2.0936 -2.6445  1.5660
 2488SOL     OW18925   0.905   1.214   8.986 -0.1417 -0.7869 -0.1919
 2488SOL    HW118926   0.938   1.134   9.027 -1.7958 -1.9585 -1.1670
 2488SOL    HW218927   0.909   1.191   8.893  3.0305 -0.6679 -0.0742
 2489SOL     OW18928   3.278   4.147   3.748 -0.7752 -0.0809  1.1133
 2489SOL    HW118929   3.209   4.168   3.810 -2.1817  0.3604 -0.5909
 2489SOL    HW218930   3.246   4.065   3.709  2.6360 -1.2771  0.8574
 2490SOL     OW18931   0.920   0.446   7.234 -0.1146 -0.5241 -0.6086
 2490SOL    HW118932   0.932   0.367   7.288 -1.5359  0.1692  0.7205
 2490SOL    HW218933   0.981   0.438   7.161  0.2235  1.2109 -0.5106
 2491SOL     OW18934   3.759   3.592   6.623  0.3791 -0.2827 -0.9011
 2491SOL    HW118935   3.717   3.524   6.572  0.9583 -0.8281 -0.6494
 2491SOL    HW218936   3.729   3.669   6.576 -0.8187  0.2235  0.6928
 2492SOL     OW18937   4.036   4.157  14.474 -0.3454 -0.0149  0.0579
 2492SOL    HW118938   4.059   4.132  14.563 -4.0436 -0.8423  0.8157
 2492SOL    HW218939   3.966   4.095  14.450  0.8881 -0.6468 -1.9512
 2493SOL     OW18940   2.958   0.610   4.129 -0.2158 -0.1486 -0.4387
 2493SOL    HW118941   2.934   0.698   4.158  0.6830  0.6284 -2.0176
 2493SOL    HW218942   2.934   0.606   4.036  0.2247 -1.1867 -0.5096
 2494SOL     OW18943   4.330   3.351   2.363 -0.1005  0.3694  0.3874
 2494SOL    HW118944   4.251   3.405   2.375  0.4088  1.4857 -1.3238
 2494SOL    HW218945   4.324   3.293   2.439  2.7636 -0.6201 -0.1469
 2495SOL     OW18946   3.112   1.933  16.740 -0.1679 -0.0460  0.4856
 2495SOL    HW118947   3.197   1.894  16.760  0.0120  0.7519  1.2950
 2495SOL    HW218948   3.085   1.952  16.830 -1.9927  0.5320 -0.1926
 2496SOL     OW18949   2.430   4.267   9.299  0.0538  0.3452  0.2947
 2496SOL    HW118950   2.349   4.230   9.264  0.4183 -0.8270  0.6759
 2496SOL    HW218951   2.468   4.305   9.220  1.1481 -3.2402 -0.9376
 2497SOL     OW18952   3.320   4.580   9.178  0.2653 -0.0174 -0.4439
 2497SOL    HW118953   3.301   4.664   9.221 -0.1518 -0.8038  0.9213
 2497SOL    HW218954   3.405   4.560   9.217  1.3664 -0.6607 -3.2264
 2498SOL     OW18955   2.064   1.157   5.417 -0.7193 -0.5891 -0.3731
 2498SOL    HW118956   2.013   1.228   5.457  1.4372  1.2289 -0.8941
 2498SOL    HW218957   2.149   1.186   5.448 -1.2001  0.8586 -0.3875
 2499SOL     OW18958   3.053   2.520   7.307  0.1954  0.1697  0.6500
 2499SOL    HW118959   3.054   2.432   7.345 -2.4743 -0.3254 -0.4306
 2499SOL    HW218960   2.965   2.514   7.270  1.1484 -1.2502 -1.3864
 2500SOL     OW18961   4.375   1.924   6.458  0.1267  0.6961 -0.2312
 2500SOL    HW118962   4.324   1.944   6.536  0.4996 -1.3429  0.5186
 2500SOL    HW218963   4.408   1.847   6.504  1.2057  0.8976 -0.6597
 2501SOL     OW18964   3.660   0.163  10.144 -0.1142  0.3591 -0.3417
 2501SOL    HW118965   3.626   0.172  10.055  0.2418 -1.7655 -0.7061
 2501SOL    HW218966   3.672   0.068  10.155  1.0203  0.6156  0.7030
 2502SOL     OW18967   4.503   3.053   8.463  0.2090  0.6231 -0.0062
 2502SOL    HW118968   4.428   2.996   8.479  0.7374  0.3099  1.3536
 2502SOL    HW218969   4.468   3.137   8.431 -0.2159  1.3258  2.2601
 2503SOL     OW18970   3.044   0.755   0.741  0.1993 -0.6228  0.2053
 2503SOL    HW118971   3.006   0.727   0.657 -1.1466 -0.1273  0.6470
 2503SOL    HW218972   3.015   0.684   0.799 -0.1321 -1.1583 -0.6077
 2504SOL     OW18973   3.492   1.017   5.952  0.0395  0.5497  0.0217
 2504SOL    HW118974   3.572   0.973   5.922 -0.9871 -0.0711 -1.8287
 2504SOL    HW218975   3.423   0.965   5.911  0.8598  0.2571 -0.9850
 2505SOL     OW18976   2.823   2.390   7.902  0.3026  0.0450  0.0176
 2505SOL    HW118977   2.752   2.399   7.965 -1.8560  0.3258 -2.4532
 2505SOL    HW218978   2.881   2.461   7.929  2.8764 -0.9228 -3.0076
 2506SOL     OW18979   4.228   3.793   3.133  0.2787  0.3115  0.1734
 2506SOL    HW118980   4.213   3.887   3.124  0.7537  0.3771  0.0333
 2506SOL    HW218981   4.300   3.774   3.073  1.2879  0.6858  1.2471
 2507SOL     OW18982   1.746   4.674   7.839  0.1557  0.0748 -0.0995
 2507SOL    HW118983   1.746   4.701   7.930 -2.1814 -0.2276 -0.0058
 2507SOL    HW218984   1.841   4.662   7.829  0.4968  0.1594  3.0535
 2508SOL     OW18985   3.281   2.361   6.751 -0.7048 -0.5576  0.0292
 2508SOL    HW118986   3.235   2.281   6.777 -0.2921 -0.2863  1.6124
 2508SOL    HW218987   3.246   2.427   6.810  0.5617  0.9607 -0.9075
 2509SOL     OW18988   1.438   4.640   3.651  0.0636  0.3960  0.1728
 2509SOL    HW118989   1.418   4.668   3.561 -0.6699 -0.8714 -0.0615
 2509SOL    HW218990   1.352   4.611   3.680 -0.2504 -0.5369 -1.6483
 2510SOL     OW18991   2.045   4.426  13.229 -0.6258 -0.2020 -0.5252
 2510SOL    HW118992   2.094   4.354  13.189  1.1088  1.0691 -0.6526
 2510SOL    HW218993   2.077   4.423  13.319  0.7818  2.2710 -0.9695
 2511SOL     OW18994   1.221   3.399   4.743 -0.0825 -0.3359  0.5372
 2511SOL    HW118995   1.255   3.469   4.797  1.6456  0.2642 -1.3348
 2511SOL    HW218996   1.155   3.368   4.805  1.7826 -0.9748  2.1884
 2512SOL     OW18997   2.305   3.864   8.566 -0.1209  0.1178  0.3669
 2512SOL    HW118998   2.253   3.899   8.639  0.5386  0.8566  0.4866
 2512SOL    HW218999   2.314   3.945   8.516 -0.7106  1.0349  1.7299
 2513SOL     OW19000   0.903   3.398   8.371 -0.0731  0.1581  0.4678
 2513SOL    HW119001   0.814   3.434   8.376 -0.7548 -1.2536 -1.6645
 2513SOL    HW219002   0.900   3.325   8.433 -0.5314 -1.4809 -1.4725
 2514SOL     OW19003   3.074   0.209   4.024 -0.1732  0.7083  0.6404
 2514SOL    HW119004   3.131   0.271   4.069 -0.4264  1.4548 -0.0594
 2514SOL    HW219005   3.009   0.269   3.986 -0.3265 -0.3375 -0.7444
 2515SOL     OW19006   3.732   3.133   6.405  0.1359  0.3368  0.0215
 2515SOL    HW119007   3.725   3.046   6.367  0.5849  0.1406  0.3870
 2515SOL    HW219008   3.814   3.166   6.370 -0.5781  2.4958  0.3493
 2516SOL     OW19009   0.626   4.469  15.251 -0.4023 -0.0492 -0.0612
 2516SOL    HW119010   0.626   4.560  15.221  4.4257  0.3002  1.0088
 2516SOL    HW219011   0.678   4.469  15.332 -3.5146  2.8469  1.9258
 2517SOL     OW19012   4.543   1.640   1.871  0.0653 -0.8623 -0.2706
 2517SOL    HW119013   4.628   1.659   1.831  1.0472 -0.6924  1.8892
 2517SOL    HW219014   4.488   1.650   1.794  0.1700 -3.6777 -0.7040
 2518SOL     OW19015   2.698   3.619   4.731  0.0319  0.2404  0.0247
 2518SOL    HW119016   2.762   3.623   4.660  1.2142 -0.4126  1.0628
 2518SOL    HW219017   2.730   3.539   4.774  1.3382  1.8105  1.9748
 2519SOL     OW19018   1.023   4.227   5.446 -0.0592 -0.3650 -0.0877
 2519SOL    HW119019   1.055   4.280   5.373  0.2817 -0.7997 -0.2524
 2519SOL    HW219020   1.110   4.198   5.472 -0.8581 -2.0248  0.7250
 2520SOL     OW19021   2.161   3.836  13.938 -0.4915 -0.6217 -0.5121
 2520SOL    HW119022   2.118   3.878  13.864  1.4130  0.3779 -1.0395
 2520SOL    HW219023   2.251   3.867  13.930 -1.3797  2.3232  0.6631
 2521SOL     OW19024   0.602   2.927  11.639  0.1112 -0.2948 -0.3446
 2521SOL    HW119025   0.614   2.848  11.587 -1.6485 -1.9507  1.7680
 2521SOL    HW219026   0.519   2.900  11.679 -1.2888  1.2132 -2.2134
 2522SOL     OW19027   3.349   2.457  13.855 -0.1095 -0.2955 -0.1464
 2522SOL    HW119028   3.327   2.483  13.766  0.2904  0.4851 -0.0222
 2522SOL    HW219029   3.282   2.496  13.912  0.3046 -1.8485  1.3924
 2523SOL     OW19030   4.602   1.644  10.373 -0.4420  0.2504  0.9059
 2523SOL    HW119031   4.588   1.739  10.364 -2.3358  0.0957  2.2336
 2523SOL    HW219032   4.519   1.612  10.337 -0.5453  2.1284 -0.5827
 2524SOL     OW19033   3.646   0.871   2.081  0.3453  0.1313 -0.4338
 2524SOL    HW119034   3.564   0.821   2.077  0.6485 -0.4634  0.6273
 2524SOL    HW219035   3.707   0.813   2.035  0.4649 -0.1116  0.0298
 2525SOL     OW19036   2.195   2.394   2.879 -0.5655  0.9264 -0.8628
 2525SOL    HW119037   2.239   2.312   2.899 -0.3261  1.3677  0.4349
 2525SOL    HW219038   2.257   2.459   2.913  0.3465  0.2700 -1.3049
 2526SOL     OW19039   4.689   1.601  14.688 -0.0551  0.6150  0.1577
 2526SOL    HW119040   0.030   1.588  14.763 -0.4671 -0.1398  0.3409
 2526SOL    HW219041   0.020   1.550  14.624 -1.6915  3.5796 -3.4414
 2527SOL     OW19042   1.490   0.688   5.751 -0.3264  0.1075  0.3725
 2527SOL    HW119043   1.456   0.636   5.824 -0.5325 -0.8153 -0.3643
 2527SOL    HW219044   1.577   0.652   5.731  0.0622  2.0384 -1.4403
 2528SOL     OW19045   4.363   4.714   7.966 -0.1867  0.5671  0.1400
 2528SOL    HW119046   4.445   4.692   8.011 -0.5052 -3.3330 -1.1816
 2528SOL    HW219047   4.323   4.627   7.963 -0.5649  0.7430  0.1076
 2529SOL     OW19048   0.491   4.247  14.249  0.0367 -0.1450 -0.4450
 2529SOL    HW119049   0.396   4.264  14.253  0.0298 -0.9246  3.5317
 2529SOL    HW219050   0.509   4.296  14.329 -1.7898  0.5651 -0.4636
 2530SOL     OW19051   3.276   1.451   4.403  0.3031 -0.1385 -0.4189
 2530SOL    HW119052   3.290   1.360   4.377 -1.6705 -0.2930 -0.9452
 2530SOL    HW219053   3.290   1.499   4.321  0.4183 -0.3401 -0.5163
 2531SOL     OW19054   3.946   2.851   8.004 -0.1100 -0.1871  0.2327
 2531SOL    HW119055   4.034   2.837   7.968  0.3345 -0.8253  1.5262
 2531SOL    HW219056   3.903   2.767   7.992 -1.5150  0.8624 -1.8906
 2532SOL     OW19057   2.125   2.629  12.696 -0.0191 -0.4249  0.1021
 2532SOL    HW119058   2.135   2.567  12.769 -1.0881  1.1631  1.5983
 2532SOL    HW219059   2.035   2.613  12.671 -0.0679  0.4230 -0.2804
 2533SOL     OW19060   0.048   0.821   3.746 -0.1454 -0.2608 -0.9671
 2533SOL    HW119061   4.710   0.883   3.793  1.6698  0.9009 -0.3562
 2533SOL    HW219062   0.134   0.863   3.755 -1.3787  1.6525  1.9521
 2534SOL     OW19063   3.327   0.222   8.633  0.5432 -0.4110 -0.4131
 2534SOL    HW119064   3.363   0.307   8.661  0.0757 -0.3738  0.0820
 2534SOL    HW219065   3.235   0.227   8.658  0.1450 -0.6500 -1.8827
 2535SOL     OW19066   0.943   2.681  10.864 -0.1556  0.5924  0.1480
 2535SOL    HW119067   0.851   2.661  10.882  0.1627  0.5084  1.5942
 2535SOL    HW219068   0.927   2.759  10.810  1.1529  0.7170 -0.0674
 2536SOL     OW19069   3.227   0.338   8.164 -0.1063  0.7110 -0.0556
 2536SOL    HW119070   3.286   0.385   8.105 -2.2948 -1.2061 -3.7839
 2536SOL    HW219071   3.291   0.274   8.197 -0.4761  1.0386  1.2805
 2537SOL     OW19072   0.032   1.032   5.859 -0.2829 -0.3108 -0.0487
 2537SOL    HW119073   4.678   1.078   5.903  0.0410 -2.2964  2.5592
 2537SOL    HW219074   0.096   1.020   5.929 -0.0329 -0.0339 -0.2314
 2538SOL     OW19075   1.024   2.609   8.303  0.0977  0.2985 -0.1471
 2538SOL    HW119076   1.105   2.611   8.354 -0.3784 -1.5727  0.6762
 2538SOL    HW219077   0.981   2.524   8.313  1.0735 -0.2235 -0.4331
 2539SOL     OW19078   1.408   2.830   7.327  0.0828  0.0844 -0.2506
 2539SOL    HW119079   1.442   2.908   7.282  0.2087 -0.1584 -0.5786
 2539SOL    HW219080   1.465   2.775   7.274  0.2689  0.2161 -0.1867
 2540SOL     OW19081   0.625   3.275   3.600  0.8082 -0.0749 -0.3859
 2540SOL    HW119082   0.561   3.212   3.634  0.1521  0.3682 -0.8097
 2540SOL    HW219083   0.701   3.218   3.586  0.7009 -0.0996 -0.8823
 2541SOL     OW19084   0.108   3.539   0.805 -0.3415 -0.0065  0.3918
 2541SOL    HW119085   0.084   3.448   0.821 -1.6208  0.3003  0.2239
 2541SOL    HW219086   0.171   3.558   0.874 -1.3879  0.6559  1.1779
 2542SOL     OW19087   1.095   4.133  12.721 -0.0558  0.7303  0.1161
 2542SOL    HW119088   1.165   4.197  12.729 -0.5346  0.9680  2.4124
 2542SOL    HW219089   1.142   4.062  12.766  1.3383  1.5491 -0.0525
 2543SOL     OW19090   2.584   1.939   7.676 -0.3034  0.1093  0.4537
 2543SOL    HW119091   2.641   1.863   7.687  0.0531  0.3906  0.5441
 2543SOL    HW219092   2.506   1.913   7.726 -0.5856 -2.3791 -1.2568
 2544SOL     OW19093   0.489   2.363   4.351 -0.5003  0.1213  0.3267
 2544SOL    HW119094   0.473   2.384   4.259 -1.1947  2.2285  0.9236
 2544SOL    HW219095   0.468   2.270   4.361 -3.1442  0.2481 -3.8687
 2545SOL     OW19096   1.619   3.649  10.415 -0.2581  0.1661 -0.1049
 2545SOL    HW119097   1.549   3.665  10.479 -2.1756 -0.3416 -2.0685
 2545SOL    HW219098   1.701   3.641  10.463 -0.1834 -1.4033 -0.5114
 2546SOL     OW19099   0.179   0.140   6.794 -0.1342  0.0967  0.3659
 2546SOL    HW119100   0.203   0.179   6.710 -1.9260  1.7045  0.5884
 2546SOL    HW219101   0.108   0.200   6.816 -1.2265 -1.3637  0.8369
 2547SOL     OW19102   2.302   1.921   7.234 -0.2563  0.0787 -0.3090
 2547SOL    HW119103   2.275   1.834   7.206  0.1574 -1.0440  2.7905
 2547SOL    HW219104   2.353   1.908   7.314 -0.0452  2.2171 -0.0878
 2548SOL     OW19105   2.376   0.578   8.779  0.4992  0.0874 -0.1408
 2548SOL    HW119106   2.332   0.654   8.741 -0.5974 -0.4000  0.1339
 2548SOL    HW219107   2.315   0.550   8.847  0.5298  0.7015  0.1320
 2549SOL     OW19108   1.639   3.015   4.170 -0.3236  0.4961 -0.2983
 2549SOL    HW119109   1.677   3.030   4.257 -0.1911 -0.4065 -0.2005
 2549SOL    HW219110   1.555   2.974   4.191 -0.0874 -0.7376 -1.8179
 2550SOL     OW19111   0.897   1.668  10.736  0.2481 -0.4150  0.3633
 2550SOL    HW119112   0.850   1.585  10.734  1.0371 -0.8532  0.0820
 2550SOL    HW219113   0.881   1.694  10.826  1.4981 -0.0440  0.4717
 2551SOL     OW19114   2.036   2.441  10.991 -0.4450  0.1493 -0.5808
 2551SOL    HW119115   1.970   2.483  10.935 -1.3475  1.7574  1.6819
 2551SOL    HW219116   2.033   2.353  10.953  0.4561  0.5093 -1.4841
 2552SOL     OW19117   4.455   0.525   5.313  0.3534  0.1910  0.1930
 2552SOL    HW119118   4.521   0.478   5.363 -1.4107 -2.1456  0.3079
 2552SOL    HW219119   4.431   0.588   5.381 -0.1771 -1.3784  1.4626
 2553SOL     OW19120   1.506   4.374   4.731  0.3366  0.4251 -0.2824
 2553SOL    HW119121   1.474   4.329   4.809 -0.0937  2.2534  0.5932
 2553SOL    HW219122   1.560   4.305   4.691  0.5505  0.7368 -0.5320
 2554SOL     OW19123   0.867   1.469  12.478  0.0850 -0.0492 -0.2186
 2554SOL    HW119124   0.826   1.414  12.411  0.1440  1.1346 -1.2362
 2554SOL    HW219125   0.899   1.401  12.538 -1.2266  0.6464  1.2608
 2555SOL     OW19126   4.461   0.249  14.772 -0.0491  0.3961 -0.5087
 2555SOL    HW119127   4.463   0.276  14.864 -2.2009  0.3264 -0.4349
 2555SOL    HW219128   4.439   0.156  14.779  2.7887 -0.0731  2.2176
 2556SOL     OW19129   4.081   4.708   2.892  1.1586  0.2589  0.2823
 2556SOL    HW119130   4.071   0.042   2.812 -0.1513 -1.3462 -0.5942
 2556SOL    HW219131   4.172   4.678   2.886  1.4048  0.8406  1.1675
 2557SOL     OW19132   1.081   1.434  11.445 -0.3777 -0.5130  0.0752
 2557SOL    HW119133   1.139   1.493  11.396 -1.9548 -0.1133 -1.3063
 2557SOL    HW219134   1.012   1.501  11.447 -0.4683 -0.6466  1.0890
 2558SOL     OW19135   4.337   4.630   1.181 -0.4277 -0.3171 -0.4497
 2558SOL    HW119136   4.387   4.559   1.140 -0.1549 -0.5247  0.2373
 2558SOL    HW219137   4.403   4.687   1.218  0.7661 -2.5061  0.8148
 2559SOL     OW19138   3.883   0.041   5.355  0.7928  0.0011  0.0123
 2559SOL    HW119139   3.974   0.039   5.385  0.7543  0.2532  0.1512
 2559SOL    HW219140   3.902   0.112   5.293  2.0530  0.9484  1.4750
 2560SOL     OW19141   4.410   4.043   0.093 -0.1255 -0.4531  0.3244
 2560SOL    HW119142   4.487   4.092   0.122  0.0454 -0.7589  0.3871
 2560SOL    HW219143   4.419   3.978   0.163  0.7036 -1.0348 -0.3182
 2561SOL     OW19144   4.531   0.975  12.012 -0.1884 -0.1298  0.6697
 2561SOL    HW119145   4.557   0.916  11.942  0.2820  0.9902 -0.0933
 2561SOL    HW219146   4.588   0.943  12.083  1.1322 -0.8486 -0.7227
 2562SOL     OW19147   3.088   2.717   4.909  0.7855  0.4449  0.1840
 2562SOL    HW119148   3.000   2.705   4.875  0.0995  1.7323  1.4982
 2562SOL    HW219149   3.139   2.712   4.828 -0.5063  0.2336 -0.6173
 2563SOL     OW19150   1.912   4.340  12.458 -0.0360 -0.2252  0.1232
 2563SOL    HW119151   1.949   4.413  12.408 -1.5945  1.1191  0.9089
 2563SOL    HW219152   1.854   4.401  12.504  0.2766 -1.2192  1.8249
 2564SOL     OW19153   3.493   0.221   1.645  0.0239  0.1047  0.5302
 2564SOL    HW119154   3.478   0.276   1.722 -1.8767  0.8992 -0.4149
 2564SOL    HW219155   3.403   0.226   1.612  0.2539  1.6048  0.1491
 2565SOL     OW19156   1.355   3.905   8.957 -0.1608 -0.3861 -0.1468
 2565SOL    HW119157   1.438   3.954   8.957 -0.0501 -0.5730 -2.6700
 2565SOL    HW219158   1.345   3.873   8.867  1.2295 -0.0761 -0.4187
 2566SOL     OW19159   0.472   4.674  14.683  0.1222 -0.0040 -0.0358
 2566SOL    HW119160   0.550   4.709  14.641  0.1241 -0.6624 -0.5980
 2566SOL    HW219161   0.398   4.693  14.625  0.3184  2.0815  0.3963
 2567SOL     OW19162   0.042   1.421  15.103  0.3463 -0.2523  0.3538
 2567SOL    HW119163   0.116   1.381  15.148  1.2680  1.5685  0.4665
 2567SOL    HW219164   4.682   1.379  15.141 -1.6045  1.0682 -2.1594
 2568SOL     OW19165   4.310   2.193  11.751  0.5166  0.3626  0.0322
 2568SOL    HW119166   4.216   2.176  11.748  0.8975 -1.8708  0.4383
 2568SOL    HW219167   4.322   2.275  11.703 -0.4825  1.0233  0.9107
 2569SOL     OW19168   3.286   3.402   1.518 -0.8959 -0.3729  0.1642
 2569SOL    HW119169   3.337   3.360   1.588  1.0954  1.2398 -0.2962
 2569SOL    HW219170   3.314   3.494   1.523 -0.6303 -0.4616  0.3634
 2570SOL     OW19171   2.498   4.662   9.257  0.2630  0.5803 -0.4578
 2570SOL    HW119172   2.513   4.568   9.262 -2.0356  0.3032  1.3057
 2570SOL    HW219173   2.437   4.686   9.327  0.7381  0.4764 -0.0137
 2571SOL     OW19174   3.792   1.077  16.047 -0.1030 -0.1019  0.5577
 2571SOL    HW119175   3.807   1.139  16.119  0.1229  1.8666 -1.1939
 2571SOL    HW219176   3.885   1.066  16.027 -0.8467 -3.2149 -1.0559
 2572SOL     OW19177   2.644   1.069   2.592 -0.5597 -0.0367  0.6096
 2572SOL    HW119178   2.634   1.022   2.509  1.7528  0.1191  0.2365
 2572SOL    HW219179   2.637   0.996   2.653 -0.4237 -1.0300 -0.5570
 2573SOL     OW19180   0.660   2.363   9.177 -0.9946 -0.0753  0.9100
 2573SOL    HW119181   0.694   2.300   9.241 -1.5281 -3.0255 -1.7176
 2573SOL    HW219182   0.730   2.429   9.172 -0.5572 -0.7026 -1.1956
 2574SOL     OW19183   3.668   2.855  17.156 -0.3634 -0.3795 -0.1567
 2574SOL    HW119184   3.743   2.808  17.121 -1.8874 -0.5408 -3.2337
 2574SOL    HW219185   3.587   2.807  17.138  0.4320 -1.1115 -1.8148
 2575SOL     OW19186   3.725   4.582   9.766  0.1793 -0.2447  0.0346
 2575SOL    HW119187   3.666   4.608   9.695  1.5344  0.9102 -0.6604
 2575SOL    HW219188   3.714   4.489   9.744  0.9085 -0.6708  1.4768
 2576SOL     OW19189   3.113   2.940  17.073  0.9204  0.5811  0.5529
 2576SOL    HW119190   3.094   2.939  16.979  1.8234 -0.3101  0.3858
 2576SOL    HW219191   3.145   2.853  17.094 -0.9650  0.0908  1.3768
 2577SOL     OW19192   2.538   2.508   7.437 -0.2572 -0.4415 -0.7815
 2577SOL    HW119193   2.596   2.510   7.513  0.2352 -0.5197 -1.1564
 2577SOL    HW219194   2.528   2.413   7.429  0.0135 -0.5069 -0.3523
 2578SOL     OW19195   3.777   2.720   4.409  0.1382 -0.3704 -0.0524
 2578SOL    HW119196   3.707   2.784   4.393  0.7245  0.5529  1.0887
 2578SOL    HW219197   3.727   2.679   4.479  1.2890  0.6499  1.3610
 2579SOL     OW19198   0.473   1.882  17.271  0.5145 -0.4858  0.5633
 2579SOL    HW119199   0.520   1.805  17.303 -1.2494 -1.3875  1.0182
 2579SOL    HW219200   0.416   1.848  17.202 -0.2329  1.5478  0.1821
 2580SOL     OW19201   0.965   3.710  16.470 -0.1367 -0.0342  0.2224
 2580SOL    HW119202   0.986   3.622  16.501 -0.7422  0.0974  1.0047
 2580SOL    HW219203   0.877   3.726  16.504 -0.8805  0.4147 -1.8798
 2581SOL     OW19204   4.187   4.631  14.759 -0.0524 -0.3934  0.6787
 2581SOL    HW119205   4.189   4.668  14.671 -2.8232 -1.2213  0.2702
 2581SOL    HW219206   4.278   4.634  14.790 -0.1672  0.9736  0.8894
 2582SOL     OW19207   1.635   0.771   8.394  0.0240 -0.4883  0.3053
 2582SOL    HW119208   1.541   0.773   8.410 -0.2982 -1.8388 -1.4040
 2582SOL    HW219209   1.630   0.747   8.301 -2.0683  1.0013  0.0393
 2583SOL     OW19210   2.901   3.568   4.569  0.4833 -0.1066  0.7072
 2583SOL    HW119211   2.953   3.634   4.525 -0.9580 -1.4775 -3.0440
 2583SOL    HW219212   2.968   3.522   4.619  1.8178  1.2758  0.1794
 2584SOL     OW19213   2.895   4.208   4.498 -0.3914 -0.4075 -0.4391
 2584SOL    HW119214   2.881   4.165   4.414 -1.4214  1.3617 -1.1829
 2584SOL    HW219215   2.966   4.157   4.535  0.3279  0.0787 -1.1400
 2585SOL     OW19216   2.239   0.040   1.183  0.1762 -0.4178 -0.6746
 2585SOL    HW119217   2.250   0.031   1.278 -2.3033 -1.4862 -0.4813
 2585SOL    HW219218   2.162   4.702   1.169 -0.5623  0.3937  0.1622
 2586SOL     OW19219   0.068   0.136   7.223 -0.0192 -0.0082 -0.2829
 2586SOL    HW119220   0.125   0.166   7.153 -0.7261  0.3125 -0.7245
 2586SOL    HW219221   0.132   0.132   7.294  1.1617  1.1327 -1.3007
 2587SOL     OW19222   1.057   0.186   3.687  0.0737  0.1433 -0.6422
 2587SOL    HW119223   0.967   0.189   3.654 -0.8499 -2.3337  1.6043
 2587SOL    HW219224   1.105   0.164   3.607 -0.4416  2.3993 -1.5760
 2588SOL     OW19225   4.138   0.278   2.442  0.6488 -0.0150  0.2243
 2588SOL    HW119226   4.118   0.368   2.418  0.2395  0.6052  2.8458
 2588SOL    HW219227   4.222   0.258   2.399  0.1638 -2.1333  0.2284
 2589SOL     OW19228   1.009   0.364   6.998 -0.8255 -0.0772 -0.1904
 2589SOL    HW119229   1.002   0.316   6.916  0.5375 -0.1957 -0.2438
 2589SOL    HW219230   0.926   0.412   7.004 -0.3826  0.8983 -1.7340
 2590SOL     OW19231   2.138   1.902   2.116 -0.0329  0.0951  0.0394
 2590SOL    HW119232   2.158   1.909   2.209 -1.6396 -0.4578  0.4301
 2590SOL    HW219233   2.085   1.982   2.113 -1.3688 -0.8487 -1.6104
 2591SOL     OW19234   0.778   4.140   9.262  1.0775 -0.3545 -0.5099
 2591SOL    HW119235   0.873   4.137   9.267  1.1208  2.5874  0.4717
 2591SOL    HW219236   0.750   4.118   9.351  1.1977 -1.5388 -0.7562
 2592SOL     OW19237   2.434   0.511  14.563 -0.1256 -0.2303 -0.5473
 2592SOL    HW119238   2.504   0.446  14.573 -1.3680 -1.3963  0.4824
 2592SOL    HW219239   2.368   0.462  14.514 -0.5827  0.1496 -0.3038
 2593SOL     OW19240   4.363   0.577  13.188  0.0761 -0.6667 -0.5102
 2593SOL    HW119241   4.340   0.485  13.174  3.0088 -1.6633  1.1373
 2593SOL    HW219242   4.379   0.572  13.282  0.4178  0.4602 -0.5037
 2594SOL     OW19243   3.305   3.466   4.218 -0.9340 -0.3032 -0.1135
 2594SOL    HW119244   3.321   3.373   4.236  0.7917 -0.3440 -1.8280
 2594SOL    HW219245   3.325   3.499   4.305  1.5552  0.8718 -1.1102
 2595SOL     OW19246   1.481   4.262   5.408 -0.0470  0.6158 -0.3437
 2595SOL    HW119247   1.465   4.351   5.375  0.8229  1.3186  1.1173
 2595SOL    HW219248   1.531   4.291   5.484  1.1224  0.5252 -1.0804
 2596SOL     OW19249   4.055   1.068  12.753  0.2798 -0.1555 -0.7455
 2596SOL    HW119250   4.143   1.044  12.783  0.4972  1.3208 -0.1763
 2596SOL    HW219251   4.008   0.999  12.800 -1.6448  1.0723 -0.8507
 2597SOL     OW19252   4.574   0.937   7.196 -0.5736  0.2321 -0.0049
 2597SOL    HW119253   4.641   0.941   7.264  0.1700  2.2770 -0.8343
 2597SOL    HW219254   4.513   0.878   7.240  1.9282 -2.1972  0.2006
 2598SOL     OW19255   2.053   3.177   1.980  0.8678  0.0280 -0.6470
 2598SOL    HW119256   1.959   3.161   1.974  0.9726 -1.3466  1.9166
 2598SOL    HW219257   2.079   3.125   2.055  1.4939  0.3618 -0.6340
 2599SOL     OW19258   3.433   0.712  12.612  0.2497  0.6230  0.5256
 2599SOL    HW119259   3.394   0.786  12.565 -0.1926  1.0219  1.5203
 2599SOL    HW219260   3.527   0.719  12.629  0.4676  0.0452 -0.4719
 2600SOL     OW19261   0.852   1.605   3.361  0.2117 -0.3093  0.0781
 2600SOL    HW119262   0.893   1.520   3.345  1.5098  0.5308 -1.0906
 2600SOL    HW219263   0.890   1.622   3.447 -0.5758  0.1768  0.3262
 2601SOL     OW19264   3.174   0.311   7.155 -0.0132  0.1214  0.3058
 2601SOL    HW119265   3.227   0.273   7.225 -1.5410 -0.9681  0.8769
 2601SOL    HW219266   3.097   0.255   7.153 -1.0188  1.5712 -1.4746
 2602SOL     OW19267   3.546   4.605   8.977 -0.2010 -0.2302  0.1321
 2602SOL    HW119268   3.519   4.682   8.926 -1.5466 -1.2537 -0.6884
 2602SOL    HW219269   3.478   4.615   9.043  1.3704  1.2518  1.5149
 2603SOL     OW19270   2.911   4.337  10.705 -0.6144 -0.0097  0.6767
 2603SOL    HW119271   2.959   4.417  10.686  0.1558 -0.7907 -0.6032
 2603SOL    HW219272   2.967   4.262  10.685  2.6924  2.0265  2.2355
 2604SOL     OW19273   1.576   2.875   5.863  0.6404  0.0418 -0.2973
 2604SOL    HW119274   1.613   2.874   5.952 -0.1985  2.4525  0.0792
 2604SOL    HW219275   1.649   2.841   5.812  1.3700 -1.4031  1.6848
 2605SOL     OW19276   0.782   3.955   4.654 -0.1008  0.3398 -1.0357
 2605SOL    HW119277   0.864   3.906   4.650 -0.5728 -0.6842  1.9689
 2605SOL    HW219278   0.722   3.887   4.624  1.2500 -2.0329  1.6289
 2606SOL     OW19279   3.996   0.946  16.274 -0.6643  0.5494  0.5181
 2606SOL    HW119280   4.086   0.922  16.293 -0.3443  2.3406  1.3184
 2606SOL    HW219281   3.994   1.039  16.249  1.3293  0.9804  2.0093
 2607SOL     OW19282   1.900   0.772   6.328 -0.1713  0.0345 -0.6322
 2607SOL    HW119283   1.953   0.693   6.335  0.2307  0.2394 -1.3962
 2607SOL    HW219284   1.851   0.766   6.411  1.5774  1.1997  0.4949
 2608SOL     OW19285   2.132   4.353   1.080  0.0702 -0.0190  0.2791
 2608SOL    HW119286   2.205   4.348   1.142  2.1300 -1.5976 -2.2899
 2608SOL    HW219287   2.082   4.273   1.096 -0.6668  0.7536  1.8022
 2609SOL     OW19288   0.238   4.462  12.106  0.0930  0.0530 -0.1614
 2609SOL    HW119289   0.228   4.382  12.157 -0.7596  0.1906 -0.1125
 2609SOL    HW219290   0.234   4.533  12.170  3.1733  0.0763  0.0231
 2610SOL     OW19291   1.920   0.363   5.963 -0.3847 -0.0900  0.0579
 2610SOL    HW119292   1.912   0.269   5.945 -0.2216 -0.0777 -0.0761
 2610SOL    HW219293   2.014   0.376   5.952 -0.5292 -1.5130 -2.6721
 2611SOL     OW19294   0.967   3.490   2.842  0.5419 -0.0944  0.2015
 2611SOL    HW119295   0.974   3.409   2.793  0.3909 -0.9768  1.6585
 2611SOL    HW219296   0.974   3.464   2.933 -0.9338 -2.9563 -0.5218
 2612SOL     OW19297   2.025   1.561   6.667 -0.9715  0.2963  0.1277
 2612SOL    HW119298   2.000   1.597   6.752 -0.0498 -0.9085  0.9148
 2612SOL    HW219299   2.111   1.602   6.660 -1.3555  1.2875  1.2965
 2613SOL     OW19300   3.579   0.167   9.815 -0.3188  0.6173  0.0504
 2613SOL    HW119301   3.518   0.117   9.870  2.6866 -1.3601  1.5944
 2613SOL    HW219302   3.585   0.092   9.756  0.2335  1.0469 -0.4372
 2614SOL     OW19303   2.317   2.582   6.423  0.5107 -0.5423  0.2250
 2614SOL    HW119304   2.268   2.556   6.501 -1.0993 -1.3320 -1.0442
 2614SOL    HW219305   2.330   2.491   6.397  1.6403 -0.3680  0.2120
 2615SOL     OW19306   0.587   4.124  11.711 -0.4374  0.5527 -0.1178
 2615SOL    HW119307   0.512   4.066  11.719  0.0358 -0.3962 -2.4344
 2615SOL    HW219308   0.553   4.187  11.648  0.0094  0.5269 -0.3887
 2616SOL     OW19309   4.029   0.356   1.637  0.2455  0.3974  0.2996
 2616SOL    HW119310   3.945   0.310   1.626  0.5115 -0.2354  0.8955
 2616SOL    HW219311   4.082   0.317   1.567 -1.9152 -0.7418 -0.7235
 2617SOL     OW19312   0.524   0.426   5.989  0.3470 -0.1837  0.4763
 2617SOL    HW119313   0.571   0.402   6.069 -0.3295  1.5968  1.4092
 2617SOL    HW219314   0.601   0.414   5.934 -0.0885 -1.1445  0.0797
 2618SOL     OW19315   2.339   0.799   6.004 -0.0222  0.0492 -0.2820
 2618SOL    HW119316   2.248   0.827   5.998 -0.1044 -0.1199  0.1506
 2618SOL    HW219317   2.343   0.754   6.088 -1.8396 -0.6883 -0.5887
 2619SOL     OW19318   0.436   3.506   6.827  0.0057 -0.4046  0.0261
 2619SOL    HW119319   0.471   3.594   6.816  0.5301 -0.7727 -1.2598
 2619SOL    HW219320   0.485   3.478   6.905  1.3337 -1.3283 -1.1347
 2620SOL     OW19321   0.939   4.665   6.546  0.1241  0.1729  0.2356
 2620SOL    HW119322   0.859   4.700   6.586  1.0539 -0.8314  2.9819
 2620SOL    HW219323   0.899   4.640   6.462 -3.0006  1.2572  1.3856
 2621SOL     OW19324   0.656   0.080  14.524  0.0259 -0.4669  0.3103
 2621SOL    HW119325   0.647   0.174  14.542 -0.3297 -0.5717  0.6778
 2621SOL    HW219326   0.682   0.095  14.433  2.1371  2.6064  1.3955
 2622SOL     OW19327   0.666   2.298   7.953 -0.7275 -0.0368  0.1296
 2622SOL    HW119328   0.633   2.234   7.891  1.2188  1.1089 -2.0693
 2622SOL    HW219329   0.618   2.269   8.031  0.5491  0.1246  0.9754
 2623SOL     OW19330   0.107   2.026  14.254  0.1975  0.1400 -0.0599
 2623SOL    HW119331   0.199   2.047  14.235 -0.1586 -0.0672 -1.9935
 2623SOL    HW219332   0.117   2.024  14.349 -1.1102  1.1120  0.1052
 2624SOL     OW19333   0.944   3.194   2.857  0.4837  0.2446  0.0112
 2624SOL    HW119334   1.031   3.210   2.821  0.5284  0.9815  0.4585
 2624SOL    HW219335   0.953   3.251   2.933 -1.7210 -0.4486  0.7846
 2625SOL     OW19336   2.133   3.871   6.086  0.2914  0.2918  0.2884
 2625SOL    HW119337   2.136   3.792   6.032 -1.4858 -0.0736  0.7346
 2625SOL    HW219338   2.046   3.857   6.123 -1.2858  1.1756 -3.0593
 2626SOL     OW19339   0.481   3.898   8.775  0.5213  0.1375 -0.2620
 2626SOL    HW119340   0.536   3.845   8.718  2.9996  1.6919  0.6781
 2626SOL    HW219341   0.542   3.970   8.792  0.3442  0.3210 -0.3938
 2627SOL     OW19342   0.512   3.575   1.804  0.5804 -0.4795 -0.6782
 2627SOL    HW119343   0.436   3.583   1.862  1.5899 -1.2195  0.7566
 2627SOL    HW219344   0.479   3.505   1.748 -0.5487 -0.0365 -0.5675
 2628SOL     OW19345   3.292   4.691   1.837 -0.7637  0.1422 -0.6620
 2628SOL    HW119346   3.385   4.672   1.829 -0.3288  1.2793  1.5379
 2628SOL    HW219347   3.260   4.638   1.910  1.4281  2.0734  1.7087
 2629SOL     OW19348   2.630   3.560   8.774 -0.1682 -0.2133  0.3557
 2629SOL    HW119349   2.710   3.548   8.825  0.2725  1.4272  0.0560
 2629SOL    HW219350   2.604   3.468   8.772  1.5388 -0.7124  0.4479
 2630SOL     OW19351   3.507   0.846   1.483  0.5045  0.5276  0.6036
 2630SOL    HW119352   3.414   0.860   1.463  0.0823 -2.1886  0.5548
 2630SOL    HW219353   3.497   0.833   1.577 -1.0867 -2.1420  0.0775
 2631SOL     OW19354   0.315   0.709   2.391 -0.0582  0.1645  0.7550
 2631SOL    HW119355   0.384   0.740   2.331  0.3093  0.1165  1.1590
 2631SOL    HW219356   0.244   0.713   2.326 -1.2321 -1.0022  1.9775
 2632SOL     OW19357   4.245   4.144   0.511  0.3927  0.1963 -0.5035
 2632SOL    HW119358   4.231   4.226   0.558  4.6573  0.6760 -0.0516
 2632SOL    HW219359   4.339   4.127   0.523 -0.0267 -1.2020  0.7887
 2633SOL     OW19360   1.151   1.820  15.877 -0.1050  0.5020  0.2064
 2633SOL    HW119361   1.149   1.880  15.951 -1.2391  0.1125  0.4937
 2633SOL    HW219362   1.157   1.885  15.807  0.1349 -0.4223 -0.6344
 2634SOL     OW19363   1.925   1.334   4.825 -0.1047  0.1547  0.1800
 2634SOL    HW119364   1.893   1.316   4.737  1.0371  1.2282 -0.4487
 2634SOL    HW219365   1.970   1.418   4.812 -1.5676  0.9781  0.4341
 2635SOL     OW19366   0.613   1.055   8.618  0.7570  1.0186  0.2097
 2635SOL    HW119367   0.655   1.134   8.583 -0.3724  1.3869 -0.3277
 2635SOL    HW219368   0.544   1.079   8.679  0.3105  0.5505 -0.1069
 2636SOL     OW19369   1.439   1.987   8.902  0.5969 -0.2637  0.3130
 2636SOL    HW119370   1.395   2.025   8.978  1.1480  1.4940 -0.2509
 2636SOL    HW219371   1.496   2.064   8.901 -2.2686  1.8612 -0.6405
 2637SOL     OW19372   3.320   0.603   6.322 -0.6730  0.1024 -0.0758
 2637SOL    HW119373   3.238   0.576   6.362 -0.8893  0.3522 -0.3489
 2637SOL    HW219374   3.351   0.670   6.383  1.5169  0.4021 -1.5051
 2638SOL     OW19375   0.435   0.169   2.069  0.1964 -0.1812  0.0669
 2638SOL    HW119376   0.504   0.176   2.136 -0.1820 -0.4811  0.4857
 2638SOL    HW219377   0.435   0.073   2.069 -0.3327 -0.1669 -2.2411
 2639SOL     OW19378   2.429   2.033   6.103 -0.0400  0.1722  0.0424
 2639SOL    HW119379   2.522   2.013   6.099 -0.5799 -2.5391  0.9692
 2639SOL    HW219380   2.401   1.994   6.186  1.7453 -1.7215 -0.2705
 2640SOL     OW19381   4.345   1.861   3.964 -0.6065 -0.2572 -0.5156
 2640SOL    HW119382   4.294   1.866   3.884  1.0193  1.8391 -1.4441
 2640SOL    HW219383   4.396   1.781   3.950 -1.3799 -0.7642 -0.4185
 2641SOL     OW19384   3.221   1.476   7.982  0.0556  0.1105 -0.4247
 2641SOL    HW119385   3.256   1.502   7.897 -0.3495  2.5462  0.1749
 2641SOL    HW219386   3.130   1.502   7.968  0.5067  1.8872  0.0487
 2642SOL     OW19387   1.271   2.899   4.684 -0.5929 -0.4171 -0.9689
 2642SOL    HW119388   1.197   2.959   4.694  0.3162  0.2574  1.7100
 2642SOL    HW219389   1.268   2.885   4.590 -2.5869 -0.6725 -0.8700
 2643SOL     OW19390   0.186   0.466   3.427  0.4677  0.0899 -0.2023
 2643SOL    HW119391   0.095   0.443   3.406 -0.4300  3.3153  0.0939
 2643SOL    HW219392   0.178   0.560   3.444  0.9248  0.7861 -3.8100
 2644SOL     OW19393   0.891   0.078   8.289  0.0564  0.0400  0.3850
 2644SOL    HW119394   0.928   0.042   8.369  1.2994  0.4017 -0.0097
 2644SOL    HW219395   0.808   0.034   8.273 -0.0495  1.0398 -1.9433
 2645SOL     OW19396   2.478   1.046   7.987  0.2792  0.1345 -0.1401
 2645SOL    HW119397   2.481   1.092   8.071 -0.7787  0.0126 -0.0372
 2645SOL    HW219398   2.565   1.006   7.991  0.6295  0.8693 -0.3881
 2646SOL     OW19399   3.932   0.021   2.189  0.2192 -0.3042 -0.9427
 2646SOL    HW119400   3.980   4.712   2.110  2.8202  3.1243 -0.4870
 2646SOL    HW219401   3.964   0.110   2.200  2.5949 -1.4243  1.0707
 2647SOL     OW19402   2.942   0.553   3.001 -0.4645  0.4092  0.4521
 2647SOL    HW119403   2.874   0.566   3.067  0.5816  2.0992  1.1833
 2647SOL    HW219404   2.960   0.645   2.983 -0.4059  0.4515  0.7409
 2648SOL     OW19405   0.791   1.448   9.627 -0.1456 -0.0117  0.9881
 2648SOL    HW119406   0.819   1.479   9.713 -0.2290 -0.3398  1.1321
 2648SOL    HW219407   0.775   1.528   9.577  2.3310  0.5688  1.1172
 2649SOL     OW19408   3.511   4.567   5.333 -0.2031  0.5584 -0.4720
 2649SOL    HW119409   3.560   4.496   5.373 -0.8744 -2.0006 -4.1419
 2649SOL    HW219410   3.564   4.580   5.254  0.5616 -0.1508 -0.0687
 2650SOL     OW19411   3.640   1.220   6.088  0.6216  0.3617  0.0646
 2650SOL    HW119412   3.572   1.162   6.054 -1.1073  1.6473  1.3430
 2650SOL    HW219413   3.652   1.182   6.175 -1.3028  1.2390  0.6990
 2651SOL     OW19414   4.394   3.654  15.280  0.6493 -0.1638  0.0589
 2651SOL    HW119415   4.338   3.674  15.206 -0.1505 -0.7316  0.5072
 2651SOL    HW219416   4.328   3.643  15.349 -0.1290 -1.9906 -0.9854
 2652SOL     OW19417   3.219   4.216   7.170  0.2181  0.4959  0.2477
 2652SOL    HW119418   3.221   4.192   7.263 -1.7499  0.9121  0.4057
 2652SOL    HW219419   3.311   4.223   7.144 -0.2625  2.6083 -0.8438
 2653SOL     OW19420   0.244   2.251   5.649 -0.8205  0.5060 -0.1899
 2653SOL    HW119421   0.178   2.307   5.689  0.3756  0.2075  2.2208
 2653SOL    HW219422   0.266   2.193   5.722 -0.2338 -0.1744 -0.9000
 2654SOL     OW19423   2.229   1.691   2.401 -0.6555 -0.3254  0.2374
 2654SOL    HW119424   2.203   1.766   2.455 -2.2878 -0.1110 -0.8557
 2654SOL    HW219425   2.157   1.630   2.414 -0.3992 -0.9321 -1.1338
 2655SOL     OW19426   0.784   1.204  15.133 -0.6748 -0.2451  0.0134
 2655SOL    HW119427   0.747   1.264  15.068 -2.9487  0.6926  2.1267
 2655SOL    HW219428   0.719   1.225  15.201 -0.1633  0.9492  0.1283
 2656SOL     OW19429   2.287   1.687   4.726  0.1010  0.1587 -0.0160
 2656SOL    HW119430   2.383   1.687   4.727  0.1009 -0.0387 -0.1305
 2656SOL    HW219431   2.259   1.712   4.638  2.1726 -1.4757 -1.1134
 2657SOL     OW19432   0.601   4.500   3.025 -0.0212 -0.4740 -0.3622
 2657SOL    HW119433   0.655   4.564   3.073 -0.2874 -0.5731  0.0720
 2657SOL    HW219434   0.596   4.537   2.937  1.2433  0.2523 -0.1256
 2658SOL     OW19435   0.247   1.569   6.230 -0.1648 -0.2182 -0.2539
 2658SOL    HW119436   0.331   1.529   6.207 -0.0737 -0.8974  1.2627
 2658SOL    HW219437   0.193   1.547   6.155  0.9538  1.9156 -1.7013
 2659SOL     OW19438   3.695   1.652   3.356 -0.5673  0.1695 -0.0489
 2659SOL    HW119439   3.766   1.643   3.292 -1.5073  0.5189 -1.1366
 2659SOL    HW219440   3.737   1.710   3.419 -1.3970  0.2885  0.3895
 2660SOL     OW19441   2.737   0.134   4.782  0.2226 -0.0878 -0.3905
 2660SOL    HW119442   2.759   0.104   4.870 -0.1700 -2.4925 -1.1100
 2660SOL    HW219443   2.663   0.080   4.754  0.5005 -0.4691 -0.3884
 2661SOL     OW19444   1.717   0.073  12.418  0.2909 -0.8230  0.2349
 2661SOL    HW119445   1.680   0.094  12.504  1.7613  1.1518  0.3801
 2661SOL    HW219446   1.760   4.708  12.442  2.4665 -0.3356 -2.0515
 2662SOL     OW19447   2.629   1.909  16.740 -0.1741  0.4095  0.1015
 2662SOL    HW119448   2.572   1.864  16.678  1.6321  0.6558 -1.7213
 2662SOL    HW219449   2.658   1.835  16.795 -2.0252 -0.7063 -0.4021
 2663SOL     OW19450   0.261   1.908   5.527 -0.3167 -0.6606  0.5203
 2663SOL    HW119451   0.177   1.909   5.573  0.9217  1.4607  2.7907
 2663SOL    HW219452   0.244   1.833   5.470 -0.4004  0.5208 -1.0182
 2664SOL     OW19453   2.514   0.913   4.865  0.5074  0.7028  0.3051
 2664SOL    HW119454   2.489   1.004   4.879 -0.0477  0.6137 -0.1228
 2664SOL    HW219455   2.427   0.879   4.846  1.0510  0.5442 -1.8684
 2665SOL     OW19456   2.739   3.785   3.250 -0.0265 -0.9371  0.3266
 2665SOL    HW119457   2.819   3.815   3.292  0.5460 -0.6710 -0.9314
 2665SOL    HW219458   2.682   3.861   3.256  1.1387 -0.0024 -0.3540
 2666SOL     OW19459   2.812   2.343   1.509 -0.6027 -0.3606 -0.3014
 2666SOL    HW119460   2.811   2.397   1.588  0.5499 -2.5154  1.2044
 2666SOL    HW219461   2.887   2.291   1.538 -0.7885 -0.5075 -0.0854
 2667SOL     OW19462   0.195   4.166   6.988  0.0046  0.6920 -0.7401
 2667SOL    HW119463   0.137   4.162   6.912 -2.1587 -1.4883  1.0743
 2667SOL    HW219464   0.256   4.097   6.961  0.6068  0.3673  1.4494
 2668SOL     OW19465   0.759   4.713   4.392  0.1041  0.0703 -0.2615
 2668SOL    HW119466   0.676   4.692   4.433  1.6924 -2.5681  1.5673
 2668SOL    HW219467   0.818   0.033   4.458  1.1665 -1.0509 -0.5644
 2669SOL     OW19468   3.140   0.118   2.574 -0.3219 -0.4765 -0.0579
 2669SOL    HW119469   3.077   0.069   2.627 -0.8883  1.9611  1.4611
 2669SOL    HW219470   3.169   0.047   2.516  0.4249  0.5007 -0.8859
 2670SOL     OW19471   2.118   0.131   8.808 -0.2662  0.4109  0.0521
 2670SOL    HW119472   2.213   0.142   8.808 -0.1465 -0.5736 -0.4008
 2670SOL    HW219473   2.088   0.177   8.729 -0.4668 -0.6663 -0.5016
 2671SOL     OW19474   3.614   4.320   6.316 -0.1201  0.1511  0.4487
 2671SOL    HW119475   3.667   4.333   6.238  0.0158  0.8127  0.6563
 2671SOL    HW219476   3.646   4.239   6.356  1.4285  1.1358  1.2198
 2672SOL     OW19477   3.954   1.945   5.559 -0.0533 -0.6625  0.2577
 2672SOL    HW119478   4.027   1.883   5.559  0.0358 -0.5546  1.7983
 2672SOL    HW219479   3.999   2.014   5.511  0.3023  1.3064  3.3826
 2673SOL     OW19480   4.481   0.757   9.086 -0.1848  0.4718  0.2593
 2673SOL    HW119481   4.571   0.739   9.058 -0.5759  0.9658 -1.3594
 2673SOL    HW219482   4.429   0.724   9.013 -0.0904  1.2566 -0.1715
 2674SOL     OW19483   2.847   3.791   2.224  0.3674 -0.3272 -0.6217
 2674SOL    HW119484   2.780   3.842   2.179  1.5293  0.6708 -1.2217
 2674SOL    HW219485   2.827   3.808   2.316 -2.9835 -3.3228 -0.8103
 2675SOL     OW19486   2.963   1.828   2.818  0.5570  0.2855  0.2406
 2675SOL    HW119487   2.921   1.744   2.798  0.1677  0.4821  0.2294
 2675SOL    HW219488   2.886   1.879   2.844 -1.0313 -1.9463 -0.0692
 2676SOL     OW19489   1.094   3.426  16.576  0.4222 -1.4129  0.1734
 2676SOL    HW119490   1.164   3.362  16.566  1.4381 -0.0447 -1.5324
 2676SOL    HW219491   1.126   3.497  16.632 -1.4757  1.6017 -2.5055
 2677SOL     OW19492   3.036   2.041   5.910 -0.0627 -0.1073  0.3704
 2677SOL    HW119493   2.999   1.962   5.872 -2.2576  0.4039  1.4414
 2677SOL    HW219494   3.085   2.079   5.838 -1.0390 -2.8813 -1.7737
 2678SOL     OW19495   3.885   3.093   1.626  0.5709 -0.1783  0.1739
 2678SOL    HW119496   3.894   3.006   1.588  0.3636 -0.2193  0.2197
 2678SOL    HW219497   3.794   3.081   1.653  0.5186 -1.8609 -0.7374
 2679SOL     OW19498   2.162   4.484   0.002  0.1660  0.7384 -0.5790
 2679SOL    HW119499   2.144   4.394   0.028  1.9543 -0.7200 -4.3213
 2679SOL    HW219500   2.078   4.524   0.023  0.5777  1.2044  0.2090
 2680SOL     OW19501   3.022   1.167  13.567 -0.0021 -0.1815  0.1088
 2680SOL    HW119502   2.991   1.124  13.487  0.5989 -0.4670  0.0326
 2680SOL    HW219503   3.003   1.256  13.540  0.4905  0.6719  2.5434
 2681SOL     OW19504   3.124   3.008  15.116 -0.1194 -0.1214 -0.0950
 2681SOL    HW119505   3.176   2.930  15.094 -0.7451 -0.8748  1.0890
 2681SOL    HW219506   3.033   2.981  15.120  0.2982 -1.4894  0.3860
 2682SOL     OW19507   0.544   3.050   8.234  0.0477  0.2426  0.1946
 2682SOL    HW119508   0.503   3.011   8.311 -1.6362 -1.6944 -1.6430
 2682SOL    HW219509   0.543   3.142   8.259  0.7519 -0.1378  1.5822
 2683SOL     OW19510   2.960   3.882   7.010 -0.4870 -0.6465 -0.2302
 2683SOL    HW119511   2.932   3.832   7.086 -4.7305  0.7288 -0.8681
 2683SOL    HW219512   2.962   3.972   7.043  2.6852 -0.7092 -0.2525
 2684SOL     OW19513   3.994   2.413   4.698  0.0897 -1.2186  0.0806
 2684SOL    HW119514   4.058   2.473   4.661  0.2155 -2.1652 -1.2064
 2684SOL    HW219515   3.944   2.400   4.617 -0.8172  1.8586  0.1485
 2685SOL     OW19516   4.203   3.793  14.816 -0.0810  0.1596  0.4793
 2685SOL    HW119517   4.263   3.780  14.743  1.9352  0.2563  2.1121
 2685SOL    HW219518   4.155   3.875  14.801  0.4159  0.1149 -1.3687
 2686SOL     OW19519   1.362   4.678   4.051  0.3858 -0.0260  0.4454
 2686SOL    HW119520   1.320   0.002   3.976  1.3516 -0.7474 -0.5080
 2686SOL    HW219521   1.371   4.591   4.011  0.4431 -0.4600  1.3953
 2687SOL     OW19522   1.382   3.124  11.667  0.0152 -0.1402  0.0628
 2687SOL    HW119523   1.415   3.201  11.620  1.0707  0.9904  2.6211
 2687SOL    HW219524   1.414   3.131  11.757 -0.3370 -0.3525  0.2050
 2688SOL     OW19525   2.711   3.238  10.464 -0.1677 -0.0610  0.2450
 2688SOL    HW119526   2.794   3.237  10.416  0.3014 -0.9647  1.0861
 2688SOL    HW219527   2.681   3.324  10.433 -0.1596 -0.5806 -1.1943
 2689SOL     OW19528   0.074   4.072   4.892 -0.1980  0.2406 -0.3294
 2689SOL    HW119529   0.050   4.164   4.875  2.3030  0.4186 -2.9325
 2689SOL    HW219530   0.010   4.029   4.835  0.4519  0.0017 -0.8839
 2690SOL     OW19531   2.934   3.555   2.999  0.8435 -0.0883  0.3404
 2690SOL    HW119532   2.962   3.563   3.090  2.9829 -1.9069 -0.1564
 2690SOL    HW219533   2.971   3.470   2.973 -3.3165 -1.6189 -0.7741
 2691SOL     OW19534   4.017   3.530   4.816 -0.1415 -0.4506  0.7090
 2691SOL    HW119535   4.039   3.622   4.825  1.8009 -0.8804  0.3799
 2691SOL    HW219536   4.004   3.501   4.906  0.0166 -0.1897  0.8148
 2692SOL     OW19537   4.037   0.487   5.807  0.0079  0.2002  0.0982
 2692SOL    HW119538   4.112   0.479   5.749  1.4462 -0.1941  2.0358
 2692SOL    HW219539   3.970   0.463   5.742 -0.7114  0.8279  0.6011
 2693SOL     OW19540   3.647   3.125   7.461  0.2945 -0.3373  0.8063
 2693SOL    HW119541   3.711   3.072   7.508  1.2775 -1.6467 -1.9807
 2693SOL    HW219542   3.705   3.144   7.387  1.0438  1.8373  1.9590
 2694SOL     OW19543   0.427   0.522   5.124 -0.0036  0.5007 -0.2316
 2694SOL    HW119544   0.398   0.592   5.182 -0.2134  1.1748 -1.1603
 2694SOL    HW219545   0.460   0.462   5.191 -0.8038 -0.1245 -0.4024
 2695SOL     OW19546   0.167   3.491   1.286 -0.1518 -0.0201 -0.1404
 2695SOL    HW119547   0.173   3.396   1.301  1.3903 -0.3062 -2.5612
 2695SOL    HW219548   0.090   3.499   1.230  1.3291  1.2500 -1.9924
 2696SOL     OW19549   1.166   0.569  13.336  0.1022 -0.1283  0.7182
 2696SOL    HW119550   1.102   0.631  13.370  0.4905  0.4069  0.4769
 2696SOL    HW219551   1.150   0.579  13.242 -0.1857  0.3465  0.8222
 2697SOL     OW19552   0.145   4.005   4.064 -0.4939  0.0798 -0.6110
 2697SOL    HW119553   0.095   3.977   3.987 -1.2011  0.9325 -0.4686
 2697SOL    HW219554   0.082   4.047   4.123 -0.8509 -0.8883 -0.3001
 2698SOL     OW19555   0.735   1.725  13.359 -1.2851 -0.4344 -0.4248
 2698SOL    HW119556   0.827   1.734  13.335 -1.0540 -0.6730  0.3866
 2698SOL    HW219557   0.745   1.694  13.449  2.3609  0.6214 -0.5012
 2699SOL     OW19558   3.576   2.377   8.055  0.9174 -0.2455 -0.4312
 2699SOL    HW119559   3.618   2.397   7.971 -0.1701 -1.1681 -1.1960
 2699SOL    HW219560   3.513   2.448   8.058  0.4949 -0.6331 -0.0477
 2700SOL     OW19561   0.864   0.247   0.023  0.4841  0.0500 -0.3079
 2700SOL    HW119562   0.796   0.251   0.091  0.0654 -0.6425 -0.6896
 2700SOL    HW219563   0.944   0.233   0.074  0.0093 -0.2930  0.3532
 2701SOL     OW19564   0.923   0.541   3.603 -0.2850  0.8894 -0.4598
 2701SOL    HW119565   0.994   0.603   3.589  0.3872  0.2077 -0.0283
 2701SOL    HW219566   0.961   0.487   3.672 -0.9166  0.8215 -0.1635
 2702SOL     OW19567   0.480   2.084   5.853  0.6148  0.1447  0.8340
 2702SOL    HW119568   0.494   1.996   5.887  1.0330 -0.1061  0.0172
 2702SOL    HW219569   0.385   2.088   5.860  0.5905 -2.5620  2.0792
 2703SOL     OW19570   3.471   1.339   1.894 -0.4659 -0.1731 -0.3435
 2703SOL    HW119571   3.428   1.398   1.832  0.1455  1.0246  0.3871
 2703SOL    HW219572   3.462   1.394   1.971  1.8449 -0.2381 -0.0264
 2704SOL     OW19573   0.009   3.998  13.914 -0.4046 -0.4401  0.0855
 2704SOL    HW119574   0.057   3.949  13.980  0.4449  0.4893  0.1526
 2704SOL    HW219575   4.640   3.995  13.956 -0.7358 -0.5320 -0.5963
 2705SOL     OW19576   1.727   3.355   4.608  0.1913 -0.0448 -0.3104
 2705SOL    HW119577   1.650   3.351   4.551  0.0586  1.3767 -0.2325
 2705SOL    HW219578   1.789   3.413   4.564 -0.4909 -0.1569 -1.4156
 2706SOL     OW19579   3.997   2.949   4.394  0.0414 -0.2695  0.6324
 2706SOL    HW119580   3.905   2.922   4.389  0.6503 -2.2924  0.4881
 2706SOL    HW219581   4.013   2.953   4.489  0.3005  1.7431  0.5029
 2707SOL     OW19582   2.260   0.914   0.282 -0.2524 -0.4582  0.6098
 2707SOL    HW119583   2.285   0.922   0.190  0.7449 -1.7174  0.7762
 2707SOL    HW219584   2.263   1.008   0.304  0.7489 -0.1512 -0.8618
 2708SOL     OW19585   4.192   3.597  16.758  0.4266 -0.4683 -0.0091
 2708SOL    HW119586   4.198   3.513  16.713  0.1460  0.1002 -1.1017
 2708SOL    HW219587   4.267   3.639  16.715 -0.6860 -1.0454 -2.4576
 2709SOL     OW19588   2.349   4.070   7.410  0.2158 -0.2749  0.2600
 2709SOL    HW119589   2.254   4.063   7.403  0.3214 -1.4520 -0.1093
 2709SOL    HW219590   2.351   4.147   7.466  3.0480 -0.2979  0.2031
 2710SOL     OW19591   0.985   0.137   2.928  0.0709 -0.1376 -0.1339
 2710SOL    HW119592   1.064   0.187   2.908 -0.8599  0.6966 -1.7296
 2710SOL    HW219593   0.962   0.163   3.017  0.2728 -2.0875  0.4714
 2711SOL     OW19594   0.598   2.240   3.725  0.3347 -0.4333 -0.1455
 2711SOL    HW119595   0.637   2.224   3.638 -1.9822 -0.3895 -1.1974
 2711SOL    HW219596   0.511   2.269   3.698  1.1675 -0.6864 -3.1146
 2712SOL     OW19597   0.795   1.575   2.762 -0.5606 -0.1276 -0.2060
 2712SOL    HW119598   0.796   1.651   2.704 -0.8635 -0.0441 -0.0991
 2712SOL    HW219599   0.715   1.535   2.730  0.1768 -1.2147 -0.6998
 2713SOL     OW19600   3.863   0.516   8.171  0.1736  0.2647 -0.0181
 2713SOL    HW119601   3.880   0.610   8.175  0.6851  0.2341 -1.4256
 2713SOL    HW219602   3.949   0.481   8.194 -0.2599 -0.4275  0.5720
 2714SOL     OW19603   3.449   2.668  17.076 -0.1269  0.3276 -0.2134
 2714SOL    HW119604   3.356   2.649  17.064  0.4369 -0.9599 -2.6948
 2714SOL    HW219605   3.468   2.681  16.982 -1.3409  1.1546 -0.3401
 2715SOL     OW19606   0.928   1.786   5.842 -0.1992  0.0276  0.7566
 2715SOL    HW119607   0.962   1.857   5.788  0.5313  1.0400  2.5831
 2715SOL    HW219608   0.873   1.745   5.774 -0.2026  1.0036  0.1655
 2716SOL     OW19609   3.743   1.396   5.582 -0.0838  0.1260 -0.2879
 2716SOL    HW119610   3.664   1.414   5.530  1.5441  0.7218 -2.5174
 2716SOL    HW219611   3.714   1.324   5.638  2.1063 -0.6229 -0.1211
 2717SOL     OW19612   2.960   4.412  13.545 -0.3401  0.1668 -0.2139
 2717SOL    HW119613   3.048   4.403  13.582 -0.7270 -3.1594 -0.0853
 2717SOL    HW219614   2.987   4.459  13.467 -3.0400 -2.8516 -2.9650
 2718SOL     OW19615   4.489   2.914   2.483 -0.5889  0.0256  0.4503
 2718SOL    HW119616   4.512   2.822   2.465 -2.4547 -0.3487  0.0623
 2718SOL    HW219617   4.514   2.959   2.403 -1.6424  0.3349  0.2991
 2719SOL     OW19618   3.160   2.423   9.532 -1.1006  0.3516 -0.3247
 2719SOL    HW119619   3.188   2.473   9.609  2.1747 -1.0668 -0.5713
 2719SOL    HW219620   3.185   2.339   9.570 -3.3803 -1.0777 -1.9684
 2720SOL     OW19621   4.415   3.490   3.950 -0.1302 -0.5514 -0.1981
 2720SOL    HW119622   4.469   3.470   4.026 -0.2407  0.5996  0.1877
 2720SOL    HW219623   4.407   3.585   3.962  1.2429 -0.1346 -2.4391
 2721SOL     OW19624   1.185   3.335   8.384  0.2201 -0.0744  0.1461
 2721SOL    HW119625   1.207   3.417   8.427  3.0191 -0.5050 -0.4618
 2721SOL    HW219626   1.099   3.362   8.354  0.3005  0.6507  0.5557
 2722SOL     OW19627   2.786   3.773  16.255  0.2860 -0.1013 -0.1640
 2722SOL    HW119628   2.749   3.851  16.296  2.8030 -0.0913  2.1560
 2722SOL    HW219629   2.724   3.760  16.183  0.4448 -0.2322 -0.2783
 2723SOL     OW19630   3.047   1.883   0.115  0.3250 -0.4058  0.2378
 2723SOL    HW119631   2.986   1.809   0.113  1.4123 -1.3121  0.7421
 2723SOL    HW219632   2.982   1.953   0.114 -1.7814 -2.3423 -0.2702
 2724SOL     OW19633   1.556   0.879   9.549  0.2417 -0.3557  0.2892
 2724SOL    HW119634   1.631   0.829   9.517 -0.5330 -1.3742  0.0820
 2724SOL    HW219635   1.543   0.821   9.623  1.3359 -2.1727 -0.9560
 2725SOL     OW19636   4.062   3.757   4.300 -0.2368  0.4885 -0.2918
 2725SOL    HW119637   4.057   3.760   4.396  1.9937 -1.6659 -0.0914
 2725SOL    HW219638   3.993   3.693   4.285 -0.3078  0.8834 -1.5799
 2726SOL     OW19639   1.238   0.473   8.679 -0.3220 -0.9970  0.5949
 2726SOL    HW119640   1.250   0.564   8.704  0.6644 -0.0458 -3.3713
 2726SOL    HW219641   1.321   0.447   8.639  0.2095 -0.8996  1.6371
 2727SOL     OW19642   3.621   3.416   2.054 -0.6253  0.8064  0.0282
 2727SOL    HW119643   3.555   3.360   2.094 -0.1009 -0.0833 -0.3426
 2727SOL    HW219644   3.634   3.491   2.112 -0.1762  2.4119 -2.1184
 2728SOL     OW19645   3.011   2.565  12.241  0.0863 -0.1584 -0.0837
 2728SOL    HW119646   2.923   2.539  12.212 -0.1646 -0.2913  0.8188
 2728SOL    HW219647   3.048   2.479  12.260 -0.2212  0.3327  2.6567
 2729SOL     OW19648   0.206   2.886  16.149 -0.3419  0.3382  0.6570
 2729SOL    HW119649   0.152   2.807  16.151 -1.9534  1.3713 -2.3921
 2729SOL    HW219650   0.288   2.841  16.167 -0.0635 -0.1208 -1.7451
 2730SOL     OW19651   2.539   2.800   4.227  0.0231 -0.5657  0.0414
 2730SOL    HW119652   2.581   2.717   4.204  1.7389  0.0064  1.0885
 2730SOL    HW219653   2.451   2.770   4.207  0.3721 -1.9056  0.5807
 2731SOL     OW19654   0.823   0.237   3.151 -0.4994 -0.3524  0.2100
 2731SOL    HW119655   0.882   0.253   3.225 -0.6226 -1.4484  0.5543
 2731SOL    HW219656   0.811   0.322   3.110  0.1565 -0.2361  0.2588
 2732SOL     OW19657   2.613   1.118   3.309  0.5148 -0.1733 -0.4349
 2732SOL    HW119658   2.620   1.214   3.314  1.2125 -0.3428  1.8143
 2732SOL    HW219659   2.518   1.112   3.321  0.6940  2.2300  2.3205
 2733SOL     OW19660   0.738   3.913  16.378 -0.3211 -0.0685 -0.8046
 2733SOL    HW119661   0.683   3.947  16.307 -2.7017 -0.5665  0.8130
 2733SOL    HW219662   0.824   3.951  16.357 -0.7053  1.5646  0.5570
 2734SOL     OW19663   3.979   0.996   5.329 -0.2969  0.2903  0.1070
 2734SOL    HW119664   3.911   0.982   5.263 -2.2168  2.4598  1.6636
 2734SOL    HW219665   3.956   1.082   5.363  0.7164 -0.4574  2.6929
 2735SOL     OW19666   2.501   2.323  13.659 -0.5843  0.4949 -0.0227
 2735SOL    HW119667   2.497   2.354  13.568 -1.0382  0.9090  0.1367
 2735SOL    HW219668   2.593   2.339  13.679 -1.4636  4.7599  0.5927
 2736SOL     OW19669   2.893   3.877   5.680  0.0068 -0.5386  0.3812
 2736SOL    HW119670   2.799   3.864   5.663 -0.2239  1.6971 -0.0356
 2736SOL    HW219671   2.930   3.803   5.728  0.1702  0.4925  1.8202
 2737SOL     OW19672   4.434   4.403   4.230 -0.3521  0.0702 -0.0728
 2737SOL    HW119673   4.384   4.479   4.200 -0.0578  1.5013  3.0427
 2737SOL    HW219674   4.374   4.329   4.227 -0.4400  0.1082  0.9321
 2738SOL     OW19675   2.731   1.082  13.009 -0.1531 -0.0324  0.2848
 2738SOL    HW119676   2.686   1.166  13.005  0.2764  0.0964 -2.0164
 2738SOL    HW219677   2.716   1.060  12.917  0.8280  0.4822  0.0017
 2739SOL     OW19678   0.362   0.132  11.047 -0.3938  0.0852 -0.3975
 2739SOL    HW119679   0.409   0.168  11.123 -0.9383 -0.4040  0.1738
 2739SOL    HW219680   0.344   0.216  11.006 -0.9808  0.0506 -0.2192
 2740SOL     OW19681   3.591   3.682   0.787  0.2406 -0.1566  0.3591
 2740SOL    HW119682   3.615   3.667   0.696 -1.9925 -1.4778 -0.0230
 2740SOL    HW219683   3.622   3.597   0.819  0.4177  0.1802  1.0851
 2741SOL     OW19684   1.662   0.367   5.989  0.3382 -0.3926 -0.4341
 2741SOL    HW119685   1.625   0.279   5.983 -0.3289 -0.3310  2.7036
 2741SOL    HW219686   1.757   0.363   5.993  0.3330  0.2054  0.2871
 2742SOL     OW19687   3.649   4.435   6.681 -0.3353  0.0107  0.4270
 2742SOL    HW119688   3.682   4.472   6.599 -2.5237  3.1488  0.9560
 2742SOL    HW219689   3.725   4.406   6.733 -0.2254 -0.5406 -0.0432
 2743SOL     OW19690   3.979   2.021   0.536 -0.5994  0.1435 -0.3427
 2743SOL    HW119691   3.916   1.994   0.603 -1.2740  1.0634 -0.5997
 2743SOL    HW219692   3.991   1.936   0.494  1.4140 -0.9942  2.4943
 2744SOL     OW19693   3.775   2.153  17.170 -0.1258 -0.5837  0.0558
 2744SOL    HW119694   3.696   2.206  17.166  2.4402  3.3127  0.4742
 2744SOL    HW219695   3.733   2.073  17.201 -0.6507 -0.1564  0.4251
 2745SOL     OW19696   0.847   3.455   3.297 -0.0209  0.2569  0.4277
 2745SOL    HW119697   0.870   3.454   3.390 -0.9094  0.6803  0.6509
 2745SOL    HW219698   0.813   3.366   3.291 -0.6196  0.4999  0.2192
 2746SOL     OW19699   1.670   3.147   6.658  0.1863  0.6321 -0.5370
 2746SOL    HW119700   1.577   3.168   6.660  0.5881  2.5816 -2.5640
 2746SOL    HW219701   1.702   3.237   6.663  1.0402  0.2257  1.2188
 2747SOL     OW19702   1.673   4.099   4.993 -0.3038  0.3414 -0.4667
 2747SOL    HW119703   1.736   4.046   4.945  0.1489  2.2255 -1.9677
 2747SOL    HW219704   1.586   4.065   4.970 -0.7108  1.2721 -0.3451
 2748SOL     OW19705   3.030   0.757  13.058  0.1433 -1.1246  0.4347
 2748SOL    HW119706   3.100   0.817  13.033 -0.0861 -0.8019  0.5737
 2748SOL    HW219707   3.032   0.695  12.986  0.0812  1.3149 -1.6587
 2749SOL     OW19708   1.623   3.374   4.198 -0.1686 -0.8812  0.1725
 2749SOL    HW119709   1.613   3.462   4.162 -0.6556 -1.6707 -1.6211
 2749SOL    HW219710   1.582   3.331   4.123 -1.7485  0.7970  0.0583
 2750SOL     OW19711   4.220   3.698   2.302 -0.6464 -0.2917  0.1733
 2750SOL    HW119712   4.234   3.716   2.395  0.7109  1.3540 -0.3495
 2750SOL    HW219713   4.159   3.627   2.319 -2.2323  0.8561 -0.6647
 2751SOL     OW19714   4.488   2.577  10.145  0.0867 -0.0747 -0.4697
 2751SOL    HW119715   4.525   2.501  10.190 -1.3787 -0.9848 -0.7880
 2751SOL    HW219716   4.520   2.659  10.182  1.8750 -0.2222 -1.7122
 2752SOL     OW19717   1.399   0.815   4.433 -0.2115  0.1305  0.0306
 2752SOL    HW119718   1.410   0.731   4.388  1.2552  0.4412 -0.2107
 2752SOL    HW219719   1.316   0.799   4.478  1.3728 -4.3734  1.2748
 2753SOL     OW19720   4.364   0.565   2.462 -0.5970 -0.4877 -0.0549
 2753SOL    HW119721   4.423   0.490   2.453 -0.4999 -0.5294  0.9900
 2753SOL    HW219722   4.280   0.523   2.443 -0.7567 -0.7309  1.1879
 2754SOL     OW19723   1.913   4.582   3.385  0.2885  0.1493  0.3847
 2754SOL    HW119724   1.860   4.643   3.437 -1.4093 -0.9343 -0.0425
 2754SOL    HW219725   1.897   4.613   3.296  0.9514 -0.8673 -0.0806
 2755SOL     OW19726   1.947   3.964   2.459  0.0316 -0.1458  0.1274
 2755SOL    HW119727   2.043   3.958   2.455  0.1405  0.3386  1.7779
 2755SOL    HW219728   1.924   3.944   2.369  1.1643  1.2696 -0.4679
 2756SOL     OW19729   0.324   2.311   6.716 -0.0394 -0.3702 -0.1498
 2756SOL    HW119730   0.231   2.322   6.739  0.7587  0.9598  2.4450
 2756SOL    HW219731   0.316   2.243   6.650 -2.4529  0.2782 -0.5329
 2757SOL     OW19732   1.327   4.427   2.092 -0.1667 -0.5591  0.2366
 2757SOL    HW119733   1.254   4.405   2.149  0.2076  3.2309  2.1010
 2757SOL    HW219734   1.396   4.381   2.141 -1.3003 -2.1342  0.3607
 2758SOL     OW19735   4.455   0.549   0.705 -0.4577  0.2114  0.4322
 2758SOL    HW119736   4.527   0.593   0.661 -1.0451 -0.6500 -1.3804
 2758SOL    HW219737   4.383   0.566   0.644 -1.0671 -0.0693  1.0734
 2759SOL     OW19738   1.884   3.514   3.114  0.8310 -0.3414 -0.2560
 2759SOL    HW119739   1.928   3.594   3.143 -0.7482  0.6269 -0.5165
 2759SOL    HW219740   1.825   3.549   3.047 -0.7046 -1.0993  0.7158
 2760SOL     OW19741   3.674   2.257   7.150  0.2279 -0.5613  0.5871
 2760SOL    HW119742   3.703   2.227   7.236 -1.8694  1.3267  1.9811
 2760SOL    HW219743   3.646   2.349   7.159  0.2276 -0.5902  0.8684
 2761SOL     OW19744   4.329   0.026   8.976 -0.3642 -0.2619  0.1399
 2761SOL    HW119745   4.368   0.095   8.921  0.2594 -1.8514 -1.4189
 2761SOL    HW219746   4.248   0.008   8.928 -1.3782  0.8111  1.4689
 2762SOL     OW19747   1.472   2.289   2.268  0.0574  0.1933 -0.0049
 2762SOL    HW119748   1.503   2.206   2.304  0.8473  0.0085 -1.1307
 2762SOL    HW219749   1.462   2.260   2.178  0.7998  2.3503 -0.7805
 2763SOL     OW19750   2.657   4.327  17.451 -0.3601 -0.1236  0.1711
 2763SOL    HW119751   2.629   4.273  17.525 -1.1328  0.6576  0.4534
 2763SOL    HW219752   2.699   4.255  17.403 -0.0882 -0.4962  0.9589
 2764SOL     OW19753   1.888   0.922   5.363 -0.2929 -0.1898  0.0269
 2764SOL    HW119754   1.909   0.832   5.389  0.6840 -0.3376 -1.2601
 2764SOL    HW219755   1.971   0.967   5.378 -0.5962 -0.3500  2.2262
 2765SOL     OW19756   3.842   3.722   6.282 -0.7785  0.0265  0.5929
 2765SOL    HW119757   3.812   3.655   6.220  0.3582 -1.9647  2.1752
 2765SOL    HW219758   3.794   3.717   6.365 -0.6874 -1.5698  0.5568
 2766SOL     OW19759   2.780   4.469   8.181  0.2355 -0.0946 -0.2966
 2766SOL    HW119760   2.855   4.468   8.122  1.6166 -2.6319  1.5201
 2766SOL    HW219761   2.801   4.404   8.248 -1.1409  0.9118  1.0989
 2767SOL     OW19762   2.724   4.252  12.132 -0.1642 -0.7290 -0.3518
 2767SOL    HW119763   2.654   4.296  12.085 -1.2686  0.8114  2.7400
 2767SOL    HW219764   2.777   4.217  12.060 -2.5471 -0.5556 -2.1985
 2768SOL     OW19765   2.200   4.106   3.172  0.1193  0.1649  0.1877
 2768SOL    HW119766   2.136   4.050   3.215  1.0125 -0.5484  0.5828
 2768SOL    HW219767   2.263   4.038   3.147  0.1728 -1.0139  3.5716
 2769SOL     OW19768   3.361   2.464  11.291  0.1879  0.4548  0.3197
 2769SOL    HW119769   3.418   2.437  11.219 -0.6515  0.4288 -0.3414
 2769SOL    HW219770   3.425   2.512  11.343 -1.4696  1.6182  1.2626
 2770SOL     OW19771   0.607   1.708   5.676  0.4804  0.1829 -0.0976
 2770SOL    HW119772   0.563   1.755   5.747  0.0004 -0.4564  0.0298
 2770SOL    HW219773   0.572   1.756   5.601 -1.5574  0.4381  1.0126
 2771SOL     OW19774   4.446   4.368   1.128 -0.1021  0.1112  0.4207
 2771SOL    HW119775   4.418   4.330   1.211  3.4461 -2.2685  0.5661
 2771SOL    HW219776   4.534   4.395   1.154 -0.0643  0.7973 -0.4223
 2772SOL     OW19777   1.956   0.046   6.974  0.2096  0.0799 -0.0396
 2772SOL    HW119778   1.920   4.696   7.032 -0.2061 -1.7446 -2.4186
 2772SOL    HW219779   1.943   0.006   6.888  2.5242 -2.5766  0.8704
 2773SOL     OW19780   2.820   3.450   7.458 -0.5138 -0.1415  0.5674
 2773SOL    HW119781   2.755   3.448   7.387  1.5506  0.6719 -1.3359
 2773SOL    HW219782   2.891   3.393   7.429 -0.3035  0.8015 -0.8081
 2774SOL     OW19783   3.740   0.374   9.870  0.5709 -0.0036 -0.7224
 2774SOL    HW119784   3.761   0.378   9.777 -1.1796  0.5470 -1.0938
 2774SOL    HW219785   3.669   0.310   9.861 -0.2384  0.8041 -0.0940
 2775SOL     OW19786   0.586   3.270   9.646  0.2923  0.7265  0.9495
 2775SOL    HW119787   0.496   3.279   9.617  0.8741  1.3131 -0.6901
 2775SOL    HW219788   0.633   3.307   9.571 -1.0959 -0.7622 -0.6378
 2776SOL     OW19789   0.086   2.099   7.773  0.0876 -0.4960  0.8565
 2776SOL    HW119790   0.144   2.062   7.840 -0.9810 -1.3601  1.2970
 2776SOL    HW219791   0.001   2.102   7.816  1.2281  0.2441  3.0315
 2777SOL     OW19792   4.201   0.673   9.932 -0.2746  0.2867  0.0311
 2777SOL    HW119793   4.279   0.699   9.881  1.4527 -1.9541  1.5243
 2777SOL    HW219794   4.238   0.595   9.975 -1.3778  0.4638  1.2881
 2778SOL     OW19795   2.496   2.903   3.364  0.4397  0.5775  0.0637
 2778SOL    HW119796   2.403   2.919   3.349 -0.1131 -0.0777  2.7463
 2778SOL    HW219797   2.533   2.925   3.278 -0.7478  0.9758 -0.3410
 2779SOL     OW19798   0.575   3.839   4.062 -0.4606  0.1480 -0.0954
 2779SOL    HW119799   0.498   3.890   4.085 -1.0412 -2.0934  2.9658
 2779SOL    HW219800   0.643   3.901   4.089  0.9490 -0.6846 -1.7758
 2780SOL     OW19801   4.713   1.539   2.699 -0.2232 -0.3724 -0.0873
 2780SOL    HW119802   0.082   1.579   2.692 -1.2357  1.7920 -0.3850
 2780SOL    HW219803   4.689   1.564   2.788  1.3324 -2.1490  0.8164
 2781SOL     OW19804   2.736   0.548   8.523  0.3130 -0.1798 -0.4339
 2781SOL    HW119805   2.689   0.593   8.453 -0.6436 -1.7612 -0.8015
 2781SOL    HW219806   2.668   0.482   8.539  0.5064 -0.5838 -1.2769
 2782SOL     OW19807   2.936   4.408  13.918 -0.1614 -0.1449  0.4989
 2782SOL    HW119808   2.939   4.476  13.984 -1.4282 -1.2793  1.7272
 2782SOL    HW219809   2.900   4.456  13.844 -0.2559 -0.6762  0.1985
 2783SOL     OW19810   3.112   4.584  16.283  0.2964  0.1853 -0.1628
 2783SOL    HW119811   3.020   4.593  16.261  0.9277  1.8015 -2.1557
 2783SOL    HW219812   3.134   4.618  16.370  0.6217 -0.9196  0.1914
 2784SOL     OW19813   2.032   2.255  12.644  0.4775  1.0011 -0.3832
 2784SOL    HW119814   1.966   2.291  12.585  0.3489  1.1484 -0.1496
 2784SOL    HW219815   2.115   2.294  12.616 -0.3950  3.3162  0.1915
 2785SOL     OW19816   2.508   0.653   4.458  0.0670  1.1560 -0.0779
 2785SOL    HW119817   2.602   0.671   4.459  0.0581  1.2421 -1.1355
 2785SOL    HW219818   2.490   0.644   4.552  1.1622 -1.7128 -0.1567
 2786SOL     OW19819   2.195   3.353   2.983 -0.2040  0.2477  0.3586
 2786SOL    HW119820   2.132   3.331   2.915  0.7101 -1.1179 -0.0519
 2786SOL    HW219821   2.185   3.448   2.991 -0.1941  0.4460 -2.1289
 2787SOL     OW19822   3.466   0.111  11.130 -0.9003 -0.2585  0.3911
 2787SOL    HW119823   3.471   0.051  11.205 -1.4304  0.1039  0.7097
 2787SOL    HW219824   3.393   0.170  11.146  0.8677  2.0098  0.2061
 2788SOL     OW19825   0.626   0.678  11.833  0.2985  0.0464 -0.3160
 2788SOL    HW119826   0.632   0.671  11.737 -0.5916 -2.9710 -0.1605
 2788SOL    HW219827   0.698   0.734  11.861 -0.2611  1.0869 -0.9617
 2789SOL     OW19828   1.290   0.816   5.628  0.1142 -0.5842 -0.3676
 2789SOL    HW119829   1.293   0.875   5.553  0.1261  0.0916  0.1652
 2789SOL    HW219830   1.381   0.788   5.640  0.8652  2.1013  0.1608
 2790SOL     OW19831   0.694   4.087   4.142 -0.0661  0.3460 -0.6455
 2790SOL    HW119832   0.731   4.087   4.230  0.7243  0.9499 -0.9811
 2790SOL    HW219833   0.607   4.122   4.163  0.0533 -0.2624  0.8513
 2791SOL     OW19834   4.196   4.065   8.233 -0.1143  0.0106 -0.2699
 2791SOL    HW119835   4.109   4.024   8.236 -0.4622  0.9683  2.3838
 2791SOL    HW219836   4.214   4.068   8.327  0.5922  0.6908 -0.4312
 2792SOL     OW19837   3.053   3.950   5.456  0.0363  0.3730 -0.0883
 2792SOL    HW119838   2.988   3.934   5.524 -1.6715 -2.7422 -2.4144
 2792SOL    HW219839   3.083   3.862   5.431  1.7154  0.5920  1.1443
 2793SOL     OW19840   0.316   4.590   3.659  0.1423 -0.0148 -0.0690
 2793SOL    HW119841   0.340   4.677   3.629  0.5838 -0.2345 -0.3595
 2793SOL    HW219842   0.402   4.548   3.662  0.6728  0.8320 -3.7379
 2794SOL     OW19843   1.320   0.503   5.097 -0.6474 -0.1570 -0.1386
 2794SOL    HW119844   1.328   0.445   5.172  0.4214 -1.6208 -1.3903
 2794SOL    HW219845   1.227   0.527   5.101 -0.2642  0.9721  2.1440
 2795SOL     OW19846   1.660   1.150   3.972 -0.0141  0.1642 -0.4684
 2795SOL    HW119847   1.750   1.173   3.991 -0.6327  2.9500 -0.9611
 2795SOL    HW219848   1.614   1.231   3.995  0.3025  0.6404 -1.5238
 2796SOL     OW19849   2.692   4.437  11.921 -0.7098  0.5429  0.1022
 2796SOL    HW119850   2.711   4.403  11.833  1.0042  0.4603  0.5008
 2796SOL    HW219851   2.749   4.514  11.922  1.3861 -1.0073 -0.2163
 2797SOL     OW19852   1.828   3.735   5.818 -0.6697  0.1731  0.3182
 2797SOL    HW119853   1.842   3.651   5.774 -2.6929 -0.4363  0.8787
 2797SOL    HW219854   1.916   3.752   5.854  1.1439 -1.6818 -3.2358
 2798SOL     OW19855   0.988   4.188  14.719 -0.0430 -0.0037  0.3768
 2798SOL    HW119856   1.014   4.230  14.801  0.7214  0.3355 -0.0433
 2798SOL    HW219857   0.995   4.265  14.663  0.6702  0.7227  1.4701
 2799SOL     OW19858   1.993   4.285   7.886  0.2945  0.4056  0.4830
 2799SOL    HW119859   1.979   4.229   7.809 -1.8119  0.4814  0.8053
 2799SOL    HW219860   1.944   4.233   7.951  1.5332  1.1816  2.0153
 2800SOL     OW19861   0.776   4.188   8.577  0.2700 -0.0249  0.0358
 2800SOL    HW119862   0.758   4.254   8.509 -0.3105 -0.1929  0.0277
 2800SOL    HW219863   0.870   4.203   8.592 -0.2024  2.4264  0.5734
 2801SOL     OW19864   2.472   3.945   1.609 -0.0055  0.5615  0.2770
 2801SOL    HW119865   2.417   3.873   1.639  2.0453 -1.7820 -1.5069
 2801SOL    HW219866   2.555   3.901   1.589  0.8606  3.1181 -1.7511
 2802SOL     OW19867   0.514   2.639   6.089 -0.2141 -0.2232  0.3729
 2802SOL    HW119868   0.561   2.630   6.172  1.1707 -1.2890 -0.5261
 2802SOL    HW219869   0.516   2.735   6.086 -1.1291 -0.2034  0.5359
 2803SOL     OW19870   3.353   1.040   0.360  0.4616 -0.4280 -0.0863
 2803SOL    HW119871   3.259   1.036   0.346  0.4851 -1.8445  0.1427
 2803SOL    HW219872   3.374   1.132   0.344 -3.8753  0.5538  0.0172
 2804SOL     OW19873   0.388   0.401   3.141  0.3439 -0.3398 -0.3585
 2804SOL    HW119874   0.294   0.391   3.127  0.1284  1.0910  0.1078
 2804SOL    HW219875   0.431   0.319   3.118  1.0124 -1.0725  3.4697
 2805SOL     OW19876   1.448   0.270  13.485 -0.8423 -0.5083  0.5971
 2805SOL    HW119877   1.533   0.227  13.476 -0.7249 -0.9786  3.8671
 2805SOL    HW219878   1.427   0.280  13.392 -1.9793 -0.6726  0.8369
 2806SOL     OW19879   3.650   1.886  10.532  0.0567 -0.0098 -0.4598
 2806SOL    HW119880   3.586   1.844  10.588 -2.0200  0.5978 -2.3991
 2806SOL    HW219881   3.727   1.859  10.583 -0.1173 -1.0959 -0.7898
 2807SOL     OW19882   1.150   0.032   5.001  0.2101  0.1168 -0.1854
 2807SOL    HW119883   1.134   0.107   4.944  0.4273  0.2356 -0.0879
 2807SOL    HW219884   1.235   4.716   4.975  0.6985  0.9893  0.2774
 2808SOL     OW19885   0.891   3.065   7.469  0.6640  0.2865  0.2219
 2808SOL    HW119886   0.810   3.075   7.517  0.4284  1.5193 -0.4446
 2808SOL    HW219887   0.924   3.151   7.494  1.0499  0.2927 -0.2996
 2809SOL     OW19888   0.630   1.100   2.130  0.2523 -0.3380 -0.0721
 2809SOL    HW119889   0.668   1.178   2.090  0.3468 -1.0356 -1.3389
 2809SOL    HW219890   0.539   1.124   2.147  1.5447  2.4367  3.0269
 2810SOL     OW19891   3.926   3.558   7.386  0.5585  0.0279  0.8158
 2810SOL    HW119892   3.911   3.547   7.480  0.7086  0.3866  0.8802
 2810SOL    HW219893   3.851   3.615   7.371 -0.4719 -1.7609 -0.8744
 2811SOL     OW19894   0.890   0.931  13.263 -0.0574  0.2432  0.1563
 2811SOL    HW119895   0.835   1.009  13.270  0.3143  0.3601  1.8024
 2811SOL    HW219896   0.961   0.956  13.203  1.9794  1.4940  3.1093
 2812SOL     OW19897   2.218   1.384   3.524  0.3269  0.2532  0.5755
 2812SOL    HW119898   2.165   1.461   3.504  0.7313  0.1864 -0.7701
 2812SOL    HW219899   2.249   1.370   3.434 -2.1880  0.4068 -0.3144
 2813SOL     OW19900   4.002   3.261   6.600 -0.3996 -0.1439 -0.4661
 2813SOL    HW119901   3.918   3.265   6.645 -0.0037 -1.3852  0.3927
 2813SOL    HW219902   4.038   3.184   6.645 -1.3751 -1.1933 -1.4809
 2814SOL     OW19903   4.147   3.590   7.187  0.3378  0.0542 -0.1056
 2814SOL    HW119904   4.177   3.504   7.159 -1.6989 -1.2386  1.6952
 2814SOL    HW219905   4.076   3.567   7.247  1.3539  1.4247  1.6077
 2815SOL     OW19906   0.590   0.690   6.922 -0.1935  0.6787 -0.2836
 2815SOL    HW119907   0.511   0.732   6.955 -1.4933 -0.1451 -2.3615
 2815SOL    HW219908   0.587   0.699   6.826  1.1942 -1.0510 -0.4903
 2816SOL     OW19909   2.631   0.283   7.291 -0.0215 -0.0785 -0.1760
 2816SOL    HW119910   2.542   0.249   7.285 -0.8032  1.6730  1.3592
 2816SOL    HW219911   2.678   0.206   7.324 -0.7676 -1.1364 -1.5989
 2817SOL     OW19912   4.685   2.548  11.175 -0.5468 -0.1084 -0.5977
 2817SOL    HW119913   4.663   2.533  11.267  0.7712  1.6230 -0.0181
 2817SOL    HW219914   4.685   2.459  11.138 -3.4631  0.0642 -1.0339
 2818SOL     OW19915   3.312   4.702   4.101 -0.3872 -0.1783 -0.0091
 2818SOL    HW119916   3.331   0.053   4.037  2.8046  0.7310  1.8826
 2818SOL    HW219917   3.230   4.660   4.075 -1.4190  1.6843  0.1763
 2819SOL     OW19918   3.858   4.353   8.918  0.2777  0.2521 -0.0568
 2819SOL    HW119919   3.798   4.333   8.989  0.6322  0.4760  0.3044
 2819SOL    HW219920   3.811   4.418   8.865 -0.0781  0.9801  1.1726
 2820SOL     OW19921   0.026   4.676   3.446  0.2080 -0.4300  0.0428
 2820SOL    HW119922   4.670   0.017   3.462  1.6355  1.3457  0.0277
 2820SOL    HW219923   0.078   4.676   3.527  1.5474  2.3666 -0.8330
 2821SOL     OW19924   3.880   4.615   7.711 -0.2018  0.2755 -0.3933
 2821SOL    HW119925   3.953   4.592   7.654  1.6652  2.2031  1.2306
 2821SOL    HW219926   3.860   4.534   7.758 -2.8704  0.0799 -1.8376
 2822SOL     OW19927   1.086   1.734   6.701 -0.0014 -0.4580 -0.3110
 2822SOL    HW119928   1.167   1.733   6.751  0.6063 -0.1498 -1.2912
 2822SOL    HW219929   1.101   1.808   6.643  1.3193  0.1531  0.8305
 2823SOL     OW19930   0.644   3.347   4.676  0.2681 -0.3733 -0.5688
 2823SOL    HW119931   0.606   3.425   4.637 -1.3832 -1.3860 -0.9608
 2823SOL    HW219932   0.654   3.295   4.596  0.5317  1.3078 -1.6193
 2824SOL     OW19933   4.497   2.750  10.701  0.2722  0.0512  0.6951
 2824SOL    HW119934   4.410   2.785  10.719 -0.5466 -1.5259 -0.1436
 2824SOL    HW219935   4.521   2.741  10.793  1.1176  2.5889  0.7113
 2825SOL     OW19936   0.391   0.879  12.518 -0.2591 -0.4221 -0.0470
 2825SOL    HW119937   0.413   0.960  12.471  1.4053 -0.1825  1.1371
 2825SOL    HW219938   0.321   0.912  12.574  0.0452  0.1314  0.0116
 2826SOL     OW19939   4.610   0.590  11.343 -0.2770 -0.5331  0.1620
 2826SOL    HW119940   4.693   0.595  11.390 -0.0983 -1.3319 -0.0668
 2826SOL    HW219941   4.586   0.499  11.323  0.7736 -1.1198  1.5209
 2827SOL     OW19942   0.734   0.179   7.650  0.3614 -0.0230  0.0485
 2827SOL    HW119943   0.752   0.100   7.599 -1.0667 -1.2836  1.4990
 2827SOL    HW219944   0.733   0.142   7.738  1.9055  1.1263  0.5533
 2828SOL     OW19945   3.586   3.295   1.234  0.3795  0.0785 -0.1580
 2828SOL    HW119946   3.620   3.345   1.308  2.0455 -2.8852  1.0561
 2828SOL    HW219947   3.606   3.204   1.254 -0.7689  0.2363  1.7538
 2829SOL     OW19948   3.284   0.055   7.063 -0.0126 -0.5022  0.1323
 2829SOL    HW119949   3.332   0.073   7.143  1.2822 -2.6216 -0.1776
 2829SOL    HW219950   3.196   0.057   7.103 -0.5916  0.0810 -1.1668
 2830SOL     OW19951   4.062   1.502  13.713  0.0592  0.2855 -0.7003
 2830SOL    HW119952   4.101   1.576  13.665 -1.9658  2.2716  0.7088
 2830SOL    HW219953   4.027   1.443  13.647  0.7312  0.1578 -0.9400
 2831SOL     OW19954   1.544   2.521   6.287 -0.8627 -0.9565 -0.0339
 2831SOL    HW119955   1.476   2.548   6.225  0.1435 -2.1158 -1.6365
 2831SOL    HW219956   1.567   2.440   6.243  0.2796 -0.9603  0.5470
 2832SOL     OW19957   4.712   4.506   5.155  0.0867  0.4674 -0.3991
 2832SOL    HW119958   4.695   4.585   5.104  0.0408 -0.0180 -1.1420
 2832SOL    HW219959   4.644   4.449   5.119  1.3232 -1.4630  0.2838
 2833SOL     OW19960   4.154   3.227  16.821 -0.1921  0.3727  0.1579
 2833SOL    HW119961   4.235   3.251  16.777  1.1365 -2.4004  1.0734
 2833SOL    HW219962   4.171   3.239  16.914 -0.1028  1.0543  0.0467
 2834SOL     OW19963   2.855   3.926   8.111 -0.0083  0.3957 -0.4581
 2834SOL    HW119964   2.803   3.852   8.141  0.8191 -0.6700 -1.6882
 2834SOL    HW219965   2.883   3.961   8.196 -0.3090 -0.5398  0.0233
 2835SOL     OW19966   4.110   2.389  12.319 -0.0889  0.1183  0.5488
 2835SOL    HW119967   4.032   2.411  12.268  0.6739 -0.3628 -0.8323
 2835SOL    HW219968   4.175   2.454  12.292  0.2255 -0.2129  0.5127
 2836SOL     OW19969   4.193   4.064   3.851  0.2291 -0.3315  0.2719
 2836SOL    HW119970   4.280   4.087   3.883 -0.4107  0.9129  1.1198
 2836SOL    HW219971   4.209   4.040   3.760  1.0576  0.4959  0.2003
 2837SOL     OW19972   2.187   1.504   5.166 -0.5143 -0.6553  0.2588
 2837SOL    HW119973   2.270   1.490   5.213  0.1537  0.7291 -0.5131
 2837SOL    HW219974   2.217   1.481   5.078 -0.0062 -4.7115  1.5026
 2838SOL     OW19975   2.090   1.317   2.598 -0.4772  0.1478  0.3949
 2838SOL    HW119976   2.052   1.235   2.569  1.1301 -0.9427  1.3738
 2838SOL    HW219977   2.080   1.370   2.520  0.8459  1.1708  0.9059
 2839SOL     OW19978   0.341   4.054   4.931 -0.0074 -0.2467  0.1165
 2839SOL    HW119979   0.359   4.125   4.869  2.1412  0.2947  1.3306
 2839SOL    HW219980   0.247   4.043   4.922 -0.2182  1.6694 -0.2054
 2840SOL     OW19981   3.443   0.839  15.318 -0.0410 -0.2454 -0.4528
 2840SOL    HW119982   3.458   0.823  15.225 -1.1215  0.3979 -0.7272
 2840SOL    HW219983   3.474   0.749  15.331  1.3957  0.1908 -0.7971
 2841SOL     OW19984   2.206   0.008   8.163 -0.2009  0.2964 -1.2795
 2841SOL    HW119985   2.251   0.005   8.078 -0.7320 -3.9354 -1.3929
 2841SOL    HW219986   2.277   0.049   8.213 -1.3084  2.3497 -1.3833
 2842SOL     OW19987   4.465   2.028   3.005 -0.3599  0.4357 -0.4931
 2842SOL    HW119988   4.555   2.054   2.986 -0.2343  0.1042 -0.3565
 2842SOL    HW219989   4.458   1.945   2.958 -1.1306  0.6156 -0.6878
 2843SOL     OW19990   3.928   2.386   5.885 -0.4727 -0.2347  0.3200
 2843SOL    HW119991   3.978   2.392   5.804 -0.8369  2.6675  0.3081
 2843SOL    HW219992   4.003   2.372   5.943 -1.3687  0.8570  1.7477
 2844SOL     OW19993   0.756   2.189   9.356  0.3161 -0.2863 -0.2549
 2844SOL    HW119994   0.808   2.217   9.431 -0.1624 -2.8401  1.0205
 2844SOL    HW219995   0.693   2.130   9.397  0.3797 -0.2962 -0.1707
 2845SOL     OW19996   1.823   4.236   0.322 -0.1043 -0.2629 -0.4398
 2845SOL    HW119997   1.746   4.231   0.264 -0.2904  0.9969 -0.3030
 2845SOL    HW219998   1.842   4.330   0.321  0.2733 -0.3407 -0.9814
 2846SOL     OW19999   0.303   2.704   4.186  0.3825 -0.3577 -0.0112
 2846SOL    HW120000   0.258   2.713   4.102  1.8389 -2.7911 -1.0512
 2846SOL    HW220001   0.317   2.795   4.214  0.4920 -1.1176  2.4215
 2847SOL     OW20002   0.301   2.546   8.196  0.1383  0.3960 -0.0210
 2847SOL    HW120003   0.308   2.451   8.194 -1.1288  0.2842  0.6701
 2847SOL    HW220004   0.239   2.561   8.124 -0.1549  2.5031  0.6684
 2848SOL     OW20005   0.344   2.151   6.503 -0.5164  0.1672  0.0192
 2848SOL    HW120006   0.439   2.152   6.491 -0.7718  1.1092 -1.8776
 2848SOL    HW220007   0.326   2.059   6.523 -0.2933  0.4052  1.2879
 2849SOL     OW20008   4.210   3.395  12.583  0.0254  0.2444 -0.7526
 2849SOL    HW120009   4.244   3.399  12.673 -2.2636 -0.1484  0.1340
 2849SOL    HW220010   4.169   3.309  12.581 -0.3963  0.4199  0.2293
 2850SOL     OW20011   0.958   2.164  13.226  0.1265 -0.5867 -0.1956
 2850SOL    HW120012   0.873   2.206  13.213  1.1260  1.9531  1.4662
 2850SOL    HW220013   1.015   2.215  13.169 -2.0972  2.9781  0.7173
 2851SOL     OW20014   1.601   4.345  17.508  0.4554  0.3014  0.1552
 2851SOL    HW120015   1.585   4.439  17.518  1.5462  0.4965  0.1039
 2851SOL    HW220016   1.585   4.341  17.414  1.8517  0.4527 -0.0938
 2852SOL     OW20017   4.018   2.706  15.150  0.0209 -0.5737 -0.3236
 2852SOL    HW120018   3.986   2.714  15.240 -0.4058  0.6543 -0.5902
 2852SOL    HW220019   4.113   2.712  15.161  0.0882  0.3323 -1.3985
 2853SOL     OW20020   1.809   1.399   0.661  0.5291  0.3530  0.2366
 2853SOL    HW120021   1.747   1.327   0.653 -1.7282  2.1420  1.3322
 2853SOL    HW220022   1.756   1.459   0.715  0.0064 -0.6580  0.8392
 2854SOL     OW20023   3.685   2.466  10.783 -0.0684  0.1645 -0.0416
 2854SOL    HW120024   3.590   2.481  10.785  0.2037  1.9127 -0.2752
 2854SOL    HW220025   3.722   2.538  10.834 -0.1877  0.7742 -0.8226
 2855SOL     OW20026   4.490   3.351   8.445 -0.1974  0.2811 -0.4976
 2855SOL    HW120027   4.499   3.411   8.519 -1.8389 -0.7925  0.5761
 2855SOL    HW220028   4.395   3.340   8.444  0.1786 -2.6472 -3.2453
 2856SOL     OW20029   1.118   2.085   0.489  0.2554  0.7718 -0.7172
 2856SOL    HW120030   1.210   2.060   0.498 -0.2295  0.0907  2.4191
 2856SOL    HW220031   1.125   2.179   0.504  1.9036  0.9814 -2.7705
 2857SOL     OW20032   1.859   2.617   1.354  0.0247  0.8309  0.3778
 2857SOL    HW120033   1.878   2.665   1.435  0.8879 -1.8027  1.7562
 2857SOL    HW220034   1.765   2.630   1.347 -0.0549  0.2969  0.4481
 2858SOL     OW20035   1.703   0.145   8.928  0.4331  0.0216 -0.3439
 2858SOL    HW120036   1.672   0.146   9.019 -1.8801 -1.0351 -1.1347
 2858SOL    HW220037   1.762   0.070   8.927  0.1276 -0.2368  1.8741
 2859SOL     OW20038   0.223   2.254   7.586 -0.0651 -0.0748  0.3713
 2859SOL    HW120039   0.232   2.311   7.663  0.6052  0.8971 -0.4166
 2859SOL    HW220040   0.186   2.176   7.627 -1.1404  0.1639 -0.1557
 2860SOL     OW20041   3.378   2.501   3.491  0.4556  0.3695 -0.2776
 2860SOL    HW120042   3.357   2.417   3.531  1.2296  0.3441  0.0694
 2860SOL    HW220043   3.323   2.478   3.415 -1.2184 -0.4282  1.1630
 2861SOL     OW20044   4.401   0.924   8.718  0.2022  0.3786 -0.3747
 2861SOL    HW120045   4.418   0.837   8.754  0.6824  0.4094 -0.5282
 2861SOL    HW220046   4.314   0.904   8.683  0.1944  0.7586 -0.5736
 2862SOL     OW20047   0.429   4.318   3.807  0.1610 -0.1927  0.2616
 2862SOL    HW120048   0.466   4.405   3.820 -0.3360 -0.0942  1.0254
 2862SOL    HW220049   0.496   4.279   3.751  1.0425 -1.0109  1.8776
 2863SOL     OW20050   0.711   2.523  10.168  0.1221 -0.4297 -0.3148
 2863SOL    HW120051   0.655   2.444  10.168  1.0848 -1.0952 -2.4681
 2863SOL    HW220052   0.793   2.484  10.138  0.3551 -1.0347  1.0899
 2864SOL     OW20053   4.424   2.124   5.070 -0.2472  0.0859  0.3114
 2864SOL    HW120054   4.387   2.201   5.025  1.0529  1.1203  0.9953
 2864SOL    HW220055   4.491   2.175   5.115  0.0000 -1.9107  2.1318
 2865SOL     OW20056   2.881   3.394   0.191 -0.0569  0.1915 -0.0417
 2865SOL    HW120057   2.942   3.322   0.178  1.3993  1.4404 -0.1094
 2865SOL    HW220058   2.911   3.442   0.268 -0.5580  0.4439 -0.0031
 2866SOL     OW20059   4.272   3.237  14.336 -0.9323  0.7030  0.6723
 2866SOL    HW120060   4.323   3.215  14.415  1.8443  2.7113 -0.5888
 2866SOL    HW220061   4.189   3.194  14.358 -1.1113 -0.0798 -1.5790
 2867SOL     OW20062   3.359   4.003  11.903 -0.0759 -0.2619 -0.1239
 2867SOL    HW120063   3.385   3.911  11.907  6.0899  1.4558 -0.4250
 2867SOL    HW220064   3.438   4.033  11.858  0.8645 -1.4581  0.7115
 2868SOL     OW20065   1.059   2.654   5.749 -0.0168 -0.4933  0.0881
 2868SOL    HW120066   1.130   2.693   5.800  1.1053  0.8903 -2.5398
 2868SOL    HW220067   1.066   2.563   5.776  0.4009  0.1849  2.2593
 2869SOL     OW20068   4.516   3.543   4.224 -0.1112 -0.0620 -0.2487
 2869SOL    HW120069   4.596   3.595   4.235 -0.4609  0.2812  0.7020
 2869SOL    HW220070   4.456   3.595   4.278  0.3903  2.0297 -1.6800
 2870SOL     OW20071   2.312   0.825   7.943 -0.2330 -0.7510  0.3352
 2870SOL    HW120072   2.258   0.799   8.018  1.4060  2.6915  2.6776
 2870SOL    HW220073   2.355   0.904   7.975 -0.7782 -0.1799 -0.3396
 2871SOL     OW20074   0.280   2.865   8.085 -0.2082 -0.5178 -0.4011
 2871SOL    HW120075   0.278   2.825   8.171 -1.1463  0.2946 -0.0474
 2871SOL    HW220076   0.254   2.954   8.105  0.0211 -0.6397  0.4347
 2872SOL     OW20077   3.069   0.205   1.834  0.3175 -0.5679  0.5360
 2872SOL    HW120078   3.121   0.274   1.794 -1.3692 -0.5065 -1.5019
 2872SOL    HW220079   2.983   0.244   1.846 -0.1695 -0.9129 -2.0305
 2873SOL     OW20080   4.103   4.490   1.221  0.6843  0.3712  0.7295
 2873SOL    HW120081   4.095   4.481   1.126 -0.0362 -1.4515  0.9781
 2873SOL    HW220082   4.167   4.562   1.220  1.6633 -0.5178 -1.5006
 2874SOL     OW20083   3.486   2.493   9.806 -0.8738 -0.3264  0.4415
 2874SOL    HW120084   3.546   2.482   9.732  0.8990  0.6721  1.7258
 2874SOL    HW220085   3.537   2.463   9.882 -0.3793 -0.5193  0.0339
 2875SOL     OW20086   2.610   2.497   8.064 -0.1030 -0.4959 -0.3088
 2875SOL    HW120087   2.631   2.582   8.024  1.7685 -0.5050  0.6303
 2875SOL    HW220088   2.515   2.493   8.058  0.0105 -1.0284 -1.7851
 2876SOL     OW20089   4.337   0.912  14.810  0.7590 -0.3185 -0.3025
 2876SOL    HW120090   4.429   0.898  14.833  0.9979  3.2216  0.9008
 2876SOL    HW220091   4.326   0.829  14.765  0.1515  0.0603 -0.8555
 2877SOL     OW20092   1.742   1.077   4.803  0.4794 -0.2763  0.1803
 2877SOL    HW120093   1.670   1.135   4.827  2.4772  1.9696  0.7287
 2877SOL    HW220094   1.787   1.068   4.887 -1.6298 -2.6761  1.0647
 2878SOL     OW20095   1.049   2.570   4.330  0.1033 -0.6206  0.2373
 2878SOL    HW120096   1.049   2.562   4.425 -0.9111  0.1949  0.3093
 2878SOL    HW220097   1.091   2.490   4.298  2.3207  1.7057 -2.7270
 2879SOL     OW20098   4.199   4.333  17.637  0.0566 -0.0428 -0.3088
 2879SOL    HW120099   4.165   4.266   0.024 -0.8031  0.0952 -0.6322
 2879SOL    HW220100   4.205   4.286  17.554 -0.5376 -0.1408 -0.2986
 2880SOL     OW20101   4.215   2.943   0.220 -0.5230 -0.1861 -0.0299
 2880SOL    HW120102   4.296   2.898   0.245 -0.6124  0.0852  0.7536
 2880SOL    HW220103   4.176   2.948   0.308 -0.7985  1.2750 -0.2450
 2881SOL     OW20104   2.742   1.898   1.925  0.3991  0.0695 -0.2019
 2881SOL    HW120105   2.708   1.975   1.971  0.7858  0.4226 -0.5048
 2881SOL    HW220106   2.693   1.821   1.955  1.4130 -1.3244 -2.1480
 2882SOL     OW20107   3.886   3.296   8.476 -0.3189  0.2039  0.2698
 2882SOL    HW120108   3.928   3.357   8.416  4.1100  0.8936  4.0314
 2882SOL    HW220109   3.905   3.220   8.422  1.9789  1.1568 -0.2614
 2883SOL     OW20110   2.331   2.500   1.641  0.2197 -0.3242 -0.4146
 2883SOL    HW120111   2.264   2.458   1.588 -0.7326  0.1778  0.3975
 2883SOL    HW220112   2.344   2.587   1.602  2.0920  0.6392  2.3799
 2884SOL     OW20113   2.028   2.831   9.195 -0.1339  0.1471  0.0142
 2884SOL    HW120114   1.976   2.901   9.158  1.7993  2.3927  1.5194
 2884SOL    HW220115   2.017   2.760   9.131  0.3970 -0.8763  1.0429
 2885SOL     OW20116   1.827   3.898  12.583 -0.5569  0.2928  1.0715
 2885SOL    HW120117   1.739   3.867  12.604 -0.9348  0.8487  0.2862
 2885SOL    HW220118   1.877   3.860  12.655 -0.5379 -2.6796 -0.4946
 2886SOL     OW20119   0.146   4.396   4.469  0.4215  0.0861  0.1207
 2886SOL    HW120120   0.161   4.419   4.561  3.2976  0.3046 -0.4214
 2886SOL    HW220121   0.051   4.383   4.480  0.4787 -1.0178 -0.7288
 2887SOL     OW20122   0.111   1.718   5.119  0.2486 -0.1105 -0.0005
 2887SOL    HW120123   0.083   1.723   5.027 -0.4464 -0.4632  0.1852
 2887SOL    HW220124   0.020   1.717   5.150  0.6363 -0.9952  1.1039
 2888SOL     OW20125   3.034   2.224   7.773  0.2468  0.3915 -0.0387
 2888SOL    HW120126   3.104   2.261   7.718 -2.2468  1.8741 -2.1967
 2888SOL    HW220127   3.016   2.302   7.824  0.4635  0.3945  0.0365
 2889SOL     OW20128   2.757   0.886   3.463  0.0872  0.8446 -0.3404
 2889SOL    HW120129   2.846   0.876   3.429  0.9045 -0.0459  2.0791
 2889SOL    HW220130   2.724   0.968   3.424 -1.3709  0.4843  0.1187
 2890SOL     OW20131   2.126   4.301   0.245 -0.2363 -0.4362 -0.0685
 2890SOL    HW120132   2.116   4.206   0.256 -2.0933 -0.3615 -1.0297
 2890SOL    HW220133   2.060   4.325   0.311  0.4279 -1.6231  1.0389
 2891SOL     OW20134   2.797   2.071   2.211 -0.4846  0.2959 -0.2309
 2891SOL    HW120135   2.744   2.132   2.159 -0.6912 -1.3189 -1.9295
 2891SOL    HW220136   2.814   2.116   2.294  1.7547  0.8909 -0.9910
 2892SOL     OW20137   1.434   1.317   9.301 -0.0931  0.3067 -0.0912
 2892SOL    HW120138   1.426   1.372   9.380  0.2279 -0.8788  0.7648
 2892SOL    HW220139   1.399   1.235   9.335  0.8821  0.7381  1.9757
 2893SOL     OW20140   3.343   2.744  11.153  0.5515 -0.0789 -0.4962
 2893SOL    HW120141   3.406   2.816  11.148  0.9988 -0.5160 -1.0932
 2893SOL    HW220142   3.355   2.714  11.243  0.6191 -2.1701 -1.2234
 2894SOL     OW20143   0.700   0.336  14.669  0.0831 -0.1989  0.7772
 2894SOL    HW120144   0.722   0.377  14.753  1.5913  1.0649 -0.2469
 2894SOL    HW220145   0.605   0.327  14.683  0.0013 -0.1537  0.2452
 2895SOL     OW20146   1.086   4.081   4.117 -0.6939 -0.2728 -0.4610
 2895SOL    HW120147   1.033   4.074   4.037  0.5827  0.4692 -1.3705
 2895SOL    HW220148   1.019   4.057   4.181 -0.8344  0.2006 -0.4289
 2896SOL     OW20149   4.140   1.949   9.744 -0.5542 -0.1798 -0.1362
 2896SOL    HW120150   4.170   1.949   9.835  1.5493 -2.4934 -0.8276
 2896SOL    HW220151   4.220   1.983   9.704  0.1594  0.0641  1.4977
 2897SOL     OW20152   2.017   1.662  16.603 -0.4023 -0.4207 -0.2916
 2897SOL    HW120153   2.009   1.703  16.516  1.2047 -2.6559 -1.4896
 2897SOL    HW220154   2.040   1.744  16.647 -0.0580  0.3751 -1.9147
 2898SOL     OW20155   4.474   0.034  10.229 -0.4652  0.8594 -0.1908
 2898SOL    HW120156   4.416   4.680  10.257  1.2356 -0.9532 -1.3202
 2898SOL    HW220157   4.555   4.700  10.236 -1.3450 -0.2304  2.2603
 2899SOL     OW20158   0.505   1.558   4.077 -0.6777  0.0841 -0.5583
 2899SOL    HW120159   0.563   1.634   4.086  0.8875 -1.2432  0.6684
 2899SOL    HW220160   0.497   1.565   3.981  1.5691  0.8059 -0.7058
 2900SOL     OW20161   0.606   4.052   0.786  0.6468  0.1508 -0.4474
 2900SOL    HW120162   0.658   4.012   0.717  0.5373  3.4480 -2.4241
 2900SOL    HW220163   0.635   4.142   0.771  1.6337  0.1010  1.2163
 2901SOL     OW20164   3.955   2.168   2.181  0.5309 -0.1886  0.4800
 2901SOL    HW120165   3.985   2.244   2.231  2.7035 -0.0755 -1.0158
 2901SOL    HW220166   3.950   2.202   2.092  0.0688 -1.0492  0.1759
 2902SOL     OW20167   3.504   0.561  12.075 -0.8001 -0.2458  0.2158
 2902SOL    HW120168   3.452   0.587  12.152 -0.7048 -1.1796  0.5913
 2902SOL    HW220169   3.512   0.467  12.092  1.6733 -0.2862 -1.2105
 2903SOL     OW20170   1.077   2.896   9.466  0.4236  0.1393  0.0061
 2903SOL    HW120171   1.009   2.945   9.421  0.4578  0.8492  0.7381
 2903SOL    HW220172   1.031   2.845   9.532  1.3441  1.4285  1.6678
 2904SOL     OW20173   1.800   4.336   5.455 -0.3142  0.3693 -0.2140
 2904SOL    HW120174   1.791   4.241   5.442 -1.9013  0.4488  0.3069
 2904SOL    HW220175   1.895   4.348   5.467 -0.5885  1.6605  0.6642
 2905SOL     OW20176   4.690   3.592  17.374 -0.3163  0.2529  0.3521
 2905SOL    HW120177   4.611   3.539  17.390  0.1776 -0.5288  0.2095
 2905SOL    HW220178   4.685   3.617  17.282  1.3801  1.5465  0.6055
 2906SOL     OW20179   4.707   3.890   8.833  0.2174 -0.0816 -0.3528
 2906SOL    HW120180   0.057   3.851   8.888  3.0997  2.2887 -2.1771
 2906SOL    HW220181   4.639   3.823   8.842  0.6187 -0.4742 -0.2275
 2907SOL     OW20182   3.757   4.113   1.401  0.0445  0.1009 -1.0041
 2907SOL    HW120183   3.781   4.054   1.330  0.4028 -0.9305 -0.0376
 2907SOL    HW220184   3.804   4.192   1.377  0.7936  0.2961  1.0644
 2908SOL     OW20185   0.223   4.532   1.558  0.7208  0.0165 -0.1756
 2908SOL    HW120186   0.144   4.491   1.592  2.2599 -2.5237  0.3634
 2908SOL    HW220187   0.180   4.599   1.504 -1.2470 -1.5240 -0.5206
 2909SOL     OW20188   2.291   3.684   9.034  0.3247  0.1526 -0.0954
 2909SOL    HW120189   2.301   3.646   8.947 -0.0428  0.3986 -0.2437
 2909SOL    HW220190   2.336   3.619   9.088 -2.1301 -1.1127  0.4127
 2910SOL     OW20191   4.161   1.539   0.505  0.3500  0.1255  0.7491
 2910SOL    HW120192   4.087   1.486   0.477 -0.0891  2.0196 -1.6701
 2910SOL    HW220193   4.145   1.537   0.599 -1.7672  3.4595  0.4515
 2911SOL     OW20194   1.814   3.075  15.444 -0.2634  0.1501 -0.2518
 2911SOL    HW120195   1.739   3.043  15.495  0.5874 -1.6830 -0.1314
 2911SOL    HW220196   1.835   3.155  15.492  0.7743  1.5086 -2.9758
 2912SOL     OW20197   4.468   4.676   6.189  0.0879 -0.4381 -0.3948
 2912SOL    HW120198   4.472   4.581   6.187  0.0689 -0.4508  0.5175
 2912SOL    HW220199   4.388   4.697   6.140 -0.2284  1.0798  0.7911
 2913SOL     OW20200   3.192   2.859  10.449  0.0426 -0.6396 -0.2893
 2913SOL    HW120201   3.126   2.871  10.380  0.3736  0.1191 -0.4784
 2913SOL    HW220202   3.178   2.766  10.462  0.5053 -0.7233 -0.3651
 2914SOL     OW20203   3.716   0.905  16.352  0.1750  0.5722 -0.0474
 2914SOL    HW120204   3.808   0.893  16.327  0.6009  0.2203  1.7355
 2914SOL    HW220205   3.693   0.825  16.399  0.0720 -0.3698 -1.6704
 2915SOL     OW20206   1.567   3.119   5.646  0.1867 -0.4932  0.1323
 2915SOL    HW120207   1.481   3.155   5.624  0.4110  0.4896  0.8908
 2915SOL    HW220208   1.541   3.050   5.708  0.0779  0.5950  1.2860
 2916SOL     OW20209   1.850   1.276  15.675  0.2789 -0.1563  0.2552
 2916SOL    HW120210   1.907   1.205  15.704 -0.1944 -0.3192  0.7953
 2916SOL    HW220211   1.877   1.351  15.728 -0.3961  0.9610 -0.9920
 2917SOL     OW20212   4.569   1.247   6.560 -0.0230  0.2402 -0.3655
 2917SOL    HW120213   4.648   1.273   6.608 -0.6682 -0.0246  0.8535
 2917SOL    HW220214   4.501   1.309   6.588 -0.5377 -0.8808  0.8977
 2918SOL     OW20215   4.551   1.091   6.027  0.5095  0.3682  0.2029
 2918SOL    HW120216   4.529   1.000   6.041  1.3644 -0.0662 -1.2904
 2918SOL    HW220217   4.570   1.121   6.116 -0.1882  1.5138 -0.0301
 2919SOL     OW20218   4.540   0.603   7.631  0.0550 -0.5780 -0.3643
 2919SOL    HW120219   4.572   0.520   7.665 -0.9216 -1.6164 -1.9962
 2919SOL    HW220220   4.477   0.562   7.572  0.1902  0.4682 -1.2191
 2920SOL     OW20221   0.938   2.955   6.172  0.1006  0.1768  0.1229
 2920SOL    HW120222   0.960   3.011   6.097 -1.3935  2.1478  1.1744
 2920SOL    HW220223   1.000   3.000   6.229  2.2585 -1.3849 -0.9492
 2921SOL     OW20224   1.670   4.267   1.939  0.1701  0.1639 -0.1479
 2921SOL    HW120225   1.753   4.315   1.933 -0.0798  0.5260 -0.7322
 2921SOL    HW220226   1.688   4.223   2.022 -3.1029 -1.3924 -0.2794
 2922SOL     OW20227   2.378   0.789   3.569 -0.1394 -0.3351  0.7947
 2922SOL    HW120228   2.335   0.870   3.597  1.9127  0.7810  0.7230
 2922SOL    HW220229   2.300   0.740   3.595  0.1615  0.1175  2.5873
 2923SOL     OW20230   1.414   1.503  15.470 -0.1287  0.2085  0.7020
 2923SOL    HW120231   1.399   1.455  15.552  1.8773 -1.5737  0.0121
 2923SOL    HW220232   1.463   1.437  15.421  0.1561  1.0702 -0.1488
 2924SOL     OW20233   1.873   4.206   7.445  0.4568 -0.0001  0.4275
 2924SOL    HW120234   1.791   4.183   7.489 -1.3254  3.6426 -0.9878
 2924SOL    HW220235   1.851   4.169   7.360 -3.5646  0.3828  1.3369
 2925SOL     OW20236   0.300   4.509  14.346 -0.1144 -0.9027  0.0764
 2925SOL    HW120237   0.278   4.538  14.257  0.8862 -0.3317  0.0172
 2925SOL    HW220238   0.254   4.425  14.346 -3.2207  0.7806  3.0317
 2926SOL     OW20239   1.469   1.998  15.060  0.0358 -0.1414 -0.0503
 2926SOL    HW120240   1.489   2.052  14.984 -2.6628  0.4208 -0.3628
 2926SOL    HW220241   1.472   2.071  15.122 -1.0810  0.3348 -0.5542
 2927SOL     OW20242   0.353   1.339   4.962  0.3831 -0.0374  0.3228
 2927SOL    HW120243   0.335   1.285   5.039  0.8297 -0.9900 -0.2301
 2927SOL    HW220244   0.339   1.268   4.898  1.6056  0.2340 -0.2269
 2928SOL     OW20245   1.402   1.484   9.538 -0.1014 -0.7185 -0.0023
 2928SOL    HW120246   1.408   1.577   9.519 -0.7134 -0.9436 -1.2806
 2928SOL    HW220247   1.315   1.481   9.579  0.2321 -2.2773  0.6209
 2929SOL     OW20248   3.060   3.089  13.253  0.3765  0.1836  0.2616
 2929SOL    HW120249   3.098   3.014  13.207  0.5572  0.7731 -0.5375
 2929SOL    HW220250   3.128   3.096  13.320  1.2750 -1.3882 -0.4919
 2930SOL     OW20251   1.007   2.351   8.651  0.2531  0.2641  0.1539
 2930SOL    HW120252   0.962   2.382   8.573  0.2092 -1.7128 -0.6122
 2930SOL    HW220253   1.054   2.430   8.676 -1.7950  1.3886  0.4193
 2931SOL     OW20254   3.984   4.363  10.715 -0.0340  0.8238  0.2160
 2931SOL    HW120255   4.069   4.395  10.748 -0.9254  1.2215  2.1462
 2931SOL    HW220256   3.976   4.276  10.754 -0.2537  0.6401 -0.2482
 2932SOL     OW20257   1.072   3.809   5.048  0.2024  0.3176  0.1370
 2932SOL    HW120258   1.037   3.825   5.136  0.1127 -1.5565  0.4527
 2932SOL    HW220259   1.106   3.896   5.027 -0.9539  0.3241 -1.6274
 2933SOL     OW20260   3.526   1.213  15.577  0.2557 -0.4519 -0.0310
 2933SOL    HW120261   3.503   1.120  15.570 -1.3862 -0.0940  0.6427
 2933SOL    HW220262   3.577   1.208  15.657 -1.9122 -1.6190  1.2672
 2934SOL     OW20263   0.344   0.152   9.273 -0.2798 -0.2573  0.1107
 2934SOL    HW120264   0.354   0.186   9.184  0.8635 -2.1479 -0.4753
 2934SOL    HW220265   0.348   0.057   9.262 -0.8287  0.1279 -3.4036
 2935SOL     OW20266   3.099   0.901   4.977 -0.2272  0.2241 -1.3410
 2935SOL    HW120267   3.121   0.865   5.062  0.9901 -0.2741 -1.8686
 2935SOL    HW220268   3.047   0.979   4.994 -1.0599 -0.3528 -1.1922
 2936SOL     OW20269   2.276   4.342   2.912 -0.0213  0.1891 -0.6158
 2936SOL    HW120270   2.237   4.426   2.939 -0.3538 -1.0810  2.8444
 2936SOL    HW220271   2.238   4.283   2.977 -2.1289 -0.2586 -2.2489
 2937SOL     OW20272   2.478   4.569   8.512 -0.2687 -0.4141  0.0435
 2937SOL    HW120273   2.555   4.625   8.502 -0.4788  0.0403  0.9284
 2937SOL    HW220274   2.421   4.645   8.513  0.0141 -0.2071  0.6942
 2938SOL     OW20275   3.255   1.041  10.514  0.1684 -0.4001 -0.4780
 2938SOL    HW120276   3.192   0.970  10.511  1.4980 -1.6704  1.2991
 2938SOL    HW220277   3.259   1.065  10.422  1.2866  1.1844 -0.0301
 2939SOL     OW20278   2.421   2.107   8.563  0.4139 -0.2787  0.1385
 2939SOL    HW120279   2.426   2.071   8.652  0.1955 -0.7423 -0.0323
 2939SOL    HW220280   2.509   2.078   8.538  0.1867  0.1401 -1.1663
 2940SOL     OW20281   1.634   3.349   5.259  0.0156 -0.4768  0.3069
 2940SOL    HW120282   1.550   3.329   5.300 -0.1145 -0.2856  0.1350
 2940SOL    HW220283   1.620   3.364   5.165  0.7413  0.9704  0.4224
 2941SOL     OW20284   2.463   1.669   7.941  0.4374 -0.1210  0.4412
 2941SOL    HW120285   2.462   1.760   7.970 -1.5112 -0.2971  0.8777
 2941SOL    HW220286   2.369   1.653   7.938  0.2061  1.2821  0.2867
 2942SOL     OW20287   1.116   1.806   7.007  0.3218 -0.2846  0.6497
 2942SOL    HW120288   1.103   1.712   7.022  0.4767 -0.2141  1.2150
 2942SOL    HW220289   1.194   1.802   6.952 -0.4658  0.4262 -0.5264
 2943SOL     OW20290   1.193   3.684   2.971 -0.1244  0.2711 -0.4584
 2943SOL    HW120291   1.232   3.765   3.003  1.6537 -1.3095  1.3336
 2943SOL    HW220292   1.211   3.628   3.046 -0.6299 -0.5366 -0.9323
 2944SOL     OW20293   2.124   0.110   5.199 -0.0412 -0.4186  0.2166
 2944SOL    HW120294   2.197   0.168   5.179 -0.4564  0.6838  1.8868
 2944SOL    HW220295   2.151   0.098   5.290  2.4269  1.0033 -0.3256
 2945SOL     OW20296   2.082   0.437   3.674 -1.5152  0.1716 -0.1808
 2945SOL    HW120297   2.065   0.350   3.639  2.8769 -0.4964 -0.5809
 2945SOL    HW220298   2.056   0.429   3.766 -1.1527  0.3447 -0.0618
 2946SOL     OW20299   2.189   2.444   4.911 -0.2729 -0.7541  0.1830
 2946SOL    HW120300   2.198   2.518   4.852 -0.5912  0.5152  1.7213
 2946SOL    HW220301   2.260   2.459   4.973  1.0558 -2.5284 -0.9120
 2947SOL     OW20302   1.327   3.194   1.305 -0.8416  0.1631 -0.2979
 2947SOL    HW120303   1.352   3.101   1.300 -0.1773  0.3258 -0.0538
 2947SOL    HW220304   1.294   3.191   1.395 -1.3024 -0.7600 -0.4926
 2948SOL     OW20305   3.527   4.225  10.962 -0.0657 -0.4674  0.5664
 2948SOL    HW120306   3.507   4.244  10.870 -2.4307 -0.9808  0.9724
 2948SOL    HW220307   3.493   4.307  10.998  1.1507 -0.8912  2.7051
 2949SOL     OW20308   1.234   1.555   9.087  0.0454  0.2384 -0.0505
 2949SOL    HW120309   1.157   1.608   9.068 -0.0599  0.0982 -0.0130
 2949SOL    HW220310   1.202   1.528   9.173 -1.4290  0.2531 -0.6125
 2950SOL     OW20311   2.711   1.327   1.944 -0.0824  0.3737  0.2692
 2950SOL    HW120312   2.619   1.354   1.948 -0.3684 -0.7157  1.1353
 2950SOL    HW220313   2.738   1.373   1.865 -2.3601 -0.8724 -1.2269
 2951SOL     OW20314   4.070   0.516   8.608  0.5426 -0.3332  0.3363
 2951SOL    HW120315   3.986   0.528   8.652 -0.0707 -0.5613 -0.7513
 2951SOL    HW220316   4.120   0.470   8.675  1.7003  0.6150  0.1151
 2952SOL     OW20317   2.429   2.359   9.246 -0.2124 -0.5152 -0.0117
 2952SOL    HW120318   2.455   2.272   9.275  0.8726 -0.1266  0.2010
 2952SOL    HW220319   2.401   2.399   9.328 -3.4109  2.2092 -2.4724
 2953SOL     OW20320   3.215   2.571   6.946  0.0128  0.2884 -0.1919
 2953SOL    HW120321   3.126   2.567   6.912 -0.4335  2.0494  0.8272
 2953SOL    HW220322   3.261   2.623   6.880  0.3779  0.2823  0.0543
 2954SOL     OW20323   2.881   1.748   2.397 -0.4715  0.8040 -0.3030
 2954SOL    HW120324   2.956   1.781   2.446  0.1378  0.5751 -1.0810
 2954SOL    HW220325   2.810   1.788   2.446 -1.4541 -1.6140  0.2896
 2955SOL     OW20326   4.590   4.635   8.088 -0.6057 -0.2528  0.8540
 2955SOL    HW120327   4.623   4.576   8.155  1.9378  1.9139  1.5047
 2955SOL    HW220328   4.677   4.656   8.054 -0.2564 -0.8455  1.3895
 2956SOL     OW20329   0.542   1.997   9.487 -0.7752  0.0608  0.7560
 2956SOL    HW120330   0.515   1.974   9.398  0.7829 -0.7306  0.4730
 2956SOL    HW220331   0.470   1.963   9.540 -1.0994  0.0729  0.3161
 2957SOL     OW20332   1.709   3.524   2.809 -0.0474 -0.0567 -0.8379
 2957SOL    HW120333   1.729   3.618   2.809 -3.2909  0.6195  2.1451
 2957SOL    HW220334   1.622   3.516   2.848  0.5563 -1.3293  0.2221
 2958SOL     OW20335   4.221   4.429   3.873  0.0839  0.4565 -0.6312
 2958SOL    HW120336   4.178   4.347   3.896 -1.0478  1.1050 -0.4800
 2958SOL    HW220337   4.234   4.400   3.782  2.4868  3.0707 -1.1211
 2959SOL     OW20338   0.711   3.023   2.271 -0.1110  0.0893  0.9100
 2959SOL    HW120339   0.640   3.087   2.271 -0.9041 -0.7825 -0.1892
 2959SOL    HW220340   0.743   3.045   2.183 -0.3340  0.3555  0.8938
 2960SOL     OW20341   1.959   0.266   6.637  0.6959  0.3025 -0.0950
 2960SOL    HW120342   1.970   0.192   6.577  0.1201 -0.7543  1.1064
 2960SOL    HW220343   2.047   0.261   6.672  0.1037  2.2197  1.6496
 2961SOL     OW20344   2.945   2.111  11.471  0.6099  0.5971  0.6328
 2961SOL    HW120345   2.929   2.183  11.532  0.3947  0.9668  0.1429
 2961SOL    HW220346   3.040   2.106  11.482  0.1889 -0.3111  3.8993
 2962SOL     OW20347   2.853   1.433   4.272  0.0483 -0.5019 -0.0388
 2962SOL    HW120348   2.759   1.416   4.279 -0.0361 -0.1680 -0.3892
 2962SOL    HW220349   2.878   1.372   4.203  0.4643 -2.3160  1.7040
 2963SOL     OW20350   0.067   3.978   7.667 -0.3343  0.0780 -0.1260
 2963SOL    HW120351   0.103   3.891   7.683 -0.6340  0.5732  3.2338
 2963SOL    HW220352   0.029   3.968   7.579  0.2310 -0.6962 -0.2766
 2964SOL     OW20353   1.915   2.133   7.933 -0.8355 -0.0596 -0.2198
 2964SOL    HW120354   1.870   2.202   7.981  0.0219  1.0847 -1.0794
 2964SOL    HW220355   1.988   2.175   7.887 -2.4152  1.4687 -1.3118
 2965SOL     OW20356   4.209   1.200   8.239  0.5971 -0.1822  0.3030
 2965SOL    HW120357   4.205   1.226   8.331  2.3172 -0.3013  0.4217
 2965SOL    HW220358   4.115   1.185   8.229  0.5151  0.7300 -0.2757
 2966SOL     OW20359   3.759   4.638  10.325  0.6446 -0.3617 -0.5540
 2966SOL    HW120360   3.855   4.639  10.325  0.6425 -0.1651 -0.8276
 2966SOL    HW220361   3.746   4.640  10.420  3.0708  0.1374 -0.2273
 2967SOL     OW20362   3.753   2.578   4.793  0.2350 -0.4665  0.3371
 2967SOL    HW120363   3.726   2.529   4.871 -2.8442 -0.7209 -0.8762
 2967SOL    HW220364   3.823   2.526   4.755 -0.7355 -1.7731  0.3139
 2968SOL     OW20365   1.603   0.021   9.479 -0.5361 -0.1611  0.0405
 2968SOL    HW120366   1.509   0.005   9.470 -0.9613  0.4399  3.2406
 2968SOL    HW220367   1.629   4.662   9.530 -3.1174 -0.3110  1.1210
 2969SOL     OW20368   4.453   2.849   6.266  0.1800  0.0177 -0.5358
 2969SOL    HW120369   4.495   2.914   6.211  0.3110  2.3184  2.2529
 2969SOL    HW220370   4.378   2.900   6.297 -0.3962 -0.1624 -1.6710
 2970SOL     OW20371   3.029   4.401   7.434  0.0937  0.0536  0.1673
 2970SOL    HW120372   3.082   4.432   7.507  1.8909 -2.2206 -0.1928
 2970SOL    HW220373   2.977   4.336   7.482 -0.9836  0.0563 -0.9889
 2971SOL     OW20374   1.250   4.310   1.841 -0.8102 -0.3192  0.1726
 2971SOL    HW120375   1.254   4.367   1.918 -1.7089 -0.3975  0.2761
 2971SOL    HW220376   1.219   4.233   1.889 -1.1783 -1.7718 -2.3821
 2972SOL     OW20377   1.925   3.502  12.130  0.0267  0.0937  0.0011
 2972SOL    HW120378   1.873   3.458  12.063 -0.1181  0.1063  0.1075
 2972SOL    HW220379   1.865   3.570  12.159  0.6190  1.2637 -1.4744
 2973SOL     OW20380   2.152   3.017   5.583 -0.3965  0.3690 -0.6248
 2973SOL    HW120381   2.110   3.064   5.655  1.0844 -0.6234  0.9052
 2973SOL    HW220382   2.236   3.005   5.629 -0.3788 -1.5014 -1.1376
 2974SOL     OW20383   4.649   1.628  17.540 -0.5297 -0.2446  0.5942
 2974SOL    HW120384   4.657   1.603  17.632  0.1344 -1.8787  0.1027
 2974SOL    HW220385   4.620   1.547  17.498 -1.8644  0.5871 -0.1059
 2975SOL     OW20386   4.466   4.477   6.851 -0.7170  0.6903 -0.2442
 2975SOL    HW120387   4.393   4.438   6.899  0.8172 -0.9651  0.7566
 2975SOL    HW220388   4.464   4.562   6.895  2.2358  0.2882  0.6768
 2976SOL     OW20389   2.430   1.118  13.741 -0.3479  0.5984  0.0098
 2976SOL    HW120390   2.481   1.159  13.811 -0.5550  1.8202 -0.5483
 2976SOL    HW220391   2.337   1.135  13.756 -0.7624 -0.0921 -1.7846
 2977SOL     OW20392   0.301   4.625   7.874  0.4626 -0.0270  0.0159
 2977SOL    HW120393   0.366   4.661   7.814 -0.2304  1.3725  0.0996
 2977SOL    HW220394   0.231   4.587   7.820 -0.9892  0.5327  1.4943
 2978SOL     OW20395   2.360   4.507  13.971  0.3149  0.2389  0.2445
 2978SOL    HW120396   2.321   4.488  14.056 -2.0798 -1.1756 -1.1321
 2978SOL    HW220397   2.288   4.479  13.913  0.1866  0.9492  0.0639
 2979SOL     OW20398   0.194   3.020   7.693  0.1309  0.7221  0.1429
 2979SOL    HW120399   0.262   3.082   7.718  0.0657  1.5230 -1.7021
 2979SOL    HW220400   0.236   2.973   7.621 -2.2952  0.1215 -0.8661
 2980SOL     OW20401   4.355   4.258   7.865 -0.1470 -0.0043 -0.2019
 2980SOL    HW120402   4.342   4.165   7.844 -0.8661 -0.0582  0.4701
 2980SOL    HW220403   4.446   4.249   7.893 -0.2555 -0.5340 -0.0301
 2981SOL     OW20404   4.178   3.068   2.319  0.1122  0.3911 -0.4650
 2981SOL    HW120405   4.244   3.126   2.358 -0.0892  0.6663 -0.5357
 2981SOL    HW220406   4.136   3.134   2.265  0.6163 -0.6671 -2.1392
 2982SOL     OW20407   1.148   4.198   6.100  0.1226  0.3562  0.2263
 2982SOL    HW120408   1.210   4.202   6.173 -0.0200 -0.8401  0.4050
 2982SOL    HW220409   1.075   4.252   6.131 -0.0933  0.9029 -1.2349
 2983SOL     OW20410   0.515   3.685   0.893 -0.5665 -0.1466 -0.9618
 2983SOL    HW120411   0.520   3.595   0.861  1.5238 -0.7869  1.1918
 2983SOL    HW220412   0.491   3.734   0.815 -2.0328  3.6184  1.8338
 2984SOL     OW20413   4.058   2.276   2.452 -0.4106  0.2550 -0.9612
 2984SOL    HW120414   4.090   2.366   2.458  0.8746 -0.2401 -0.3730
 2984SOL    HW220415   4.002   2.265   2.529 -0.2606  1.3136 -0.6986
 2985SOL     OW20416   4.026   2.782   0.969 -0.1198  0.4760  0.5759
 2985SOL    HW120417   4.087   2.717   1.003 -1.9117 -1.1484  0.7038
 2985SOL    HW220418   4.031   2.766   0.875  0.1936 -1.2096  0.8781
 2986SOL     OW20419   2.231   4.572   1.654  0.9704  0.1664  0.1918
 2986SOL    HW120420   2.239   4.486   1.612 -0.2354  0.1093  0.0569
 2986SOL    HW220421   2.264   4.566   1.744  2.0000 -0.8514 -0.2615
 2987SOL     OW20422   1.503   0.781   8.118  0.1041 -0.1434  0.3633
 2987SOL    HW120423   1.585   0.745   8.084  0.7859  2.4997 -0.8106
 2987SOL    HW220424   1.448   0.711   8.082 -1.4492  0.2222  2.0370
 2988SOL     OW20425   4.543   0.575   7.042  0.2036 -0.1840 -0.0724
 2988SOL    HW120426   4.593   0.505   7.084  0.3572 -1.2015 -1.9595
 2988SOL    HW220427   4.612   0.632   7.009 -0.5372 -0.0455 -1.3752
 2989SOL     OW20428   3.193   3.929   2.876  0.5270  0.1481  0.1336
 2989SOL    HW120429   3.255   3.997   2.905  0.7725 -0.3202  0.7123
 2989SOL    HW220430   3.166   3.978   2.798  1.5627 -0.5302 -0.6619
 2990SOL     OW20431   1.402   1.277   7.240  0.2081  0.1098 -0.4934
 2990SOL    HW120432   1.337   1.343   7.220  1.3465  1.9450  1.8326
 2990SOL    HW220433   1.478   1.319   7.280  1.8781 -2.1816 -1.2317
 2991SOL     OW20434   3.318   3.514   2.936  0.7156  0.6286 -0.1973
 2991SOL    HW120435   3.405   3.509   2.975 -0.8644  0.5535  3.3274
 2991SOL    HW220436   3.284   3.574   3.002  1.2173 -1.3904  1.8876
 2992SOL     OW20437   3.209   0.441   6.930  0.3098  0.5045  0.7545
 2992SOL    HW120438   3.281   0.398   6.883 -0.2016  0.0759  0.3545
 2992SOL    HW220439   3.193   0.388   7.008 -0.1832 -1.0125 -0.3758
 2993SOL     OW20440   2.617   2.988  16.922  0.1092 -0.6881 -0.6668
 2993SOL    HW120441   2.531   2.948  16.933 -0.0624 -0.3140 -0.6482
 2993SOL    HW220442   2.620   3.043  17.000  0.3614 -2.3104  0.4806
 2994SOL     OW20443   2.872   3.186  10.857  0.4820  0.2416 -0.2184
 2994SOL    HW120444   2.824   3.251  10.908  0.7097  0.8870 -0.8195
 2994SOL    HW220445   2.930   3.237  10.799 -0.8841 -0.1183 -1.9136
 2995SOL     OW20446   3.280   1.986   2.556  0.0540 -0.8421 -0.0347
 2995SOL    HW120447   3.216   1.917   2.572 -0.4539 -0.7111 -1.4659
 2995SOL    HW220448   3.354   1.931   2.531  1.0000  0.4876 -0.1128
 2996SOL     OW20449   2.532   0.399   7.739  0.1067 -0.0021  1.0633
 2996SOL    HW120450   2.542   0.482   7.787 -1.6931  1.0957 -0.4077
 2996SOL    HW220451   2.607   0.406   7.680 -1.0135 -3.0583 -0.7477
 2997SOL     OW20452   3.190   0.477   2.361  0.6897 -0.2053 -0.8583
 2997SOL    HW120453   3.111   0.469   2.307 -0.6765 -2.9515  1.5542
 2997SOL    HW220454   3.151   0.455   2.445 -0.0579 -0.2165 -1.2057
 2998SOL     OW20455   2.981   0.852   6.206  0.0448 -0.1845 -0.9141
 2998SOL    HW120456   3.055   0.807   6.165 -0.0938 -1.8986  0.7019
 2998SOL    HW220457   2.923   0.881   6.136  0.2261  1.1362 -0.5242
 2999SOL     OW20458   1.532   3.990  16.222  0.1630 -0.1137  0.1323
 2999SOL    HW120459   1.552   4.080  16.197 -0.7195 -0.1754 -0.7962
 2999SOL    HW220460   1.588   3.934  16.168 -0.3189  1.6372 -2.1896
 3000SOL     OW20461   3.117   0.167  10.020  0.2385  0.3107 -0.9494
 3000SOL    HW120462   3.022   0.174  10.030  0.1092 -0.1828 -1.8518
 3000SOL    HW220463   3.139   0.256  10.046 -0.6494  0.5012 -0.8598
 3001SOL     OW20464   4.344   1.767   2.866  0.0703  0.2298  0.5314
 3001SOL    HW120465   4.362   1.806   2.780 -2.0751 -0.6451 -0.3038
 3001SOL    HW220466   4.431   1.742   2.898  0.7313  0.9671 -0.6548
 3002SOL     OW20467   4.301   1.630  10.553 -0.0674 -0.2144 -0.1599
 3002SOL    HW120468   4.336   1.681  10.627  0.0005  0.0390 -0.3674
 3002SOL    HW220469   4.273   1.556  10.608 -0.3155 -1.0456 -1.4176
 3003SOL     OW20470   3.497   4.327   6.014 -0.4867  0.0863  0.3294
 3003SOL    HW120471   3.572   4.387   6.018  1.0691 -1.7260 -1.8098
 3003SOL    HW220472   3.537   4.242   6.033 -0.5687 -0.0380 -0.0510
 3004SOL     OW20473   1.367   4.221   3.093 -0.1101 -0.1596 -0.3445
 3004SOL    HW120474   1.444   4.239   3.040 -0.9135 -0.5930 -1.6555
 3004SOL    HW220475   1.302   4.281   3.056  0.4833  1.2438  0.9029
 3005SOL     OW20476   0.558   4.251   6.298  0.2504  0.6063 -0.1514
 3005SOL    HW120477   0.601   4.250   6.213  0.4798  0.1583 -0.0284
 3005SOL    HW220478   0.468   4.278   6.284 -0.8031 -1.9671  1.7555
 3006SOL     OW20479   2.753   2.456   0.693  0.3858  0.3289  0.6914
 3006SOL    HW120480   2.681   2.510   0.660 -0.7492 -1.1728  0.7090
 3006SOL    HW220481   2.723   2.426   0.779  2.5109  0.2617  1.4176
 3007SOL     OW20482   2.885   1.357   4.782 -0.6758  0.4387 -0.0650
 3007SOL    HW120483   2.814   1.305   4.819 -0.5116  1.2988  1.4423
 3007SOL    HW220484   2.883   1.334   4.689 -0.9637  0.5355 -0.0812
 3008SOL     OW20485   4.443   2.723  15.824  0.1251  0.0254  0.2918
 3008SOL    HW120486   4.432   2.789  15.892  1.6683  1.6599 -1.0421
 3008SOL    HW220487   4.511   2.761  15.768  0.3697 -0.7198  0.0856
 3009SOL     OW20488   1.670   1.924   6.010 -0.5698  0.1572  0.2522
 3009SOL    HW120489   1.713   1.861   5.952 -1.9106 -1.3301  0.8429
 3009SOL    HW220490   1.753   1.962   6.037 -0.4228 -0.0735  0.1267
 3010SOL     OW20491   3.736   3.207   4.541  0.5140  0.0198  0.0097
 3010SOL    HW120492   3.725   3.269   4.469 -0.2002  1.1232  1.0753
 3010SOL    HW220493   3.792   3.250   4.606  0.5593  1.1582 -0.7876
 3011SOL     OW20494   1.765   4.240   3.914  0.0324 -0.5162  0.5375
 3011SOL    HW120495   1.857   4.231   3.941 -0.1683 -2.7425  0.4508
 3011SOL    HW220496   1.744   4.147   3.915  0.8477 -0.7314 -1.3606
 3012SOL     OW20497   0.809   3.965  17.668  0.3162 -0.6615  0.1256
 3012SOL    HW120498   0.739   3.944   0.057  1.7857  1.0165  2.3245
 3012SOL    HW220499   0.811   4.056   0.024  2.0298 -1.4780  2.5695
 3013SOL     OW20500   0.378   4.481  17.179 -0.2020 -0.2629  0.1652
 3013SOL    HW120501   0.338   4.429  17.109 -1.8162 -2.6401  2.8020
 3013SOL    HW220502   0.332   4.431  17.248  1.0600  1.1912  2.0524
 3014SOL     OW20503   3.598   2.374   6.289 -0.3465 -0.1604  0.1225
 3014SOL    HW120504   3.581   2.307   6.355 -2.8730  0.9834  0.6549
 3014SOL    HW220505   3.691   2.396   6.291 -0.3429 -0.6623  5.0046
 3015SOL     OW20506   3.579   2.438  16.153 -0.0269  0.1502  0.7876
 3015SOL    HW120507   3.645   2.494  16.111 -2.0027  1.2447 -0.8174
 3015SOL    HW220508   3.499   2.466  16.110  1.4922  1.3646 -1.2602
 3016SOL     OW20509   1.666   3.950  17.310 -0.0850 -0.4838  0.0243
 3016SOL    HW120510   1.694   3.896  17.384  0.2684  1.9039  1.6420
 3016SOL    HW220511   1.577   3.918  17.298 -1.4136  2.6330  1.4393
 3017SOL     OW20512   3.483   0.651  10.323 -0.2638  0.8356  0.2574
 3017SOL    HW120513   3.457   0.711  10.393 -3.0433 -1.1089  0.8689
 3017SOL    HW220514   3.573   0.679  10.305  0.0018  0.4550  0.9980
 3018SOL     OW20515   0.371   3.218   7.785  0.4525 -0.8507  0.4129
 3018SOL    HW120516   0.385   3.188   7.875 -1.1482 -2.1610  0.2338
 3018SOL    HW220517   0.462   3.227   7.757  0.4280 -1.7616  0.0580
 3019SOL     OW20518   3.446   4.469   0.244  0.1475 -0.2219  0.0467
 3019SOL    HW120519   3.480   4.478   0.155 -1.6543  2.5119 -0.3991
 3019SOL    HW220520   3.408   4.556   0.259  0.7801 -0.0711  0.8402
 3020SOL     OW20521   2.583   1.331   2.686  0.3576 -0.6600  0.5635
 3020SOL    HW120522   2.624   1.409   2.649 -0.2255 -1.2305 -1.2805
 3020SOL    HW220523   2.602   1.262   2.622  0.4761 -0.1604  0.0597
 3021SOL     OW20524   1.412   1.032   7.997  0.0032  0.5008 -0.2555
 3021SOL    HW120525   1.416   0.977   7.918 -0.6465 -1.5449  1.1534
 3021SOL    HW220526   1.414   0.966   8.066 -0.3798  1.6177  0.8196
 3022SOL     OW20527   4.499   3.295   2.689 -0.3763  0.9638  0.2050
 3022SOL    HW120528   4.521   3.262   2.776  1.8474  1.1979 -0.2480
 3022SOL    HW220529   4.524   3.386   2.708  1.2718  1.4283 -4.0490
 3023SOL     OW20530   0.764   4.596   0.972  0.0271 -0.2073  0.0254
 3023SOL    HW120531   0.846   4.606   0.922  0.7568 -0.5721  1.1444
 3023SOL    HW220532   0.781   4.633   1.059 -3.5784  1.6115 -0.0475
 3024SOL     OW20533   1.858   3.514   5.987  0.2227 -0.2835 -0.0687
 3024SOL    HW120534   1.832   3.422   5.984  2.1035 -0.8763  1.6827
 3024SOL    HW220535   1.773   3.551   6.012  0.4830  2.2331 -2.8640
 3025SOL     OW20536   3.379   3.678   5.109  0.5374  0.5036  1.2100
 3025SOL    HW120537   3.395   3.635   5.193  0.6289 -1.7462  0.0394
 3025SOL    HW220538   3.313   3.744   5.131 -0.0381  0.8868 -1.7603
 3026SOL     OW20539   3.838   0.293  12.609  0.4271  0.1979  0.2029
 3026SOL    HW120540   3.776   0.329  12.672 -0.4437 -2.2537  0.7375
 3026SOL    HW220541   3.862   0.374  12.564  1.0560  0.9511  1.8943
 3027SOL     OW20542   2.694   0.540   7.274 -0.1933 -0.2486 -0.4141
 3027SOL    HW120543   2.638   0.583   7.338 -1.0145 -0.7389 -0.8086
 3027SOL    HW220544   2.679   0.448   7.298 -1.2699  0.6688  2.4132
 3028SOL     OW20545   3.277   2.233   1.767  0.1478 -0.2371  0.1386
 3028SOL    HW120546   3.326   2.155   1.794  0.4168 -0.2896 -0.5150
 3028SOL    HW220547   3.302   2.289   1.841 -0.6797 -1.5929  1.4666
 3029SOL     OW20548   2.576   0.891  12.256  0.0195 -0.0515  0.0746
 3029SOL    HW120549   2.669   0.892  12.237  0.5576  1.4034  2.7470
 3029SOL    HW220550   2.530   0.860  12.178 -1.2922 -0.8486  1.1710
 3030SOL     OW20551   1.230   1.362   9.726 -0.0942 -0.6029  0.0949
 3030SOL    HW120552   1.303   1.374   9.787 -0.6755  3.0616  0.0744
 3030SOL    HW220553   1.204   1.271   9.742 -0.0905 -0.3377  1.6080
 3031SOL     OW20554   1.788   4.641   7.331 -0.1533  0.1895  0.4434
 3031SOL    HW120555   1.718   4.594   7.377  1.4743 -1.6630  1.0126
 3031SOL    HW220556   1.851   4.570   7.325  1.5608  1.8852 -1.5108
 3032SOL     OW20557   0.913   4.336   0.945  0.0390 -0.1353 -0.1235
 3032SOL    HW120558   0.826   4.325   0.984  0.0206 -2.1658 -0.7344
 3032SOL    HW220559   0.966   4.263   0.975  0.3189 -0.1549 -0.6571
 3033SOL     OW20560   0.401   4.392   5.742  0.3668  0.2718  0.0399
 3033SOL    HW120561   0.313   4.358   5.759  0.2059  1.0464  0.7219
 3033SOL    HW220562   0.397   4.387   5.646 -3.0842 -1.8688  0.2802
 3034SOL     OW20563   1.328   1.625  10.073 -0.9067  0.4198  0.4431
 3034SOL    HW120564   1.396   1.592  10.131 -0.2503  1.3214  0.1747
 3034SOL    HW220565   1.289   1.540  10.050 -0.2848  0.9965 -2.7820
 3035SOL     OW20566   3.413   3.853  10.659  0.8991 -0.2111  0.0372
 3035SOL    HW120567   3.442   3.765  10.686 -0.7890 -0.3559  1.3595
 3035SOL    HW220568   3.318   3.845  10.649  0.9737  1.0026 -1.6701
 3036SOL     OW20569   3.406   0.188   8.353  0.1933  0.6099 -0.3440
 3036SOL    HW120570   3.501   0.184   8.346  0.2537 -1.3604  1.7218
 3036SOL    HW220571   3.389   0.222   8.441  0.6383  0.8808 -0.3640
 3037SOL     OW20572   0.085   4.470   0.430  0.3280 -0.1494  0.0559
 3037SOL    HW120573   0.148   4.541   0.420 -0.7751  0.6557 -1.0982
 3037SOL    HW220574   0.038   4.513   0.501  1.2667  0.5506  0.2549
 3038SOL     OW20575   3.143   2.583   5.131 -0.3643 -0.1144  0.2866
 3038SOL    HW120576   3.076   2.617   5.191 -1.0394 -1.2323  0.1714
 3038SOL    HW220577   3.099   2.606   5.050 -0.3292  4.2872  1.4870
 3039SOL     OW20578   2.772   0.874  13.486  0.4373  0.0476  0.1720
 3039SOL    HW120579   2.837   0.816  13.524 -0.6160 -1.6647 -0.6111
 3039SOL    HW220580   2.700   0.844  13.542  0.6841 -1.6943 -0.4409
 3040SOL     OW20581   2.578   1.346   4.658  0.5572  0.4959  0.3945
 3040SOL    HW120582   2.545   1.435   4.650  0.0204  0.3728  1.1821
 3040SOL    HW220583   2.581   1.313   4.568 -0.4472 -0.3311  0.6586
 3041SOL     OW20584   4.061   3.740  12.368  0.0837 -0.1524 -0.2116
 3041SOL    HW120585   4.050   3.792  12.448 -0.3342  0.5869 -0.7578
 3041SOL    HW220586   4.154   3.754  12.351  0.4419 -1.3889  0.7146
 3042SOL     OW20587   3.789   3.556   5.321 -0.0217  0.1666  0.0105
 3042SOL    HW120588   3.736   3.619   5.371  1.3613  1.3883 -0.0535
 3042SOL    HW220589   3.850   3.540   5.393 -2.1513  2.4728  2.3632
 3043SOL     OW20590   2.972   1.082   8.792 -0.4695  0.3171 -0.1813
 3043SOL    HW120591   2.903   1.073   8.857  0.6090  1.7002  1.1714
 3043SOL    HW220592   2.995   0.990   8.781 -0.5635  0.3591 -0.7083
 3044SOL     OW20593   4.297   0.778   8.182  0.1300  0.3097  0.3785
 3044SOL    HW120594   4.335   0.865   8.200  0.7329  0.5391 -1.9520
 3044SOL    HW220595   4.252   0.747   8.260 -2.9509  0.5088 -1.3507
 3045SOL     OW20596   1.720   1.485  16.337 -0.4344 -0.1849  0.1045
 3045SOL    HW120597   1.686   1.395  16.339  3.1160 -1.4940  1.1743
 3045SOL    HW220598   1.667   1.526  16.405  0.0781 -1.6197  1.3786
 3046SOL     OW20599   1.427   0.597   4.804  0.0042  0.1320 -0.1478
 3046SOL    HW120600   1.440   0.676   4.856  1.2343  0.5708 -1.1094
 3046SOL    HW220601   1.407   0.527   4.867 -2.2451  0.6768 -0.2667
 3047SOL     OW20602   0.544   2.993   3.393 -0.0098 -0.2992  0.0890
 3047SOL    HW120603   0.509   2.912   3.430 -2.1623  1.6705  2.3224
 3047SOL    HW220604   0.567   3.040   3.473  0.3560  1.7923 -1.2432
 3048SOL     OW20605   4.048   4.091   4.741  0.3079 -0.3783  0.1780
 3048SOL    HW120606   4.033   4.177   4.780  0.4452 -0.9159  1.4239
 3048SOL    HW220607   4.106   4.110   4.668 -0.0569  1.5193  0.3619
 3049SOL     OW20608   3.557   4.660   1.792 -0.5193  0.1536 -0.5943
 3049SOL    HW120609   3.575   0.012   1.855  3.0445 -1.2809 -0.0695
 3049SOL    HW220610   3.560   4.705   1.707 -1.8622 -1.2161 -1.3741
 3050SOL     OW20611   0.227   4.548   0.710  0.2260 -0.2547 -0.1072
 3050SOL    HW120612   0.295   4.487   0.737  0.7164  0.3458  0.0358
 3050SOL    HW220613   0.287   4.608   0.665  0.2495 -0.4555 -0.3392
 3051SOL     OW20614   0.431   3.151  15.925  0.0927 -0.1667 -0.0077
 3051SOL    HW120615   0.492   3.181  15.857  1.2345 -2.3094  0.0688
 3051SOL    HW220616   0.496   3.116  15.986  0.3621 -0.8839 -0.6873
 3052SOL     OW20617   1.479   4.592  12.539 -0.8617  0.0420 -0.6398
 3052SOL    HW120618   1.450   4.531  12.607 -1.3005  0.0748 -0.8022
 3052SOL    HW220619   1.473   4.669  12.596  1.1942  1.5491 -2.4270
 3053SOL     OW20620   1.070   0.412  12.011 -0.1702  0.1456 -0.0639
 3053SOL    HW120621   1.064   0.506  12.029  1.4760  0.3938 -0.8739
 3053SOL    HW220622   1.163   0.407  11.991  0.1365 -1.2581  1.7375
 3054SOL     OW20623   2.942   1.710   6.154  0.2674 -0.2012 -0.3456
 3054SOL    HW120624   2.890   1.710   6.234 -1.6473  2.0893 -1.5532
 3054SOL    HW220625   2.995   1.790   6.164  0.6413 -0.3236 -1.3359
 3055SOL     OW20626   2.795   2.064  16.588 -0.0958 -0.6606 -0.4371
 3055SOL    HW120627   2.775   2.118  16.664  2.3729  1.3939 -1.2722
 3055SOL    HW220628   2.764   1.979  16.621 -1.2401 -0.3956 -0.8398
 3056SOL     OW20629   1.360   0.276   3.164 -0.5345 -0.4071  0.6768
 3056SOL    HW120630   1.433   0.224   3.132 -2.2298 -2.1045 -0.4290
 3056SOL    HW220631   1.299   0.209   3.195  0.4048 -2.0511 -1.0491
 3057SOL     OW20632   4.555   0.173   4.595 -0.1288  0.2927  0.4725
 3057SOL    HW120633   4.532   0.234   4.665 -2.9868  0.1717 -0.3645
 3057SOL    HW220634   4.552   0.238   4.525 -0.7555  0.1436  0.3607
 3058SOL     OW20635   3.040   0.295   6.464 -0.2474 -0.3367 -0.0943
 3058SOL    HW120636   3.125   0.317   6.503 -0.5418  0.9461 -0.1770
 3058SOL    HW220637   3.008   0.381   6.435  1.3836  1.1081  2.3755
 3059SOL     OW20638   1.547   2.871  14.516 -0.4997  0.0513 -0.1106
 3059SOL    HW120639   1.468   2.915  14.547 -0.3902 -0.1790  0.4800
 3059SOL    HW220640   1.586   2.843  14.599  1.3762  1.5259 -0.4789
 3060SOL     OW20641   4.014   1.228  10.174  0.0917 -0.6926  0.1852
 3060SOL    HW120642   3.989   1.207  10.084  2.5129  2.0402 -1.1436
 3060SOL    HW220643   3.971   1.162  10.229 -0.9144 -0.1271  0.0738
 3061SOL     OW20644   2.057   3.582   7.234 -0.6060  0.3827 -0.3056
 3061SOL    HW120645   2.067   3.531   7.314  2.9715  0.7066 -0.5411
 3061SOL    HW220646   2.049   3.517   7.164  1.0816 -1.5828  1.3113
 3062SOL     OW20647   1.812   0.084   6.033 -0.1817 -0.9114 -0.6191
 3062SOL    HW120648   1.904   0.057   6.027  0.2745  0.7131 -0.8210
 3062SOL    HW220649   1.783   0.036   5.955 -1.3373 -1.2135  0.0053
 3063SOL     OW20650   4.442   3.384  15.394 -0.5104  0.2023 -0.3648
 3063SOL    HW120651   4.468   3.475  15.383  1.1438 -0.5397 -2.6491
 3063SOL    HW220652   4.482   3.355  15.476 -0.2644 -3.7690 -1.8930
 3064SOL     OW20653   4.645   1.139  15.565  0.9100  0.2717  0.5799
 3064SOL    HW120654   4.690   1.126  15.481 -1.3185  1.7896 -0.8520
 3064SOL    HW220655   4.644   1.235  15.574 -0.4691  0.0831  2.4313
 3065SOL     OW20656   0.749   0.866   5.215  0.0701  0.6509  0.0871
 3065SOL    HW120657   0.704   0.947   5.238 -0.3420  0.6180 -0.6161
 3065SOL    HW220658   0.837   0.899   5.234  0.9443  0.1396 -3.0707
 3066SOL     OW20659   1.034   0.135  12.318 -0.0029  0.3170  0.3131
 3066SOL    HW120660   1.022   0.158  12.226 -1.4213 -1.0471  0.1580
 3066SOL    HW220661   1.035   0.220  12.362 -2.2910  1.0397 -1.0316
 3067SOL     OW20662   2.260   4.601   6.181  0.8732  0.1482 -0.5013
 3067SOL    HW120663   2.326   4.538   6.211  1.9967  2.0935  1.1143
 3067SOL    HW220664   2.326   4.669   6.168  0.7140  0.2480 -0.7771
 3068SOL     OW20665   0.111   3.834   2.369 -0.5238 -0.4109  0.1901
 3068SOL    HW120666   0.106   3.747   2.329 -0.5806 -1.0262  1.5506
 3068SOL    HW220667   0.034   3.878   2.334 -0.9763 -0.5428  1.0360
 3069SOL     OW20668   2.445   4.152  15.193 -0.4148 -0.2171  0.0795
 3069SOL    HW120669   2.463   4.179  15.283 -0.9074 -1.7999  0.6587
 3069SOL    HW220670   2.446   4.056  15.193  0.2796 -0.2274 -3.1433
 3070SOL     OW20671   4.437   3.242   5.813  0.3292 -0.2979 -0.4854
 3070SOL    HW120672   4.453   3.276   5.725 -0.2313  1.1966 -0.0109
 3070SOL    HW220673   4.390   3.160   5.799  2.9704 -2.0632  0.9541
 3071SOL     OW20674   2.426   3.516   0.631 -0.5984  0.2664  0.4156
 3071SOL    HW120675   2.430   3.611   0.618 -0.6601  0.4105  1.4391
 3071SOL    HW220676   2.519   3.493   0.622 -0.5581  0.2911  0.7787
 3072SOL     OW20677   2.286   3.131  11.183  0.7188 -0.3122 -0.6400
 3072SOL    HW120678   2.247   3.056  11.227 -1.0239  0.7084 -0.4495
 3072SOL    HW220679   2.375   3.140  11.219  0.1300 -0.1420  0.7927
 3073SOL     OW20680   1.870   1.655  16.850  0.1282  0.5340  0.0591
 3073SOL    HW120681   1.813   1.729  16.830  1.1377  1.2447 -0.1396
 3073SOL    HW220682   1.911   1.639  16.765  0.1707 -0.1203  0.2035
 3074SOL     OW20683   2.789   4.256   2.760 -0.1829 -0.0984 -0.3850
 3074SOL    HW120684   2.817   4.178   2.808  0.9975 -0.9308 -2.4425
 3074SOL    HW220685   2.695   4.236   2.761  0.0438 -1.0481  2.6901
 3075SOL     OW20686   0.253   4.104   3.377 -0.3016  0.0593 -0.6096
 3075SOL    HW120687   0.235   4.130   3.467 -0.5977  0.8997 -0.9047
 3075SOL    HW220688   0.281   4.013   3.387 -3.6141 -0.9970 -0.9680
 3076SOL     OW20689   0.680   1.318   6.337 -0.1043 -0.4519  0.1141
 3076SOL    HW120690   0.701   1.309   6.430 -0.0865 -1.2649  0.0357
 3076SOL    HW220691   0.710   1.231   6.311 -0.1847 -0.4872  0.1370
 3077SOL     OW20692   3.432   0.732   8.530  0.3963  0.3357 -0.3072
 3077SOL    HW120693   3.374   0.731   8.454  0.8684 -1.7161 -0.6562
 3077SOL    HW220694   3.408   0.820   8.558 -0.0451  0.2946 -0.5612
 3078SOL     OW20695   1.770   0.683   9.520 -0.8731  0.5702 -0.2140
 3078SOL    HW120696   1.836   0.616   9.539 -2.0584 -0.3962  0.4864
 3078SOL    HW220697   1.693   0.628   9.534  2.8850 -4.2555  1.6206
 3079SOL     OW20698   3.683   0.718  12.719 -0.3151  0.0423  0.2514
 3079SOL    HW120699   3.687   0.628  12.751 -3.3095 -0.8623 -1.9441
 3079SOL    HW220700   3.773   0.737  12.691  0.7926 -3.3102  1.5626
 3080SOL     OW20701   3.076   3.672   8.853 -0.4497 -0.1341 -0.3178
 3080SOL    HW120702   3.092   3.604   8.787 -2.1528 -2.1336  1.3536
 3080SOL    HW220703   3.163   3.707   8.873  0.0839 -1.8302  0.3496
 3081SOL     OW20704   1.374   0.646   2.996  0.1232  0.1644  0.2603
 3081SOL    HW120705   1.469   0.657   2.989  0.3230 -1.5758  0.1150
 3081SOL    HW220706   1.354   0.666   2.904  2.4379  1.1166 -0.0333
 3082SOL     OW20707   2.817   2.780  16.915  0.5442  0.0056  0.1361
 3082SOL    HW120708   2.845   2.810  17.002  1.5503  0.6006 -0.3910
 3082SOL    HW220709   2.723   2.791  16.927  0.4135 -1.7010  0.8072
 3083SOL     OW20710   1.186   0.474  14.264  0.0891  0.2392  0.1106
 3083SOL    HW120711   1.247   0.429  14.206 -0.1964 -1.2575  0.9653
 3083SOL    HW220712   1.242   0.504  14.335  0.6083 -0.0575 -0.1749
 3084SOL     OW20713   3.659   3.644   6.060 -0.4271 -0.0018  0.0567
 3084SOL    HW120714   3.577   3.638   6.010 -0.1876 -0.4861 -0.2832
 3084SOL    HW220715   3.715   3.663   5.985 -1.8563  3.0233 -0.2413
 3085SOL     OW20716   1.896   1.226   6.277  0.1782  0.3140 -0.6175
 3085SOL    HW120717   1.876   1.269   6.361 -2.2593  1.7827 -1.9568
 3085SOL    HW220718   1.825   1.162   6.277  1.4528 -1.1006 -1.0354
 3086SOL     OW20719   3.426   2.061   3.237 -0.2471  0.2733 -0.2159
 3086SOL    HW120720   3.337   2.044   3.269 -0.0150  0.2096  0.3968
 3086SOL    HW220721   3.413   2.119   3.162  2.4888 -0.7125 -1.4451
 3087SOL     OW20722   4.086   3.245   5.003  0.0033 -0.1843  1.0428
 3087SOL    HW120723   4.068   3.334   5.034  1.5868  0.1200  1.0684
 3087SOL    HW220724   4.006   3.192   5.006  0.6670 -1.1141  2.4547
 3088SOL     OW20725   4.128   3.633   6.326 -0.0359 -0.2727 -0.3151
 3088SOL    HW120726   4.092   3.601   6.244 -0.5835 -1.0829  0.2383
 3088SOL    HW220727   4.058   3.691   6.356  1.2927  0.9511  0.4349
 3089SOL     OW20728   0.504   1.906   3.852 -0.0205 -0.2800  0.0425
 3089SOL    HW120729   0.500   1.812   3.831  3.1705 -0.1105 -1.4001
 3089SOL    HW220730   0.410   1.915   3.869  0.5356  0.7916  2.4269
 3090SOL     OW20731   4.388   3.940   0.879  0.3966  0.5459  0.1215
 3090SOL    HW120732   4.469   3.990   0.891  1.2961 -0.8741 -0.1192
 3090SOL    HW220733   4.403   3.861   0.930 -0.4358  0.0400 -0.4200
 3091SOL     OW20734   1.151   2.949   8.125 -0.5392  0.3303 -0.4651
 3091SOL    HW120735   1.170   3.029   8.076 -1.3184 -1.0879 -3.0786
 3091SOL    HW220736   1.123   2.985   8.209  0.9070  0.0570  0.1248
 3092SOL     OW20737   3.726   1.335   1.807  0.0500 -0.6651 -0.7307
 3092SOL    HW120738   3.744   1.259   1.863 -1.6370  0.1626  0.9499
 3092SOL    HW220739   3.636   1.350   1.838  0.8250  1.9947  0.2623
 3093SOL     OW20740   4.131   3.979   6.097  0.6643 -0.2123 -0.4004
 3093SOL    HW120741   4.173   3.918   6.035  0.3482  1.7385 -2.5514
 3093SOL    HW220742   4.164   4.059   6.056 -1.5262 -0.0474 -1.8356
 3094SOL     OW20743   2.987   0.440   8.839 -0.2514 -0.1173 -0.1663
 3094SOL    HW120744   3.056   0.440   8.905 -0.1265  1.4506 -0.2886
 3094SOL    HW220745   2.951   0.528   8.850 -0.2034 -0.2126  0.7599
 3095SOL     OW20746   1.472   3.571   3.543  0.3138  0.1556 -0.5074
 3095SOL    HW120747   1.387   3.559   3.584  1.5589 -0.9170  1.7410
 3095SOL    HW220748   1.459   3.499   3.480 -0.6299  0.6673 -0.8997
 3096SOL     OW20749   1.088   0.410   3.797 -0.0664 -0.3052 -0.4091
 3096SOL    HW120750   1.034   0.388   3.873  2.3780 -1.9509  0.8130
 3096SOL    HW220751   1.092   0.325   3.753  2.4647  0.6171 -1.9391
 3097SOL     OW20752   2.532   3.100  11.878 -0.1172 -0.3764  0.0642
 3097SOL    HW120753   2.495   3.122  11.792  0.2068  1.5522  0.4113
 3097SOL    HW220754   2.558   3.186  11.912  1.3394  0.3141 -2.7356
 3098SOL     OW20755   3.767   4.372  16.935 -0.0825  0.5026  0.1509
 3098SOL    HW120756   3.710   4.364  17.011 -0.6012  0.2720 -0.2636
 3098SOL    HW220757   3.794   4.281  16.918  1.4795  0.4377  2.9537
 3099SOL     OW20758   0.743   4.511  16.072  0.0843  0.0275  0.3765
 3099SOL    HW120759   0.797   4.436  16.046 -2.3278 -1.0850 -1.5266
 3099SOL    HW220760   0.753   4.514  16.167 -0.6216 -0.3344  0.4639
 3100SOL     OW20761   0.698   4.409   8.441  0.1140 -0.3218 -0.1448
 3100SOL    HW120762   0.723   4.389   8.351  2.1464  2.2289 -0.1528
 3100SOL    HW220763   0.720   4.502   8.453 -1.4571  0.1836 -1.1708
 3101SOL     OW20764   0.911   1.256   5.975 -0.0702  0.0994  0.3558
 3101SOL    HW120765   0.954   1.194   5.917 -0.4522 -1.3051  1.5678
 3101SOL    HW220766   0.927   1.340   5.933  1.1595 -1.3826 -2.1196
 3102SOL     OW20767   3.502   0.005  10.886  0.0991 -0.6271 -0.2928
 3102SOL    HW120768   3.450   0.061  10.829  2.9725  0.5927 -1.7331
 3102SOL    HW220769   3.492   0.048  10.971  1.6690 -1.3260  0.2501
 3103SOL     OW20770   0.107   0.232   5.621 -0.2323 -1.0523  0.1744
 3103SOL    HW120771   0.156   0.307   5.654  0.0209 -1.7601  1.4244
 3103SOL    HW220772   0.176   0.171   5.596 -0.2355 -0.6205 -0.8613
 3104SOL     OW20773   4.025   0.979  15.928  0.0608 -0.2933 -0.3629
 3104SOL    HW120774   3.968   1.009  15.857  0.7959  1.3150 -0.2704
 3104SOL    HW220775   4.076   0.917  15.877  0.0555 -0.4103 -0.2266
 3105SOL     OW20776   1.309   1.861   8.107  0.0988  0.0431  0.6818
 3105SOL    HW120777   1.305   1.950   8.143 -2.0663  0.9805 -1.8221
 3105SOL    HW220778   1.226   1.818   8.087  0.8255 -0.5368 -1.1374
 3106SOL     OW20779   0.781   0.401  16.571 -0.7064  0.1597 -0.2362
 3106SOL    HW120780   0.860   0.423  16.620  0.6238 -3.5481 -0.7212
 3106SOL    HW220781   0.717   0.437  16.633 -1.0048 -0.4106 -0.2149
 3107SOL     OW20782   1.621   4.366   7.022 -0.3162  0.4070 -0.7046
 3107SOL    HW120783   1.538   4.407   7.046 -0.8030  1.0656 -3.4588
 3107SOL    HW220784   1.682   4.427   7.065  0.8245 -0.8997 -0.4758
 3108SOL     OW20785   2.773   3.842  16.704 -0.0305  0.2777  0.1849
 3108SOL    HW120786   2.680   3.828  16.686  0.3424 -0.7113 -1.0175
 3108SOL    HW220787   2.806   3.894  16.630 -1.1169  1.4650  0.5485
 3109SOL     OW20788   2.243   2.325  12.503  0.0997 -0.5373  0.6980
 3109SOL    HW120789   2.229   2.322  12.408  0.5191  3.2261  0.5223
 3109SOL    HW220790   2.284   2.412  12.512 -1.1677  0.2950 -1.6070
 3110SOL     OW20791   3.713   1.362   8.435  0.9399 -0.3960 -0.8270
 3110SOL    HW120792   3.800   1.359   8.393  1.2196  0.1577 -0.2869
 3110SOL    HW220793   3.677   1.275   8.454 -0.2107  0.1600 -0.4778
 3111SOL     OW20794   0.774   2.409   5.018  0.3983 -0.1608  0.3359
 3111SOL    HW120795   0.733   2.375   4.938  0.0342 -2.8401  1.6225
 3111SOL    HW220796   0.859   2.366   5.012  0.6868  0.4654 -0.0377
 3112SOL     OW20797   1.418   0.638   9.039  0.2909  1.0754  0.3763
 3112SOL    HW120798   1.331   0.656   9.075 -0.4999 -1.5706 -0.2198
 3112SOL    HW220799   1.469   0.697   9.095  0.8594  0.6684  0.2934
 3113SOL     OW20800   2.157   2.844   3.482  0.3587  0.2112  0.0446
 3113SOL    HW120801   2.158   2.879   3.393  0.6225 -0.1146 -0.0803
 3113SOL    HW220802   2.065   2.861   3.504 -0.1043 -0.6741 -1.1788
 3114SOL     OW20803   4.560   1.604   0.294 -0.4220  0.1332  0.3419
 3114SOL    HW120804   4.567   1.534   0.229  1.5162  0.4198  0.2525
 3114SOL    HW220805   4.642   1.647   0.272  0.9551 -1.3332  2.5596
 3115SOL     OW20806   4.448   1.443   7.295 -0.3849  0.5831  0.3842
 3115SOL    HW120807   4.478   1.372   7.351  2.7461 -0.2108 -2.2982
 3115SOL    HW220808   4.427   1.399   7.213  0.6905 -0.4814  0.6814
 3116SOL     OW20809   4.143   0.063  14.982 -0.3778 -0.1701  0.4122
 3116SOL    HW120810   4.133   0.052  14.888  1.4163  1.8669 -0.0236
 3116SOL    HW220811   4.059   0.106  14.999 -1.4507 -2.0122 -0.2670
 3117SOL     OW20812   1.931   4.428   3.594 -0.5468 -0.0203  0.0745
 3117SOL    HW120813   1.944   4.473   3.510 -0.2092 -0.7554 -0.2654
 3117SOL    HW220814   1.993   4.355   3.599  1.2712  1.4913 -0.4825
 3118SOL     OW20815   0.989   2.686  11.393  0.3119 -0.2700 -0.4084
 3118SOL    HW120816   0.906   2.732  11.383  1.5469  2.0024 -0.2368
 3118SOL    HW220817   0.999   2.664  11.300 -2.0911 -2.8923 -0.0346
 3119SOL     OW20818   0.948   0.495   7.592 -0.3114 -0.1448  0.1602
 3119SOL    HW120819   0.985   0.579   7.564 -0.2314 -0.9978 -2.3354
 3119SOL    HW220820   0.857   0.523   7.592 -0.3924 -0.4110 -0.1626
 3120SOL     OW20821   0.563   2.576   3.904 -0.4030 -0.1420  0.4687
 3120SOL    HW120822   0.595   2.635   3.973  0.1951  2.4971 -2.0632
 3120SOL    HW220823   0.645   2.562   3.857  0.2580 -0.3598  1.6904
 3121SOL     OW20824   3.976   1.482  10.498 -0.6273  0.3479 -0.2050
 3121SOL    HW120825   3.922   1.522  10.566  0.2985 -0.4030  0.9554
 3121SOL    HW220826   4.058   1.463  10.543 -1.2738  1.5647  1.4628
 3122SOL     OW20827   1.227   0.329  12.682 -0.4159 -0.2378  0.0969
 3122SOL    HW120828   1.185   0.376  12.754 -0.3038 -3.1128  2.0192
 3122SOL    HW220829   1.314   0.309  12.715 -0.1567  0.2746 -0.2846
 3123SOL     OW20830   0.005   4.464   6.730 -0.3696 -0.3753  0.3579
 3123SOL    HW120831   4.631   4.440   6.747 -0.8525  0.9048 -0.3807
 3123SOL    HW220832   4.707   4.536   6.668  2.0091 -0.0378  0.1810
 3124SOL     OW20833   0.065   0.626   1.333  0.4317 -0.5963  0.0266
 3124SOL    HW120834   0.089   0.548   1.283  0.6725  0.4873 -1.5307
 3124SOL    HW220835   0.151   0.667   1.334 -1.2903  2.9246  2.4504
 3125SOL     OW20836   3.196   2.570  10.373  0.1076  0.4582 -0.0657
 3125SOL    HW120837   3.267   2.563  10.309  1.3880  0.6019  1.3308
 3125SOL    HW220838   3.206   2.500  10.437  2.5146 -0.6203 -1.6515
 3126SOL     OW20839   1.455   3.073   3.282  0.1309 -0.7997 -0.6915
 3126SOL    HW120840   1.428   3.003   3.342  0.2785  0.0756  0.3977
 3126SOL    HW220841   1.524   3.036   3.228 -0.3826 -0.5717 -1.5146
 3127SOL     OW20842   1.760   3.203   1.086  0.0985 -0.0376 -0.3808
 3127SOL    HW120843   1.782   3.259   1.012  0.9981  0.5269  0.3217
 3127SOL    HW220844   1.665   3.202   1.073  0.2004 -0.8718 -1.0429
 3128SOL     OW20845   2.781   3.943   9.150  0.0256  0.1035 -0.3652
 3128SOL    HW120846   2.705   3.903   9.108  0.5200 -3.0361  1.7258
 3128SOL    HW220847   2.768   4.037   9.134  2.0153  0.3546 -0.4544
 3129SOL     OW20848   1.192   3.810   0.475  0.8642 -0.4683  0.0196
 3129SOL    HW120849   1.211   3.725   0.515 -0.5773 -1.8077 -2.1264
 3129SOL    HW220850   1.282   3.828   0.445 -0.2392  0.3626 -2.7825
 3130SOL     OW20851   3.862   0.688   3.465 -0.1678 -0.1565  0.0154
 3130SOL    HW120852   3.947   0.717   3.431 -0.6774  0.9872 -0.2754
 3130SOL    HW220853   3.853   0.600   3.430  1.6050  0.8757 -3.0236
 3131SOL     OW20854   3.777   0.020  10.588 -0.2433  0.0902  0.1218
 3131SOL    HW120855   3.707   0.078  10.557 -1.0350 -1.0089 -0.1320
 3131SOL    HW220856   3.848   0.082  10.569  0.2529 -0.0607  1.5241
 3132SOL     OW20857   0.645   3.341  10.218  0.2798 -0.8547  0.2990
 3132SOL    HW120858   0.622   3.378  10.303 -1.0290 -1.6006  0.2656
 3132SOL    HW220859   0.687   3.419  10.180  1.2291 -1.6217 -0.2095
 3133SOL     OW20860   1.791   2.224  11.313 -0.4340 -0.4903  0.0358
 3133SOL    HW120861   1.779   2.285  11.240  0.1274  1.5958  1.6775
 3133SOL    HW220862   1.849   2.161  11.270 -0.2878 -0.7781  0.6601
 3134SOL     OW20863   3.630   4.262   7.597  0.0367  0.2835 -0.3646
 3134SOL    HW120864   3.673   4.332   7.547 -0.7725 -0.5405 -2.2346
 3134SOL    HW220865   3.697   4.195   7.584 -0.8248 -0.0399 -3.1942
 3135SOL     OW20866   3.162   1.341   7.269  0.2172 -0.3403  0.1986
 3135SOL    HW120867   3.142   1.294   7.188  1.5764 -0.6993  0.0736
 3135SOL    HW220868   3.251   1.310   7.283  0.1728  0.0726  1.4320
 3136SOL     OW20869   2.308   1.509   4.183 -0.0328 -0.0731  0.1465
 3136SOL    HW120870   2.252   1.587   4.189  2.1224  1.6136 -1.7997
 3136SOL    HW220871   2.293   1.493   4.090  0.0515  1.3823 -0.1187
 3137SOL     OW20872   3.511   2.748   3.028  0.5330 -0.0169  0.5212
 3137SOL    HW120873   3.478   2.762   3.117  1.3209  4.3762  0.0943
 3137SOL    HW220874   3.527   2.654   3.019  1.0746  0.4478 -3.3077
 3138SOL     OW20875   0.885   3.594   6.731  0.3750 -0.1709  0.3180
 3138SOL    HW120876   0.948   3.662   6.708  2.1697 -1.2333  2.1483
 3138SOL    HW220877   0.931   3.510   6.734  1.4864  0.3587 -2.1364
 3139SOL     OW20878   2.302   1.464  16.638  0.5124 -0.3113  0.2220
 3139SOL    HW120879   2.256   1.492  16.559 -1.5319  0.8964  1.8266
 3139SOL    HW220880   2.271   1.374  16.637  2.7754 -1.0766 -0.6354
 3140SOL     OW20881   1.113   2.336   0.261  0.4957 -0.3710  0.0209
 3140SOL    HW120882   1.180   2.309   0.199 -0.5543  3.6213 -2.9214
 3140SOL    HW220883   1.108   2.430   0.242  1.6413 -0.4336 -0.6034
 3141SOL     OW20884   2.176   3.109  11.552  0.6318  0.6587 -0.2950
 3141SOL    HW120885   2.179   3.051  11.476 -0.4388  2.2588 -1.5586
 3141SOL    HW220886   2.108   3.167  11.519 -0.2679  0.0047  0.4108
 3142SOL     OW20887   0.590   2.723  15.441  0.4527 -0.1375 -0.6206
 3142SOL    HW120888   0.496   2.706  15.435  0.3632 -0.0227  0.4191
 3142SOL    HW220889   0.637   2.657  15.390  0.4675  0.3042 -1.1817
 3143SOL     OW20890   3.129   4.652  11.211 -0.0404 -0.1410  0.0391
 3143SOL    HW120891   3.040   4.629  11.237 -0.2051 -0.6096 -0.9382
 3143SOL    HW220892   3.174   4.652  11.296  0.7368 -1.5533 -0.3742
 3144SOL     OW20893   0.239   4.404  17.388 -0.0518 -0.0719  0.7287
 3144SOL    HW120894   0.242   4.347  17.464 -0.5853  0.5048  1.1838
 3144SOL    HW220895   0.152   4.440  17.402  0.4377  1.8739 -1.1263
 3145SOL     OW20896   3.837   3.164  10.426  0.0933 -0.3676  0.0724
 3145SOL    HW120897   3.822   3.224  10.498  0.8126 -1.2754  0.9748
 3145SOL    HW220898   3.844   3.078  10.469  0.0776 -0.5589 -0.3051
 3146SOL     OW20899   3.374   2.574   4.223  0.2942 -0.2751  0.4655
 3146SOL    HW120900   3.340   2.564   4.311 -0.1964  0.1698  0.3257
 3146SOL    HW220901   3.454   2.523   4.236  1.0109  0.7308  0.0162
 3147SOL     OW20902   3.478   2.384   5.611 -0.1536 -0.2323 -0.0847
 3147SOL    HW120903   3.412   2.362   5.545  0.8906  1.9923 -1.8300
 3147SOL    HW220904   3.554   2.352   5.563  1.5096  0.5095  2.0436
 3148SOL     OW20905   4.682   1.636  10.665 -0.2571 -0.0380 -0.2107
 3148SOL    HW120906   4.664   1.615  10.573  3.4319 -0.6539 -0.7769
 3148SOL    HW220907   4.705   1.552  10.705 -1.3731 -0.6734 -0.9051
 3149SOL     OW20908   3.971   2.329   5.253  0.7542 -0.0094  0.0995
 3149SOL    HW120909   4.036   2.259   5.255  0.5392 -0.2357 -0.7992
 3149SOL    HW220910   3.969   2.346   5.159 -1.1532  0.2513  0.1802
 3150SOL     OW20911   3.110   2.640  13.415  0.3696  0.2626  0.2158
 3150SOL    HW120912   3.174   2.582  13.456  1.5217  0.6817 -0.9971
 3150SOL    HW220913   3.031   2.588  13.425  2.3964 -3.0236 -1.0366
 3151SOL     OW20914   1.532   0.307  11.065 -0.4748  0.4448 -0.7450
 3151SOL    HW120915   1.615   0.348  11.089 -1.2670  0.4944  1.8561
 3151SOL    HW220916   1.500   0.371  11.002 -0.1096  0.6016 -0.7735
 3152SOL     OW20917   4.257   3.458   6.532  0.1954 -0.6034 -0.2810
 3152SOL    HW120918   4.178   3.407   6.549  1.3080 -2.1194  0.3815
 3152SOL    HW220919   4.224   3.523   6.470  3.5948  0.3499 -1.1191
 3153SOL     OW20920   3.914   1.226   5.447  0.1421  0.5947 -0.0091
 3153SOL    HW120921   3.980   1.229   5.516  0.1173 -1.0052  0.0971
 3153SOL    HW220922   3.870   1.310   5.458 -1.9817 -0.4057 -0.8017
 3154SOL     OW20923   0.591   3.651  13.197  0.0795  0.2758  0.0413
 3154SOL    HW120924   0.684   3.642  13.215  0.1003 -0.1524 -0.2634
 3154SOL    HW220925   0.564   3.699  13.275 -0.9166 -1.1910  0.6124
 3155SOL     OW20926   4.128   0.410  10.901  0.8375  0.4132 -0.3251
 3155SOL    HW120927   4.090   0.490  10.937  0.4540  0.3087 -0.4973
 3155SOL    HW220928   4.223   0.427  10.904  0.3395  3.6199 -1.9710
 3156SOL     OW20929   1.840   1.625   4.556 -0.2680  0.1450  0.3383
 3156SOL    HW120930   1.825   1.672   4.639  2.0426 -1.6497  1.7789
 3156SOL    HW220931   1.935   1.616   4.549 -0.4704 -0.5524 -1.4562
 3157SOL     OW20932   0.173   2.891   7.071  0.5072  0.5672 -0.0157
 3157SOL    HW120933   0.262   2.862   7.052  0.2422  0.4319 -1.0791
 3157SOL    HW220934   0.125   2.842   7.004  1.2841  2.0488 -1.6807
 3158SOL     OW20935   4.474   1.760  14.784  0.6967  0.1262  0.3116
 3158SOL    HW120936   4.542   1.710  14.739  1.0059  0.6245  0.2232
 3158SOL    HW220937   4.420   1.689  14.817  0.3414  1.5381  2.7894
 3159SOL     OW20938   0.042   0.681   6.019 -0.2588 -0.1113 -0.6040
 3159SOL    HW120939   0.135   0.694   6.041 -0.6641  2.2890 -0.3747
 3159SOL    HW220940   0.062   0.657   5.928 -2.2458  0.4330 -1.1778
 3160SOL     OW20941   0.506   0.445   8.753 -0.2795 -0.5433 -0.3789
 3160SOL    HW120942   0.565   0.519   8.766  0.7673 -1.3019 -0.8342
 3160SOL    HW220943   0.571   0.388   8.712 -1.7252 -0.7844 -2.3697
 3161SOL     OW20944   1.080   3.881   5.543 -0.4997 -0.4230  0.5465
 3161SOL    HW120945   1.131   3.944   5.492 -1.6544 -0.6835 -0.9423
 3161SOL    HW220946   1.113   3.794   5.518 -4.6254 -1.8293  0.0280
 3162SOL     OW20947   0.972   2.716   1.432 -0.1414  0.2399  0.3127
 3162SOL    HW120948   1.065   2.695   1.434 -0.1859  0.1988  2.0054
 3162SOL    HW220949   0.976   2.788   1.368 -0.1004  0.2075  0.2791
 3163SOL     OW20950   1.133   2.282  13.079 -0.0086  0.5932  0.4986
 3163SOL    HW120951   1.116   2.365  13.124 -0.4536  0.8233 -0.0915
 3163SOL    HW220952   1.186   2.313  13.006 -0.7884  0.9273  0.0825
 3164SOL     OW20953   4.444   1.996  10.884  0.1804  0.7668 -1.2154
 3164SOL    HW120954   4.453   1.999  10.979 -1.5568 -0.1439 -1.0075
 3164SOL    HW220955   4.383   1.924  10.869  0.1837  0.1722  1.6476
 3165SOL     OW20956   2.888   3.002  12.830 -0.3552  0.3784 -0.2649
 3165SOL    HW120957   2.878   2.997  12.735 -0.9259  0.1777 -0.1947
 3165SOL    HW220958   2.934   2.920  12.845 -0.8025  0.8463  3.6149
 3166SOL     OW20959   4.107   2.685   8.277 -0.0975  0.2958  0.3195
 3166SOL    HW120960   4.113   2.601   8.233 -1.1722  0.4562 -0.1444
 3166SOL    HW220961   4.150   2.666   8.360 -2.1448  0.4734  1.4231
 3167SOL     OW20962   2.525   0.019   3.790 -0.0094  0.0292 -0.2853
 3167SOL    HW120963   2.571   0.032   3.873 -1.7540  0.9596  0.5315
 3167SOL    HW220964   2.550   4.644   3.788  2.3356  0.7100 -2.7262
 3168SOL     OW20965   1.523   1.518   7.818 -0.2704 -0.1492  0.0720
 3168SOL    HW120966   1.445   1.541   7.767 -1.7751  0.7040  2.7754
 3168SOL    HW220967   1.533   1.598   7.869 -0.6486 -0.0867  0.0507
 3169SOL     OW20968   2.950   3.144  10.022 -0.5373 -0.2176 -0.5683
 3169SOL    HW120969   2.862   3.114  10.000 -1.2035  0.3322  1.2799
 3169SOL    HW220970   2.987   3.189   9.946 -0.4294 -1.7126 -1.3927
 3170SOL     OW20971   1.255   3.058   2.206 -0.0941  0.5145  0.8397
 3170SOL    HW120972   1.252   2.962   2.216 -0.0624  0.6483  2.1254
 3170SOL    HW220973   1.311   3.067   2.128  0.8661 -3.7382  1.0215
 3171SOL     OW20974   0.095   2.878   6.433  0.3767 -0.2893 -0.5049
 3171SOL    HW120975   0.155   2.832   6.374  0.6059  0.2972 -0.7351
 3171SOL    HW220976   0.159   2.923   6.487 -0.2589  0.6814 -0.5572
 3172SOL     OW20977   0.540   3.871   1.976  0.3871 -0.5178 -0.3123
 3172SOL    HW120978   0.472   3.928   1.940 -0.3388 -1.2041 -0.0188
 3172SOL    HW220979   0.490   3.790   1.969  1.5162 -1.1459 -1.0417
 3173SOL     OW20980   3.538   2.343   4.215 -0.4395  0.4989 -0.5736
 3173SOL    HW120981   3.491   2.318   4.136 -1.0257 -0.9415  0.2431
 3173SOL    HW220982   3.537   2.258   4.260  3.6756 -0.9986 -3.3334
 3174SOL     OW20983   3.832   2.361   2.670 -0.7006 -0.0213  0.1105
 3174SOL    HW120984   3.799   2.446   2.700  1.0065  1.1270 -1.2489
 3174SOL    HW220985   3.916   2.363   2.715  0.0351  0.3004 -1.2972
 3175SOL     OW20986   2.590   1.712   7.433 -0.0311 -0.4938 -0.0644
 3175SOL    HW120987   2.545   1.786   7.472 -2.2022 -1.2151 -1.1744
 3175SOL    HW220988   2.662   1.691   7.492 -1.1505 -0.7640  1.1904
 3176SOL     OW20989   0.238   2.923   2.477  0.3402  0.5881  0.0434
 3176SOL    HW120990   0.165   2.868   2.450  1.0206 -0.5910  0.5621
 3176SOL    HW220991   0.293   2.850   2.507 -2.3094 -1.3613  0.1465
 3177SOL     OW20992   2.133   3.300   7.720  0.5582 -0.2654  0.1305
 3177SOL    HW120993   2.204   3.342   7.768  0.5733 -1.7244  1.3990
 3177SOL    HW220994   2.126   3.226   7.780  0.2910 -0.1724  0.2181
 3178SOL     OW20995   4.478   0.610   1.395 -0.1388 -0.6738  0.3695
 3178SOL    HW120996   4.551   0.592   1.336 -0.0395 -0.6082  0.4717
 3178SOL    HW220997   4.403   0.608   1.337  0.4864  0.0201 -0.4586
 3179SOL     OW20998   4.101   1.494   5.933  0.2516  0.4703 -0.0620
 3179SOL    HW120999   4.106   1.519   5.841  2.6885 -1.3887 -0.4505
 3179SOL    HW221000   4.030   1.431   5.925  0.9185 -0.1128 -1.3564
 3180SOL     OW21001   3.639   1.443   2.636  0.5646 -0.0488  0.4033
 3180SOL    HW121002   3.632   1.348   2.630  0.5397  0.0060 -0.4128
 3180SOL    HW221003   3.591   1.451   2.719  0.8784  0.3275  0.5529
 3181SOL     OW21004   1.251   4.709   7.147 -0.5059 -0.5518  0.1276
 3181SOL    HW121005   1.161   4.677   7.151 -0.1656 -1.3895  0.7949
 3181SOL    HW221006   1.258   0.073   7.098  3.4908 -0.4630  0.8647
 3182SOL     OW21007   0.785   3.680   6.234 -0.1507  0.7399 -0.0879
 3182SOL    HW121008   0.868   3.727   6.241 -0.0527  0.4342  0.8263
 3182SOL    HW221009   0.773   3.630   6.315  0.5144 -0.2192 -0.5866
 3183SOL     OW21010   2.952   1.859   4.859 -0.1358 -0.1402  0.9625
 3183SOL    HW121011   2.933   1.944   4.819 -2.3362 -0.4993  1.2027
 3183SOL    HW221012   3.046   1.868   4.870  0.3366  1.4462 -4.4457
 3184SOL     OW21013   4.445   1.041  17.451 -0.3171  0.1319  0.1781
 3184SOL    HW121014   4.463   0.950  17.473 -2.4394 -0.1268  0.8321
 3184SOL    HW221015   4.355   1.035  17.417 -0.4246  0.2355  0.4450
 3185SOL     OW21016   0.590   0.312   6.536 -0.5746  0.1561  0.2523
 3185SOL    HW121017   0.669   0.331   6.588 -1.8448  0.2684  2.1312
 3185SOL    HW221018   0.592   0.374   6.463  0.3063  0.6346  0.6743
 3186SOL     OW21019   2.192   2.007   9.475  0.1761  0.7142 -0.3182
 3186SOL    HW121020   2.200   1.913   9.489  0.1959  0.5042 -1.8055
 3186SOL    HW221021   2.282   2.027   9.452  0.4394 -0.1114 -0.0131
 3187SOL     OW21022   3.369   3.778   5.961 -0.9374 -0.1981  0.0758
 3187SOL    HW121023   3.292   3.822   5.996 -0.1513  1.8393 -0.7696
 3187SOL    HW221024   3.411   3.837   5.899 -0.0446 -0.3686  0.5229
 3188SOL     OW21025   3.673   3.991   5.752 -0.0161 -0.1492  0.2077
 3188SOL    HW121026   3.666   3.994   5.848 -0.6583 -0.4108  0.1703
 3188SOL    HW221027   3.580   3.980   5.733 -0.1374 -0.1701  0.8001
 3189SOL     OW21028   0.242   3.557   4.926  0.1763 -0.0294  0.6123
 3189SOL    HW121029   0.323   3.589   4.964  0.9344  1.1284 -1.9597
 3189SOL    HW221030   0.183   3.629   4.948 -1.2991 -1.3023  0.8556
 3190SOL     OW21031   4.460   3.408  12.871  0.6928 -0.0112  0.2008
 3190SOL    HW121032   4.477   3.324  12.829 -0.3833 -0.2059  0.1732
 3190SOL    HW221033   4.549   3.429  12.900  0.7557 -0.0423  0.0331
 3191SOL     OW21034   4.558   1.415   5.212 -0.0649  0.5217  0.4109
 3191SOL    HW121035   4.477   1.458   5.184  1.6631  2.2735 -2.0363
 3191SOL    HW221036   4.618   1.448   5.145 -0.0498  1.4164  0.8644
 3192SOL     OW21037   2.219   1.682   3.136 -0.2537  0.4419 -0.2412
 3192SOL    HW121038   2.146   1.647   3.086 -0.7448  1.3394 -0.1545
 3192SOL    HW221039   2.194   1.747   3.202 -0.9786 -0.0998  0.0072
 3193SOL     OW21040   1.580   3.428   5.005 -0.2149  0.3479  0.5103
 3193SOL    HW121041   1.621   3.350   4.967  0.9836  1.4087 -0.3911
 3193SOL    HW221042   1.491   3.419   4.972  0.1188  2.3334 -0.9381
 3194SOL     OW21043   2.662   1.756   1.571  0.7376  0.3285  0.1778
 3194SOL    HW121044   2.683   1.822   1.637 -0.5126  1.5912 -0.6989
 3194SOL    HW221045   2.739   1.699   1.567 -0.2902 -1.1426  1.0902
 3195SOL     OW21046   3.521   4.351  17.517 -0.3388  0.0216  0.1609
 3195SOL    HW121047   3.550   4.260  17.528 -0.8420 -0.1897 -0.2780
 3195SOL    HW221048   3.429   4.329  17.535 -0.8590 -0.4620 -3.1273
 3196SOL     OW21049   3.162   4.675   4.718  0.0383  0.1738  0.4043
 3196SOL    HW121050   3.147   4.592   4.673  0.9684 -0.9324  2.1274
 3196SOL    HW221051   3.090   0.004   4.675 -0.3307 -0.9701 -0.2079
 3197SOL     OW21052   1.785   1.683   5.140 -0.2542 -0.1758  0.3554
 3197SOL    HW121053   1.691   1.691   5.156  0.0784  1.2787  1.5464
 3197SOL    HW221054   1.788   1.593   5.105 -0.0512 -0.2425  0.5483
 3198SOL     OW21055   2.081   0.569  15.392  0.1590  0.1743  0.3813
 3198SOL    HW121056   2.072   0.503  15.460  0.1317 -0.7236 -0.4921
 3198SOL    HW221057   2.118   0.645  15.436  1.3841 -1.5802  2.3007
 3199SOL     OW21058   0.808   3.713   7.703 -0.0504  0.0676 -0.0333
 3199SOL    HW121059   0.892   3.669   7.715  0.3810  0.9541  0.1511
 3199SOL    HW221060   0.749   3.638   7.715  0.0265 -0.1268 -0.8201
 3200SOL     OW21061   1.434   2.136   7.487 -0.7056  0.1523  0.1135
 3200SOL    HW121062   1.371   2.162   7.554  0.7317  0.4163  1.3391
 3200SOL    HW221063   1.374   2.145   7.413  0.6541  2.8656 -0.6291
 3201SOL     OW21064   2.948   2.829   6.763  0.1759  0.2738  0.2809
 3201SOL    HW121065   2.915   2.917   6.747  0.8591  0.5203  0.2037
 3201SOL    HW221066   2.920   2.817   6.854 -3.6035  0.1142 -0.9287
 3202SOL     OW21067   2.817   1.197  11.054  0.5318 -0.4278 -0.2238
 3202SOL    HW121068   2.909   1.223  11.063 -0.0370  0.6809  2.5554
 3202SOL    HW221069   2.773   1.271  11.012  1.6888 -1.1535 -2.7011
 3203SOL     OW21070   4.583   2.892   9.341  0.3015 -0.3024  0.2457
 3203SOL    HW121071   4.489   2.883   9.327 -0.2035  1.8976  2.2113
 3203SOL    HW221072   4.594   2.865   9.432 -1.4880  0.4921  0.6847
 3204SOL     OW21073   2.202   3.829  11.137 -0.0508  0.5361  0.3095
 3204SOL    HW121074   2.207   3.762  11.205 -1.8191  0.5534  0.4687
 3204SOL    HW221075   2.141   3.789  11.075 -0.0344  0.3030  0.4459
 3205SOL     OW21076   1.972   3.191   4.404  0.0892  0.4276 -0.3952
 3205SOL    HW121077   1.976   3.136   4.326 -4.6970 -0.2749 -0.1410
 3205SOL    HW221078   2.055   3.238   4.392  0.4327  0.3600  1.6809
 3206SOL     OW21079   2.223   1.224  14.946 -0.5945 -0.8335 -0.7505
 3206SOL    HW121080   2.147   1.185  14.989 -2.7549  2.6763 -1.3670
 3206SOL    HW221081   2.203   1.317  14.954 -2.7525 -1.2498 -1.2502
 3207SOL     OW21082   1.420   2.732  16.845  0.4493 -0.1115 -0.2537
 3207SOL    HW121083   1.436   2.645  16.881 -1.2702 -1.1814 -2.1012
 3207SOL    HW221084   1.409   2.773  16.931  1.4493  0.0660 -0.2107
 3208SOL     OW21085   3.878   4.336   3.491  0.2255 -0.2347  0.2629
 3208SOL    HW121086   3.910   4.286   3.565 -2.3177 -1.1184  0.7503
 3208SOL    HW221087   3.916   4.420   3.516 -0.3220  0.2889 -0.6464
 3209SOL     OW21088   4.244   3.263   1.253 -0.4365 -0.1018  0.1449
 3209SOL    HW121089   4.253   3.308   1.338 -2.2068 -1.3286  0.9781
 3209SOL    HW221090   4.283   3.177   1.268 -0.0957  0.7042  3.9290
 3210SOL     OW21091   1.898   2.099   1.747 -0.0572 -0.1108  0.2395
 3210SOL    HW121092   1.845   2.122   1.823 -1.6133 -0.8108 -0.6303
 3210SOL    HW221093   1.870   2.169   1.689 -1.4568 -0.3671  0.6151
 3211SOL     OW21094   2.545   4.492   8.018  0.2485  0.4891  0.1467
 3211SOL    HW121095   2.585   4.554   7.957  1.0782  0.0253  0.2253
 3211SOL    HW221096   2.614   4.471   8.081 -0.3864 -0.5461  0.5067
 3212SOL     OW21097   4.176   1.816   2.353  0.0197 -0.7098 -0.6545
 3212SOL    HW121098   4.118   1.773   2.416 -1.3080  0.6476 -0.9460
 3212SOL    HW221099   4.188   1.900   2.397  0.9081  0.0154 -2.2909
 3213SOL     OW21100   2.750   3.210   7.841  0.2056 -0.1993  0.3316
 3213SOL    HW121101   2.777   3.170   7.759 -0.7097  0.0297 -0.0834
 3213SOL    HW221102   2.826   3.264   7.861 -0.1938  0.1636  0.8990
 3214SOL     OW21103   1.646   1.077  16.484 -0.5741 -0.0752 -0.8910
 3214SOL    HW121104   1.691   1.032  16.412  1.6222  1.7356 -0.6675
 3214SOL    HW221105   1.608   1.151  16.437  1.5350  1.7174  0.2018
 3215SOL     OW21106   2.644   2.344  13.424 -0.3493  0.2240  0.2688
 3215SOL    HW121107   2.651   2.336  13.329 -1.5757 -2.3241  0.3982
 3215SOL    HW221108   2.645   2.253  13.452  1.0681 -0.6402 -2.5407
 3216SOL     OW21109   3.495   4.221  10.642  0.1158 -0.4494 -0.3841
 3216SOL    HW121110   3.577   4.270  10.644 -0.8460  1.1093  1.5360
 3216SOL    HW221111   3.468   4.229  10.551  1.0979  1.0838 -0.5429
 3217SOL     OW21112   0.587   1.539   8.300  0.2170 -0.6057 -0.7002
 3217SOL    HW121113   0.544   1.493   8.228 -1.2649  0.6760 -0.6319
 3217SOL    HW221114   0.672   1.563   8.263  0.7511 -0.5390  0.5539
 3218SOL     OW21115   0.030   2.127  14.855 -0.1010  0.0700  0.4578
 3218SOL    HW121116   4.701   2.210  14.851  1.3289  0.8772  0.7040
 3218SOL    HW221117   4.694   2.074  14.795  0.3021  1.9556 -1.5494
 3219SOL     OW21118   4.077   4.716   0.773  0.4185 -0.4904  0.5309
 3219SOL    HW121119   4.056   0.090   0.792  1.4894  0.0740 -0.9786
 3219SOL    HW221120   4.170   4.713   0.795  0.2566 -0.0988  1.2696
 3220SOL     OW21121   3.190   3.798  11.767 -0.2205  0.3751 -0.1150
 3220SOL    HW121122   3.251   3.850  11.819  1.2850  0.8863 -2.4002
 3220SOL    HW221123   3.248   3.752  11.707 -2.0896  0.4438 -1.9688
 3221SOL     OW21124   0.977   3.771  15.566 -0.0169  0.1033 -0.8152
 3221SOL    HW121125   1.072   3.779  15.557 -0.1517  1.4483 -1.0873
 3221SOL    HW221126   0.947   3.811  15.484  2.0877 -0.8459 -2.0645
 3222SOL     OW21127   0.017   0.386   0.898 -0.0596 -0.1205 -0.0892
 3222SOL    HW121128   4.644   0.395   0.869  0.2386  1.5814 -0.4872
 3222SOL    HW221129   0.032   0.297   0.866 -3.0703 -0.7939  0.3514
 3223SOL     OW21130   4.656   4.219   0.188  0.8366 -0.0570 -0.1028
 3223SOL    HW121131   4.592   4.280   0.153  0.5519 -0.0368  0.4561
 3223SOL    HW221132   4.693   4.184   0.107 -0.8136 -1.3674 -0.2862
 3224SOL     OW21133   4.009   1.520   0.147  0.0621  0.2210 -0.1024
 3224SOL    HW121134   4.090   1.536   0.196  0.3401 -0.0132 -0.4861
 3224SOL    HW221135   4.015   1.425   0.143  0.3590  0.3535 -2.8719
 3225SOL     OW21136   1.971   4.164  16.520  0.6779  0.0114  0.2262
 3225SOL    HW121137   1.888   4.133  16.556  0.7146  2.6052  2.5397
 3225SOL    HW221138   2.033   4.121  16.579  0.6496 -0.4377 -0.0658
 3226SOL     OW21139   2.731   4.092  16.345 -0.2682 -0.2066  0.0501
 3226SOL    HW121140   2.636   4.080  16.355 -0.1837  0.2744  1.4120
 3226SOL    HW221141   2.768   4.072  16.431  0.7476 -1.8506 -0.7720
 3227SOL     OW21142   3.702   0.085   7.723  0.4273  0.0242 -0.1759
 3227SOL    HW121143   3.648   0.016   7.762  0.7319  0.5382  1.1392
 3227SOL    HW221144   3.778   0.029   7.709  2.3523  2.6040  0.1357
 3228SOL     OW21145   4.282   2.263   1.248 -0.1813 -0.6486  0.2300
 3228SOL    HW121146   4.241   2.328   1.305  1.8320  1.2039 -0.4069
 3228SOL    HW221147   4.304   2.313   1.170 -1.4093 -0.5647 -0.0611
 3229SOL     OW21148   1.568   2.802   7.054  0.2582 -0.1752 -0.1472
 3229SOL    HW121149   1.662   2.790   7.039 -0.0358 -0.2153 -1.8791
 3229SOL    HW221150   1.534   2.731   7.000 -2.2094  0.2138  0.9258
 3230SOL     OW21151   3.942   0.241   3.255  0.1503  0.4939  0.0109
 3230SOL    HW121152   4.004   0.210   3.189 -0.5935 -0.2327 -0.3494
 3230SOL    HW221153   3.979   0.190   3.327  2.3202  2.3214  0.1788
 3231SOL     OW21154   3.880   3.069   4.075 -0.4912  0.0557 -0.2191
 3231SOL    HW121155   3.961   3.018   4.075 -0.0261  0.7874 -0.3415
 3231SOL    HW221156   3.887   3.124   4.154 -1.1794  1.6526 -1.2632
 3232SOL     OW21157   2.922   3.745   2.790 -0.0697 -0.1871  0.3992
 3232SOL    HW121158   2.900   3.680   2.724  0.1736 -0.5711  0.6945
 3232SOL    HW221159   2.917   3.682   2.863  0.1348 -0.8191 -0.1339
 3233SOL     OW21160   4.207   1.340   2.481 -0.2535  0.0183  0.2605
 3233SOL    HW121161   4.209   1.435   2.490 -1.2152  0.2492 -2.0483
 3233SOL    HW221162   4.251   1.314   2.563  1.0556 -0.3651 -0.5654
 3234SOL     OW21163   2.041   4.522   4.588 -0.1444 -0.2527 -0.5632
 3234SOL    HW121164   2.102   4.586   4.550 -0.6498  0.3607 -0.3429
 3234SOL    HW221165   2.105   4.458   4.618 -0.7864 -0.1547  1.0147
 3235SOL     OW21166   4.466   1.327   7.022  0.2121 -0.6084  0.1693
 3235SOL    HW121167   4.453   1.234   7.008 -1.0226 -0.5024  0.5825
 3235SOL    HW221168   4.377   1.350   7.047  0.5152 -0.3299  0.9797
 3236SOL     OW21169   2.915   0.079   6.390 -0.3088 -0.3308 -0.0241
 3236SOL    HW121170   2.950   0.147   6.447 -0.8531  1.2844 -1.5905
 3236SOL    HW221171   2.997   0.044   6.356 -0.9051 -1.5568 -0.1994
 3237SOL     OW21172   4.434   3.546  12.472  0.1074 -0.1869  0.2297
 3237SOL    HW121173   4.360   3.502  12.514  2.0220 -0.7073  3.0299
 3237SOL    HW221174   4.466   3.471  12.422  0.6227  0.0629  0.1945
 3238SOL     OW21175   2.473   0.771   2.434 -0.2596 -0.0248 -0.3781
 3238SOL    HW121176   2.469   0.742   2.343 -1.7993 -0.9382 -0.0062
 3238SOL    HW221177   2.382   0.768   2.464  0.6753 -2.1856  2.2560
 3239SOL     OW21178   3.361   0.854  12.388  0.1725  0.1736  0.0877
 3239SOL    HW121179   3.450   0.858  12.354 -0.3972 -0.8559 -1.5025
 3239SOL    HW221180   3.328   0.786  12.329 -0.3413  0.1929  0.3596
 3240SOL     OW21181   1.916   1.312   7.837  0.3849 -0.5837 -0.4176
 3240SOL    HW121182   1.974   1.375   7.795  0.8716 -1.5223 -1.1521
 3240SOL    HW221183   1.869   1.369   7.898 -0.4940 -1.7106 -0.0318
 3241SOL     OW21184   0.056   1.615  11.384  0.1100  0.2807 -1.0359
 3241SOL    HW121185   0.044   1.521  11.373 -1.3059  0.4868 -1.2432
 3241SOL    HW221186   4.696   1.635  11.437  0.5555  1.1993 -0.7222
 3242SOL     OW21187   3.965   4.578   5.658 -0.3527  0.1344  0.0776
 3242SOL    HW121188   3.943   4.639   5.588  1.4641  0.7609  0.0501
 3242SOL    HW221189   4.020   4.634   5.713 -0.7265 -0.6167  1.2246
 3243SOL     OW21190   4.354   3.984  17.008  0.3454 -0.0852 -0.2125
 3243SOL    HW121191   4.278   3.938  16.973  0.3270 -1.6533  1.9067
 3243SOL    HW221192   4.316   4.039  17.077  0.3226  0.7664 -0.9085
 3244SOL     OW21193   2.489   3.127   4.173 -0.0583 -0.0066  0.0893
 3244SOL    HW121194   2.478   3.124   4.268  2.6835  0.3432  0.4311
 3244SOL    HW221195   2.400   3.113   4.140 -0.5861 -0.7105  1.8368
 3245SOL     OW21196   0.716   2.761   2.980  0.4726  0.6690  0.1524
 3245SOL    HW121197   0.787   2.808   2.935  2.1301 -2.2104 -0.1964
 3245SOL    HW221198   0.757   2.723   3.057 -0.6834  3.0137  1.9180
 3246SOL     OW21199   2.447   1.165   1.192 -0.1659  0.3374  0.2836
 3246SOL    HW121200   2.515   1.220   1.153  1.6438 -0.3910  2.3920
 3246SOL    HW221201   2.495   1.082   1.204  1.8806  1.8091  2.3370
 3247SOL     OW21202   4.517   3.618   7.014  0.4528 -0.2200  0.2151
 3247SOL    HW121203   4.550   3.545   6.962 -2.1629 -2.1565  1.2966
 3247SOL    HW221204   4.445   3.647   6.957 -0.2935  0.5101  1.5215
 3248SOL     OW21205   2.662   0.008   6.635 -0.4854 -0.7683 -0.4598
 3248SOL    HW121206   2.704   0.094   6.633 -0.3585 -0.7665  2.5849
 3248SOL    HW221207   2.686   4.684   6.718  1.1301 -1.7062 -1.3834
 3249SOL     OW21208   0.310   1.242   8.169  0.7286  0.5310  0.4322
 3249SOL    HW121209   0.293   1.185   8.244  2.4219  1.0416  1.2012
 3249SOL    HW221210   0.253   1.310   8.203  1.2718  1.0734  0.2742
 3250SOL     OW21211   2.906   2.498   2.565  0.7555 -0.0610  0.0282
 3250SOL    HW121212   2.900   2.586   2.603  2.0115  0.6272 -1.3849
 3250SOL    HW221213   3.002   2.490   2.573  0.9633  1.0015 -1.4823
 3251SOL     OW21214   3.222   4.119  10.728  0.0274  0.7645 -0.3187
 3251SOL    HW121215   3.316   4.106  10.714 -0.2349 -0.4066 -0.9785
 3251SOL    HW221216   3.210   4.202  10.681 -1.8568  1.0709  0.7164
 3252SOL     OW21217   1.899   2.677   6.549  0.7191  0.4519 -0.4879
 3252SOL    HW121218   1.852   2.642   6.473 -0.5576 -0.4693  0.7250
 3252SOL    HW221219   1.835   2.744   6.575 -0.4652 -0.2291 -1.6269
 3253SOL     OW21220   2.939   3.150   8.639  0.4598 -0.1270  0.1255
 3253SOL    HW121221   2.892   3.205   8.578  1.4786 -0.8731 -1.3287
 3253SOL    HW221222   2.865   3.132   8.698 -1.1139 -1.3952 -2.2663
 3254SOL     OW21223   3.063   3.104   7.964 -0.1249  0.1545 -0.7481
 3254SOL    HW121224   3.139   3.151   7.931  0.2786  0.7109  1.0138
 3254SOL    HW221225   3.105   3.022   7.990 -1.6874  0.4361  2.6250
 3255SOL     OW21226   1.442   0.472   1.646  0.0314 -0.3736  0.4391
 3255SOL    HW121227   1.476   0.482   1.557  1.1316  1.4316  1.0622
 3255SOL    HW221228   1.354   0.496   1.616  0.3104  1.9785  1.4840
 3256SOL     OW21229   1.664   1.711  12.498 -0.1514 -0.2772 -0.4416
 3256SOL    HW121230   1.690   1.789  12.548 -2.7361 -0.6960  1.4846
 3256SOL    HW221231   1.744   1.709  12.444  0.3213 -0.6540  0.2772
 3257SOL     OW21232   1.964   3.566   5.434 -0.5970 -0.3471 -0.0165
 3257SOL    HW121233   2.001   3.482   5.459 -0.1338 -0.0565  0.2696
 3257SOL    HW221234   1.906   3.594   5.504 -2.4851  0.5427 -1.9229
 3258SOL     OW21235   0.816   1.853   7.434  0.1818  0.0034 -0.0312
 3258SOL    HW121236   0.874   1.928   7.446  0.1167 -0.2275  1.6275
 3258SOL    HW221237   0.791   1.875   7.344 -1.1592 -1.6497 -0.0692
 3259SOL     OW21238   2.487   0.480   1.404  0.6986  0.5252  0.3461
 3259SOL    HW121239   2.512   0.546   1.468  2.1520 -0.7529  1.0976
 3259SOL    HW221240   2.465   0.409   1.465  2.1420 -0.2735 -0.0695
 3260SOL     OW21241   4.589   0.845   8.045  0.5552 -0.4694 -0.0030
 3260SOL    HW121242   4.501   0.852   8.081  0.1471 -1.2192 -0.8428
 3260SOL    HW221243   4.643   0.904   8.097  0.4528 -2.2657  2.1334
 3261SOL     OW21244   3.497   4.163  16.771  0.0800  0.2252 -0.1100
 3261SOL    HW121245   3.486   4.191  16.680  0.4282  0.7796  0.0176
 3261SOL    HW221246   3.535   4.243  16.807  2.8395 -1.6256  1.1060
 3262SOL     OW21247   3.582   2.480  11.636 -0.3755 -0.1212 -0.0406
 3262SOL    HW121248   3.489   2.499  11.627 -0.2780  0.4984  0.2698
 3262SOL    HW221249   3.619   2.519  11.556  0.3398 -1.1789 -0.2250
 3263SOL     OW21250   2.865   2.023   1.355  0.0732 -0.0583 -0.0581
 3263SOL    HW121251   2.904   2.000   1.271  0.3721 -1.0420  0.3492
 3263SOL    HW221252   2.803   2.091   1.327 -0.5866  0.3625  2.4269
 3264SOL     OW21253   2.308   4.141  16.145  0.5904 -0.2828  0.2000
 3264SOL    HW121254   2.244   4.183  16.203 -0.4661 -1.0904 -0.3798
 3264SOL    HW221255   2.311   4.200  16.070  2.1400 -0.1699  0.3540
 3265SOL     OW21256   2.979   1.600  17.210 -0.1401 -0.6597  0.3010
 3265SOL    HW121257   2.981   1.599  17.115 -0.5263  2.0894  0.2422
 3265SOL    HW221258   2.885   1.582  17.210 -0.0716 -0.9050 -2.1414
 3266SOL     OW21259   1.643   0.565   1.461 -0.6826 -0.5091  0.4687
 3266SOL    HW121260   1.590   0.560   1.381 -1.2075 -0.3079  0.8072
 3266SOL    HW221261   1.704   0.491   1.463  0.5505  0.5106  0.3591
 3267SOL     OW21262   0.733   4.656  17.077 -0.0118  0.1038  0.4517
 3267SOL    HW121263   0.686   4.574  17.093 -1.8000  0.9799 -0.3632
 3267SOL    HW221264   0.815   4.645  17.126  0.1331 -1.3077 -0.1146
 3268SOL     OW21265   4.296   4.170   6.703 -0.0971 -0.2574 -0.5204
 3268SOL    HW121266   4.337   4.175   6.789  0.0294 -0.2444 -0.5824
 3268SOL    HW221267   4.205   4.142   6.715  0.3807 -2.2763 -1.6184
 3269SOL     OW21268   3.773   1.910   3.454 -0.2419 -0.2610 -0.0276
 3269SOL    HW121269   3.856   1.955   3.438  0.3929 -1.6015 -0.4823
 3269SOL    HW221270   3.704   1.976   3.442 -0.9995 -0.9933  0.2529
 3270SOL     OW21271   3.730   3.279  12.516 -0.2918 -0.0691  0.5878
 3270SOL    HW121272   3.812   3.230  12.527 -0.0222  0.1980 -0.2500
 3270SOL    HW221273   3.704   3.236  12.435  0.1634 -0.2526  0.5359
 3271SOL     OW21274   3.729   2.101   8.195 -0.4231  0.4711  0.4815
 3271SOL    HW121275   3.684   2.072   8.274 -0.4356 -1.3449 -0.1684
 3271SOL    HW221276   3.806   2.044   8.198  0.6812  1.9893  0.9222
 3272SOL     OW21277   0.769   0.481   6.950 -0.2115 -0.1507 -0.0677
 3272SOL    HW121278   0.716   0.445   7.020  0.2890  1.7037  1.2637
 3272SOL    HW221279   0.734   0.570   6.953 -1.5357 -0.7782  2.4620
 3273SOL     OW21280   1.826   2.268  13.459  0.3193 -0.3331 -0.7180
 3273SOL    HW121281   1.900   2.214  13.431 -0.3453 -1.3303 -0.5356
 3273SOL    HW221282   1.758   2.244  13.397  0.5497 -1.4458 -0.5423
 3274SOL     OW21283   4.693   4.158   5.759 -0.1797 -0.3376 -0.3766
 3274SOL    HW121284   4.610   4.133   5.800 -1.3480  0.3713 -2.3496
 3274SOL    HW221285   0.013   4.072   5.739  1.3701 -0.0996  1.4341
 3275SOL     OW21286   0.267   1.541   2.424  0.2348  0.2195 -0.2805
 3275SOL    HW121287   0.328   1.494   2.367  0.6570 -1.2207  1.3753
 3275SOL    HW221288   0.219   1.478   2.477  0.0161 -2.1152 -3.2983
 3276SOL     OW21289   3.956   0.736  12.649 -0.3773  0.9441 -0.1849
 3276SOL    HW121290   4.043   0.733  12.608 -0.3635 -0.1119 -0.0706
 3276SOL    HW221291   3.964   0.812  12.706  0.8481  0.3719  0.4096
 3277SOL     OW21292   2.273   2.891   9.046  0.6258  0.1694 -0.3326
 3277SOL    HW121293   2.198   2.845   9.085  0.5388 -1.6427 -2.6432
 3277SOL    HW221294   2.328   2.818   9.017 -0.9483 -0.3537 -2.0591
 3278SOL     OW21295   1.653   0.045   6.952  0.1593 -0.5870 -0.1172
 3278SOL    HW121296   1.604   0.096   7.016  0.5607 -0.7110  0.2863
 3278SOL    HW221297   1.740   0.081   6.969  0.2858 -0.1197 -1.7595
 3279SOL     OW21298   0.066   1.841  14.063  0.4417 -0.2301  0.0335
 3279SOL    HW121299   0.053   1.860  14.156 -0.3060 -1.0804  0.1017
 3279SOL    HW221300   0.008   1.901  14.017  1.6202  0.0224 -1.1078
 3280SOL     OW21301   3.636   2.961   7.125 -0.5361  0.0747  0.3613
 3280SOL    HW121302   3.561   2.902   7.131 -0.4352 -0.0539  0.3531
 3280SOL    HW221303   3.711   2.902   7.123 -0.0991  0.5332  2.4638
 3281SOL     OW21304   1.378   4.480   7.053 -0.3743  0.1853  0.0008
 3281SOL    HW121305   1.335   4.556   7.092  0.4340  0.2586  0.7345
 3281SOL    HW221306   1.322   4.457   6.978 -0.5538  1.1867 -0.1757
 3282SOL     OW21307   1.946   2.350   1.403 -0.3667 -0.5289  0.3853
 3282SOL    HW121308   1.906   2.346   1.490 -0.1499  2.1275  0.6257
 3282SOL    HW221309   1.914   2.436   1.375  1.4637 -0.1464 -0.5743
 3283SOL     OW21310   0.973   0.572  17.666 -0.0082 -0.2620 -0.1743
 3283SOL    HW121311   0.894   0.627  17.663  0.8463  1.0034  0.5970
 3283SOL    HW221312   0.958   0.513  17.592 -0.7082  1.5982 -1.5245
 3284SOL     OW21313   1.053   4.452   3.183  0.2806 -0.0101  0.2617
 3284SOL    HW121314   1.113   4.422   3.115  1.2693  0.8850  0.7240
 3284SOL    HW221315   1.017   4.366   3.199 -1.5465  0.3720 -1.8551
 3285SOL     OW21316   4.140   2.109  13.516 -0.1505  0.5108  0.3468
 3285SOL    HW121317   4.159   2.150  13.600  1.5214 -0.0328  0.2471
 3285SOL    HW221318   4.210   2.046  13.498  2.3256  2.1860  4.1585
 3286SOL     OW21319   1.022   2.517   4.585  0.1995  0.3894  0.3939
 3286SOL    HW121320   1.004   2.601   4.626 -0.2018  0.9399 -0.9202
 3286SOL    HW221321   0.987   2.451   4.645  2.6019  0.2762  1.6874
 3287SOL     OW21322   1.050   3.540   1.919 -0.0976 -0.8829 -0.3731
 3287SOL    HW121323   1.115   3.510   1.856  0.0244 -1.8643  0.2256
 3287SOL    HW221324   1.040   3.630   1.886  1.5836 -0.7206 -0.4090
 3288SOL     OW21325   1.606   0.102   7.252  0.0326 -0.2507 -0.7502
 3288SOL    HW121326   1.643   0.185   7.221  0.1684 -0.6655 -1.7104
 3288SOL    HW221327   1.692   0.060   7.246  1.0972  1.6794  0.9702
 3289SOL     OW21328   0.298   2.891   0.539 -0.0808 -0.6827 -0.0933
 3289SOL    HW121329   0.353   2.815   0.519  2.5515  0.7721  1.5146
 3289SOL    HW221330   0.328   2.953   0.473 -1.6275 -0.3887 -0.5009
 3290SOL     OW21331   1.725   2.445   4.157 -0.5011 -0.0013 -0.1188
 3290SOL    HW121332   1.775   2.472   4.234 -1.4470  0.0243  0.4791
 3290SOL    HW221333   1.791   2.401   4.103 -1.8250 -3.5528  1.1227
 3291SOL     OW21334   2.414   2.622   3.882 -0.1041  0.0697  0.6446
 3291SOL    HW121335   2.437   2.703   3.926  0.7558  1.0624 -1.6094
 3291SOL    HW221336   2.331   2.643   3.839 -0.0356  0.7016  0.8247
 3292SOL     OW21337   2.365   4.273  16.531 -0.0041 -0.3756 -0.4502
 3292SOL    HW121338   2.345   4.188  16.570 -2.4405  0.4244  0.0269
 3292SOL    HW221339   2.454   4.279  16.567 -0.3041  0.3979  0.1661
 3293SOL     OW21340   3.713   2.144   3.687 -0.2462  0.6097  0.1068
 3293SOL    HW121341   3.742   2.234   3.700  2.0715 -0.2492  1.0405
 3293SOL    HW221342   3.758   2.093   3.755 -2.1113 -0.6764  0.3881
 3294SOL     OW21343   1.612   2.327   6.118  0.5593 -0.4105 -0.0305
 3294SOL    HW121344   1.701   2.293   6.127  0.1383 -0.9595  2.0386
 3294SOL    HW221345   1.627   2.396   6.052  1.4688  0.5267  1.1605
 3295SOL     OW21346   3.541   1.320   3.096  0.0821  0.4087 -0.4526
 3295SOL    HW121347   3.514   1.237   3.136  1.5580  0.9096  1.6418
 3295SOL    HW221348   3.511   1.377   3.167  0.2036 -2.3125  1.7943
 3296SOL     OW21349   3.241   3.569  15.425  0.0678  0.0242  0.3413
 3296SOL    HW121350   3.320   3.616  15.398 -0.5777  0.6970 -0.3970
 3296SOL    HW221351   3.263   3.477  15.436  0.0919  0.2703  2.4211
 3297SOL     OW21352   2.005   2.105  10.002  0.1270  0.3927  0.0414
 3297SOL    HW121353   1.999   2.200  10.008 -0.8621  0.2216  1.7568
 3297SOL    HW221354   1.948   2.094   9.926 -1.6595  1.2894  1.2449
 3298SOL     OW21355   0.493   3.465   2.984 -0.4550 -0.4299  0.3389
 3298SOL    HW121356   0.466   3.546   2.941  2.3506  0.3095 -0.0150
 3298SOL    HW221357   0.568   3.440   2.929 -0.1035  1.0019  0.1683
 3299SOL     OW21358   2.850   1.216  17.214 -0.0209  0.6911  0.0306
 3299SOL    HW121359   2.830   1.129  17.248 -1.7857  1.8157  1.8520
 3299SOL    HW221360   2.844   1.199  17.120  0.9232  1.3650 -0.1527
 3300SOL     OW21361   3.367   1.938   4.184 -0.8941 -0.0788 -0.2252
 3300SOL    HW121362   3.323   1.937   4.269 -2.2108  0.2977 -0.9036
 3300SOL    HW221363   3.441   1.882   4.207 -0.5196  0.2985 -0.5080
 3301SOL     OW21364   3.318   3.203   7.942  0.0584  0.1353 -0.5363
 3301SOL    HW121365   3.391   3.219   8.001 -1.9387 -0.3775  2.0860
 3301SOL    HW221366   3.294   3.296   7.936 -0.1146  0.0870 -0.6095
 3302SOL     OW21367   4.528   0.248  15.226 -0.1557  0.2401 -0.4681
 3302SOL    HW121368   4.481   0.287  15.300 -0.6752 -1.0985 -0.1048
 3302SOL    HW221369   4.503   0.302  15.151  1.5707 -0.2284 -1.3764
 3303SOL     OW21370   0.459   1.047   4.289 -0.0103 -0.5487 -0.1516
 3303SOL    HW121371   0.454   1.142   4.285 -1.1635 -0.6162 -0.4329
 3303SOL    HW221372   0.371   1.028   4.322  0.9681 -1.2369  2.0428
 3304SOL     OW21373   2.080   2.738   4.809 -0.1637 -0.3255 -0.6222
 3304SOL    HW121374   2.057   2.814   4.756 -3.3952  0.7382  2.2550
 3304SOL    HW221375   1.999   2.690   4.790  0.7787 -1.5139 -1.5963
 3305SOL     OW21376   2.295   0.323   5.123 -0.6269 -0.4963 -0.2442
 3305SOL    HW121377   2.384   0.297   5.147  0.2190  0.3572 -2.4491
 3305SOL    HW221378   2.316   0.400   5.070 -3.3277  0.4266  0.0035
 3306SOL     OW21379   4.105   4.495   7.296 -0.4647  0.0069  0.0984
 3306SOL    HW121380   4.168   4.424   7.305  0.2971  0.7584  0.7283
 3306SOL    HW221381   4.104   4.524   7.387 -2.2894 -2.1331  0.7636
 3307SOL     OW21382   3.928   3.525   7.678 -0.4856 -0.0832  0.1835
 3307SOL    HW121383   3.848   3.472   7.674 -0.3766 -0.2760  0.5451
 3307SOL    HW221384   3.996   3.468   7.640 -1.9119 -0.7836 -1.3016
 3308SOL     OW21385   1.553   1.920  12.236  0.3463 -0.3189 -0.5699
 3308SOL    HW121386   1.490   1.879  12.295  0.6668  0.0195  0.0091
 3308SOL    HW221387   1.490   1.971  12.185 -0.6586  1.1730  2.1727
 3309SOL     OW21388   1.877   3.730  13.814  0.3699 -0.2032  0.5239
 3309SOL    HW121389   1.935   3.707  13.741  0.4156 -0.2591  0.5774
 3309SOL    HW221390   1.807   3.666  13.796  2.0478 -1.7319 -0.5338
 3310SOL     OW21391   3.801   3.001   7.634  0.0050  0.4913 -0.3342
 3310SOL    HW121392   3.799   3.064   7.705 -0.7547 -0.0060  0.0780
 3310SOL    HW221393   3.893   2.975   7.625 -1.0287 -3.4062  0.5435
 3311SOL     OW21394   0.724   2.113   8.582 -0.1502  0.0429  0.0920
 3311SOL    HW121395   0.767   2.065   8.653  1.6239 -0.2506 -1.1887
 3311SOL    HW221396   0.790   2.099   8.515  1.6239 -1.9177  2.2508
 3312SOL     OW21397   3.136   2.834  14.119 -0.7461 -0.3650  0.5050
 3312SOL    HW121398   3.136   2.855  14.212 -0.8465  1.6104  0.0490
 3312SOL    HW221399   3.068   2.894  14.087 -0.3981 -0.3475 -0.1981
 3313SOL     OW21400   3.550   4.570   9.329  0.3035 -0.1102 -0.4941
 3313SOL    HW121401   3.607   4.496   9.310  0.8374  0.2295 -0.2188
 3313SOL    HW221402   3.595   4.613   9.402  2.1558 -2.6668 -0.1457
 3314SOL     OW21403   0.175   0.904   5.378 -0.6307  0.3786  0.2147
 3314SOL    HW121404   0.085   0.872   5.386 -0.7827  0.7878  0.1321
 3314SOL    HW221405   0.181   0.939   5.467  1.9932  1.0399 -0.2361
 3315SOL     OW21406   1.736   2.291  10.848 -0.0956  0.1129  0.0553
 3315SOL    HW121407   1.667   2.254  10.793  0.5869 -2.2996  0.8305
 3315SOL    HW221408   1.778   2.357  10.792 -1.0587 -0.3831 -1.2549
 3316SOL     OW21409   3.070   2.239   5.129 -0.6135  0.4577 -0.4871
 3316SOL    HW121410   3.036   2.269   5.213  0.5521 -1.6415  0.7357
 3316SOL    HW221411   3.048   2.147   5.137 -2.0695  0.8432 -0.0649
 3317SOL     OW21412   1.488   4.103  17.502  0.0642  0.5145  0.3502
 3317SOL    HW121413   1.439   4.118  17.421 -0.8717  1.1229  1.0306
 3317SOL    HW221414   1.541   4.182  17.502 -1.4696  1.5469 -1.8852
 3318SOL     OW21415   1.683   0.210   4.000 -0.0787 -0.2089  0.2263
 3318SOL    HW121416   1.594   0.210   4.035 -0.5255 -0.5990 -0.9238
 3318SOL    HW221417   1.731   0.171   4.073 -0.5087 -0.1828  0.5238
 3319SOL     OW21418   4.304   2.828   8.156  0.3014 -0.2215  0.2695
 3319SOL    HW121419   4.351   2.745   8.164  0.3012 -0.0429  1.9466
 3319SOL    HW221420   4.225   2.799   8.200  0.7675 -0.5331  0.8903
 3320SOL     OW21421   1.691   2.337   8.075 -0.0345 -0.3253  0.1913
 3320SOL    HW121422   1.625   2.356   8.008 -0.0642  1.0241  0.6075
 3320SOL    HW221423   1.717   2.422   8.112  1.0983 -1.1764  1.3659
 3321SOL     OW21424   1.601   0.360   6.768  0.6308  0.3031 -0.1701
 3321SOL    HW121425   1.571   0.445   6.738  0.6493  1.6900  3.8488
 3321SOL    HW221426   1.679   0.396   6.811  2.3131 -2.3909 -0.9311
 3322SOL     OW21427   0.009   4.002   2.754  0.0083  0.4074  0.0506
 3322SOL    HW121428   0.040   4.047   2.833  1.0605  1.7646 -1.1439
 3322SOL    HW221429   4.632   4.017   2.757 -0.4251 -2.2892 -0.2743
 3323SOL     OW21430   1.268   0.805   6.345  0.2137 -0.0080  0.0032
 3323SOL    HW121431   1.249   0.744   6.416  0.4903  0.7241  0.7196
 3323SOL    HW221432   1.341   0.854   6.383  0.0706 -0.8472  1.3486
 3324SOL     OW21433   4.465   3.540  13.144 -0.3294  0.4460 -0.6179
 3324SOL    HW121434   4.531   3.594  13.101 -0.2735 -0.0360 -1.1230
 3324SOL    HW221435   4.515   3.490  13.208  2.6227  2.6937 -1.1595
 3325SOL     OW21436   3.294   2.114   1.393 -0.0844  0.1123  0.0264
 3325SOL    HW121437   3.250   2.031   1.409 -1.2594  0.8121  0.4471
 3325SOL    HW221438   3.380   2.088   1.425 -1.4566 -1.0265  2.7411
 3326SOL     OW21439   1.764   3.467  13.031 -0.1772 -0.0122 -0.3469
 3326SOL    HW121440   1.772   3.406  12.958  1.1087  0.6473 -0.7707
 3326SOL    HW221441   1.824   3.535  13.001 -0.3248  0.5988  0.7491
 3327SOL     OW21442   0.304   1.314   5.833 -0.1381  0.0173 -0.4019
 3327SOL    HW121443   0.359   1.379   5.788  0.4357 -0.6299 -0.6350
 3327SOL    HW221444   0.339   1.234   5.794 -0.2248 -0.8257  1.2375
 3328SOL     OW21445   3.369   0.109  12.079  0.4321  0.5874 -0.3718
 3328SOL    HW121446   3.365   0.123  11.985  0.9297  3.8634  0.0999
 3328SOL    HW221447   3.437   0.172  12.102  0.8547  0.2840 -0.8056
 3329SOL     OW21448   3.502   3.637   9.280  0.3961  0.4594 -0.0672
 3329SOL    HW121449   3.534   3.719   9.242 -1.1342  0.9497 -0.3303
 3329SOL    HW221450   3.587   3.603   9.308  0.6416  1.3210  0.2278
 3330SOL     OW21451   0.065   0.471  10.267 -0.3799  0.2060 -0.2321
 3330SOL    HW121452   0.000   0.408  10.235  0.7558 -1.0739 -0.0445
 3330SOL    HW221453   0.038   0.472  10.359  1.9039  1.5446  0.4343
 3331SOL     OW21454   0.926   4.035  10.287 -0.1195 -0.4899 -0.1040
 3331SOL    HW121455   0.971   4.039  10.203  0.6165  1.1368  0.3630
 3331SOL    HW221456   0.872   4.114  10.283  0.1384 -0.3100  0.0140
 3332SOL     OW21457   1.753   4.546  16.743  0.3184 -0.2954  0.1937
 3332SOL    HW121458   1.723   4.493  16.670  0.0657 -0.9970  0.8045
 3332SOL    HW221459   1.709   4.497  16.813  1.8664 -3.0094 -0.7515
 3333SOL     OW21460   2.794   2.906   2.806 -0.5007  0.5385 -0.2109
 3333SOL    HW121461   2.765   2.997   2.812 -0.8780  0.4022 -0.0078
 3333SOL    HW221462   2.810   2.891   2.899  0.8368  0.2847 -0.4850
 3334SOL     OW21463   0.258   3.712  10.862  0.2318  0.2520 -0.0502
 3334SOL    HW121464   0.323   3.662  10.911 -0.2828 -1.1614 -0.7971
 3334SOL    HW221465   0.303   3.797  10.860  0.0092  0.3911  1.3306
 3335SOL     OW21466   4.443   3.524  17.462  0.4692 -0.0865  0.6330
 3335SOL    HW121467   4.429   3.546  17.554  0.8023  1.2518  0.3494
 3335SOL    HW221468   4.351   3.527  17.436  0.3348 -1.4979  0.9037
 3336SOL     OW21469   4.293   3.298  13.108  0.2669 -0.1710  0.2697
 3336SOL    HW121470   4.288   3.254  13.023 -0.5298  0.5863 -0.0791
 3336SOL    HW221471   4.365   3.359  13.092  0.0217  0.8037  2.9093
 3337SOL     OW21472   1.010   1.374   4.890  0.0672 -0.0093 -0.3856
 3337SOL    HW121473   0.955   1.317   4.944  0.8542 -0.6210 -0.2174
 3337SOL    HW221474   0.954   1.449   4.870 -0.1413  0.3099  1.4237
 3338SOL     OW21475   4.459   2.127   3.274  0.0301  0.4441 -0.1357
 3338SOL    HW121476   4.415   2.048   3.305 -0.0849  0.1872 -0.9477
 3338SOL    HW221477   4.458   2.106   3.180 -1.1828 -0.5109  0.0910
 3339SOL     OW21478   0.081   4.264   1.351  0.3544  0.0377  0.1587
 3339SOL    HW121479   0.169   4.228   1.353  0.7923  1.0099 -1.4031
 3339SOL    HW221480   0.036   4.208   1.414  0.1488 -0.0776 -0.0894
 3340SOL     OW21481   4.090   3.834   0.135  1.0009 -0.5958  0.6043
 3340SOL    HW121482   4.048   3.894   0.196 -0.1646  0.0102 -0.7853
 3340SOL    HW221483   4.032   3.760   0.154  0.7248 -1.0920 -2.1644
 3341SOL     OW21484   2.680   3.077   9.692  0.0391 -0.3266  0.1727
 3341SOL    HW121485   2.743   3.030   9.638 -0.5708 -0.5003 -0.3808
 3341SOL    HW221486   2.698   3.169   9.673  1.2833 -0.5494  0.3018
 3342SOL     OW21487   3.852   3.453   3.982 -0.4482 -0.0125 -0.0301
 3342SOL    HW121488   3.892   3.516   4.042 -0.3638 -0.8827  0.8209
 3342SOL    HW221489   3.773   3.426   4.029 -2.8766  0.7061 -3.6762
 3343SOL     OW21490   0.575   3.898   3.795 -0.0490 -0.0810 -0.1679
 3343SOL    HW121491   0.485   3.864   3.798  0.7608 -2.3337 -1.3805
 3343SOL    HW221492   0.596   3.866   3.883 -2.5877  0.6530  0.6965
 3344SOL     OW21493   0.856   0.818   4.579  0.2314  0.8354  0.2905
 3344SOL    HW121494   0.806   0.749   4.622  2.3016 -0.5567  0.4506
 3344SOL    HW221495   0.802   0.840   4.503 -1.1451  0.4670  1.1553
 3345SOL     OW21496   0.649   3.986  13.283  0.3723  0.5408 -0.4516
 3345SOL    HW121497   0.641   4.079  13.306 -0.0999 -0.4097  3.2835
 3345SOL    HW221498   0.722   3.983  13.221  0.8397  4.3254 -0.0808
 3346SOL     OW21499   3.406   3.812   2.014 -1.0533  0.2139 -0.3403
 3346SOL    HW121500   3.333   3.821   2.075 -1.1602  2.1284 -0.7452
 3346SOL    HW221501   3.379   3.874   1.945  0.8007  0.1203 -1.1510
 3347SOL     OW21502   3.452   2.660   0.778 -0.2203 -0.4755 -0.2440
 3347SOL    HW121503   3.440   2.568   0.756  0.2572 -0.8031  0.8898
 3347SOL    HW221504   3.368   2.689   0.740 -0.0297  0.0515 -0.2592
 3348SOL     OW21505   4.196   1.737  13.617 -0.0808  0.3616  0.1651
 3348SOL    HW121506   4.217   1.753  13.525  0.0116  0.2760  0.1717
 3348SOL    HW221507   4.279   1.699  13.647  0.7063  1.2098 -0.9541
 3349SOL     OW21508   1.162   1.588   5.591 -0.3728  0.1826  0.2235
 3349SOL    HW121509   1.170   1.502   5.550 -3.3351 -0.8901  1.9297
 3349SOL    HW221510   1.143   1.643   5.515  1.1735 -0.1159 -0.3842
 3350SOL     OW21511   1.252   4.297   8.199  0.3914 -0.4471 -0.1069
 3350SOL    HW121512   1.292   4.240   8.133 -0.6781  1.7683 -2.6717
 3350SOL    HW221513   1.318   4.367   8.202  0.8655 -0.8405 -1.5279
 3351SOL     OW21514   2.640   1.241  16.514  0.1942 -0.6729 -0.7528
 3351SOL    HW121515   2.619   1.328  16.480  0.0099 -0.9103 -1.2552
 3351SOL    HW221516   2.595   1.199  16.441 -1.9533  1.7075 -0.7917
 3352SOL     OW21517   2.762   4.585   6.411  0.1290 -0.7939  0.2469
 3352SOL    HW121518   2.823   4.657   6.395 -0.5436 -0.6375 -1.6414
 3352SOL    HW221519   2.716   4.611   6.491 -0.3687  1.0644 -0.6476
 3353SOL     OW21520   1.164   0.895  10.125 -0.3572 -0.1527  0.7131
 3353SOL    HW121521   1.136   0.886  10.216 -1.4524 -0.6114  0.3210
 3353SOL    HW221522   1.221   0.818  10.121 -1.8924 -1.3995  2.7778
 3354SOL     OW21523   0.741   4.091  14.883  0.4187  0.2745  0.1063
 3354SOL    HW121524   0.683   4.147  14.935  0.2221  2.5281 -2.5540
 3354SOL    HW221525   0.813   4.143  14.848  0.3883 -0.3371 -0.8740
 3355SOL     OW21526   3.135   4.628  10.052  0.2724 -0.1476  0.4417
 3355SOL    HW121527   3.153   4.598  10.140 -1.0824 -0.7967  0.4973
 3355SOL    HW221528   3.164   0.002  10.049  0.5661 -0.2539 -0.0820
 3356SOL     OW21529   4.347   3.092   6.093  0.1805 -0.7221 -0.0726
 3356SOL    HW121530   4.299   3.047   6.023 -0.4765  0.1688 -0.1844
 3356SOL    HW221531   4.307   3.178   6.096 -0.7646 -1.1123 -1.4133
 3357SOL     OW21532   0.201   1.048   2.760 -0.3288 -0.0723 -0.1925
 3357SOL    HW121533   0.110   1.077   2.756 -0.4705 -0.4594  0.1962
 3357SOL    HW221534   0.196   0.955   2.736 -1.9961  0.1613 -0.6897
 3358SOL     OW21535   4.321   3.043   6.930 -0.2769 -0.2631  0.6269
 3358SOL    HW121536   4.373   3.103   6.876 -2.3511  1.4111  0.4997
 3358SOL    HW221537   4.271   3.111   6.974  0.7390  0.3211  0.8798
 3359SOL     OW21538   1.254   3.757   2.037 -0.4620 -0.1851  0.4315
 3359SOL    HW121539   1.267   3.704   2.115  0.9489 -0.9763 -0.3502
 3359SOL    HW221540   1.329   3.815   2.052 -0.3595 -0.3737  0.6451
 3360SOL     OW21541   3.528   2.520   2.202  0.3525 -0.5065 -0.1885
 3360SOL    HW121542   3.595   2.560   2.147  0.1173 -0.0520 -0.1486
 3360SOL    HW221543   3.560   2.430   2.194  0.0830 -0.5710 -0.6028
 3361SOL     OW21544   0.617   3.497   8.996 -0.2469 -0.8355 -0.2342
 3361SOL    HW121545   0.666   3.416   9.012 -0.5691 -0.8273  0.7844
 3361SOL    HW221546   0.551   3.472   8.931  0.3635 -1.0251 -0.7833
 3362SOL     OW21547   1.613   1.226   7.930 -0.2641 -0.5050 -0.1681
 3362SOL    HW121548   1.604   1.321   7.925 -2.1114 -0.7662 -1.8446
 3362SOL    HW221549   1.534   1.198   7.977  0.4186 -0.0519  1.2640
 3363SOL     OW21550   0.347   2.697   2.611  0.4197 -0.0035 -0.5076
 3363SOL    HW121551   0.415   2.655   2.557  1.0834  0.0893  0.2551
 3363SOL    HW221552   0.396   2.682   2.692 -1.8072 -1.0139  0.6513
 3364SOL     OW21553   1.363   1.097   6.936 -0.0300 -0.3906 -0.0270
 3364SOL    HW121554   1.419   1.076   7.011  0.7606  0.3547 -0.4069
 3364SOL    HW221555   1.278   1.109   6.979  0.2799  0.1728  0.4250
 3365SOL     OW21556   2.578   3.352   6.713 -0.2292 -0.0758  0.8286
 3365SOL    HW121557   2.561   3.375   6.805 -1.8383  0.6680  0.3407
 3365SOL    HW221558   2.502   3.297   6.699  1.5572 -2.5229  0.7133
 3366SOL     OW21559   1.237   3.130   7.528 -0.2055  0.4746  0.1999
 3366SOL    HW121560   1.161   3.138   7.586 -0.6995 -1.9663 -0.0982
 3366SOL    HW221561   1.241   3.035   7.512 -1.5382  0.3304  0.6950
 3367SOL     OW21562   2.971   3.438  12.473 -0.6766  0.0148  0.4859
 3367SOL    HW121563   3.051   3.415  12.522 -0.8129 -2.2703 -0.3698
 3367SOL    HW221564   2.966   3.530  12.499  3.9347  0.4594 -0.2299
 3368SOL     OW21565   4.590   2.769   5.772 -0.4538 -0.1765  0.0416
 3368SOL    HW121566   4.635   2.750   5.690  0.6968  1.5225  0.2821
 3368SOL    HW221567   4.500   2.756   5.740 -0.8504 -1.4319  1.7186
 3369SOL     OW21568   0.070   1.385   7.617 -0.2008  0.2126  0.4712
 3369SOL    HW121569   0.157   1.362   7.651 -0.5733  0.0967  1.3476
 3369SOL    HW221570   0.075   1.481   7.610 -2.7263  0.0233 -3.9376
 3370SOL     OW21571   4.457   0.669  15.409  0.4649 -0.6053 -0.2944
 3370SOL    HW121572   4.492   0.743  15.360 -0.4312  0.6590  0.9578
 3370SOL    HW221573   4.507   0.674  15.491  0.3448 -0.7971 -0.2085
 3371SOL     OW21574   4.552   4.499   7.224  0.5273 -0.2549  1.0458
 3371SOL    HW121575   4.615   4.430   7.248  0.5275 -0.5973  0.0710
 3371SOL    HW221576   4.483   4.485   7.289  1.3333 -0.6745  1.8119
 3372SOL     OW21577   2.896   0.327   8.355 -0.0840  0.0203  0.1492
 3372SOL    HW121578   2.897   0.248   8.409  4.6365 -0.7273 -0.9992
 3372SOL    HW221579   2.945   0.296   8.278  0.2144  2.9291 -0.8322
 3373SOL     OW21580   0.397   1.043   8.812  0.2036  0.7968 -0.0774
 3373SOL    HW121581   0.430   0.953   8.812 -1.8024  0.0693 -0.2761
 3373SOL    HW221582   0.434   1.072   8.895  1.3589 -0.4152 -0.1502
 3374SOL     OW21583   0.601   3.921   0.189 -0.1281  0.0890  0.5310
 3374SOL    HW121584   0.582   3.862   0.262  2.4277  0.5980  1.6266
 3374SOL    HW221585   0.556   4.002   0.214  0.4633 -0.8187  4.5619
 3375SOL     OW21586   4.572   2.336   9.504  0.1971  0.1301  0.1379
 3375SOL    HW121587   4.575   2.241   9.502  2.8603  0.2088  0.3521
 3375SOL    HW221588   4.496   2.358   9.451 -0.5005 -0.2911  0.9578
 3376SOL     OW21589   0.989   4.084  10.009  0.4238  0.7232 -0.7078
 3376SOL    HW121590   0.958   4.033   9.934  0.2960  1.4686 -1.1647
 3376SOL    HW221591   0.921   4.152  10.012 -0.3138 -0.0740  1.2494
 3377SOL     OW21592   4.134   2.713   3.896 -0.1995 -0.4541 -0.5570
 3377SOL    HW121593   4.080   2.754   3.828 -1.0932  0.6973  0.8596
 3377SOL    HW221594   4.136   2.782   3.962  1.2004  0.0554 -1.1084
 3378SOL     OW21595   0.209   3.501   4.668  0.1334  0.3301 -0.2458
 3378SOL    HW121596   0.217   3.543   4.754  1.4947  1.2930 -0.8339
 3378SOL    HW221597   0.303   3.512   4.651 -0.0451  0.9558 -0.8173
 3379SOL     OW21598   0.500   4.153  15.284  0.0067 -0.2294  0.2002
 3379SOL    HW121599   0.452   4.224  15.327 -0.7188  0.0508 -1.0983
 3379SOL    HW221600   0.542   4.194  15.209  0.6764 -0.3515  0.5069
 3380SOL     OW21601   2.668   3.909  10.552 -0.3388 -0.3936  0.0536
 3380SOL    HW121602   2.620   3.827  10.541  0.7028 -1.0235  0.2411
 3380SOL    HW221603   2.619   3.960  10.488 -0.5437  1.1479  1.4240
 3381SOL     OW21604   3.653   2.664   5.227 -0.5706  0.1032  0.3352
 3381SOL    HW121605   3.564   2.669   5.261 -0.4635 -1.8561  0.8614
 3381SOL    HW221606   3.662   2.573   5.198 -1.0731  0.0525  0.3323
 3382SOL     OW21607   1.030   4.358   3.970  0.3131 -0.3409  0.5404
 3382SOL    HW121608   1.009   4.371   4.063 -1.0540 -0.2667  0.2152
 3382SOL    HW221609   0.946   4.319   3.946  0.2836 -1.3936  2.3183
 3383SOL     OW21610   1.116   2.051   4.243  0.2438  0.0982  1.3557
 3383SOL    HW121611   1.057   2.022   4.312  2.0662 -0.3407  2.7340
 3383SOL    HW221612   1.060   2.025   4.170  1.6070 -0.8119  0.6390
 3384SOL     OW21613   2.988   1.688  12.788  0.2125  0.6120  0.8396
 3384SOL    HW121614   3.019   1.778  12.779 -1.1793  0.9186 -0.9065
 3384SOL    HW221615   2.969   1.677  12.695  3.1548 -0.4623  0.3420
 3385SOL     OW21616   2.082   3.738   6.452 -0.3074  0.2296 -0.4952
 3385SOL    HW121617   2.177   3.733   6.458 -0.4031 -1.4796 -0.4507
 3385SOL    HW221618   2.062   3.701   6.366 -0.2091 -0.3170 -0.2793
 3386SOL     OW21619   0.359   3.658   5.545  0.1122 -0.2408 -0.6381
 3386SOL    HW121620   0.351   3.610   5.628 -0.6830 -1.7193 -1.5843
 3386SOL    HW221621   0.453   3.671   5.534  0.3554 -1.5985 -0.2410
 3387SOL     OW21622   2.646   4.155  14.897 -0.0473 -0.3168 -0.3603
 3387SOL    HW121623   2.554   4.160  14.922 -0.2489 -1.8141 -0.7932
 3387SOL    HW221624   2.678   4.081  14.948 -0.2623  1.9235  2.9934
 3388SOL     OW21625   3.605   3.251  10.748  0.1686  0.2837 -0.2001
 3388SOL    HW121626   3.590   3.316  10.680 -2.5390 -1.2802 -1.1067
 3388SOL    HW221627   3.679   3.293  10.792 -0.8943  2.4540 -0.5302
 3389SOL     OW21628   0.578   2.566   2.521  0.2168 -0.3848  0.3124
 3389SOL    HW121629   0.654   2.592   2.573  0.0599 -0.7300  0.7106
 3389SOL    HW221630   0.608   2.610   2.442 -2.9480  1.0374 -0.1087
 3390SOL     OW21631   0.261   0.468   2.183 -0.8166 -0.2630  0.5642
 3390SOL    HW121632   0.237   0.378   2.158  0.3651 -0.5116  0.3437
 3390SOL    HW221633   0.226   0.518   2.109 -3.2497 -0.5997  1.5058
 3391SOL     OW21634   3.133   3.841  10.653 -0.3520 -0.1340  0.1528
 3391SOL    HW121635   3.161   3.829  10.743 -0.3586 -1.5209 -0.0269
 3391SOL    HW221636   3.123   3.936  10.652 -3.0273 -0.3835  1.9090
 3392SOL     OW21637   2.194   1.240  16.052 -0.3200  0.3415  0.1155
 3392SOL    HW121638   2.219   1.149  16.031 -0.5463  0.5492 -1.0706
 3392SOL    HW221639   2.265   1.299  16.026 -0.8573  0.6005 -0.7773
 3393SOL     OW21640   4.090   0.080   5.822  0.2271  0.5698 -0.2740
 3393SOL    HW121641   4.130   0.166   5.836 -0.5574  0.8677  0.1468
 3393SOL    HW221642   4.004   0.092   5.861 -0.3952 -1.1686 -1.1001
 3394SOL     OW21643   3.793   2.072   6.140 -0.3492 -0.0835 -0.9076
 3394SOL    HW121644   3.880   2.087   6.104 -1.2749  1.4526 -2.5098
 3394SOL    HW221645   3.740   2.103   6.066 -0.0759  0.8808 -0.6883
 3395SOL     OW21646   3.650   3.391   6.441 -0.0042  0.3397  0.8238
 3395SOL    HW121647   3.663   3.296   6.443  0.4536  0.4146  1.8187
 3395SOL    HW221648   3.674   3.405   6.349  0.3278  1.7272  1.1203
 3396SOL     OW21649   1.609   2.088   4.734 -0.6519 -0.2777 -0.4060
 3396SOL    HW121650   1.654   2.103   4.817 -2.1049  0.7100  0.2153
 3396SOL    HW221651   1.601   2.175   4.695 -2.0680  0.3190  1.1621
 3397SOL     OW21652   1.761   0.323   7.153 -0.6294  0.9241 -0.3575
 3397SOL    HW121653   1.783   0.336   7.061 -1.6778 -0.1076 -0.7604
 3397SOL    HW221654   1.834   0.367   7.196 -1.0974  1.7504 -0.4136
 3398SOL     OW21655   0.288   0.417   0.275  0.4865  0.5508  0.2562
 3398SOL    HW121656   0.224   0.392   0.209 -0.0987 -1.3187  1.5067
 3398SOL    HW221657   0.360   0.353   0.269  1.5801  1.9553 -1.3377
 3399SOL     OW21658   2.183   3.086   4.206  0.4023  0.2466  0.4511
 3399SOL    HW121659   2.212   3.062   4.295  0.7653  0.0314  0.2777
 3399SOL    HW221660   2.115   3.020   4.193 -0.7593  1.6159 -0.3956
 3400SOL     OW21661   4.044   3.435   1.160 -0.6155 -0.1211  0.0847
 3400SOL    HW121662   4.073   3.353   1.200  0.3198  0.6026  0.8661
 3400SOL    HW221663   4.031   3.393   1.075 -0.8769 -1.2181  0.6709
 3401SOL     OW21664   0.604   3.171   6.064 -0.4615 -0.2825 -0.1032
 3401SOL    HW121665   0.609   3.169   5.968  2.6570 -2.5092  0.0769
 3401SOL    HW221666   0.548   3.245   6.085 -0.6245 -0.2480 -0.6596
 3402SOL     OW21667   4.009   2.824   7.670  0.3824  0.4762  0.4494
 3402SOL    HW121668   4.082   2.829   7.732  1.6204 -1.9336 -0.8269
 3402SOL    HW221669   3.934   2.805   7.726  1.2929 -3.1788  0.4268
 3403SOL     OW21670   0.681   2.791   6.645  0.1735 -0.1303  0.0371
 3403SOL    HW121671   0.736   2.847   6.700 -1.0193  0.3911  0.7029
 3403SOL    HW221672   0.613   2.770   6.709  0.2239 -0.0438  0.1197
 3404SOL     OW21673   0.423   1.954   9.261  0.0700  0.2106 -0.3330
 3404SOL    HW121674   0.430   2.046   9.236  0.1721  0.2275 -0.2436
 3404SOL    HW221675   0.328   1.954   9.251  0.2259  0.7993 -1.8212
 3405SOL     OW21676   1.264   0.750   1.223 -0.3122 -0.0693  0.2944
 3405SOL    HW121677   1.260   0.811   1.296  2.3755  0.0251  0.3385
 3405SOL    HW221678   1.228   0.670   1.263 -0.9942  0.4801  0.7698
 3406SOL     OW21679   3.196   2.354   3.313 -0.1146  0.8236 -0.1577
 3406SOL    HW121680   3.114   2.353   3.264 -0.6047  1.2772  0.6711
 3406SOL    HW221681   3.241   2.274   3.284  1.7906  2.0782 -0.7220
 3407SOL     OW21682   0.746   3.596   2.062 -0.5626  0.3465  0.1997
 3407SOL    HW121683   0.736   3.501   2.072  0.5181  0.2077 -0.0128
 3407SOL    HW221684   0.686   3.602   1.988 -0.6880 -2.4704  0.0702
 3408SOL     OW21685   0.469   3.655   2.760 -0.1147  0.0716  0.4893
 3408SOL    HW121686   0.454   3.572   2.714 -2.3812 -0.0739  1.5115
 3408SOL    HW221687   0.564   3.654   2.743 -0.1297  1.3051  0.3464
 3409SOL     OW21688   0.160   1.691   5.413  0.7378  0.1074 -0.5755
 3409SOL    HW121689   0.230   1.630   5.435  0.9360  0.4720 -0.1824
 3409SOL    HW221690   0.140   1.676   5.321 -0.7378  3.2407 -0.7596
 3410SOL     OW21691   4.246   0.244   8.110 -0.2363  0.2282 -0.5083
 3410SOL    HW121692   4.293   0.170   8.149 -0.1795  1.5027  1.8787
 3410SOL    HW221693   4.321   0.289   8.071  2.3934 -2.4235  1.4565
 3411SOL     OW21694   0.552   2.313   8.918 -0.5510  0.1773  0.4082
 3411SOL    HW121695   0.557   2.346   9.007  0.7202  0.8797  0.0822
 3411SOL    HW221696   0.600   2.378   8.867  1.0583 -2.3694 -1.3360
 3412SOL     OW21697   1.866   0.860   0.553  0.0105  0.1744  0.1103
 3412SOL    HW121698   1.879   0.932   0.615  2.1809  0.7194 -0.9894
 3412SOL    HW221699   1.951   0.869   0.511 -0.9256 -0.3451 -1.9105
 3413SOL     OW21700   1.472   2.410   7.604  0.1347 -0.6092  0.2757
 3413SOL    HW121701   1.503   2.335   7.553 -1.0098 -0.9309  0.0425
 3413SOL    HW221702   1.397   2.423   7.547 -0.5932 -1.6054  0.9905
 3414SOL     OW21703   0.393   2.330   2.581 -0.0697 -0.4565 -0.2742
 3414SOL    HW121704   0.414   2.259   2.520 -0.2090 -0.4065 -0.3810
 3414SOL    HW221705   0.453   2.396   2.546  0.6276  0.8843  3.4590
 3415SOL     OW21706   0.580   1.875   2.481  0.2423 -0.1403  0.2574
 3415SOL    HW121707   0.506   1.826   2.446  1.7333 -2.6507  0.6296
 3415SOL    HW221708   0.656   1.818   2.488  1.1618  1.0302 -0.0705
 3416SOL     OW21709   2.703   4.233   5.042 -0.3112  0.4647  0.2192
 3416SOL    HW121710   2.697   4.232   5.138 -0.3342 -0.3836  0.2102
 3416SOL    HW221711   2.724   4.143   5.018  0.6145  0.4832  0.9429
 3417SOL     OW21712   1.225   2.644   1.144  0.7450 -0.0576 -0.4080
 3417SOL    HW121713   1.132   2.665   1.130  1.1356  1.2385 -1.0508
 3417SOL    HW221714   1.227   2.671   1.236  1.5330  0.9976 -0.7371
 3418SOL     OW21715   0.760   3.977   2.842  0.9182 -0.6641 -0.0201
 3418SOL    HW121716   0.677   4.013   2.813  1.0618  1.2298  1.8893
 3418SOL    HW221717   0.813   4.054   2.865 -1.4975  0.9025  0.2725
 3419SOL     OW21718   2.554   1.405  11.140 -0.4081 -0.1703 -0.5486
 3419SOL    HW121719   2.600   1.395  11.057  1.0533  3.3907 -0.1605
 3419SOL    HW221720   2.462   1.408  11.114 -0.1424  3.1869 -1.0602
 3420SOL     OW21721   1.423   2.986   1.031 -0.4892  0.4194 -0.8671
 3420SOL    HW121722   1.471   2.931   0.969  0.2138  2.5069 -2.1597
 3420SOL    HW221723   1.438   2.935   1.111 -1.5731  0.8461 -0.3864
 3421SOL     OW21724   3.344   4.223   0.828 -0.7824 -0.1042  0.0714
 3421SOL    HW121725   3.288   4.265   0.763  0.2251 -0.1749 -0.8516
 3421SOL    HW221726   3.432   4.231   0.790  0.5817 -1.5221  2.9333
 3422SOL     OW21727   4.390   0.703   5.505  0.3879  0.4751 -0.0616
 3422SOL    HW121728   4.456   0.754   5.552  0.1898  1.5584 -0.9765
 3422SOL    HW221729   4.327   0.774   5.505 -0.4105 -0.2429 -4.2695
 3423SOL     OW21730   3.896   0.067   8.642  0.4532  0.7379  0.7155
 3423SOL    HW121731   3.989   0.091   8.646  0.0646  2.1635  1.3447
 3423SOL    HW221732   3.871   0.143   8.589 -0.4334 -0.6203 -0.8068
 3424SOL     OW21733   1.577   2.659  10.994  0.7831 -0.1695 -0.2851
 3424SOL    HW121734   1.607   2.668  11.084 -0.7396 -1.6696  0.3766
 3424SOL    HW221735   1.649   2.708  10.955 -0.6879  0.6790 -2.0048
 3425SOL     OW21736   2.286   0.870   8.569  0.1223 -0.4335  0.6137
 3425SOL    HW121737   2.218   0.803   8.561  0.1946 -0.3710 -0.5434
 3425SOL    HW221738   2.229   0.947   8.564  0.3867 -0.3071 -0.3437
 3426SOL     OW21739   3.808   0.051  11.200  0.3928  0.4246 -0.2874
 3426SOL    HW121740   3.715   0.063  11.179  0.0994 -0.1288  0.6943
 3426SOL    HW221741   3.857   0.081  11.124  1.6984 -1.9573 -0.3791
 3427SOL     OW21742   0.114   2.500   2.216 -0.0942  0.0701  0.0930
 3427SOL    HW121743   0.093   2.409   2.237 -0.5271  0.3748  0.9680
 3427SOL    HW221744   0.138   2.496   2.123  2.8241 -1.5502  0.9432
 3428SOL     OW21745   2.766   0.158   3.670  0.1289 -0.1121 -0.0469
 3428SOL    HW121746   2.753   0.131   3.579 -0.2280 -1.4029  0.3873
 3428SOL    HW221747   2.857   0.183   3.651  0.5917 -0.8512  1.1356
 3429SOL     OW21748   0.488   4.701  14.275  0.0387  0.3608 -0.0689
 3429SOL    HW121749   0.392   4.698  14.278  0.1958 -2.7523  1.4695
 3429SOL    HW221750   0.506   0.031  14.356  0.5602  1.4792 -0.8464
 3430SOL     OW21751   3.822   4.455   0.046 -0.0553  0.3266  0.2553
 3430SOL    HW121752   3.861   4.518   0.106 -1.0596  0.9169  0.2931
 3430SOL    HW221753   3.870   4.379   0.078 -0.4534 -0.2172 -0.4420
 3431SOL     OW21754   4.258   2.479   0.748  0.2163  0.4764  0.0515
 3431SOL    HW121755   4.226   2.406   0.695  0.4328  0.8710 -0.6267
 3431SOL    HW221756   4.335   2.517   0.704 -1.2487  1.8328 -1.3554
 3432SOL     OW21757   4.088   2.854   6.237 -0.0915  0.0680 -0.3024
 3432SOL    HW121758   4.028   2.919   6.203 -0.8427 -0.4582  0.0218
 3432SOL    HW221759   4.143   2.905   6.296 -0.0423 -0.4641  0.1084
 3433SOL     OW21760   3.695   1.224  17.371  0.2502 -0.6699  0.8205
 3433SOL    HW121761   3.685   1.141  17.419 -0.2178 -1.5840 -0.8416
 3433SOL    HW221762   3.780   1.250  17.408  0.5897  1.3647 -1.4046
 3434SOL     OW21763   3.141   0.657   5.555  0.4630  0.1111 -0.2629
 3434SOL    HW121764   3.055   0.691   5.580  0.9979  1.7419 -0.6641
 3434SOL    HW221765   3.122   0.565   5.539  1.6387  0.1703 -1.9699
 3435SOL     OW21766   0.233   3.851   2.896 -0.8904 -0.1976 -0.1590
 3435SOL    HW121767   0.309   3.840   2.839 -1.2224  1.6182 -0.9504
 3435SOL    HW221768   0.161   3.871   2.836 -1.5103 -1.0344  0.3028
 3436SOL     OW21769   1.936   3.323   7.980 -0.3367  0.0689 -0.4322
 3436SOL    HW121770   1.974   3.409   8.001  2.1720 -1.1468  0.0289
 3436SOL    HW221771   2.015   3.273   7.959  0.1626  1.4326 -1.8750
 3437SOL     OW21772   1.983   3.590   6.237  0.2908  0.0084  0.2242
 3437SOL    HW121773   1.896   3.584   6.198 -0.3491  0.2264  1.6394
 3437SOL    HW221774   2.024   3.514   6.196  2.7500  2.2297 -1.4683
 3438SOL     OW21775   4.661   1.064   2.684 -0.3321  0.3343 -0.4409
 3438SOL    HW121776   4.637   1.128   2.617 -1.4166  0.2510 -0.1348
 3438SOL    HW221777   4.652   0.980   2.639  0.0578  0.4803 -0.7893
 3439SOL     OW21778   4.336   3.721   2.867  0.7589  0.5149  0.1225
 3439SOL    HW121779   4.417   3.673   2.852  0.1361  0.4560 -3.0110
 3439SOL    HW221780   4.363   3.813   2.861  3.8734 -0.7084 -3.7499
 3440SOL     OW21781   3.923   3.864  14.633  0.6096 -0.1137 -0.2463
 3440SOL    HW121782   3.898   3.940  14.686 -2.3160 -0.7666 -0.6635
 3440SOL    HW221783   3.903   3.902  14.547 -2.4798  0.6632  0.7931
 3441SOL     OW21784   2.754   3.330   3.557 -0.4523  0.3253 -0.0851
 3441SOL    HW121785   2.719   3.380   3.483  1.5522 -0.4456 -1.5780
 3441SOL    HW221786   2.750   3.245   3.512  1.0245  0.4631 -0.4830
 3442SOL     OW21787   1.862   2.556   3.047 -0.2765  0.0642  0.0282
 3442SOL    HW121788   1.860   2.498   3.123  2.7658 -0.5149 -0.3198
 3442SOL    HW221789   1.843   2.489   2.981  2.0849 -0.8250  0.2319
 3443SOL     OW21790   1.207   3.274   2.777 -0.2959  0.1206  0.4697
 3443SOL    HW121791   1.234   3.363   2.754 -0.4836  0.4049  1.3414
 3443SOL    HW221792   1.182   3.243   2.690 -0.1706 -0.9611  0.8198
 3444SOL     OW21793   1.914   1.488   8.079 -0.3031  0.2702  0.0988
 3444SOL    HW121794   1.995   1.526   8.046 -0.3381  1.2964  1.1871
 3444SOL    HW221795   1.861   1.567   8.090 -0.2362  0.0883  1.8428
 3445SOL     OW21796   2.938   1.239   8.004  0.3552  0.4858  0.2149
 3445SOL    HW121797   2.913   1.298   8.075  3.3464  0.0365  1.6356
 3445SOL    HW221798   2.891   1.155   8.006  2.3443 -0.6661 -1.3398
 3446SOL     OW21799   3.844   1.266   4.171  0.1988 -0.5625 -0.1173
 3446SOL    HW121800   3.827   1.268   4.266 -1.2528  0.5341 -0.3929
 3446SOL    HW221801   3.933   1.302   4.176  0.1713 -0.3541 -1.2059
 3447SOL     OW21802   3.013   3.344   4.724 -0.0748  0.1126  0.4287
 3447SOL    HW121803   2.923   3.357   4.754 -0.7256 -3.1655 -0.1005
 3447SOL    HW221804   3.001   3.295   4.643  1.2210  1.8453 -0.8048
 3448SOL     OW21805   1.570   0.152  12.196  0.3199  0.4005 -0.3169
 3448SOL    HW121806   1.486   0.107  12.211 -0.2533  0.6704 -2.7117
 3448SOL    HW221807   1.625   0.120  12.267 -0.0315 -0.6083 -0.5029
 3449SOL     OW21808   3.816   3.112   2.698  0.3770 -0.2691  0.7475
 3449SOL    HW121809   3.769   3.195   2.688  0.6138 -0.3250 -0.8896
 3449SOL    HW221810   3.911   3.122   2.692  0.6829 -1.7717  3.1993
 3450SOL     OW21811   2.898   2.185  13.877  0.0979 -0.0728 -0.0277
 3450SOL    HW121812   2.957   2.171  13.950 -0.8235  1.2472  0.9712
 3450SOL    HW221813   2.817   2.147  13.912 -1.0300  3.1638  0.9075
 3451SOL     OW21814   3.398   1.040   1.185 -0.3175 -0.2586  0.3767
 3451SOL    HW121815   3.384   0.945   1.186  1.0571 -0.4605 -0.6033
 3451SOL    HW221816   3.335   1.061   1.255 -2.0059 -3.0378 -0.2934
 3452SOL     OW21817   0.316   4.481   4.922  0.0725 -0.7532  0.2524
 3452SOL    HW121818   0.390   4.478   4.982 -0.4300 -1.5385  0.8343
 3452SOL    HW221819   0.244   4.510   4.978  1.3023  0.2070  1.3342
 3453SOL     OW21820   1.258   0.481  13.600 -0.6108  0.4183  0.2058
 3453SOL    HW121821   1.341   0.441  13.574 -1.5471  0.9965 -3.6594
 3453SOL    HW221822   1.220   0.510  13.517  1.0642  0.2303 -0.6388
 3454SOL     OW21823   1.706   1.472   4.878 -0.5326 -0.0884  0.8092
 3454SOL    HW121824   1.636   1.428   4.927  1.6214 -2.7012  1.5354
 3454SOL    HW221825   1.773   1.404   4.877 -0.4052  0.1010 -1.7078
 3455SOL     OW21826   1.465   2.517   6.565  0.0535  0.1025  0.7206
 3455SOL    HW121827   1.376   2.503   6.531 -0.4817  0.9652  1.7779
 3455SOL    HW221828   1.509   2.515   6.480  0.8752  0.0249  1.1550
 3456SOL     OW21829   0.618   3.733   5.656  0.1922 -0.4695 -0.0536
 3456SOL    HW121830   0.613   3.730   5.752 -1.0015 -2.1845 -0.1707
 3456SOL    HW221831   0.684   3.802   5.648 -0.4801  0.4192  2.0392
 3457SOL     OW21832   3.220   1.821   3.716  0.1468 -0.4130 -0.6605
 3457SOL    HW121833   3.177   1.813   3.630 -0.8152 -1.1949 -0.1074
 3457SOL    HW221834   3.172   1.767   3.778 -2.8462  1.3188 -1.4754
 3458SOL     OW21835   3.685   1.051   3.213 -0.0847 -0.1685  0.1478
 3458SOL    HW121836   3.734   0.987   3.161  0.6619 -0.2608  0.9767
 3458SOL    HW221837   3.598   1.035   3.177 -0.1124  1.5965 -0.5925
 3459SOL     OW21838   2.154   3.633  12.019 -0.0952 -0.2076  0.1137
 3459SOL    HW121839   2.081   3.613  12.077 -1.4942 -0.3641 -1.7172
 3459SOL    HW221840   2.215   3.668  12.084 -0.9580 -1.2895  1.5061
 3460SOL     OW21841   0.789   2.705   6.283  0.2984  0.0264  0.0048
 3460SOL    HW121842   0.875   2.672   6.310 -0.2337 -1.1139  0.3231
 3460SOL    HW221843   0.824   2.740   6.201  1.8638  0.3659  0.8246
 3461SOL     OW21844   2.883   2.652  12.487 -0.4842 -0.4917  0.2416
 3461SOL    HW121845   2.893   2.599  12.408 -1.2032 -0.5586  0.2003
 3461SOL    HW221846   2.833   2.594  12.545 -0.0843 -0.2974  0.7870
 3462SOL     OW21847   3.879   0.694   7.895 -0.4853  0.2081 -0.0059
 3462SOL    HW121848   3.928   0.628   7.846 -0.9338 -0.1310 -0.0053
 3462SOL    HW221849   3.951   0.731   7.945 -0.8833 -0.8280  1.3382
 3463SOL     OW21850   0.337   2.899  10.609 -0.3552 -0.1309 -0.4907
 3463SOL    HW121851   0.257   2.911  10.557 -0.0889 -0.5281 -0.9912
 3463SOL    HW221852   0.357   2.808  10.587  3.7946  1.0626 -1.6486
 3464SOL     OW21853   1.299   1.211   8.184  0.2112  0.2487  1.0312
 3464SOL    HW121854   1.323   1.139   8.124  0.3562  0.1064  1.2593
 3464SOL    HW221855   1.271   1.163   8.262  0.1775 -4.2598 -1.7045
 3465SOL     OW21856   4.565   2.273   2.512  0.0730  0.3168 -0.3240
 3465SOL    HW121857   4.651   2.279   2.471 -0.9795  1.3509 -2.4205
 3465SOL    HW221858   4.518   2.291   2.430 -0.8760 -0.3238  0.0801
 3466SOL     OW21859   3.571   0.381   0.730  0.4135 -0.6143  0.0258
 3466SOL    HW121860   3.507   0.450   0.716  0.5487 -1.0241 -2.5364
 3466SOL    HW221861   3.608   0.401   0.816  0.5852 -0.7214 -0.0217
 3467SOL     OW21862   0.856   4.542   2.589 -0.5257 -0.2976  0.0452
 3467SOL    HW121863   0.795   4.516   2.659  1.5072 -0.6311  1.6903
 3467SOL    HW221864   0.847   4.635   2.608 -3.5644 -0.4821 -0.5573
 3468SOL     OW21865   4.024   1.380  16.124 -0.0279 -0.0232 -0.1300
 3468SOL    HW121866   3.972   1.322  16.180  0.4916 -0.2436  0.1175
 3468SOL    HW221867   4.003   1.455  16.179  1.0657  1.5817 -1.9353
 3469SOL     OW21868   3.939   2.827   4.866 -0.4451  0.3656 -0.4305
 3469SOL    HW121869   3.871   2.761   4.884 -1.2695  1.5079  0.7257
 3469SOL    HW221870   3.989   2.815   4.947  0.5252  1.6696 -0.8387
 3470SOL     OW21871   0.510   3.260   5.726 -0.4886  0.2282  0.3909
 3470SOL    HW121872   0.459   3.215   5.793  0.1001 -0.7521  0.1774
 3470SOL    HW221873   0.440   3.297   5.673 -1.4247  0.9387  2.1166
 3471SOL     OW21874   2.317   1.783   8.236  0.1538 -0.7198  0.3592
 3471SOL    HW121875   2.370   1.859   8.260 -0.0687 -0.1710 -0.8846
 3471SOL    HW221876   2.250   1.771   8.303 -0.7018  1.5385 -0.0933
 3472SOL     OW21877   3.741   3.982   3.453 -0.3286  0.6589  0.3645
 3472SOL    HW121878   3.769   4.031   3.530  0.5621 -2.2918  1.9329
 3472SOL    HW221879   3.817   3.989   3.394  0.6451 -0.1595  1.5135
 3473SOL     OW21880   2.866   1.424   3.531  0.1494 -0.1397 -0.5518
 3473SOL    HW121881   2.841   1.469   3.611 -0.2401  0.2864 -0.9150
 3473SOL    HW221882   2.954   1.454   3.507  0.2648  2.7956  3.5764
 3474SOL     OW21883   1.373   2.355   3.646 -0.4048 -0.3240  0.0232
 3474SOL    HW121884   1.432   2.395   3.710  0.0265 -0.5169 -0.2553
 3474SOL    HW221885   1.431   2.280   3.629  0.9747  0.4881  1.1920
 3475SOL     OW21886   3.633   3.816   1.536 -0.2430 -0.1059  0.7180
 3475SOL    HW121887   3.722   3.852   1.547  0.1102 -0.7455 -0.0462
 3475SOL    HW221888   3.600   3.833   1.624 -3.5649  1.2702 -0.7921
 3476SOL     OW21889   0.411   3.945   5.203  0.2855 -0.4323  0.1971
 3476SOL    HW121890   0.485   3.951   5.143 -1.5813 -0.7857 -2.1232
 3476SOL    HW221891   0.334   3.982   5.159  0.8030  0.4835  0.0722
 3477SOL     OW21892   2.209   0.735  10.768  0.1141 -0.1705 -0.0714
 3477SOL    HW121893   2.149   0.722  10.695 -1.7994 -2.0632  1.8308
 3477SOL    HW221894   2.188   0.664  10.829 -0.1508 -0.6884 -0.7710
 3478SOL     OW21895   3.176   0.020   8.385 -0.3773  0.1987 -0.3468
 3478SOL    HW121896   3.255   0.065   8.354 -0.1700 -0.2051 -0.3953
 3478SOL    HW221897   3.181   4.652   8.344  1.7727 -0.1536  0.6478
 3479SOL     OW21898   2.326   4.138   5.894  0.3526  0.0384 -0.0073
 3479SOL    HW121899   2.377   4.191   5.956  0.4239 -0.5475  0.4349
 3479SOL    HW221900   2.239   4.162   5.926  0.4145  0.3212 -0.0475
 3480SOL     OW21901   4.020   3.761   5.720  0.9210  0.6119  0.0549
 3480SOL    HW121902   3.972   3.833   5.677 -0.0741 -0.3366 -0.4132
 3480SOL    HW221903   4.082   3.806   5.777  0.1030 -1.4953  2.5777
 3481SOL     OW21904   0.092   2.945   0.350 -0.0034  0.2736  0.4117
 3481SOL    HW121905   0.045   3.027   0.365 -1.0948 -0.0932 -1.0710
 3481SOL    HW221906   0.071   2.890   0.425 -1.9234  0.9862  0.4011
 3482SOL     OW21907   3.022   0.875   3.379  0.0428 -0.5086 -0.7690
 3482SOL    HW121908   3.075   0.894   3.301 -3.0987 -0.1852 -2.8226
 3482SOL    HW221909   3.037   0.959   3.423 -0.3297 -0.7718 -0.1407
 3483SOL     OW21910   3.095   1.733   5.538  0.4110  0.2473 -0.6112
 3483SOL    HW121911   3.073   1.780   5.618  0.0740  0.8597 -1.0591
 3483SOL    HW221912   3.100   1.805   5.475 -1.9777  0.6939 -0.2586
 3484SOL     OW21913   3.622   2.298   7.761 -0.8648  0.5510 -0.3421
 3484SOL    HW121914   3.661   2.216   7.789  0.4021  1.2993  0.0768
 3484SOL    HW221915   3.701   2.331   7.719 -2.6628  2.0236 -2.5340
 3485SOL     OW21916   1.306   4.162   9.922  0.5563  0.0844  0.4216
 3485SOL    HW121917   1.401   4.174   9.926  0.7969 -0.9202 -2.0860
 3485SOL    HW221918   1.287   4.135   9.832 -2.1104  1.2074  0.6544
 3486SOL     OW21919   3.521   2.438  15.714  0.1163  0.1606 -0.1744
 3486SOL    HW121920   3.600   2.388  15.735 -0.4347 -0.2880  0.7866
 3486SOL    HW221921   3.469   2.434  15.794  0.9818 -1.9768  0.2772
 3487SOL     OW21922   0.200   1.552  16.770  0.0817  0.2072  0.5020
 3487SOL    HW121923   0.240   1.537  16.685 -0.7769 -4.7365  1.0156
 3487SOL    HW221924   0.230   1.478  16.822  1.2393 -0.5617 -1.2806
 3488SOL     OW21925   2.682   3.441  10.052 -0.0231  0.0013 -0.0568
 3488SOL    HW121926   2.762   3.448  10.001  0.2325  2.4776  0.6883
 3488SOL    HW221927   2.637   3.513  10.008  1.0198  0.0399 -1.0645
 3489SOL     OW21928   4.448   0.045   4.180 -0.0585 -0.0519 -0.0388
 3489SOL    HW121929   4.426   0.137   4.196  1.8490  0.4577 -0.3421
 3489SOL    HW221930   4.362   0.014   4.153  0.6378 -1.2480 -0.8977
 3490SOL     OW21931   2.803   1.545   8.575 -0.0661  0.2705  0.0551
 3490SOL    HW121932   2.852   1.584   8.648 -0.9576 -0.7707  1.2003
 3490SOL    HW221933   2.774   1.462   8.612  2.3920 -0.2487  0.8138
 3491SOL     OW21934   3.435   0.561  10.673  0.3527  0.1671 -0.1010
 3491SOL    HW121935   3.437   0.499  10.746  0.0199  2.2637  1.6639
 3491SOL    HW221936   3.486   0.631  10.713  1.3129 -0.2761 -0.5419
 3492SOL     OW21937   1.440   3.897   5.561 -0.2952  0.1248  0.3744
 3492SOL    HW121938   1.386   3.945   5.498 -0.2565  0.5591  0.6747
 3492SOL    HW221939   1.493   3.837   5.510  2.5126  1.8981  1.1900
 3493SOL     OW21940   1.829   1.614   1.550  0.3084 -0.5350  0.1550
 3493SOL    HW121941   1.751   1.660   1.580 -0.4598 -1.4120 -0.5235
 3493SOL    HW221942   1.892   1.651   1.612 -0.3851 -0.7716  0.9943
 3494SOL     OW21943   1.426   3.738  12.241  0.8057 -0.0219  0.8755
 3494SOL    HW121944   1.452   3.829  12.225  0.1987  0.1911  1.0985
 3494SOL    HW221945   1.332   3.754  12.253  0.5615 -0.6939 -0.1949
 3495SOL     OW21946   4.628   0.467   3.518 -0.7121  0.1187 -0.3734
 3495SOL    HW121947   4.547   0.477   3.568  0.8117  0.6977  1.9973
 3495SOL    HW221948   4.688   0.480   3.592 -1.2047  0.5503 -0.0511
 3496SOL     OW21949   4.033   3.674   0.866  0.4881  0.1163  0.1953
 3496SOL    HW121950   4.044   3.748   0.807 -0.1812  0.6169  0.6896
 3496SOL    HW221951   4.070   3.604   0.813 -0.3628 -1.1276  1.2292
 3497SOL     OW21952   3.915   3.164   7.029 -0.4535 -1.0483  0.1211
 3497SOL    HW121953   3.821   3.162   7.045 -0.5402  1.0430 -0.1609
 3497SOL    HW221954   3.926   3.234   6.965  1.6326 -1.1477  0.3696
 3498SOL     OW21955   0.177   1.968  12.348 -0.6255 -0.4485  0.4324
 3498SOL    HW121956   0.111   2.023  12.305  1.1487  0.9505 -0.5010
 3498SOL    HW221957   0.224   1.945  12.268  0.2312 -2.6888  1.6068
 3499SOL     OW21958   3.363   4.344   9.996  0.6881  0.4525  0.2181
 3499SOL    HW121959   3.394   4.264   9.955  0.7234  0.3005  0.5375
 3499SOL    HW221960   3.332   4.306  10.079  0.2870 -2.1872 -1.1525
 3500SOL     OW21961   3.546   3.212   2.655  0.4207 -0.3925 -0.3126
 3500SOL    HW121962   3.522   3.260   2.576 -2.9633 -1.5478  0.0222
 3500SOL    HW221963   3.524   3.122   2.631 -0.1239 -0.5017  0.6215
 3501SOL     OW21964   1.246   4.385   7.456 -0.8947 -0.1633  0.1691
 3501SOL    HW121965   1.260   4.475   7.429  0.9475 -0.9564 -1.5175
 3501SOL    HW221966   1.297   4.336   7.391  0.2031 -0.5761  1.3331
 3502SOL     OW21967   3.012   4.550   4.963  0.0782 -0.1236 -0.5348
 3502SOL    HW121968   2.949   4.604   5.010 -0.5500 -0.7704 -0.6255
 3502SOL    HW221969   3.062   4.608   4.906 -1.3777  2.6110  1.0162
 3503SOL     OW21970   0.355   3.530   6.578 -0.1048 -0.3607  0.0071
 3503SOL    HW121971   0.269   3.552   6.612 -0.6572 -1.1963 -0.8542
 3503SOL    HW221972   0.391   3.508   6.664 -0.3757  0.4012  0.3159
 3504SOL     OW21973   4.122   0.129  13.738 -0.0449 -0.6214  0.4033
 3504SOL    HW121974   4.136   0.102  13.647  0.7920 -1.7393  0.8653
 3504SOL    HW221975   4.198   0.089  13.779  0.3021  0.6545  1.0096
 3505SOL     OW21976   4.651   2.433   3.077  0.9114  0.1846  0.5869
 3505SOL    HW121977   4.586   2.454   3.010  2.2203  1.1259 -0.3833
 3505SOL    HW221978   4.655   2.513   3.129  1.4529 -0.4966  1.5954
 3506SOL     OW21979   4.380   3.171   4.470 -0.3557 -0.3757  0.2985
 3506SOL    HW121980   4.352   3.199   4.558  0.8482  0.7908  0.3023
 3506SOL    HW221981   4.451   3.113   4.498 -0.7117 -2.1765 -2.5981
 3507SOL     OW21982   3.134   0.152  10.342  0.5471 -0.0012 -0.7910
 3507SOL    HW121983   3.217   0.178  10.303  0.7461 -1.1673 -1.1538
 3507SOL    HW221984   3.164   0.143  10.432  2.8008  1.1862 -1.4393
 3508SOL     OW21985   3.862   2.618   3.947  0.4490  0.0024  0.1084
 3508SOL    HW121986   3.951   2.654   3.950  0.7740 -0.7414 -0.6059
 3508SOL    HW221987   3.878   2.523   3.946 -2.0987 -0.4055 -1.7423
 3509SOL     OW21988   1.377   0.568   8.054 -0.3370  0.2860  0.9980
 3509SOL    HW121989   1.287   0.572   8.021 -0.7256 -3.5584  1.5727
 3509SOL    HW221990   1.374   0.492   8.112 -1.9076 -0.3457  0.0954
 3510SOL     OW21991   1.384   1.483   4.273  0.4927 -0.4111 -0.7562
 3510SOL    HW121992   1.468   1.470   4.318  0.5034  0.3970 -0.5289
 3510SOL    HW221993   1.318   1.458   4.338 -0.7643  2.1397 -1.0579
 3511SOL     OW21994   1.617   1.299  13.892 -0.3825  0.0938 -0.6269
 3511SOL    HW121995   1.556   1.356  13.938 -0.8889 -0.8052 -0.1749
 3511SOL    HW221996   1.671   1.367  13.851 -2.0655  2.8958  1.8216
 3512SOL     OW21997   3.527   2.164   9.613 -0.0200 -0.2060  0.1966
 3512SOL    HW121998   3.582   2.241   9.605  0.5296 -0.7596 -1.3789
 3512SOL    HW221999   3.573   2.111   9.679 -0.8405 -2.9207 -1.3928
 3513SOL     OW22000   3.593   1.436   4.602 -0.3197 -0.5075  0.1336
 3513SOL    HW122001   3.646   1.478   4.535  1.7103 -3.1791  0.0619
 3513SOL    HW222002   3.524   1.395   4.551  1.4388 -2.2283 -0.8585
 3514SOL     OW22003   2.087   4.694   7.517  0.0187  0.1105 -0.1526
 3514SOL    HW122004   2.136   4.672   7.438 -1.1435 -0.1834 -0.8038
 3514SOL    HW222005   2.002   0.008   7.485 -0.0154 -1.3146 -1.4570
 3515SOL     OW22006   0.638   3.361   9.361  0.0343  0.0071 -0.1096
 3515SOL    HW122007   0.573   3.423   9.331 -1.3930 -1.1889  0.5026
 3515SOL    HW222008   0.618   3.281   9.312  5.4294 -0.6228 -1.2709
 3516SOL     OW22009   0.129   0.894   4.156 -0.8829  0.3347 -0.0154
 3516SOL    HW122010   0.075   0.816   4.170  0.7127 -0.9228 -0.8944
 3516SOL    HW222011   0.183   0.890   4.235  0.5303  0.0591 -1.0075
 3517SOL     OW22012   2.304   1.775   7.001 -0.1561  0.2712  0.6145
 3517SOL    HW122013   2.281   1.682   7.002 -1.5853  0.6376  1.8592
 3517SOL    HW222014   2.399   1.767   6.993 -0.2932 -0.7850  0.0114
 3518SOL     OW22015   1.180   4.268   2.715 -0.0363  0.2274  0.1596
 3518SOL    HW122016   1.121   4.211   2.664  0.1798  2.5704 -2.7159
 3518SOL    HW222017   1.233   4.316   2.652  1.0085 -0.1500  0.7563
 3519SOL     OW22018   0.727   3.638  16.612  0.7248  0.5419 -0.6218
 3519SOL    HW122019   0.758   3.552  16.641  2.2971  1.2540 -0.2381
 3519SOL    HW222020   0.669   3.614  16.540  1.0906 -0.7361 -0.4892
 3520SOL     OW22021   3.359   2.557   3.928  0.3382  0.4871  0.4757
 3520SOL    HW122022   3.366   2.567   4.023  0.3204 -1.9325  0.7275
 3520SOL    HW222023   3.420   2.487   3.907  0.3670  0.7283 -0.2489
 3521SOL     OW22024   2.161   1.105   7.700 -0.1300  0.0749  0.2677
 3521SOL    HW122025   2.123   1.182   7.659  1.8291  1.7318  1.6007
 3521SOL    HW222026   2.081   1.067   7.738  0.0380  0.0497  0.5981
 3522SOL     OW22027   1.581   4.583   2.554  0.6136  0.2351 -0.6116
 3522SOL    HW122028   1.616   4.496   2.570  1.4285  0.7426  0.3769
 3522SOL    HW222029   1.653   4.635   2.592  0.6854 -2.3820  2.7743
 3523SOL     OW22030   0.400   1.713   6.928  0.0184  0.3663 -0.0943
 3523SOL    HW122031   0.345   1.783   6.894 -0.4454  1.0215  2.0504
 3523SOL    HW222032   0.443   1.762   6.998  1.4590  0.2644 -0.9055
 3524SOL     OW22033   3.515   3.632  10.760 -0.4521  0.5614  0.0640
 3524SOL    HW122034   3.609   3.628  10.774 -0.3604  0.7192 -0.5139
 3524SOL    HW222035   3.484   3.586  10.838 -0.7297  1.1017  0.2715
 3525SOL     OW22036   2.902   3.722  17.617  0.1269  0.2504  0.1855
 3525SOL    HW122037   2.930   3.781  17.548  1.6635 -1.3993 -0.5898
 3525SOL    HW222038   2.932   3.770   0.021 -0.9732  2.5703 -0.8161
 3526SOL     OW22039   2.180   4.098   8.445  0.6755  0.6643 -0.6830
 3526SOL    HW122040   2.235   4.157   8.395 -1.7489  3.9152  0.5190
 3526SOL    HW222041   2.188   4.026   8.381  0.8139  0.4441 -0.4183
 3527SOL     OW22042   0.530   3.805   1.624  0.3927  0.2504 -0.0216
 3527SOL    HW122043   0.514   3.871   1.691 -0.2697 -0.1697  0.2310
 3527SOL    HW222044   0.570   3.731   1.670 -1.4539 -0.7607 -0.0498
 3528SOL     OW22045   0.677   3.938  16.622  0.4441 -0.3781  0.1756
 3528SOL    HW122046   0.685   3.951  16.527 -2.3174 -0.5047 -0.0607
 3528SOL    HW222047   0.666   3.844  16.633 -1.4451 -0.2385 -0.5991
 3529SOL     OW22048   2.798   2.761   7.590 -0.5634 -0.0064  0.3866
 3529SOL    HW122049   2.822   2.779   7.499 -0.8815 -2.2024 -0.1199
 3529SOL    HW222050   2.862   2.807   7.644  0.6836  0.4862 -1.5347
 3530SOL     OW22051   1.880   2.871   7.547 -0.5181 -0.1373 -0.5008
 3530SOL    HW122052   1.846   2.960   7.547  1.0387  0.4654  0.7493
 3530SOL    HW222053   1.812   2.829   7.600  0.5704 -0.2757  0.7820
 3531SOL     OW22054   1.144   2.914  16.970  0.1571 -0.6042 -0.3297
 3531SOL    HW122055   1.062   2.962  16.972 -0.2001 -1.1715 -1.2436
 3531SOL    HW222056   1.166   2.921  17.063 -1.5106  0.0128  0.0167
 3532SOL     OW22057   0.021   3.458   5.615  0.3185  0.6309 -0.0097
 3532SOL    HW122058   4.660   3.404   5.618  0.0072  1.1864  1.6790
 3532SOL    HW222059   0.002   3.523   5.548  1.4726  0.3515 -0.6195
 3533SOL     OW22060   2.428   2.108   0.735 -0.1750 -0.0921  0.7616
 3533SOL    HW122061   2.366   2.095   0.807 -0.7148  2.2297  0.6999
 3533SOL    HW222062   2.508   2.151   0.765 -0.0027  1.4289 -1.8838
 3534SOL     OW22063   4.413   1.241   4.942  0.3949 -0.4010 -0.1724
 3534SOL    HW122064   4.341   1.223   5.003 -0.3981  0.0642 -0.9707
 3534SOL    HW222065   4.490   1.236   4.999 -1.3299 -3.0600  1.9669
 3535SOL     OW22066   1.927   2.882   7.181  0.5643 -0.0031  0.4747
 3535SOL    HW122067   1.901   2.972   7.202  1.1483 -0.2934  2.4505
 3535SOL    HW222068   1.905   2.832   7.259 -1.3608 -0.9777 -0.7059
 3536SOL     OW22069   2.465   3.148  13.448  0.2443 -0.2921 -0.3610
 3536SOL    HW122070   2.463   3.091  13.524  2.0578  2.5243  1.8222
 3536SOL    HW222071   2.537   3.211  13.452  0.4130 -0.6023  1.4392
 3537SOL     OW22072   2.931   2.187  15.275 -0.1742  0.5911  0.0747
 3537SOL    HW122073   3.023   2.207  15.291 -0.4120  0.7817  1.2309
 3537SOL    HW222074   2.898   2.237  15.200 -2.6512  0.2127  0.9158
 3538SOL     OW22075   4.221   3.279  11.597  0.2049 -0.4890  0.3366
 3538SOL    HW122076   4.140   3.318  11.630  1.7049  0.6849  2.6222
 3538SOL    HW222077   4.193   3.286  11.506 -0.5223  1.1652  0.6914
 3539SOL     OW22078   1.451   0.782   1.565 -0.1480 -0.3354 -0.6859
 3539SOL    HW122079   1.374   0.787   1.509  0.8659  1.5541 -1.8926
 3539SOL    HW222080   1.524   0.780   1.504  2.2626 -2.7784  2.2317
 3540SOL     OW22081   2.491   2.612  12.971 -0.8207 -0.2172  0.1277
 3540SOL    HW122082   2.570   2.629  13.023 -0.7281 -0.4840  0.0736
 3540SOL    HW222083   2.443   2.695  12.974 -0.4078  0.0573 -1.0211
 3541SOL     OW22084   3.185   4.658  11.495  0.2303  0.9202 -0.3736
 3541SOL    HW122085   3.106   4.658  11.549 -1.2986 -1.4220 -2.5943
 3541SOL    HW222086   3.214   0.030  11.511  0.2792  1.0084 -0.9503
 3542SOL     OW22087   2.567   2.989   5.386 -0.0875 -0.0201 -0.1105
 3542SOL    HW122088   2.509   2.999   5.461 -1.1796 -2.7528 -0.5934
 3542SOL    HW222089   2.592   2.897   5.392 -4.6750 -1.1539  1.3807
 3543SOL     OW22090   0.535   1.314   3.419  0.7250  0.2038  0.0606
 3543SOL    HW122091   0.610   1.306   3.360 -0.2305 -1.1737 -0.9874
 3543SOL    HW222092   0.480   1.245   3.382  0.3498  0.0788  0.8382
 3544SOL     OW22093   2.749   0.532   4.533 -0.3119  0.7312 -0.2070
 3544SOL    HW122094   2.731   0.513   4.441 -0.0088 -0.2440 -0.0725
 3544SOL    HW222095   2.795   0.451   4.555 -0.6235  0.0760 -2.0234
 3545SOL     OW22096   3.599   2.647  14.704 -0.0714  0.0627  0.2935
 3545SOL    HW122097   3.546   2.635  14.783 -0.7271 -0.1014 -0.1690
 3545SOL    HW222098   3.684   2.653  14.749  1.4774 -1.5152 -2.4618
 3546SOL     OW22099   1.996   1.462   3.196 -0.5468  0.2767  0.1696
 3546SOL    HW122100   2.070   1.407   3.221  0.2766  1.1168 -0.3927
 3546SOL    HW222101   1.998   1.526   3.267  1.1165  1.6796 -1.1337
 3547SOL     OW22102   1.389   1.251   3.288 -0.0626 -0.1476 -0.0970
 3547SOL    HW122103   1.386   1.176   3.228 -2.1682 -0.4178  0.3576
 3547SOL    HW222104   1.298   1.263   3.314  0.7526 -0.3910  2.9015
 3548SOL     OW22105   1.391   2.758   9.510  0.2912  0.1811 -0.4849
 3548SOL    HW122106   1.337   2.679   9.507 -0.2826  0.5961 -1.1065
 3548SOL    HW222107   1.394   2.783   9.418 -2.9354  3.6162  0.3083
 3549SOL     OW22108   0.028   1.343   8.146  0.5689 -0.2226 -0.1978
 3549SOL    HW122109   0.057   1.402   8.076 -0.7471  0.8840  0.1951
 3549SOL    HW222110   4.703   1.408   8.201 -1.1144 -0.7932 -0.8196
 3550SOL     OW22111   4.147   3.773  16.036 -0.2752  0.0267 -0.0905
 3550SOL    HW122112   4.100   3.856  16.034  0.4351  0.4862  2.3109
 3550SOL    HW222113   4.221   3.798  15.980  0.0512 -1.5881 -0.3837
 3551SOL     OW22114   2.676   0.033   8.547 -0.2090 -0.2642 -0.0446
 3551SOL    HW122115   2.770   0.036   8.566 -0.7937 -0.6539  2.9493
 3551SOL    HW222116   2.632   0.062   8.627 -0.3775  0.0726 -0.2591
 3552SOL     OW22117   0.313   3.983  10.172 -0.6695  0.0092  0.0069
 3552SOL    HW122118   0.252   4.038  10.123  0.6835  2.4603  1.0786
 3552SOL    HW222119   0.378   3.965  10.104 -1.5518 -0.4056 -0.7196
 3553SOL     OW22120   3.481   2.660   1.052  0.1022  0.2159  0.0385
 3553SOL    HW122121   3.450   2.660   0.961  0.2437 -1.1357 -0.0130
 3553SOL    HW222122   3.564   2.615   1.036  0.9719  0.7662  3.0878
 3554SOL     OW22123   4.547   3.083  16.066  0.3173  0.2198  0.5423
 3554SOL    HW122124   4.601   3.095  15.988 -0.3855  0.8891  0.1529
 3554SOL    HW222125   4.618   3.099  16.128  2.2210  0.0599 -1.6194
 3555SOL     OW22126   2.579   2.687   5.330  0.0449 -0.3154  0.1872
 3555SOL    HW122127   2.560   2.626   5.401 -1.3261 -0.2961 -0.1496
 3555SOL    HW222128   2.509   2.663   5.269 -0.9875  0.4766  1.0546
 3556SOL     OW22129   1.725   3.392   7.468 -0.2401 -0.0444 -0.4915
 3556SOL    HW122130   1.654   3.429   7.415 -0.7244 -0.9242 -0.4582
 3556SOL    HW222131   1.738   3.451   7.542  2.8248 -0.9202 -0.3207
 3557SOL     OW22132   4.570   3.900   5.765  0.0128  0.5155 -0.9865
 3557SOL    HW122133   4.568   3.887   5.860  0.3020 -1.6197 -1.2697
 3557SOL    HW222134   4.487   3.944   5.746 -0.0788  0.7000 -0.1613
 3558SOL     OW22135   0.187   1.002  12.664  0.7615 -0.6756 -0.5359
 3558SOL    HW122136   0.214   1.071  12.724 -2.5450 -1.9390  2.3430
 3558SOL    HW222137   0.108   1.036  12.623  1.3794  1.2030 -0.1684
 3559SOL     OW22138   1.942   0.301   4.805 -0.5786  0.6148  0.1565
 3559SOL    HW122139   1.916   0.210   4.791 -2.8649  1.4395 -0.8586
 3559SOL    HW222140   1.874   0.343   4.753 -0.4772  1.0253  0.3544
 3560SOL     OW22141   4.203   3.080   1.906 -0.8561 -0.0760  0.3851
 3560SOL    HW122142   4.128   3.077   1.966 -1.5872  1.4599 -0.4577
 3560SOL    HW222143   4.253   3.008   1.945 -0.9333 -0.3476 -0.0145
 3561SOL     OW22144   1.580   3.312  15.478  0.3339  0.4178  0.5890
 3561SOL    HW122145   1.538   3.243  15.529 -1.1994  0.4633 -0.6480
 3561SOL    HW222146   1.673   3.292  15.491  0.3605  0.4306  0.4160
 3562SOL     OW22147   0.954   1.300   7.645  0.7986  0.1521  0.1532
 3562SOL    HW122148   0.885   1.281   7.708  0.5046 -0.2152 -0.2811
 3562SOL    HW222149   0.911   1.289   7.560  1.6785 -1.3585 -0.1044
 3563SOL     OW22150   3.881   0.297   1.010 -0.4881  0.2436  0.1780
 3563SOL    HW122151   3.834   0.215   1.024  0.6095 -0.3181  0.5711
 3563SOL    HW222152   3.928   0.269   0.931 -0.2405  0.1541  0.3565
 3564SOL     OW22153   2.371   1.998   4.794 -0.0198 -0.0654  0.2112
 3564SOL    HW122154   2.280   1.969   4.785  0.1126  0.1020 -1.6796
 3564SOL    HW222155   2.362   2.074   4.851  1.4188 -0.9813  1.6660
 3565SOL     OW22156   3.201   1.452   7.551  0.0057 -0.5006  0.2401
 3565SOL    HW122157   3.153   1.386   7.600 -0.2886  0.2079  0.9049
 3565SOL    HW222158   3.202   1.413   7.463  0.7777  0.1901 -0.0670
 3566SOL     OW22159   1.328   3.805   0.803 -0.4912 -0.2297 -0.7461
 3566SOL    HW122160   1.243   3.764   0.814  0.4932 -1.4840  2.0823
 3566SOL    HW222161   1.352   3.834   0.891 -1.6611  1.3732 -0.9463
 3567SOL     OW22162   1.021   0.063  14.063 -0.0190  0.4161 -0.0051
 3567SOL    HW122163   0.969   4.707  14.029 -1.8814  0.5030  2.6842
 3567SOL    HW222164   1.047   0.029  14.149  0.0498  1.8619  0.5416
 3568SOL     OW22165   4.567   0.325   2.660  0.3654  0.0670 -0.2084
 3568SOL    HW122166   4.492   0.266   2.670  0.8310  0.0232  2.9382
 3568SOL    HW222167   4.559   0.356   2.570 -0.3461  1.7930  0.4426
 3569SOL     OW22168   3.921   1.267   2.841 -0.3675  0.2805 -0.0698
 3569SOL    HW122169   3.982   1.339   2.857  1.0212 -1.1470  0.9960
 3569SOL    HW222170   3.927   1.249   2.748 -0.0678 -0.3213  0.0721
 3570SOL     OW22171   3.160   0.123   0.764  0.8982  0.0593  0.0941
 3570SOL    HW122172   3.253   0.102   0.765  0.6024 -0.9993  3.3156
 3570SOL    HW222173   3.146   0.112   0.858 -0.1592  1.2638  0.0723
 3571SOL     OW22174   0.494   3.334  15.062 -0.2056  0.4533 -0.4887
 3571SOL    HW122175   0.547   3.376  14.995 -2.0030 -1.4902 -3.0963
 3571SOL    HW222176   0.408   3.349  15.023 -1.1853 -0.2723  1.3542
 3572SOL     OW22177   1.828   4.143   6.413  0.2175 -0.0955  0.0928
 3572SOL    HW122178   1.758   4.084   6.384  0.2269 -0.6493  1.2099
 3572SOL    HW222179   1.886   4.087   6.464  0.3090 -3.7336 -4.0359
 3573SOL     OW22180   3.923   4.298   1.305 -0.4367  0.4911  0.0349
 3573SOL    HW122181   3.986   4.364   1.276 -1.1539  1.0743 -0.1903
 3573SOL    HW222182   3.990   4.231   1.320 -2.3688 -1.1881  1.1862
 3574SOL     OW22183   1.328   0.780   0.131  0.2123  0.0679 -0.1795
 3574SOL    HW122184   1.347   0.873   0.144 -0.5005 -0.0307  1.5263
 3574SOL    HW222185   1.417   0.748   0.147 -0.5918 -1.9328  0.3518
 3575SOL     OW22186   3.622   3.143   5.195  0.0974  0.5999  0.1460
 3575SOL    HW122187   3.645   3.082   5.265  0.1607 -0.7975 -1.0931
 3575SOL    HW222188   3.563   3.200   5.244  1.5096  0.5056  1.9493
 3576SOL     OW22189   4.524   2.547  12.751 -0.8875 -0.8275 -0.0814
 3576SOL    HW122190   4.454   2.519  12.810 -0.4468  0.3771  1.0020
 3576SOL    HW222191   4.498   2.500  12.671  2.5310 -0.3092 -1.5037
 3577SOL     OW22192   3.655   2.736   5.903  0.6147 -0.2971  0.5467
 3577SOL    HW122193   3.706   2.677   5.957  0.9057 -1.4902 -1.0240
 3577SOL    HW222194   3.612   2.667   5.852 -0.7840 -0.2120  1.6165
 3578SOL     OW22195   2.376   0.812   6.960  0.2558 -0.2293  0.3156
 3578SOL    HW122196   2.354   0.724   6.990 -1.6796  0.8155  1.8730
 3578SOL    HW222197   2.449   0.794   6.900 -0.7030 -0.6314 -0.7180
 3579SOL     OW22198   1.479   3.041   6.991  0.4051  0.2726  0.0407
 3579SOL    HW122199   1.563   3.086   6.981  0.7622 -0.2660  0.5978
 3579SOL    HW222200   1.503   2.955   7.023  0.5579  0.7161  1.1142
 3580SOL     OW22201   0.221   1.902   6.859 -0.1885 -0.3457 -0.1068
 3580SOL    HW122202   0.177   1.981   6.828  0.1384  0.1738  0.7534
 3580SOL    HW222203   0.211   1.918   6.953  0.8683 -0.6898  0.0626
 3581SOL     OW22204   2.231   4.307  12.163  0.4629  0.5522 -0.3660
 3581SOL    HW122205   2.279   4.377  12.208 -2.1201  1.4641  0.9822
 3581SOL    HW222206   2.305   4.289  12.106 -0.0191 -2.8453  0.0646
 3582SOL     OW22207   0.733   2.544   7.371 -0.2203  1.2273  0.3678
 3582SOL    HW122208   0.655   2.515   7.418 -0.3736  0.4891 -0.3257
 3582SOL    HW222209   0.710   2.546   7.278 -0.0685  1.4485  0.3361
 3583SOL     OW22210   2.219   0.586   6.839  1.1594  0.1167  0.1238
 3583SOL    HW122211   2.262   0.598   6.755  1.2410 -0.5169  0.0718
 3583SOL    HW222212   2.289   0.546   6.892  1.0920  0.0176  0.1392
 3584SOL     OW22213   2.576   3.283   8.785 -0.1314  0.4920 -0.2058
 3584SOL    HW122214   2.496   3.231   8.777 -1.1130  1.9170  0.4368
 3584SOL    HW222215   2.639   3.211   8.782 -1.5642 -0.8401  2.0405
 3585SOL     OW22216   2.932   2.116   4.770 -0.1859  0.7712  0.2922
 3585SOL    HW122217   2.879   2.166   4.832 -0.0184  2.9107 -1.2622
 3585SOL    HW222218   2.898   2.154   4.689 -0.0295 -0.3185 -0.2791
 3586SOL     OW22219   0.895   1.873   3.214 -0.3402 -0.2354 -0.4424
 3586SOL    HW122220   0.925   1.785   3.192  0.1749  0.3241 -1.9763
 3586SOL    HW222221   0.915   1.924   3.135  0.5380  1.3058  0.7699
 3587SOL     OW22222   3.038   0.101  14.434  0.2245 -0.0546 -0.2244
 3587SOL    HW122223   3.036   0.040  14.508 -1.6989 -0.7586 -0.8574
 3587SOL    HW222224   3.092   0.051  14.373  0.0120  2.4108 -2.3969
 3588SOL     OW22225   2.849   4.577  12.746 -0.5045  0.1998  0.2811
 3588SOL    HW122226   2.827   4.649  12.806 -0.6088 -0.2991  0.8482
 3588SOL    HW222227   2.937   4.607  12.720 -0.6117  0.6239  0.4053
 3589SOL     OW22228   1.033   2.650  10.251  0.3298 -0.5072 -0.6628
 3589SOL    HW122229   0.997   2.581  10.195 -0.0977 -0.0846 -0.9087
 3589SOL    HW222230   1.115   2.606  10.274  0.5831  1.1356  1.5150
 3590SOL     OW22231   2.351   4.120   5.583 -0.0302 -0.6569  0.3018
 3590SOL    HW122232   2.313   4.100   5.669  0.0296  4.2106  1.4827
 3590SOL    HW222233   2.351   4.216   5.582 -0.0607 -0.6518  1.1153
 3591SOL     OW22234   4.390   2.132  10.350  0.1531 -0.6651 -0.4366
 3591SOL    HW122235   4.414   2.216  10.312  1.0417 -0.1198  1.3223
 3591SOL    HW222236   4.310   2.097  10.312 -0.3315  0.8332 -0.7768
 3592SOL     OW22237   0.408   0.171   0.833  0.4671  0.1463 -0.6560
 3592SOL    HW122238   0.461   0.212   0.901  0.5257  1.1539 -1.3068
 3592SOL    HW222239   0.435   0.079   0.837 -0.3741  0.0610  2.3672
 3593SOL     OW22240   2.220   0.747  15.531 -0.2096 -0.2889 -0.4987
 3593SOL    HW122241   2.314   0.739  15.551 -0.2437 -0.1116 -0.2675
 3593SOL    HW222242   2.186   0.739  15.621 -1.3529 -1.3202 -1.0295
 3594SOL     OW22243   0.383   2.475   3.677  0.0458  0.1969 -0.1796
 3594SOL    HW122244   0.455   2.496   3.737  0.4403 -1.3847 -0.1104
 3594SOL    HW222245   0.331   2.408   3.722  1.8589 -0.6134  0.6824
 3595SOL     OW22246   0.859   3.370   5.793 -0.2749 -0.0901  0.6543
 3595SOL    HW122247   0.857   3.277   5.816  4.5645 -0.4720 -0.3449
 3595SOL    HW222248   0.812   3.369   5.710 -0.5432  0.2330  0.8003
 3596SOL     OW22249   0.205   1.237  15.233 -0.0658 -0.1001 -0.5648
 3596SOL    HW122250   0.292   1.224  15.195 -0.0032 -0.7259 -0.2220
 3596SOL    HW222251   0.215   1.303  15.301  2.8497 -0.5418 -0.5576
 3597SOL     OW22252   4.172   1.455  16.618  0.0411  0.2845 -0.0064
 3597SOL    HW122253   4.125   1.411  16.689  1.4138 -0.0748  0.6618
 3597SOL    HW222254   4.261   1.466  16.650 -0.2241 -1.0613  1.1454
 3598SOL     OW22255   4.304   3.928   2.182  0.3429  0.1700 -0.1068
 3598SOL    HW122256   4.257   4.006   2.211  1.3446  0.5899  0.3926
 3598SOL    HW222257   4.256   3.859   2.228  1.7532 -0.5855  0.2325
 3599SOL     OW22258   0.641   3.079   8.780  0.3655 -0.0064  0.1355
 3599SOL    HW122259   0.639   3.078   8.876  0.0470 -2.2981  0.1074
 3599SOL    HW222260   0.695   3.001   8.768  1.6676  0.5972  2.2738
 3600SOL     OW22261   3.097   0.761   7.990  0.5358 -0.8652  0.6528
 3600SOL    HW122262   3.183   0.723   8.007 -0.0937 -2.3892  0.3889
 3600SOL    HW222263   3.094   0.827   8.060 -0.0493 -2.3494  2.0111
 3601SOL     OW22264   1.262   1.674  14.469 -0.2897 -0.1858 -0.0428
 3601SOL    HW122265   1.199   1.615  14.427 -0.7509 -0.3395  0.8653
 3601SOL    HW222266   1.254   1.650  14.562 -0.4607  0.5087  0.1268
 3602SOL     OW22267   4.131   0.785   3.341 -0.0056 -0.1261  0.3639
 3602SOL    HW122268   4.113   0.877   3.320 -2.3869 -0.1409  2.3893
 3602SOL    HW222269   4.101   0.736   3.265  1.8223 -0.7560  0.0566
 3603SOL     OW22270   3.654   1.663  16.181  0.1469  0.3183  0.6314
 3603SOL    HW122271   3.646   1.757  16.194 -1.8887  0.0990  0.9258
 3603SOL    HW222272   3.575   1.632  16.226  0.6215 -1.5505  0.1872
 3604SOL     OW22273   2.969   4.283   3.463 -0.1137 -0.1918 -0.7124
 3604SOL    HW122274   2.942   4.290   3.372 -3.6247 -2.8215  0.1297
 3604SOL    HW222275   3.060   4.254   3.454  0.7347  2.3542 -0.4931
 3605SOL     OW22276   2.198   1.200   5.182 -0.0622 -0.0510 -0.6524
 3605SOL    HW122277   2.216   1.293   5.188  0.1471 -0.0932 -0.6052
 3605SOL    HW222278   2.155   1.186   5.266  0.6159  2.4815  0.0830
 3606SOL     OW22279   4.088   4.010   9.609 -0.1962 -0.2627  0.6853
 3606SOL    HW122280   4.129   4.067   9.675 -4.4488  2.2436  1.1164
 3606SOL    HW222281   4.163   3.968   9.565  0.3620 -0.7807  2.1156
 3607SOL     OW22282   1.515   3.797   2.785 -0.3603  0.1952 -0.4127
 3607SOL    HW122283   1.475   3.884   2.775 -0.7873  0.1498  0.8971
 3607SOL    HW222284   1.471   3.750   2.714  2.6175  0.1294 -2.2530
 3608SOL     OW22285   4.254   4.687  14.493  0.4162 -0.1571  0.5581
 3608SOL    HW122286   4.279   4.612  14.439  1.5327 -0.1898  1.1088
 3608SOL    HW222287   4.168   4.704  14.456  0.1667 -2.3939  0.1634
 3609SOL     OW22288   0.056   1.972   4.669 -0.2733 -0.1729  0.0728
 3609SOL    HW122289   4.685   1.941   4.688 -1.1469  1.5681 -1.0834
 3609SOL    HW222290   0.039   2.050   4.616 -0.0675 -1.2044 -1.5199
 3610SOL     OW22291   2.141   1.489  14.982  0.1646  0.2563  0.4587
 3610SOL    HW122292   2.098   1.501  14.897 -0.2599  3.2269  1.0920
 3610SOL    HW222293   2.160   1.582  14.996  2.5292 -0.5089  2.3183
 3611SOL     OW22294   3.846   1.996   4.265  0.6900  0.3071 -0.5523
 3611SOL    HW122295   3.833   2.087   4.239  0.5764  0.6864  0.8713
 3611SOL    HW222296   3.774   1.987   4.327 -0.4838  3.8150 -1.4273
 3612SOL     OW22297   0.908   0.557   1.245  0.1328  0.2724 -0.1164
 3612SOL    HW122298   0.965   0.506   1.188  0.5038  0.2991  0.2324
 3612SOL    HW222299   0.851   0.491   1.283  0.6995 -0.8274 -1.1818
 3613SOL     OW22300   2.060   4.420   5.519 -0.5402  0.6034 -0.0537
 3613SOL    HW122301   2.152   4.396   5.528  0.1144  2.0018 -3.0164
 3613SOL    HW222302   2.054   4.490   5.584  0.2817  1.0891 -0.5022
 3614SOL     OW22303   4.312   1.019   6.224  0.0320  0.4263 -0.3418
 3614SOL    HW122304   4.265   0.943   6.258 -2.6859  3.2371  2.1613
 3614SOL    HW222305   4.402   0.995   6.247 -0.6786 -1.1746  0.7250
 3615SOL     OW22306   2.768   1.661   4.842  0.3521 -0.2471  0.5655
 3615SOL    HW122307   2.747   1.643   4.933 -2.0190 -0.5031 -0.0263
 3615SOL    HW222308   2.833   1.731   4.848 -0.8438  0.7765  1.4439
 3616SOL     OW22309   1.362   4.522   5.055 -0.4417  0.0766 -0.5470
 3616SOL    HW122310   1.367   4.553   5.146 -1.8242  0.4973 -0.6149
 3616SOL    HW222311   1.406   4.437   5.060 -1.3104 -0.2385  1.8075
 3617SOL     OW22312   4.584   4.693  11.195 -0.1555  0.3522  0.5376
 3617SOL    HW122313   4.579   4.615  11.250  1.5745 -0.9556 -1.1696
 3617SOL    HW222314   4.505   0.017  11.230 -0.5002 -0.0700  0.2513
 3618SOL     OW22315   2.016   4.633   7.780 -0.5009 -0.4465 -0.1765
 3618SOL    HW122316   2.101   4.606   7.815 -1.1640 -0.9286  1.0960
 3618SOL    HW222317   2.035   4.670   7.694 -1.9244  1.8822  0.5102
 3619SOL     OW22318   1.320   2.151   7.225 -0.0911  0.4596  0.1758
 3619SOL    HW122319   1.374   2.180   7.152 -0.9208  0.4827 -0.4283
 3619SOL    HW222320   1.231   2.169   7.195 -0.6095  0.0212  1.4318
 3620SOL     OW22321   4.432   2.593   6.183 -0.2223  0.1237 -0.2238
 3620SOL    HW122322   4.527   2.586   6.194 -0.4688  0.4810  2.0593
 3620SOL    HW222323   4.426   2.680   6.222 -2.8839  0.9791 -2.5883
 3621SOL     OW22324   2.704   3.165   2.608 -0.1595  0.0740  0.0343
 3621SOL    HW122325   2.612   3.157   2.584  0.0402 -0.5294 -0.5475
 3621SOL    HW222326   2.734   3.232   2.547  1.3232 -0.6202 -0.0207
 3622SOL     OW22327   4.541   0.116   3.001 -0.1383 -0.2541 -0.7519
 3622SOL    HW122328   4.543   0.173   3.078  1.5777 -2.2288  0.7027
 3622SOL    HW222329   4.622   0.141   2.956  0.1168  0.4525  0.1003
 3623SOL     OW22330   3.367   4.226   3.202  0.0682 -0.0814 -0.0590
 3623SOL    HW122331   3.367   4.311   3.157 -0.1826  0.1328  0.3481
 3623SOL    HW222332   3.389   4.178   3.122 -0.6923 -1.7543  0.7243
 3624SOL     OW22333   3.449   2.980   7.917  0.3159 -0.2881 -0.3024
 3624SOL    HW122334   3.406   3.065   7.910  0.5751 -0.0465  1.0452
 3624SOL    HW222335   3.532   3.008   7.955  0.0006 -0.0304  0.2006
 3625SOL     OW22336   1.153   3.159   1.539  0.8644  0.1291  0.1589
 3625SOL    HW122337   1.152   3.077   1.587  0.9470  0.8630  1.4231
 3625SOL    HW222338   1.131   3.222   1.608 -0.3584 -0.5405  0.3683
 3626SOL     OW22339   3.469   1.697   8.335 -0.1215 -0.2885 -0.2452
 3626SOL    HW122340   3.408   1.730   8.401  0.3384 -1.8127  0.9267
 3626SOL    HW222341   3.407   1.684   8.264 -0.6421  2.4857 -0.3076
 3627SOL     OW22342   4.595   2.765   6.540 -0.3927  0.5626 -0.1166
 3627SOL    HW122343   4.677   2.790   6.499  0.3624  0.1583  1.1601
 3627SOL    HW222344   4.541   2.799   6.468 -0.8071 -1.1211 -0.6032
 3628SOL     OW22345   1.554   4.165   8.288 -0.3089 -0.3914  0.3906
 3628SOL    HW122346   1.484   4.210   8.336  0.6129  1.8434 -0.3527
 3628SOL    HW222347   1.634   4.214   8.306 -0.5400  0.9678 -2.2442
 3629SOL     OW22348   1.444   4.148   8.004 -0.4869 -0.0718  0.2654
 3629SOL    HW122349   1.510   4.150   8.074 -1.2701 -0.8787  1.0174
 3629SOL    HW222350   1.433   4.053   7.995 -2.5978  0.2584 -0.4192
 3630SOL     OW22351   1.997   3.378   0.010  0.3732 -0.7216 -0.0609
 3630SOL    HW122352   2.070   3.420   0.057  1.1539 -1.7330 -0.3745
 3630SOL    HW222353   1.924   3.437   0.031  2.8348  2.3732 -0.1448
 3631SOL     OW22354   2.578   0.911   8.547  0.0939  0.2140  0.4294
 3631SOL    HW122355   2.589   0.988   8.490 -1.8131  1.7357  2.1115
 3631SOL    HW222356   2.482   0.907   8.547 -0.0006  2.5210  0.6080
 3632SOL     OW22357   1.612   0.614  13.502 -0.1766  0.5537  0.1376
 3632SOL    HW122358   1.611   0.708  13.483 -1.8439  0.7474  1.1924
 3632SOL    HW222359   1.581   0.614  13.592 -0.9413  1.8477 -0.1250
 3633SOL     OW22360   4.027   2.080   3.629 -0.1520  0.0984 -0.1882
 3633SOL    HW122361   3.936   2.068   3.657  0.3689 -0.5329  1.2853
 3633SOL    HW222362   4.063   2.018   3.693  2.7197 -0.5519 -2.4662
 3634SOL     OW22363   3.364   3.398  10.011 -0.0606 -0.3286  0.2891
 3634SOL    HW122364   3.342   3.405   9.918  2.7501  0.9589 -0.2817
 3634SOL    HW222365   3.459   3.388  10.005  0.1010  2.1571 -1.3085
 3635SOL     OW22366   1.819   2.770  10.904 -0.0417 -0.3228 -0.3157
 3635SOL    HW122367   1.869   2.714  10.844  0.5014 -1.7389  1.4414
 3635SOL    HW222368   1.891   2.818  10.944 -0.5029  0.4216 -0.3823
 3636SOL     OW22369   3.385   2.598   4.939 -0.2032  0.1286  0.1938
 3636SOL    HW122370   3.420   2.508   4.934 -1.4407 -0.2966 -0.7381
 3636SOL    HW222371   3.309   2.585   4.995  0.1539  1.3173  0.9419
 3637SOL     OW22372   2.976   4.102   5.760 -0.5870 -0.5173  0.0902
 3637SOL    HW122373   2.975   4.082   5.854 -0.3018 -2.1004 -0.2472
 3637SOL    HW222374   2.918   4.030   5.737  0.4965 -1.0028 -1.1102
 3638SOL     OW22375   0.297   0.508   0.850 -0.2788 -0.2938  0.7664
 3638SOL    HW122376   0.272   0.588   0.897 -1.1237  0.4220 -0.9250
 3638SOL    HW222377   0.212   0.465   0.845 -0.0551 -0.5858 -0.3817
 3639SOL     OW22378   1.824   2.142  13.213 -0.2414 -0.2596 -0.2521
 3639SOL    HW122379   1.729   2.142  13.212 -0.2352  0.8838 -1.7879
 3639SOL    HW222380   1.846   2.056  13.177  1.2620  1.0625 -2.5782
 3640SOL     OW22381   2.498   4.644  12.926  0.2660 -0.3389  0.2339
 3640SOL    HW122382   2.536   4.591  12.995  0.7014  0.2741  0.4707
 3640SOL    HW222383   2.405   4.624  12.941 -0.1322  2.0469  1.0074
 3641SOL     OW22384   0.322   1.991   7.924  0.5156  0.3931  0.1707
 3641SOL    HW122385   0.367   1.915   7.887 -1.6883 -0.8265 -0.0500
 3641SOL    HW222386   0.355   1.995   8.014 -0.2613  0.8117  0.4353
 3642SOL     OW22387   2.148   4.126   6.867  0.0049 -0.4849  0.6989
 3642SOL    HW122388   2.202   4.068   6.920  0.6710 -0.4832  0.0243
 3642SOL    HW222389   2.214   4.169   6.813 -0.4246 -0.0781  0.4999
 3643SOL     OW22390   1.196   3.781  11.238 -0.1002  0.0270  0.5624
 3643SOL    HW122391   1.166   3.725  11.309 -2.2860 -0.4547 -0.7455
 3643SOL    HW222392   1.287   3.804  11.258  0.6091 -2.2486  0.0075
 3644SOL     OW22393   2.990   0.261  12.694  0.5387  0.3405 -0.8790
 3644SOL    HW122394   2.899   0.258  12.666  0.4379 -1.5992 -0.3472
 3644SOL    HW222395   3.003   0.167  12.680  2.6122  0.8977 -2.7254
 3645SOL     OW22396   3.881   3.268  12.769  0.3519  0.1908 -0.1512
 3645SOL    HW122397   3.960   3.227  12.731 -0.0344 -0.3382 -0.3854
 3645SOL    HW222398   3.884   3.341  12.707 -3.1460 -0.3919 -0.9702
 3646SOL     OW22399   0.290   0.868   8.071 -0.2183  0.2077  0.2879
 3646SOL    HW122400   0.195   0.875   8.079 -0.4328 -0.4964 -1.5656
 3646SOL    HW222401   0.316   0.806   8.003  1.5719  0.1442  1.0096
 3647SOL     OW22402   0.993   0.059  13.122  0.0559 -0.2998 -0.0329
 3647SOL    HW122403   1.019   0.150  13.112 -2.3068  0.3851  0.2466
 3647SOL    HW222404   1.022   0.036  13.210  0.3751 -0.6604 -0.2298
 3648SOL     OW22405   2.409   3.490   9.228  0.1431 -0.0143  0.3849
 3648SOL    HW122406   2.413   3.494   9.323 -0.0056  0.0124  0.3904
 3648SOL    HW222407   2.438   3.399   9.220  0.3123  0.3453 -2.9633
 3649SOL     OW22408   1.566   4.673   6.712  0.8842  0.1860 -0.0707
 3649SOL    HW122409   1.561   4.581   6.738 -0.4817  0.3100  0.0930
 3649SOL    HW222410   1.599   4.716   6.790  1.0479  3.5815 -1.9942
 3650SOL     OW22411   4.070   0.098   3.489 -0.0225  0.2600 -0.1162
 3650SOL    HW122412   4.131   0.043   3.440 -1.4133 -1.4243  0.0859
 3650SOL    HW222413   4.026   0.033   3.543 -1.2527  1.9135  0.8786
 3651SOL     OW22414   4.074   1.833  10.486 -0.1442  0.0347 -0.4865
 3651SOL    HW122415   4.099   1.912  10.534 -1.8435 -0.6522  1.5161
 3651SOL    HW222416   4.145   1.770  10.493  0.3996  0.7105  0.0574
 3652SOL     OW22417   0.124   0.499   0.477  0.2787  0.3285 -0.5777
 3652SOL    HW122418   0.109   0.411   0.511 -1.4641  0.9947  0.3380
 3652SOL    HW222419   0.181   0.478   0.403  0.4041 -0.9654 -0.1164
 3653SOL     OW22420   3.509   1.719   3.751 -0.5492 -0.1393  0.4392
 3653SOL    HW122421   3.424   1.742   3.712  0.0315 -1.5410 -1.6224
 3653SOL    HW222422   3.523   1.788   3.816  0.6072  0.1403 -0.1039
 3654SOL     OW22423   1.620   1.367   7.350 -0.3254 -0.5123 -0.1369
 3654SOL    HW122424   1.646   1.333   7.435 -0.1066  2.5399  1.0076
 3654SOL    HW222425   1.672   1.447   7.356 -1.0124  0.1701 -3.0052
 3655SOL     OW22426   3.715   1.771  14.046 -0.0980 -0.1407  0.4739
 3655SOL    HW122427   3.696   1.847  13.991 -0.8556  0.5799  1.7395
 3655SOL    HW222428   3.665   1.704  14.001  1.4618 -2.0606  1.6215
 3656SOL     OW22429   1.072   0.997  12.569  0.3946 -0.7221 -0.0618
 3656SOL    HW122430   1.133   1.038  12.631  2.1178 -1.1499 -1.4831
 3656SOL    HW222431   1.120   0.927  12.526  0.9708 -0.1989 -0.2753
 3657SOL     OW22432   3.982   2.235   4.415  0.3795  0.9408 -0.3505
 3657SOL    HW122433   4.004   2.328   4.424  0.0184  0.9048  0.9072
 3657SOL    HW222434   3.983   2.226   4.320  0.7923 -0.2858 -0.2200
 3658SOL     OW22435   1.356   0.330   8.265  0.3292  0.0743 -0.4834
 3658SOL    HW122436   1.267   0.319   8.300  0.7562  0.1754  0.6521
 3658SOL    HW222437   1.404   0.353   8.345  1.4345 -4.2046  0.1008
 3659SOL     OW22438   0.927   3.979   7.717 -0.2209 -0.4509 -0.2828
 3659SOL    HW122439   0.889   3.892   7.733 -0.9811 -0.0349  0.1429
 3659SOL    HW222440   1.018   3.963   7.742 -0.5072 -0.6755  0.6239
 3660SOL     OW22441   1.839   4.069   7.993  0.5042 -0.1607 -0.0876
 3660SOL    HW122442   1.770   4.041   8.052 -0.2094  1.5852 -0.1077
 3660SOL    HW222443   1.851   3.995   7.933  0.3222  1.0112 -1.5552
 3661SOL     OW22444   2.462   0.489   4.207  0.1682  0.1651 -0.0793
 3661SOL    HW122445   2.488   0.578   4.183  1.3838  0.3275  1.7807
 3661SOL    HW222446   2.526   0.471   4.276 -1.3076 -1.9636  0.7365
 3662SOL     OW22447   2.316   1.974   4.106 -0.2892  0.0976  0.4805
 3662SOL    HW122448   2.268   2.044   4.151 -1.4835 -2.1356  2.6747
 3662SOL    HW222449   2.400   1.984   4.151 -0.2713 -2.7778  1.0662
 3663SOL     OW22450   1.815   1.502  15.029 -0.0683 -0.2136 -0.2176
 3663SOL    HW122451   1.834   1.491  14.936  0.5405 -0.3834 -0.0741
 3663SOL    HW222452   1.877   1.571  15.055  2.2907 -1.8844 -1.4567
 3664SOL     OW22453   2.243   4.263  13.057  0.2319  0.3293  0.5946
 3664SOL    HW122454   2.321   4.246  13.005 -0.3297 -0.6518  0.0709
 3664SOL    HW222455   2.180   4.229  12.994  0.0119 -3.2083  2.7257
 3665SOL     OW22456   0.633   2.473  16.272  0.3585  0.7749  0.1636
 3665SOL    HW122457   0.629   2.518  16.356 -1.2373  1.5108 -0.3092
 3665SOL    HW222458   0.540   2.454  16.258 -0.3497  2.9973  1.8438
 3666SOL     OW22459   1.390   0.668   0.570  0.3879 -0.5366  0.1055
 3666SOL    HW122460   1.382   0.743   0.511 -2.0131 -1.4170 -0.6997
 3666SOL    HW222461   1.398   0.709   0.656  0.8464  0.5689 -0.4666
 3667SOL     OW22462   1.971   4.360  13.620  0.3858  0.1243 -0.5773
 3667SOL    HW122463   1.886   4.329  13.650  0.4108 -0.6221 -1.2749
 3667SOL    HW222464   1.960   4.453  13.640 -0.9700  0.0191 -0.8802
 3668SOL     OW22465   2.553   4.358   9.046 -0.0866  0.1525 -0.0005
 3668SOL    HW122466   2.571   4.282   8.991 -1.3025 -1.1509  1.3859
 3668SOL    HW222467   2.530   4.412   8.971 -0.2860 -0.6411 -0.5117
 3669SOL     OW22468   1.592   1.302   6.447 -0.2634  0.4246  0.3628
 3669SOL    HW122469   1.498   1.323   6.445 -0.2943  0.1652 -0.9263
 3669SOL    HW222470   1.619   1.393   6.432 -1.5135  0.2569 -2.8413
 3670SOL     OW22471   0.646   0.400  10.275 -0.2392 -0.0136  0.7200
 3670SOL    HW122472   0.687   0.434  10.355  2.5892  0.3108 -0.8483
 3670SOL    HW222473   0.721   0.394  10.215 -1.8980 -1.4410 -1.2002
 3671SOL     OW22474   4.554   2.623   2.445  0.1681 -0.6457  0.1613
 3671SOL    HW122475   4.502   2.585   2.516 -1.3656 -1.2114 -1.2594
 3671SOL    HW222476   4.512   2.573   2.375 -0.8459  0.3533  0.0703
 3672SOL     OW22477   3.196   1.281   2.994 -0.4754 -0.0615  0.1758
 3672SOL    HW122478   3.144   1.255   2.918  0.3175 -1.4455  0.1204
 3672SOL    HW222479   3.277   1.238   2.968 -1.8748 -0.6881 -3.1837
 3673SOL     OW22480   1.556   4.642   9.806  0.0292 -0.0441 -0.3110
 3673SOL    HW122481   1.567   4.594   9.724 -1.2581 -3.0447  1.3157
 3673SOL    HW222482   1.626   4.707   9.797  1.1831 -1.0438  1.5457
 3674SOL     OW22483   2.551   1.555   9.431  0.0129 -0.5076  0.1420
 3674SOL    HW122484   2.560   1.519   9.519 -0.0451  1.3329  0.8992
 3674SOL    HW222485   2.465   1.517   9.410  0.4356 -1.3876  0.0141
 3675SOL     OW22486   0.127   0.113   3.664 -0.0662 -0.4260 -0.1778
 3675SOL    HW122487   0.046   0.163   3.670 -1.6364 -2.7288 -1.8963
 3675SOL    HW222488   0.184   0.187   3.682 -2.3804  1.2372  0.3503
 3676SOL     OW22489   3.802   2.380  10.547  0.3587  0.1272 -0.0292
 3676SOL    HW122490   3.805   2.384  10.643 -0.4809  0.4752 -0.0184
 3676SOL    HW222491   3.734   2.313  10.537 -0.5082  1.2833 -1.8562
 3677SOL     OW22492   0.291   2.923  13.492  0.2641 -0.0068 -0.6558
 3677SOL    HW122493   0.309   2.960  13.406 -2.7430 -1.0418 -1.7214
 3677SOL    HW222494   0.383   2.918  13.517  0.4889 -0.8341 -1.6459
 3678SOL     OW22495   4.368   4.697   0.744 -0.1367 -0.3261 -0.4210
 3678SOL    HW122496   4.333   4.707   0.655  0.5431 -0.0055 -0.6514
 3678SOL    HW222497   4.425   4.620   0.738 -1.5322 -1.2742 -1.5467
 3679SOL     OW22498   1.873   3.937   6.213  0.5695 -0.2252 -0.2787
 3679SOL    HW122499   1.793   3.903   6.254  0.1935  3.0205  1.6957
 3679SOL    HW222500   1.836   3.961   6.128  1.9036 -2.0787 -1.3550
 3680SOL     OW22501   4.600   4.449  11.387 -0.0826 -0.0255 -0.3489
 3680SOL    HW122502   4.670   4.400  11.431 -3.4113 -4.5416 -0.1476
 3680SOL    HW222503   4.530   4.448  11.452  0.9533 -3.1676  0.7223
 3681SOL     OW22504   3.565   4.204   2.477  0.3319  0.4980  0.0348
 3681SOL    HW122505   3.642   4.180   2.426  0.0206  0.4920 -0.4334
 3681SOL    HW222506   3.510   4.248   2.412  1.8049 -0.8983 -2.1606
 3682SOL     OW22507   2.309   3.557  10.552  0.0870  0.1879  0.0575
 3682SOL    HW122508   2.214   3.549  10.561  0.3371 -1.4998  1.2942
 3682SOL    HW222509   2.328   3.463  10.563 -0.7532  0.0881  0.6870
 3683SOL     OW22510   2.556   4.514   6.241  0.3943 -0.2614 -0.5420
 3683SOL    HW122511   2.541   4.596   6.194 -1.5725 -0.4396 -0.2288
 3683SOL    HW222512   2.631   4.537   6.296 -1.3407  2.5781  0.6263
 3684SOL     OW22513   4.517   2.313   7.488 -0.4092  0.7007 -0.5122
 3684SOL    HW122514   4.572   2.315   7.410 -0.0521 -0.1234 -0.2809
 3684SOL    HW222515   4.427   2.320   7.455 -0.7107 -1.1792 -0.0849
 3685SOL     OW22516   1.363   4.700   4.460  0.0497 -0.8189 -0.3162
 3685SOL    HW122517   1.433   4.635   4.453  0.6841 -0.1010 -0.6922
 3685SOL    HW222518   1.296   4.667   4.400 -2.1754  3.1080 -0.0093
 3686SOL     OW22519   1.404   3.350   8.177  0.2081 -0.0806 -0.3618
 3686SOL    HW122520   1.368   3.376   8.262 -1.3796 -2.4609 -0.3177
 3686SOL    HW222521   1.476   3.289   8.190 -0.2860 -0.8443 -1.2401
 3687SOL     OW22522   0.381   4.587   1.790  0.2178 -0.4711 -0.3492
 3687SOL    HW122523   0.341   4.534   1.722 -0.7623  0.6595 -0.6587
 3687SOL    HW222524   0.315   4.652   1.813  0.0881 -0.2594 -1.3357
 3688SOL     OW22525   0.333   3.699   7.133 -0.3521  0.1917 -0.0826
 3688SOL    HW122526   0.368   3.613   7.156  1.2909  1.1386  0.9343
 3688SOL    HW222527   0.408   3.752   7.108 -1.6616  1.7869 -0.6455
 3689SOL     OW22528   4.532   3.344   6.165 -0.0272 -0.3420  0.0994
 3689SOL    HW122529   4.439   3.326   6.180  0.6370 -3.0339  0.8824
 3689SOL    HW222530   4.568   3.263   6.130  1.3871  1.1324 -1.8844
 3690SOL     OW22531   3.893   2.350   8.156  0.2829 -0.9829 -0.1925
 3690SOL    HW122532   3.845   2.337   8.238 -0.5318 -0.1527 -0.5429
 3690SOL    HW222533   3.848   2.280   8.108 -0.7160 -0.3385 -0.1898
 3691SOL     OW22534   3.003   0.631   9.920  0.2234  0.1438 -0.1117
 3691SOL    HW122535   2.993   0.712   9.970 -0.6428 -0.6743  1.0308
 3691SOL    HW222536   3.008   0.565   9.989 -0.1405 -0.7318 -0.9253
 3692SOL     OW22537   3.802   2.424   3.718 -0.6554  0.2608 -0.4606
 3692SOL    HW122538   3.893   2.410   3.693 -0.6525 -3.3500  1.5893
 3692SOL    HW222539   3.776   2.493   3.657  1.8716  2.3806  0.8695
 3693SOL     OW22540   4.079   3.757   6.649 -0.0047 -0.1559 -0.4597
 3693SOL    HW122541   4.071   3.848   6.676 -3.3170 -0.7017  0.3657
 3693SOL    HW222542   3.990   3.749   6.613  0.7194  0.6741 -2.4441
 3694SOL     OW22543   0.001   0.647   4.244  0.7465  0.0618 -0.2304
 3694SOL    HW122544   4.657   0.615   4.178  0.1810  0.3604  0.1520
 3694SOL    HW222545   4.660   0.663   4.318 -0.9418 -1.0139 -1.3090
 3695SOL     OW22546   2.852   3.687  12.575 -0.2835 -0.3224 -0.0573
 3695SOL    HW122547   2.880   3.772  12.541 -1.2022  1.1315  2.7660
 3695SOL    HW222548   2.767   3.710  12.613  0.8410  1.3549  1.4246
 3696SOL     OW22549   4.505   1.219  17.653 -0.5472 -0.5142 -0.2385
 3696SOL    HW122550   4.499   1.295  17.595 -1.8265 -0.2906  0.1821
 3696SOL    HW222551   4.473   1.151  17.594 -4.2009  0.2845  0.7746
 3697SOL     OW22552   3.248   3.730   5.661 -0.0656 -0.0821  0.0304
 3697SOL    HW122553   3.278   3.649   5.620 -3.2289 -1.3749  0.2385
 3697SOL    HW222554   3.157   3.735   5.631 -0.9069 -0.7853  2.4581
 3698SOL     OW22555   1.094   0.545   8.068 -0.5957 -0.3003 -0.2186
 3698SOL    HW122556   1.083   0.456   8.103 -3.3471  0.2218  0.2522
 3698SOL    HW222557   1.028   0.544   7.999 -1.2711 -0.0344  0.4241
 3699SOL     OW22558   1.709   4.300   8.865  0.6429 -0.4325 -0.1131
 3699SOL    HW122559   1.632   4.250   8.891 -1.2993  2.3172 -0.5303
 3699SOL    HW222560   1.722   4.277   8.773 -2.3213 -1.2834 -0.3021
 3700SOL     OW22561   2.622   0.492   6.359  0.0679 -0.1930 -0.8546
 3700SOL    HW122562   2.686   0.561   6.340  0.4165 -0.2860 -0.0209
 3700SOL    HW222563   2.630   0.485   6.454 -0.2243  0.3761 -0.7903
 3701SOL     OW22564   0.034   1.294   2.909 -0.2870 -0.3184  0.1518
 3701SOL    HW122565   4.685   1.278   2.976 -0.1749 -0.5505  0.2063
 3701SOL    HW222566   4.701   1.291   2.827  3.0488  0.6806 -1.9437
 3702SOL     OW22567   2.490   2.333  16.968 -0.3209 -0.5095  0.0361
 3702SOL    HW122568   2.429   2.385  16.916  1.1356 -0.6098 -1.7889
 3702SOL    HW222569   2.511   2.397  17.036  2.2491 -0.7444 -0.5531
 3703SOL     OW22570   4.548   3.488   1.716  0.7302  0.7167 -0.0173
 3703SOL    HW122571   4.570   3.546   1.789  0.1394  0.5387  0.3003
 3703SOL    HW222572   4.499   3.423   1.765  1.6051 -1.3917 -1.9655
 3704SOL     OW22573   1.373   0.036   8.471  0.1050  0.5791  0.6773
 3704SOL    HW122574   1.461   0.057   8.500  1.3993 -3.1508 -0.5241
 3704SOL    HW222575   1.394   4.710   8.388  0.4381 -1.7845  1.9915
 3705SOL     OW22576   4.554   0.356   2.400 -0.3759 -0.0705 -0.1913
 3705SOL    HW122577   4.627   0.418   2.398  1.2356 -1.9863 -0.8511
 3705SOL    HW222578   4.583   0.275   2.359  1.0546  0.0751  0.5121
 3706SOL     OW22579   4.212   1.960   4.766 -0.0719 -0.4664  0.6161
 3706SOL    HW122580   4.222   1.879   4.715  1.2907 -0.6156  1.1160
 3706SOL    HW222581   4.217   2.016   4.689 -1.7742 -0.0933  0.7680
 3707SOL     OW22582   4.127   4.537  13.087  0.6416 -0.6547  0.1745
 3707SOL    HW122583   4.214   4.569  13.110  0.7161  0.1040 -1.1908
 3707SOL    HW222584   4.101   4.505  13.173 -0.3053  1.3370  0.6168
 3708SOL     OW22585   0.571   4.403   5.448 -0.0449 -0.3197  0.2205
 3708SOL    HW122586   0.552   4.311   5.467 -0.9745  0.1436  1.5334
 3708SOL    HW222587   0.649   4.384   5.397  0.1313  1.5603 -0.1985
 3709SOL     OW22588   3.953   2.698   9.813  0.0002  0.1733  0.3352
 3709SOL    HW122589   3.980   2.712   9.722  1.8861  2.0515  1.1796
 3709SOL    HW222590   3.965   2.603   9.814 -0.7619  0.0885  0.9687
 3710SOL     OW22591   3.075   3.265   6.289  0.4347 -0.8422 -0.4024
 3710SOL    HW122592   3.136   3.299   6.354 -1.2221  1.7559 -0.1939
 3710SOL    HW222593   2.991   3.304   6.314 -0.1333 -1.2026 -1.7572
 3711SOL     OW22594   2.502   3.105   1.394  0.3581 -0.2942 -0.3958
 3711SOL    HW122595   2.595   3.099   1.373  0.1328 -1.0929 -1.2071
 3711SOL    HW222596   2.499   3.198   1.416 -1.0892 -0.7388  1.3601
 3712SOL     OW22597   3.089   0.517  14.332  0.2651  0.4822 -0.1024
 3712SOL    HW122598   3.097   0.613  14.325 -0.2596  0.5331 -0.0337
 3712SOL    HW222599   2.997   0.526  14.306  0.6073 -0.4286 -1.6257
 3713SOL     OW22600   3.021   2.691   1.694 -0.0358  0.4016  0.2130
 3713SOL    HW122601   2.952   2.740   1.739  1.0348  1.3531  0.7958
 3713SOL    HW222602   2.961   2.629   1.652 -0.6519  0.9811  0.2257
 3714SOL     OW22603   4.609   3.243   1.301 -0.7666  0.2078  0.1078
 3714SOL    HW122604   4.642   3.299   1.372  0.6151 -1.0517  0.4480
 3714SOL    HW222605   4.616   3.310   1.233  0.0630  1.9348  1.8914
 3715SOL     OW22606   0.100   2.784   3.217 -0.3147  0.0225  0.5304
 3715SOL    HW122607   0.112   2.690   3.225 -1.5793  0.0076  2.2077
 3715SOL    HW222608   0.006   2.779   3.233 -0.5675 -1.1006 -1.3046
 3716SOL     OW22609   2.416   2.949  10.002  0.3270  0.2101  0.0487
 3716SOL    HW122610   2.352   3.005  10.047  0.2549 -0.3416  0.6312
 3716SOL    HW222611   2.373   2.864   9.995  0.0398  0.6500 -3.6211
 3717SOL     OW22612   4.110   3.965  13.586  0.1304 -0.1798  0.5716
 3717SOL    HW122613   4.152   3.998  13.665  1.4751 -0.4168 -0.0340
 3717SOL    HW222614   4.129   3.872  13.588 -3.4567 -0.8973  0.5605
 3718SOL     OW22615   3.528   3.745   8.410  0.6075  0.7569 -0.0122
 3718SOL    HW122616   3.445   3.706   8.383  1.0073 -0.8968  1.1187
 3718SOL    HW222617   3.505   3.779   8.497 -1.4618 -0.3936 -0.1190
 3719SOL     OW22618   3.745   2.022   5.276  0.1848 -0.6069  0.3318
 3719SOL    HW122619   3.800   1.945   5.265  0.0133 -1.0425  2.4959
 3719SOL    HW222620   3.728   2.023   5.371  1.0144  4.1591  0.4637
 3720SOL     OW22621   3.934   3.944   1.768  0.0299  0.7440 -0.2820
 3720SOL    HW122622   3.981   3.878   1.818 -0.6791 -0.4649 -1.2256
 3720SOL    HW222623   3.935   3.907   1.680 -1.5612 -0.3540  0.1617
 3721SOL     OW22624   1.390   2.840   3.455  0.1922 -0.7355  0.1792
 3721SOL    HW122625   1.427   2.846   3.543  1.9325  0.9139 -0.6882
 3721SOL    HW222626   1.394   2.746   3.436  0.4909 -0.7222  0.1864
 3722SOL     OW22627   4.516   1.746  13.741  0.2758  0.5111  0.4730
 3722SOL    HW122628   4.502   1.727  13.834 -0.6474 -0.8527  0.0531
 3722SOL    HW222629   4.504   1.841  13.747  0.4985  0.5305  0.5910
 3723SOL     OW22630   0.932   2.326   6.475 -0.4802  0.1282  0.3199
 3723SOL    HW122631   0.884   2.281   6.405  1.0375 -1.1448  0.0897
 3723SOL    HW222632   0.877   2.403   6.485  0.9613  1.3423 -0.8914
 3724SOL     OW22633   1.701   4.496   5.190 -0.5241  0.3389  0.4361
 3724SOL    HW122634   1.697   4.414   5.240  0.5454  1.4376  2.3150
 3724SOL    HW222635   1.648   4.549   5.249  0.8391  1.7722  0.3721
 3725SOL     OW22636   4.642   1.753  10.945 -0.3693 -0.3392 -0.2680
 3725SOL    HW122637   4.682   1.745  11.031 -1.6485 -0.8956  0.2698
 3725SOL    HW222638   4.698   1.702  10.886  0.4648  0.1400  0.1140
 3726SOL     OW22639   1.204   1.797   3.102 -0.2315  0.2521  0.0305
 3726SOL    HW122640   1.207   1.859   3.029 -0.4313  0.0400 -0.1589
 3726SOL    HW222641   1.236   1.848   3.176 -1.2273  2.4954 -1.0818
 3727SOL     OW22642   0.098   2.040  12.729  0.9134 -0.7686  0.5768
 3727SOL    HW122643   0.009   2.071  12.713  0.6897 -0.1972  2.9162
 3727SOL    HW222644   0.122   2.086  12.809  0.4453  0.0856  0.2265
 3728SOL     OW22645   0.302   4.263  17.625 -0.1485  0.3820  0.2273
 3728SOL    HW122646   0.372   4.213  17.668  1.9313  0.9643 -2.4673
 3728SOL    HW222647   0.230   4.202  17.642 -0.2318  0.1897 -0.8507
 3729SOL     OW22648   4.660   2.452   7.743 -0.4332  0.6693  0.5108
 3729SOL    HW122649   4.657   2.544   7.718 -0.9991  0.2963 -0.8058
 3729SOL    HW222650   4.676   2.417   7.655 -1.0267  3.9200 -0.8784
 3730SOL     OW22651   2.984   3.632   7.599 -0.2602  0.5237 -0.3542
 3730SOL    HW122652   3.042   3.557   7.606 -1.0537 -0.2109 -1.6029
 3730SOL    HW222653   2.905   3.589   7.565 -0.7963 -2.0825  4.2256
 3731SOL     OW22654   4.065   1.328  16.823  0.0528 -0.8361  0.2703
 3731SOL    HW122655   4.109   1.280  16.893  0.9327 -0.0865  0.2374
 3731SOL    HW222656   3.976   1.338  16.856 -0.3725 -0.7937 -0.9020
 3732SOL     OW22657   1.770   4.464  13.358  0.0618 -0.1517 -0.0147
 3732SOL    HW122658   1.725   4.491  13.438  0.9893  2.0366 -0.2226
 3732SOL    HW222659   1.849   4.518  13.356  0.2532 -0.3227  2.7942
 3733SOL     OW22660   4.654   3.084   4.748 -0.3629  0.3771 -0.8836
 3733SOL    HW122661   0.025   3.112   4.771 -0.7371 -0.5548  1.6358
 3733SOL    HW222662   4.650   2.990   4.765  0.6762  0.5814  0.4357
 3734SOL     OW22663   3.775   0.236   0.374  0.2608 -0.1039  0.5439
 3734SOL    HW122664   3.769   0.150   0.415  1.1693 -1.4271 -2.1148
 3734SOL    HW222665   3.776   0.294   0.450  1.4145 -0.4886  0.8279
 3735SOL     OW22666   4.108   1.431  15.857  0.1286  0.2175 -0.2550
 3735SOL    HW122667   4.072   1.419  15.945  0.0775 -2.5842 -0.6644
 3735SOL    HW222668   4.034   1.412  15.800 -1.2264 -1.0722  1.9430
 3736SOL     OW22669   4.123   3.515   2.904 -0.5064  0.0354 -0.0533
 3736SOL    HW122670   4.185   3.587   2.913 -1.4562  0.9246 -0.5137
 3736SOL    HW222671   4.186   3.444   2.913 -1.2168 -0.6696 -0.5822
 3737SOL     OW22672   0.784   1.951   9.580 -0.8211  0.2734 -0.4407
 3737SOL    HW122673   0.698   1.988   9.558 -0.5788  1.4624  0.5462
 3737SOL    HW222674   0.842   2.026   9.565  0.1588 -0.3988 -0.0170
 3738SOL     OW22675   1.081   2.766   9.992  0.6071  0.0149  0.0626
 3738SOL    HW122676   1.008   2.810   9.948 -0.7304 -2.1027  0.1518
 3738SOL    HW222677   1.057   2.773  10.085  2.5301  1.9570  0.4149
 3739SOL     OW22678   1.920   4.035   8.647 -0.2457 -0.0048 -0.0812
 3739SOL    HW122679   1.824   4.037   8.649 -0.2470  0.7119 -1.2651
 3739SOL    HW222680   1.923   4.052   8.553 -0.0831  2.5868  0.4068
 3740SOL     OW22681   0.791   0.763  10.248 -0.3379  0.9973 -0.3567
 3740SOL    HW122682   0.806   0.855  10.266 -0.1735  1.2111 -1.5531
 3740SOL    HW222683   0.876   0.727  10.273 -0.4123  0.6846 -0.5490
 3741SOL     OW22684   2.279   1.185  16.634  0.2193 -0.5462 -0.2060
 3741SOL    HW122685   2.187   1.171  16.611  0.3620  0.3554 -1.3151
 3741SOL    HW222686   2.301   1.092  16.628 -0.5169 -0.7871  0.8300
 3742SOL     OW22687   3.462   3.909   0.671 -0.4659 -0.3026  0.2114
 3742SOL    HW122688   3.503   3.833   0.711 -0.1370 -0.2578 -0.0450
 3742SOL    HW222689   3.531   3.950   0.620 -0.0361 -0.1792  0.8979
 3743SOL     OW22690   2.036   2.355  17.216 -0.0402  0.4376  0.9215
 3743SOL    HW122691   2.087   2.413  17.159 -0.6571 -0.0185 -0.1073
 3743SOL    HW222692   1.963   2.346  17.155  1.5844 -0.5191 -0.8843
 3744SOL     OW22693   4.298   1.277  12.778 -0.4397  0.1109  0.1042
 3744SOL    HW122694   4.392   1.265  12.794 -0.1656  0.9165 -0.8768
 3744SOL    HW222695   4.278   1.205  12.718  3.2321  0.3899 -1.4852
 3745SOL     OW22696   0.565   0.843   4.955 -0.4178  0.2664 -0.6519
 3745SOL    HW122697   0.608   0.873   5.036 -0.4766 -2.3468  0.3542
 3745SOL    HW222698   0.633   0.786   4.919  0.0079 -1.8143  3.3734
 3746SOL     OW22699   4.436   2.306  13.891  0.6001 -0.0824 -0.3826
 3746SOL    HW122700   4.520   2.265  13.870 -0.1044 -1.7625  0.0348
 3746SOL    HW222701   4.469   2.382  13.938  0.1335 -0.2193  0.1556
 3747SOL     OW22702   3.231   3.669   9.899  0.1038 -0.0732  0.3462
 3747SOL    HW122703   3.299   3.687   9.834  0.4038  0.0153  0.6849
 3747SOL    HW222704   3.155   3.674   9.841  1.0266 -1.8195 -1.0015
 3748SOL     OW22705   2.805   2.943   9.351  0.2335 -0.5294 -0.1891
 3748SOL    HW122706   2.832   2.871   9.294 -0.3893  1.0335 -2.4528
 3748SOL    HW222707   2.711   2.947   9.336 -0.0271 -1.4508  1.1833
 3749SOL     OW22708   1.164   0.525   6.754 -0.3897 -0.3228  0.2333
 3749SOL    HW122709   1.189   0.476   6.676 -1.7189 -0.0924 -0.3323
 3749SOL    HW222710   1.200   0.468   6.823  1.2932  1.0449  0.4672
 3750SOL     OW22711   1.732   1.978   3.705 -0.4630 -0.3224 -0.1674
 3750SOL    HW122712   1.752   1.885   3.695  0.5047  0.1066 -2.2745
 3750SOL    HW222713   1.793   2.025   3.648  0.7712  0.1067  1.5410
 3751SOL     OW22714   2.555   2.333   7.187  0.0572  0.5053  0.3280
 3751SOL    HW122715   2.519   2.296   7.268 -0.4061  0.1676 -0.0280
 3751SOL    HW222716   2.471   2.349   7.144 -0.4599 -0.9945  0.7620
 3752SOL     OW22717   0.302   0.209  17.540  0.3396 -0.6795  0.2135
 3752SOL    HW122718   0.331   0.188  17.451 -1.3729  1.2586 -0.8057
 3752SOL    HW222719   0.248   0.283  17.512  0.6320 -0.5372  0.0244
 3753SOL     OW22720   4.381   2.705   5.591  0.2581 -0.1360 -0.2041
 3753SOL    HW122721   4.295   2.700   5.632  0.3286  1.9382  0.2140
 3753SOL    HW222722   4.407   2.797   5.595 -0.8734  0.2523 -1.9155
 3754SOL     OW22723   0.557   4.582  10.621 -0.3011  0.1673 -0.3475
 3754SOL    HW122724   0.520   4.534  10.547 -2.4820 -1.2667  1.6588
 3754SOL    HW222725   0.478   4.622  10.657  0.0062 -0.9439  1.5784
 3755SOL     OW22726   2.124   2.647   3.197 -0.7850 -0.1641 -0.3782
 3755SOL    HW122727   2.058   2.623   3.131 -0.4629 -1.6259 -0.1505
 3755SOL    HW222728   2.181   2.702   3.143 -0.2210 -1.2787 -0.8980
 3756SOL     OW22729   2.147   2.042  15.106  0.3429 -0.0015 -0.3355
 3756SOL    HW122730   2.139   2.137  15.092  0.3385 -0.1111 -1.0822
 3756SOL    HW222731   2.220   2.027  15.045  0.8043 -2.0409  0.7382
 3757SOL     OW22732   2.454   0.590   6.172  0.1210 -0.0219  0.2613
 3757SOL    HW122733   2.521   0.554   6.229  0.4773 -1.1850 -0.8976
 3757SOL    HW222734   2.379   0.542   6.208  0.4986 -0.6337  0.2230
 3758SOL     OW22735   2.827   1.815   6.432 -0.0827 -0.0263  0.0357
 3758SOL    HW122736   2.790   1.898   6.460  0.7460  1.0750 -2.1718
 3758SOL    HW222737   2.888   1.804   6.505  1.0630  1.6403 -0.7027
 3759SOL     OW22738   4.277   2.499  11.906 -0.1420 -0.0395 -0.3089
 3759SOL    HW122739   4.216   2.500  11.832 -0.1137  1.9669 -0.3023
 3759SOL    HW222740   4.251   2.419  11.952 -1.1540  0.9542  0.8338
 3760SOL     OW22741   3.446   0.156   8.011 -0.0717 -0.1420 -0.3946
 3760SOL    HW122742   3.527   0.111   8.036  0.4261 -0.1003 -1.8715
 3760SOL    HW222743   3.458   0.243   8.048 -1.3348 -1.8421  3.9252
 3761SOL     OW22744   1.221   2.520   2.892  0.3832 -0.2981 -0.5578
 3761SOL    HW122745   1.125   2.518   2.895  0.5192 -2.6438  1.9144
 3761SOL    HW222746   1.226   2.511   2.797  1.1312  0.1541 -0.5614
 3762SOL     OW22747   3.081   3.305   9.801 -0.0293  0.7369 -0.5870
 3762SOL    HW122748   3.166   3.349   9.795 -0.0674  0.8974  0.0713
 3762SOL    HW222749   3.099   3.238   9.736  2.1392  1.6582 -0.9281
 3763SOL     OW22750   4.367   0.732   0.413  0.0570  0.3438  0.1109
 3763SOL    HW122751   4.427   0.804   0.431  0.4789 -0.3313  1.3335
 3763SOL    HW222752   4.278   0.766   0.426 -0.4901 -1.2400  0.4944
 3764SOL     OW22753   1.164   0.631   4.085 -0.0581  0.2645  0.2547
 3764SOL    HW122754   1.163   0.714   4.134  0.3475 -0.2472  1.1374
 3764SOL    HW222755   1.167   0.566   4.154  1.5239 -0.4432 -0.4597
 3765SOL     OW22756   4.604   4.434   6.023  0.5664  0.5499 -0.0696
 3765SOL    HW122757   4.694   4.444   5.993  0.4791 -3.5434 -1.7375
 3765SOL    HW222758   4.576   4.354   5.977 -0.4328  0.8099  0.0939
 3766SOL     OW22759   1.822   3.272   0.570  0.2780  1.1109 -0.4982
 3766SOL    HW122760   1.874   3.306   0.497  2.4074 -2.3891 -0.6164
 3766SOL    HW222761   1.739   3.316   0.549 -0.1678 -0.2701 -1.6765
 3767SOL     OW22762   0.645   4.048  14.115  0.2845 -0.5089 -0.2208
 3767SOL    HW122763   0.722   4.047  14.171  1.6867  0.8963 -2.1179
 3767SOL    HW222764   0.614   4.133  14.148 -0.0545 -0.8496  0.3259
 3768SOL     OW22765   4.592   4.317   4.472 -0.6684  0.3017 -0.1584
 3768SOL    HW122766   4.534   4.265   4.527 -0.0475  1.4998  1.6389
 3768SOL    HW222767   4.534   4.382   4.431 -1.5180  0.3409  1.1144
 3769SOL     OW22768   0.803   4.693  12.157 -0.6570  0.2258 -0.1246
 3769SOL    HW122769   0.862   4.620  12.139 -0.6992 -0.1614  1.2656
 3769SOL    HW222770   0.853   0.030  12.096 -1.9301  1.2643 -0.2350
 3770SOL     OW22771   0.619   3.957   6.232  0.2356 -0.0589  0.4954
 3770SOL    HW122772   0.540   4.010   6.222  0.9256  0.9342  0.3194
 3770SOL    HW222773   0.662   3.975   6.315  1.7844  0.2660 -0.3836
 3771SOL     OW22774   0.173   1.919   2.658  0.2530 -0.3926  0.1096
 3771SOL    HW122775   0.207   1.845   2.708  1.0055  1.3697  2.2077
 3771SOL    HW222776   0.185   1.991   2.720 -1.3973 -1.3649  1.5489
 3772SOL     OW22777   0.543   0.213   5.687 -0.4751 -0.0494  0.4317
 3772SOL    HW122778   0.493   0.294   5.686  0.5419  0.5905  0.8876
 3772SOL    HW222779   0.481   0.145   5.663  0.5417 -0.6793 -0.3971
 3773SOL     OW22780   1.589   1.992   5.123 -0.0574 -0.4248  0.1586
 3773SOL    HW122781   1.630   1.928   5.064  0.8216  0.8303 -0.5752
 3773SOL    HW222782   1.665   2.020   5.174  1.0657 -0.8686 -1.2725
 3774SOL     OW22783   4.702   0.270   8.171 -0.1559 -0.0202 -0.0791
 3774SOL    HW122784   0.008   0.184   8.205 -0.0404  1.3171  3.1999
 3774SOL    HW222785   0.073   0.308   8.166  0.0787 -0.3474  1.8053
 3775SOL     OW22786   2.674   2.017   8.064  0.2339  0.1263 -0.1165
 3775SOL    HW122787   2.709   2.096   8.105 -1.4038  0.1549  1.2579
 3775SOL    HW222788   2.650   1.981   8.150  0.4754  0.5403  0.1236
 3776SOL     OW22789   2.795   4.617  13.812  0.5453  0.6800  0.1459
 3776SOL    HW122790   2.709   4.657  13.822  0.1163 -0.4383  0.9815
 3776SOL    HW222791   2.824   4.669  13.737  0.6631  2.6543  1.5591
 3777SOL     OW22792   1.120   3.924  16.391  0.2938  0.6602 -0.3170
 3777SOL    HW122793   1.052   3.988  16.371 -1.3755 -1.5910 -1.7840
 3777SOL    HW222794   1.067   3.852  16.426  0.5559 -0.1751 -1.6536
 3778SOL     OW22795   3.463   1.086   0.834 -0.1840 -0.6863  0.1135
 3778SOL    HW122796   3.512   1.011   0.867  0.0832 -0.6397 -0.1798
 3778SOL    HW222797   3.399   1.049   0.773 -0.9679 -0.2466  0.6770
 3779SOL     OW22798   2.557   1.372   0.637  0.2014  0.0586 -0.0534
 3779SOL    HW122799   2.578   1.465   0.643 -0.1693  0.2499 -1.5689
 3779SOL    HW222800   2.616   1.360   0.562 -0.2224 -0.9404 -0.2230
 3780SOL     OW22801   3.242   0.896   2.797 -0.5798  0.5224 -0.3960
 3780SOL    HW122802   3.280   0.817   2.835 -1.8614  0.7707  1.4080
 3780SOL    HW222803   3.314   0.944   2.757 -1.9820  0.9385 -2.4305
 3781SOL     OW22804   1.425   1.107   8.665  0.0580  0.0930  0.3268
 3781SOL    HW122805   1.464   1.172   8.724  0.4300  1.9496 -1.9713
 3781SOL    HW222806   1.488   1.111   8.593 -1.6061  0.2886 -1.1061
 3782SOL     OW22807   3.257   1.557   2.919  0.4656  0.2785 -0.1471
 3782SOL    HW122808   3.234   1.469   2.947  0.7009  0.4356  0.5687
 3782SOL    HW222809   3.208   1.618   2.974  0.7357 -0.5408  1.0000
 3783SOL     OW22810   0.983   0.563  16.777  0.2800 -0.2109  0.2995
 3783SOL    HW122811   0.941   0.543  16.861 -1.4415 -2.6800 -1.1650
 3783SOL    HW222812   1.076   0.560  16.799 -0.0841 -0.6454  1.7487
 3784SOL     OW22813   1.418   1.188   1.568 -0.3998  0.0406  0.2097
 3784SOL    HW122814   1.330   1.157   1.549  0.4296 -2.1163 -0.1128
 3784SOL    HW222815   1.476   1.151   1.501 -1.1598 -0.5708 -0.1071
 3785SOL     OW22816   4.067   3.484   7.927 -0.6108  1.1280 -0.1919
 3785SOL    HW122817   4.119   3.564   7.925  1.1852  0.0422  2.6678
 3785SOL    HW222818   4.016   3.509   7.850  0.1029  0.9190 -0.7213
 3786SOL     OW22819   4.688   3.772   4.163  0.5325  0.0068 -0.1930
 3786SOL    HW122820   0.057   3.737   4.187  0.4431  0.4523  0.7388
 3786SOL    HW222821   4.694   3.810   4.075  0.4139  1.4867  0.4534
 3787SOL     OW22822   1.795   1.990  17.239 -0.0099  0.0135 -0.1726
 3787SOL    HW122823   1.793   1.938  17.319 -1.8277  1.5050  0.7568
 3787SOL    HW222824   1.714   2.041  17.245  0.1559  0.3277 -0.6003
 3788SOL     OW22825   2.059   0.894   0.974 -0.2677  0.3501 -0.5147
 3788SOL    HW122826   2.105   0.947   0.909 -0.3300  1.2923  0.1980
 3788SOL    HW222827   1.986   0.952   0.993  1.1690  2.7856 -2.4443
 3789SOL     OW22828   1.573   2.779  10.622 -0.3143 -0.0787  0.4923
 3789SOL    HW122829   1.558   2.836  10.547  0.6447  0.6991  0.8835
 3789SOL    HW222830   1.595   2.844  10.689  1.2931  0.0706 -0.1913
 3790SOL     OW22831   2.874   3.999   5.984 -0.0026  0.2043 -0.0326
 3790SOL    HW122832   2.870   3.924   6.043  1.9503  0.2865  0.2126
 3790SOL    HW222833   2.781   4.014   5.965 -0.6794 -1.3351  2.0867
 3791SOL     OW22834   4.455   3.514   6.743 -0.1622 -0.7109  0.2696
 3791SOL    HW122835   4.388   3.506   6.675  0.7697  2.7116 -1.0537
 3791SOL    HW222836   4.504   3.584   6.701 -1.4638  0.1865  0.2347
 3792SOL     OW22837   1.622   4.403   6.769  0.4587 -0.3794 -0.2564
 3792SOL    HW122838   1.631   4.388   6.864  1.3370  3.0715  0.1851
 3792SOL    HW222839   1.562   4.329   6.754  0.3489 -0.6445  1.3984
 3793SOL     OW22840   0.979   4.253   7.560 -0.5189  0.2112 -0.1927
 3793SOL    HW122841   1.063   4.298   7.572 -1.3031  2.5988 -3.5584
 3793SOL    HW222842   0.934   4.251   7.644  0.3355  1.1840  0.2774
 3794SOL     OW22843   1.428   2.787   4.880  0.1976 -0.3294  0.6348
 3794SOL    HW122844   1.359   2.724   4.902  0.1182 -0.4749 -0.0200
 3794SOL    HW222845   1.383   2.851   4.825 -0.0478  0.6605  2.0188
 3795SOL     OW22846   4.044   1.931   6.253  0.0251 -0.8132  0.0615
 3795SOL    HW122847   3.954   1.901   6.264  0.4808 -1.6960  1.4006
 3795SOL    HW222848   4.072   1.876   6.180 -0.8418 -1.9368  0.5810
 3796SOL     OW22849   3.062   3.293   2.949  0.2407 -0.7226 -0.5356
 3796SOL    HW122850   3.121   3.240   2.895  1.1692 -0.4078  0.1758
 3796SOL    HW222851   3.106   3.283   3.033 -0.6674 -0.2772 -0.0103
 3797SOL     OW22852   3.737   0.330   1.317 -0.0478  0.1862  0.3221
 3797SOL    HW122853   3.801   0.393   1.286 -0.6580  0.7828  0.2766
 3797SOL    HW222854   3.772   0.249   1.279  0.5064 -0.5173  2.3201
 3798SOL     OW22855   2.871   0.677   8.939  0.1704 -0.1601  0.0206
 3798SOL    HW122856   2.782   0.704   8.913 -0.3497 -0.9724  0.9869
 3798SOL    HW222857   2.847   0.654   9.029  2.2715  0.8720  0.8443
 3799SOL     OW22858   3.702   0.764   1.081 -0.5700 -0.1443 -0.3909
 3799SOL    HW122859   3.621   0.762   1.131 -0.4530  1.4644 -0.1382
 3799SOL    HW222860   3.757   0.706   1.133  0.1371 -1.5483 -2.7220
 3800SOL     OW22861   4.624   2.724   6.925 -0.2070 -0.4418 -0.3278
 3800SOL    HW122862   4.629   2.818   6.909 -2.4644 -0.2594  0.0775
 3800SOL    HW222863   4.536   2.702   6.894 -1.2646  1.2577  1.5106
 3801SOL     OW22864   4.240   4.533   3.542  0.1890  0.6357  0.5663
 3801SOL    HW122865   4.277   4.448   3.564 -1.7999  0.5110  3.4163
 3801SOL    HW222866   4.316   4.589   3.562 -0.2552  1.8629 -1.2132
 3802SOL     OW22867   3.085   0.801  14.352 -0.4050  0.6366  0.9021
 3802SOL    HW122868   3.010   0.807  14.293 -1.6081 -0.4224  2.3406
 3802SOL    HW222869   3.134   0.884  14.355  0.8741 -0.0474 -0.8026
 3803SOL     OW22870   0.913   1.403  16.415 -0.2112  0.4622 -0.1128
 3803SOL    HW122871   0.997   1.366  16.441 -0.5626 -1.3417 -1.5464
 3803SOL    HW222872   0.860   1.341  16.465 -0.3696 -1.0751 -2.1522
 3804SOL     OW22873   0.273   0.226   1.248 -0.5820 -1.0116  0.2710
 3804SOL    HW122874   0.223   0.163   1.299 -0.1487 -1.5011  0.0952
 3804SOL    HW222875   0.218   0.250   1.174  0.5317 -1.4624 -0.7085
 3805SOL     OW22876   1.396   3.458   6.581 -0.2216  0.7782  0.4291
 3805SOL    HW122877   1.334   3.395   6.545  0.4413  2.0085 -2.8510
 3805SOL    HW222878   1.476   3.435   6.534  0.2310  3.3975 -0.0983
 3806SOL     OW22879   4.142   1.056   7.544 -0.1282 -0.9914 -0.1026
 3806SOL    HW122880   4.183   1.039   7.460  2.9119  0.5403  1.0876
 3806SOL    HW222881   4.217   1.077   7.599 -2.2269 -1.0238  2.8198
 3807SOL     OW22882   1.831   1.485  13.295 -0.4663 -0.9732  0.2683
 3807SOL    HW122883   1.773   1.420  13.335 -1.7539 -0.3161 -0.5203
 3807SOL    HW222884   1.759   1.542  13.267 -1.7636 -3.4252 -1.4004
 3808SOL     OW22885   2.123   1.334   2.890  0.1784  0.3298  0.1583
 3808SOL    HW122886   2.217   1.345   2.898  0.2342  1.7131 -2.3941
 3808SOL    HW222887   2.119   1.365   2.799 -1.3996 -0.0287  0.0980
 3809SOL     OW22888   1.268   2.142   8.079 -0.1137  0.3288  0.0026
 3809SOL    HW122889   1.210   2.139   8.155 -0.9430  0.3438 -0.6258
 3809SOL    HW222890   1.237   2.223   8.037  0.4013 -0.1442 -1.2814
 3810SOL     OW22891   2.142   0.669   1.125  0.2041 -0.3970  0.1515
 3810SOL    HW122892   2.136   0.733   1.054  3.7678 -1.3973 -1.0706
 3810SOL    HW222893   2.235   0.649   1.129  0.8126  2.6431  1.4859
 3811SOL     OW22894   2.286   1.055   0.905 -0.5737 -0.1909 -0.3939
 3811SOL    HW122895   2.306   1.121   0.839 -0.6347 -1.8604 -2.0895
 3811SOL    HW222896   2.367   1.005   0.910 -0.5662 -0.2138 -0.7509
 3812SOL     OW22897   3.673   3.137  13.018 -0.3779  0.1641  0.0044
 3812SOL    HW122898   3.643   3.158  13.106 -2.8272  0.7083 -0.9476
 3812SOL    HW222899   3.615   3.188  12.961 -0.0050 -1.2075 -1.6271
 3813SOL     OW22900   2.462   3.106   8.509  0.2781  0.5619 -0.3549
 3813SOL    HW122901   2.397   3.120   8.577  1.3886  2.1110  0.3860
 3813SOL    HW222902   2.514   3.028   8.531 -0.7645  0.1066  0.4623
 3814SOL     OW22903   2.379   4.381  13.278  0.0763  0.1862 -0.4120
 3814SOL    HW122904   2.341   4.360  13.193  1.3949  1.5354 -1.3280
 3814SOL    HW222905   2.304   4.366  13.337 -0.0044  1.2302 -0.2488
 3815SOL     OW22906   4.670   3.551  11.700  0.8668  0.1491 -0.4301
 3815SOL    HW122907   4.662   3.478  11.762 -0.7650  1.1777  0.5756
 3815SOL    HW222908   0.043   3.575  11.719  0.2365  2.0631  0.2087
 3816SOL     OW22909   2.951   4.600   5.735 -0.3359 -0.6037  0.3640
 3816SOL    HW122910   2.954   4.544   5.657  0.6539 -0.5583  0.3697
 3816SOL    HW222911   3.039   4.636   5.745 -0.3839  0.0965 -1.6193
 3817SOL     OW22912   3.949   1.201  15.739 -0.3714  0.8185  0.0407
 3817SOL    HW122913   4.043   1.215  15.729  0.0242 -1.3277  0.7301
 3817SOL    HW222914   3.911   1.225  15.655  0.0095 -1.0997 -0.6886
 3818SOL     OW22915   1.988   1.885  11.413 -0.6543  0.2246 -0.1143
 3818SOL    HW122916   1.987   1.935  11.332 -2.6083  0.7006  0.1970
 3818SOL    HW222917   1.930   1.809  11.399  0.3254 -0.5490  0.0185
 3819SOL     OW22918   2.566   2.989   7.892  0.3407 -0.0713  0.0586
 3819SOL    HW122919   2.500   3.051   7.924 -0.1527 -1.5095  1.8470
 3819SOL    HW222920   2.652   3.030   7.882  0.3346  0.1275  0.8306
 3820SOL     OW22921   0.531   2.357   2.989 -0.1424 -0.2705 -0.3296
 3820SOL    HW122922   0.499   2.367   3.079  2.6792  0.5600  0.5922
 3820SOL    HW222923   0.598   2.291   3.003  1.1746  0.7987 -1.5493
 3821SOL     OW22924   3.698   1.127   3.480  0.5031 -0.2456  0.4209
 3821SOL    HW122925   3.686   1.036   3.511 -2.1419  1.1054  3.4113
 3821SOL    HW222926   3.699   1.120   3.385  0.0866  1.8005  0.2749
 3822SOL     OW22927   0.936   2.480   6.813  0.0262 -0.2057  0.5048
 3822SOL    HW122928   0.881   2.513   6.883  0.2462  2.8290 -0.7707
 3822SOL    HW222929   0.910   2.537   6.741  1.0781  0.2502  0.4889
 3823SOL     OW22930   0.401   1.882   6.171 -0.0968 -0.1249 -0.0702
 3823SOL    HW122931   0.319   1.866   6.218  0.6417 -0.5534  1.0883
 3823SOL    HW222932   0.401   1.977   6.180 -0.4415 -0.4454  3.4549
 3824SOL     OW22933   0.289   3.781   3.143 -0.3409 -0.3520  0.0563
 3824SOL    HW122934   0.261   3.796   3.053 -0.0584 -1.6614 -0.2626
 3824SOL    HW222935   0.374   3.826   3.145 -0.6424  0.2687 -0.9683
 3825SOL     OW22936   0.586   0.403   5.333  0.6247 -0.0006 -0.4672
 3825SOL    HW122937   0.632   0.398   5.417 -0.6032  0.4235  0.2436
 3825SOL    HW222938   0.647   0.452   5.278 -0.7870  2.7630  0.4125
 3826SOL     OW22939   2.972   1.131   3.493 -0.6866 -0.3510  0.4581
 3826SOL    HW122940   2.953   1.211   3.443  0.5586  0.6873  1.6164
 3826SOL    HW222941   2.972   1.164   3.584 -1.7671 -0.6851  0.5765
 3827SOL     OW22942   4.360   2.283  10.126  0.4411  0.0139 -0.1760
 3827SOL    HW122943   4.405   2.272  10.043 -2.4208 -2.7703 -1.3666
 3827SOL    HW222944   4.394   2.371  10.145 -0.2607  0.8680 -2.8208
 3828SOL     OW22945   3.121   4.107   6.295  0.3914 -0.0682  0.0314
 3828SOL    HW122946   3.162   4.118   6.209  0.0226 -0.1059 -0.1490
 3828SOL    HW222947   3.056   4.177   6.284 -0.3126 -1.1404 -2.7076
 3829SOL     OW22948   2.956   3.501   3.286 -0.0759 -0.0951  0.0568
 3829SOL    HW122949   3.005   3.511   3.368  1.7461  0.5501 -1.1038
 3829SOL    HW222950   2.867   3.530   3.304 -0.4508  0.5319 -2.8149
 3830SOL     OW22951   3.482   1.159   8.006 -0.0729  0.5366 -0.7517
 3830SOL    HW122952   3.480   1.225   8.076  1.0478  0.9390 -1.1038
 3830SOL    HW222953   3.391   1.162   7.976 -0.4849  1.3338  0.5802
 3831SOL     OW22954   1.093   0.261   7.620  0.4286 -0.0469 -0.2058
 3831SOL    HW122955   1.042   0.339   7.597  1.6914  0.5543 -0.9558
 3831SOL    HW222956   1.185   0.289   7.620 -0.3616  2.5408  0.0407
 3832SOL     OW22957   4.297   3.815   7.180  0.3194 -0.2683  0.1343
 3832SOL    HW122958   4.234   3.743   7.189 -1.0171  0.8992 -0.0141
 3832SOL    HW222959   4.365   3.792   7.244  0.3343 -2.1997 -0.5509
 3833SOL     OW22960   4.020   2.232  17.276 -0.2396  0.8050  0.2610
 3833SOL    HW122961   4.031   2.150  17.324  0.9442 -0.3176 -1.9321
 3833SOL    HW222962   3.937   2.215  17.232 -0.3695  0.9893  0.4363
 3834SOL     OW22963   1.204   0.270   2.936  0.7365  0.0596  0.0873
 3834SOL    HW122964   1.265   0.292   3.006 -0.3819 -0.5799  1.2611
 3834SOL    HW222965   1.249   0.294   2.855  0.5023  0.2391  0.0088
 3835SOL     OW22966   2.905   3.062   1.971  0.0273  0.3375  0.2150
 3835SOL    HW122967   2.873   3.148   1.946 -0.6842  0.8023  2.7338
 3835SOL    HW222968   2.937   3.080   2.059 -3.2414 -0.7294  1.5948
 3836SOL     OW22969   2.725   0.051   2.597  0.1022  0.0482  0.3882
 3836SOL    HW122970   2.712   0.113   2.669  2.9646  2.3464 -1.0875
 3836SOL    HW222971   2.646   4.717   2.612 -0.7448  0.4829 -2.6149
 3837SOL     OW22972   2.748   4.588  17.272 -0.1713  0.7397 -0.4384
 3837SOL    HW122973   2.669   4.577  17.217 -0.0288 -0.4303 -0.4180
 3837SOL    HW222974   2.706   4.607  17.356 -0.4784 -1.3074 -0.1145
 3838SOL     OW22975   2.061   3.357   5.592  0.5779  0.0257  0.0543
 3838SOL    HW122976   2.090   3.313   5.672  2.8432 -1.3250 -1.5254
 3838SOL    HW222977   1.993   3.417   5.624  0.9554 -0.6950  2.2163
 3839SOL     OW22978   4.029   0.912  10.138 -0.2177 -0.1385  0.0080
 3839SOL    HW122979   4.042   0.817  10.134  1.5402  0.1434 -0.9527
 3839SOL    HW222980   4.104   0.958  10.177  1.5621 -2.8998 -0.0850
 3840SOL     OW22981   0.595   3.598   3.945  0.4258  0.3019 -0.6222
 3840SOL    HW122982   0.530   3.607   3.876 -0.2337 -1.6121 -0.2363
 3840SOL    HW222983   0.567   3.673   3.997 -0.2614 -1.7055  1.8839
 3841SOL     OW22984   1.197   4.468   1.641  0.3241  0.6841 -0.3262
 3841SOL    HW122985   1.217   4.409   1.713  1.4199  1.1698 -0.2372
 3841SOL    HW222986   1.220   4.547   1.690 -2.2460  0.5705  1.1027
 3842SOL     OW22987   1.956   1.186  16.512 -0.1597  0.0375  0.2060
 3842SOL    HW122988   1.959   1.188  16.417  1.1180  0.6494  0.2581
 3842SOL    HW222989   1.937   1.279  16.527  1.1776  0.4012 -0.3845
 3843SOL     OW22990   0.308   3.990   1.199  0.4279  0.4505 -0.8111
 3843SOL    HW122991   0.270   3.921   1.144 -1.6292 -0.9791  2.3543
 3843SOL    HW222992   0.381   4.009   1.141  1.2697  2.5718  0.9306
 3844SOL     OW22993   0.503   1.605  11.668  0.0561 -0.1187 -0.1737
 3844SOL    HW122994   0.461   1.565  11.744  0.0892  2.0523  0.9954
 3844SOL    HW222995   0.569   1.657  11.715 -0.3207 -0.5276  0.8116
 3845SOL     OW22996   3.391   2.573   5.248 -0.1339 -0.0246 -0.2713
 3845SOL    HW122997   3.317   2.584   5.189 -1.5903  1.1717  1.7817
 3845SOL    HW222998   3.366   2.492   5.293 -2.1558 -0.1442 -1.5829
 3846SOL     OW22999   2.831   3.448  13.071 -0.4909  0.5477  0.6385
 3846SOL    HW123000   2.821   3.540  13.096  0.4566  0.5881  0.8427
 3846SOL    HW223001   2.821   3.455  12.976  1.5848  0.9379  0.4616
 3847SOL     OW23002   0.309   3.425   3.271 -0.4526 -0.0186 -0.1226
 3847SOL    HW123003   0.309   3.354   3.207  0.8943 -2.6985  2.8526
 3847SOL    HW223004   0.367   3.492   3.233 -0.7148  0.4997  0.4006
 3848SOL     OW23005   3.176   4.709   6.375 -0.1339  0.2144  0.3731
 3848SOL    HW123006   3.265   4.711   6.340  0.2790 -1.7307  1.2982
 3848SOL    HW223007   3.177   4.656   6.455  0.4291  0.6123  0.6321
 3849SOL     OW23008   3.585   3.644   4.545  0.2163  0.5360 -0.4210
 3849SOL    HW123009   3.663   3.629   4.599  1.1883  2.8544 -1.1555
 3849SOL    HW223010   3.554   3.728   4.580 -1.1396 -0.2376  0.2471
 3850SOL     OW23011   1.941   1.653  17.119  0.0325 -0.7073 -0.5155
 3850SOL    HW123012   1.909   1.651  17.029  1.0884 -1.0586 -0.8844
 3850SOL    HW223013   2.002   1.727  17.124 -1.5362  0.6186 -1.0108
 3851SOL     OW23014   3.928   3.275   4.724 -0.8375  0.6118  0.1543
 3851SOL    HW123015   3.947   3.345   4.786  0.9886 -1.0016  1.4469
 3851SOL    HW223016   3.887   3.210   4.781 -1.0172 -0.0404 -0.7048
 3852SOL     OW23017   3.616   2.130   1.765 -0.0352  0.3855  0.5608
 3852SOL    HW123018   3.701   2.094   1.789 -0.1140  0.9187  1.6179
 3852SOL    HW223019   3.569   2.117   1.848  1.0292  0.6256  1.1937
 3853SOL     OW23020   3.316   3.408   9.702 -0.0786 -0.1636  0.7984
 3853SOL    HW123021   3.285   3.438   9.617  0.4179 -2.2326 -0.1251
 3853SOL    HW223022   3.408   3.432   9.695 -0.5384  0.5333 -2.6216
 3854SOL     OW23023   2.632   2.470   3.952 -0.4286 -0.3533  0.5755
 3854SOL    HW123024   2.548   2.504   3.924 -0.1509 -0.3916 -0.3083
 3854SOL    HW223025   2.630   2.385   3.909 -0.7411 -0.2334  0.3604
 3855SOL     OW23026   0.820   0.060   3.983  0.4279 -0.4363  0.1191
 3855SOL    HW123027   0.790   4.694   4.019  2.1182  0.1995  3.0184
 3855SOL    HW223028   0.899   0.030   3.937  1.2389  0.8299  0.6750
 3856SOL     OW23029   2.627   4.175  16.673 -0.1697  0.1295 -0.4931
 3856SOL    HW123030   2.605   4.098  16.726  0.1463  0.5315  0.2222
 3856SOL    HW223031   2.720   4.153  16.662  0.3017  1.6067  0.5835
 3857SOL     OW23032   4.058   3.098   8.112 -0.0468  0.3562  0.0213
 3857SOL    HW123033   4.080   3.079   8.204  0.4134  4.4292  0.7778
 3857SOL    HW223034   3.999   3.025   8.096 -1.4064  1.1664  1.2184
 3858SOL     OW23035   1.405   2.011   9.380  0.0873 -0.4944  0.1465
 3858SOL    HW123036   1.394   2.058   9.298 -0.4680  1.9133  1.5986
 3858SOL    HW223037   1.489   1.968   9.365  1.4892  1.9731  0.9966
 3859SOL     OW23038   1.275   2.430   3.146  0.4222  0.3073 -0.5217
 3859SOL    HW123039   1.263   2.466   3.058 -0.3220  0.7821 -0.2271
 3859SOL    HW223040   1.213   2.485   3.194 -2.3403 -1.6313 -1.8788
 3860SOL     OW23041   3.436   2.217   6.465  0.3309  0.2090  0.0142
 3860SOL    HW123042   3.367   2.178   6.412 -1.0228  1.7947  0.6118
 3860SOL    HW223043   3.492   2.142   6.486  2.2775  1.7070  0.1086
 3861SOL     OW23044   0.858   1.747   2.948 -0.6386  0.4664  0.5599
 3861SOL    HW123045   0.827   1.680   2.888 -0.2491  0.7037  0.0956
 3861SOL    HW223046   0.943   1.707   2.967 -1.0398 -1.1836 -1.1641
 3862SOL     OW23047   4.521   0.653  17.134 -0.3239  0.3894  0.0015
 3862SOL    HW123048   4.538   0.734  17.085  0.6827  0.8632  1.1245
 3862SOL    HW223049   4.523   0.587  17.065  0.7728  0.9599 -0.5167
 3863SOL     OW23050   1.525   1.596   6.420  0.0122 -0.0523  0.6352
 3863SOL    HW123051   1.562   1.647   6.349  2.6526  0.6789  2.5421
 3863SOL    HW223052   1.456   1.656   6.446  0.2982  0.6431 -0.2349
 3864SOL     OW23053   3.422   0.958  15.569  0.0011 -0.2603  0.3068
 3864SOL    HW123054   3.339   0.911  15.559  0.8824 -1.7175 -0.0096
 3864SOL    HW223055   3.461   0.929  15.487  1.4430  2.7862 -0.0863
 3865SOL     OW23056   4.652   2.865  11.752 -0.4371 -0.0288 -0.0178
 3865SOL    HW123057   4.623   2.812  11.826 -3.7624  0.7740 -0.7257
 3865SOL    HW223058   0.004   2.814  11.711  0.4533  1.3620 -0.2159
 3866SOL     OW23059   2.974   3.943   7.876 -0.5059  0.0131  0.3187
 3866SOL    HW123060   2.896   3.921   7.825 -1.9263  0.6938  2.2075
 3866SOL    HW223061   2.931   3.967   7.958 -0.6344 -3.9369  1.4212
 3867SOL     OW23062   1.089   2.124  16.479 -0.0529 -0.7198  0.2160
 3867SOL    HW123063   1.052   2.151  16.395  0.8099 -0.6700 -0.1479
 3867SOL    HW223064   1.010   2.114  16.531  0.4976  2.0385  1.5724
 3868SOL     OW23065   2.698   1.254   8.629  0.1087  0.0672  0.0536
 3868SOL    HW123066   2.721   1.165   8.655 -2.4149  0.0077  2.0576
 3868SOL    HW223067   2.604   1.245   8.613  0.1628 -1.4794  0.5695
 3869SOL     OW23068   1.955   2.347  10.102 -0.1174  0.7681 -0.2952
 3869SOL    HW123069   2.019   2.392  10.157  0.0770 -1.2129  1.0963
 3869SOL    HW223070   1.875   2.390  10.132 -0.6415 -1.1142  1.0139
 3870SOL     OW23071   2.314   4.163   7.874  0.1252  0.4514 -0.7110
 3870SOL    HW123072   2.308   4.077   7.832 -2.3454  0.5866 -0.6402
 3870SOL    HW223073   2.343   4.143   7.963 -0.4020 -0.3482 -0.7146
 3871SOL     OW23074   4.552   2.690  14.682 -0.6787 -0.5670  0.2341
 3871SOL    HW123075   4.573   2.599  14.660  1.9021 -0.2758  1.4411
 3871SOL    HW223076   4.634   2.738  14.667 -2.5123  2.5522  0.2336
 3872SOL     OW23077   2.579   1.649  14.223  0.0251 -0.2389  0.4719
 3872SOL    HW123078   2.659   1.688  14.259 -0.8108  1.9014  0.0085
 3872SOL    HW223079   2.514   1.707  14.263  0.9316 -0.6306  2.5022
 3873SOL     OW23080   0.471   1.621   4.936 -0.3714 -0.2944 -0.4715
 3873SOL    HW123081   0.432   1.535   4.922 -0.4345 -0.0450 -1.8082
 3873SOL    HW223082   0.406   1.671   4.888  0.1779  0.0664 -0.8468
 3874SOL     OW23083   3.006   1.388   2.045 -0.1065 -0.5104  0.0712
 3874SOL    HW123084   2.911   1.389   2.041 -0.1264  0.4826  0.5267
 3874SOL    HW223085   3.021   1.448   2.119 -0.3755  1.2763 -1.3290
 3875SOL     OW23086   3.911   3.826  17.075  0.1745  0.2125 -0.0160
 3875SOL    HW123087   3.901   3.910  17.029 -0.6344  0.8269  1.2676
 3875SOL    HW223088   4.004   3.810  17.056 -0.1274  1.3138 -2.4696
 3876SOL     OW23089   2.707   4.099  11.779 -0.0051 -0.4080 -0.2656
 3876SOL    HW123090   2.758   4.150  11.842 -2.5017 -1.1286  2.3278
 3876SOL    HW223091   2.774   4.031  11.775  0.8244  0.4302 -0.6506
 3877SOL     OW23092   1.323   1.742   6.842 -0.1362  0.6499 -0.1309
 3877SOL    HW123093   1.391   1.792   6.797 -0.3568  0.3953 -0.7509
 3877SOL    HW223094   1.357   1.653   6.832  0.0110  0.4819  1.8119
 3878SOL     OW23095   0.895   4.034   7.130 -0.5106 -0.0431  0.1864
 3878SOL    HW123096   0.877   4.128   7.128  1.7497  0.2964 -3.1881
 3878SOL    HW223097   0.906   4.016   7.224 -0.0203  0.9021  0.3078
 3879SOL     OW23098   4.515   0.653   0.996  0.2532  0.1554  0.1329
 3879SOL    HW123099   4.531   0.643   0.902  0.5369  2.6710 -0.0844
 3879SOL    HW223100   4.499   0.747   1.002 -2.6968 -0.2124 -1.4628
 3880SOL     OW23101   2.683   1.880  13.913 -0.6770 -1.0273  0.4746
 3880SOL    HW123102   2.678   1.954  13.974 -0.4596 -1.1486  0.6440
 3880SOL    HW223103   2.737   1.820  13.965  0.3319 -1.1442 -0.7216
 3881SOL     OW23104   4.291   4.392  14.429 -0.5452  0.0197  0.7754
 3881SOL    HW123105   4.328   4.350  14.507 -1.1104  1.8183  2.0232
 3881SOL    HW223106   4.373   4.429  14.396 -0.4303  1.2673  2.4765
 3882SOL     OW23107   1.478   1.984   6.762 -0.2721  0.4920  0.3318
 3882SOL    HW123108   1.547   2.023   6.708  1.4289  0.0039  2.1281
 3882SOL    HW223109   1.408   2.049   6.767 -1.1556 -0.4406  0.1210
 3883SOL     OW23110   1.580   4.306  11.761  0.0258 -0.0490 -0.6672
 3883SOL    HW123111   1.622   4.276  11.680  0.5523  0.3045 -0.5263
 3883SOL    HW223112   1.606   4.398  11.769 -0.9454  0.1626  0.0380
 3884SOL     OW23113   3.404   1.397   8.455  0.1778 -0.1670  0.1955
 3884SOL    HW123114   3.482   1.427   8.502 -0.2324 -1.2888  1.5810
 3884SOL    HW223115   3.335   1.443   8.503  0.7604 -0.8922  1.7144
 3885SOL     OW23116   1.128   3.677   4.796  0.0641 -0.4461 -0.1992
 3885SOL    HW123117   1.142   3.724   4.878  2.2176  1.3335 -1.6034
 3885SOL    HW223118   1.041   3.638   4.812 -0.6410  1.8039  1.4129
 3886SOL     OW23119   0.104   1.692   9.104 -0.0732 -0.2569 -0.5012
 3886SOL    HW123120   0.100   1.786   9.120  2.4004 -0.2739  0.3020
 3886SOL    HW223121   0.141   1.693   9.016 -0.6019  0.7933 -0.7114
 3887SOL     OW23122   2.690   1.730   5.915  0.5302 -0.4128 -0.3066
 3887SOL    HW123123   2.599   1.707   5.933 -0.5481  0.4497 -4.5808
 3887SOL    HW223124   2.739   1.651   5.939  1.4857 -0.0569 -1.0382
 3888SOL     OW23125   1.559   2.174   3.658 -0.8264 -0.2429 -0.3780
 3888SOL    HW123126   1.564   2.154   3.564  0.8278 -1.4592 -0.0304
 3888SOL    HW223127   1.619   2.108   3.693  1.9787  2.3865 -0.3162
 3889SOL     OW23128   0.345   4.044  14.415 -0.5151 -0.1229  0.1751
 3889SOL    HW123129   0.307   4.122  14.373 -0.6085 -0.2688 -0.0136
 3889SOL    HW223130   0.403   4.092  14.474  0.6676 -1.1002 -0.2128
 3890SOL     OW23131   0.454   4.350  13.904 -0.2115  0.0916 -0.1999
 3890SOL    HW123132   0.408   4.432  13.888 -1.3347 -0.5533 -0.2980
 3890SOL    HW223133   0.375   4.304  13.932 -1.0310  1.0897 -0.8865
 3891SOL     OW23134   0.180   2.119  11.070  0.1437 -0.6090 -0.1249
 3891SOL    HW123135   0.232   2.041  11.052  1.2444 -0.0430  0.5981
 3891SOL    HW223136   0.229   2.169  11.135 -2.6305  3.1591 -0.8884
 3892SOL     OW23137   1.861   2.074   0.960  0.2769  0.0154 -0.0311
 3892SOL    HW123138   1.924   2.076   1.032 -0.9530 -0.0603  1.0319
 3892SOL    HW223139   1.806   2.150   0.976  0.2152  0.8099 -4.0398
 3893SOL     OW23140   1.979   0.675   1.348 -0.2906  0.7690 -0.3433
 3893SOL    HW123141   2.013   0.671   1.258  2.2358 -0.1289  0.6507
 3893SOL    HW223142   2.050   0.725   1.389 -0.2969 -0.3132  0.9569
 3894SOL     OW23143   0.342   0.107  15.782  0.0429 -0.5369  0.0954
 3894SOL    HW123144   0.330   0.168  15.854 -2.0318  0.4130 -1.0312
 3894SOL    HW223145   0.343   0.032  15.841  0.3499 -0.7717 -0.2080
 3895SOL     OW23146   0.123   1.973   9.182 -0.7126 -0.4837  0.0950
 3895SOL    HW123147   0.104   2.026   9.259  0.7112  0.9932 -0.5722
 3895SOL    HW223148   0.119   2.044   9.118 -0.9139  0.0848  0.7397
 3896SOL     OW23149   3.111   3.774  15.313  0.1681  0.0634  0.7235
 3896SOL    HW123150   3.082   3.718  15.241  2.8472 -2.4133  1.5659
 3896SOL    HW223151   3.155   3.710  15.369  0.8897  0.1874  0.3102
 3897SOL     OW23152   2.292   3.972   7.678 -0.3435  0.4019  0.2084
 3897SOL    HW123153   2.330   3.972   7.590 -0.0751 -0.5948  0.3266
 3897SOL    HW223154   2.201   3.996   7.665 -0.0086  1.1002 -0.8141
 3898SOL     OW23155   3.919   2.020   4.587  0.5200 -0.5845  0.4023
 3898SOL    HW123156   3.946   2.088   4.526  1.5416 -0.0230  1.4772
 3898SOL    HW223157   3.828   2.007   4.560  0.9254  0.6631 -1.5609
 3899SOL     OW23158   1.878   2.684   7.359  0.0169  0.1569 -0.4099
 3899SOL    HW123159   1.795   2.637   7.369 -0.7240  1.3804 -0.9108
 3899SOL    HW223160   1.862   2.743   7.432  0.2137 -0.0181 -0.2232
 3900SOL     OW23161   2.753   2.896  11.990 -0.8326  0.1787 -0.3385
 3900SOL    HW123162   2.824   2.947  12.030  0.7028 -1.1768 -1.3191
 3900SOL    HW223163   2.703   2.972  11.960 -0.7084  0.2520 -0.3604
 3901SOL     OW23164   0.714   3.582   6.515  0.1775 -0.3298 -0.0311
 3901SOL    HW123165   0.663   3.652   6.557 -1.8122 -1.8645  0.0991
 3901SOL    HW223166   0.772   3.567   6.589 -1.1213 -0.1913  1.0290
 3902SOL     OW23167   3.358   0.609   5.164  0.2414  0.4728 -0.3659
 3902SOL    HW123168   3.439   0.576   5.204 -0.7735 -2.1492 -0.5253
 3902SOL    HW223169   3.343   0.541   5.098  1.0154  1.1333 -1.2415
 3903SOL     OW23170   3.053   0.599   2.743  0.1288 -0.6267  0.2198
 3903SOL    HW123171   2.987   0.589   2.812 -2.3537 -1.4980 -2.2581
 3903SOL    HW223172   3.054   0.517   2.694  0.2582  0.1386 -1.0517
 3904SOL     OW23173   3.567   1.596  12.036 -0.1608  0.0041  0.3091
 3904SOL    HW123174   3.592   1.504  12.045 -0.2774 -0.3257 -2.5708
 3904SOL    HW223175   3.522   1.590  11.952  1.0085 -1.8112 -0.1907
 3905SOL     OW23176   2.180   2.537   5.342  0.2677 -0.1475  0.5875
 3905SOL    HW123177   2.162   2.629   5.359 -0.5639 -0.3533  0.8415
 3905SOL    HW223178   2.092   2.506   5.366 -0.4163 -0.0610 -1.7456
 3906SOL     OW23179   3.686   3.781  11.132 -0.0041  0.1468 -0.2286
 3906SOL    HW123180   3.723   3.746  11.050 -2.6953 -0.6523 -1.0911
 3906SOL    HW223181   3.730   3.864  11.153  3.3202 -1.4796 -0.6437
 3907SOL     OW23182   2.252   2.846   8.708  0.1568 -0.3089 -0.3164
 3907SOL    HW123183   2.206   2.905   8.648 -1.6032 -0.0973  1.2305
 3907SOL    HW223184   2.188   2.820   8.774 -0.1404 -1.4036 -1.0334
 3908SOL     OW23185   1.554   4.653  17.550  0.1719 -0.4620 -0.1865
 3908SOL    HW123186   1.503   4.651  17.469  0.9135  2.8600 -0.7385
 3908SOL    HW223187   1.496   4.660  17.626 -1.1227 -0.3474 -1.1980
 3909SOL     OW23188   3.587   4.238   0.690  0.0501 -0.1571  0.2234
 3909SOL    HW123189   3.604   4.185   0.612  2.0470  1.9502 -0.7450
 3909SOL    HW223190   3.655   4.189   0.736  1.1697  0.4209 -0.8236
 3910SOL     OW23191   1.217   3.395   2.322  0.8472 -0.0909  0.1743
 3910SOL    HW123192   1.219   3.489   2.337 -0.2880 -0.0531  0.0820
 3910SOL    HW223193   1.259   3.384   2.236 -1.7047  0.7467 -1.1844
 3911SOL     OW23194   2.744   1.540  16.453  0.2983  0.3283  0.0866
 3911SOL    HW123195   2.669   1.596  16.436  1.1598  1.0269 -1.4490
 3911SOL    HW223196   2.793   1.538  16.371  0.0542 -1.8217 -0.0209
 3912SOL     OW23197   0.191   1.889   4.310 -0.2217  0.1703  0.2900
 3912SOL    HW123198   0.103   1.866   4.339  0.5211 -1.5857  1.1152
 3912SOL    HW223199   0.201   1.811   4.256 -1.4370  1.3083 -1.5529
 3913SOL     OW23200   3.849   0.645   2.901  0.0030 -0.3947  0.0725
 3913SOL    HW123201   3.756   0.660   2.883  0.1640 -0.0437 -0.4832
 3913SOL    HW223202   3.889   0.626   2.816 -0.2569  1.0510 -0.3795
 3914SOL     OW23203   2.424   0.313   2.741 -0.7934 -0.4548  0.6786
 3914SOL    HW123204   2.454   0.384   2.798  0.3430 -2.3152  2.4220
 3914SOL    HW223205   2.500   0.255   2.742  0.4880  1.1702 -3.7808
 3915SOL     OW23206   2.931   1.595  11.999  0.0659 -0.4201 -0.2732
 3915SOL    HW123207   2.993   1.641  12.056 -2.5255  2.2347  0.4121
 3915SOL    HW223208   2.987   1.520  11.981  1.8407  0.7028  0.6258
 3916SOL     OW23209   4.217   0.548   0.592  0.5450  0.3642 -0.4568
 3916SOL    HW123210   4.203   0.611   0.522 -0.5938 -1.9260 -2.2759
 3916SOL    HW223211   4.149   0.481   0.589 -0.7739  1.6927 -0.5603
 3917SOL     OW23212   3.895   0.861   6.974  0.1621 -0.0327  0.0643
 3917SOL    HW123213   3.944   0.940   6.950 -0.9007  0.9638  1.1813
 3917SOL    HW223214   3.874   0.840   6.882 -0.2822  2.4747 -0.3996
 3918SOL     OW23215   3.821   3.098  14.182 -0.3418  0.2156  0.1044
 3918SOL    HW123216   3.853   3.102  14.092 -0.1757  2.9385  0.2890
 3918SOL    HW223217   3.730   3.085  14.158 -0.0115 -0.6947 -0.6380
 3919SOL     OW23218   3.024   1.554  11.724 -0.0406 -0.7354 -0.3389
 3919SOL    HW123219   2.963   1.626  11.713  2.5324  1.7319  1.5352
 3919SOL    HW223220   3.067   1.597  11.798 -0.5340 -1.6889  0.4912
 3920SOL     OW23221   0.872   3.412   1.651 -0.3961  0.4270 -0.1211
 3920SOL    HW123222   0.829   3.421   1.735 -1.0954  2.4075 -0.6829
 3920SOL    HW223223   0.816   3.347   1.608  2.9773 -0.6019 -2.9732
 3921SOL     OW23224   0.495   1.403   2.296 -0.3322 -0.0219 -0.6985
 3921SOL    HW123225   0.547   1.483   2.299 -1.0727  0.2949  3.9637
 3921SOL    HW223226   0.553   1.340   2.340  0.9424  0.8159 -1.1879
 3922SOL     OW23227   3.446   0.993   8.650 -0.1243  0.5511 -0.0251
 3922SOL    HW123228   3.519   1.051   8.673 -0.4632  1.0468 -0.1917
 3922SOL    HW223229   3.396   0.992   8.731 -1.5580 -1.1589 -0.9269
 3923SOL     OW23230   3.770   4.541   8.752  0.5010 -0.7822 -0.0576
 3923SOL    HW123231   3.699   4.600   8.778  2.2344  2.0264 -1.6581
 3923SOL    HW223232   3.832   4.601   8.709  0.1785 -1.3538 -1.3108
 3924SOL     OW23233   1.886   3.019   5.955 -0.4805  0.9014  0.5317
 3924SOL    HW123234   1.945   2.951   5.921 -0.6965  1.0976 -0.2313
 3924SOL    HW223235   1.947   3.075   6.003 -0.9473  1.2598  0.7100
 3925SOL     OW23236   2.659   0.451   6.616  0.2087  0.1344 -0.4193
 3925SOL    HW123237   2.702   0.503   6.683 -0.3318  1.0380 -0.7665
 3925SOL    HW223238   2.578   0.417   6.655 -1.1231  0.5328 -2.8296
 3926SOL     OW23239   2.179   4.325  16.353 -0.0544 -0.3700 -0.2682
 3926SOL    HW123240   2.130   4.268  16.412 -0.6326  0.6168  0.2049
 3926SOL    HW223241   2.250   4.339  16.415  0.5996  1.7800 -1.5184
 3927SOL     OW23242   1.665   3.910   6.028  1.3291  0.1270  0.1933
 3927SOL    HW123243   1.689   3.850   5.958 -1.3296 -1.2390  0.4259
 3927SOL    HW223244   1.581   3.940   5.992  1.3037  0.6035  0.6548
 3928SOL     OW23245   1.284   0.360  10.661  0.7547 -0.0873 -0.2368
 3928SOL    HW123246   1.255   0.269  10.652  1.5176 -0.4630  1.2166
 3928SOL    HW223247   1.299   0.392  10.572 -0.4954  0.4466 -0.2675
 3929SOL     OW23248   0.117   1.910   3.713  0.3027  0.3636 -0.6105
 3929SOL    HW123249   0.177   1.932   3.784 -1.1893  3.1435 -0.1887
 3929SOL    HW223250   0.165   1.953   3.641 -0.1385  0.7719 -0.6633
 3930SOL     OW23251   2.312   2.434   7.121  0.0640 -0.3077 -0.4307
 3930SOL    HW123252   2.247   2.483   7.171  0.3080  0.9248 -1.3078
 3930SOL    HW223253   2.272   2.348   7.113  0.2896 -0.2995 -1.7074
 3931SOL     OW23254   1.062   2.522  13.186  0.2561 -0.1189 -0.7029
 3931SOL    HW123255   0.978   2.551  13.150  0.1611 -1.2165 -1.3652
 3931SOL    HW223256   1.055   2.549  13.278 -1.2120  1.2939 -1.2279
 3932SOL     OW23257   0.937   0.321   4.007  0.0264 -0.0515  0.1324
 3932SOL    HW123258   0.909   0.230   4.013  0.8460 -0.2631  0.7905
 3932SOL    HW223259   0.873   0.343   3.940  0.5538 -1.6084 -0.8780
 3933SOL     OW23260   1.421   0.363   9.931  0.1147 -0.0572 -0.4000
 3933SOL    HW123261   1.501   0.380   9.880  0.0729  2.9447  0.5203
 3933SOL    HW223262   1.424   0.267   9.927  2.1091  0.0857 -2.5667
 3934SOL     OW23263   1.582   2.038   0.154  0.8010  0.2931  0.2706
 3934SOL    HW123264   1.594   2.102   0.224  0.7407  1.6210 -0.9042
 3934SOL    HW223265   1.517   1.986   0.200  0.8119  0.1798  0.1562
 3935SOL     OW23266   4.145   3.318  15.336 -0.1361 -0.4020  0.2720
 3935SOL    HW123267   4.205   3.388  15.309 -1.9739  0.1279 -2.5136
 3935SOL    HW223268   4.093   3.304  15.256  1.5954  1.0202 -1.1031
 3936SOL     OW23269   2.983   2.107  10.049  0.4563 -0.2419 -0.4448
 3936SOL    HW123270   2.972   2.096   9.955  0.6325 -1.3304 -0.3418
 3936SOL    HW223271   3.077   2.089  10.048  0.6873  1.0757 -1.4219
 3937SOL     OW23272   0.469   0.465   4.645  0.4755 -0.0023 -0.3698
 3937SOL    HW123273   0.449   0.433   4.733  2.1733  1.7733  0.6450
 3937SOL    HW223274   0.417   0.394   4.606  0.9032  0.9570 -2.6767
 3938SOL     OW23275   3.077   1.920   1.749  0.0432 -0.6020  0.5399
 3938SOL    HW123276   3.172   1.907   1.757  0.2094  0.2508 -0.0166
 3938SOL    HW223277   3.045   1.847   1.802 -1.1915 -1.0404 -0.8388
 3939SOL     OW23278   2.625   3.156   4.489  0.0726  0.0400  0.5229
 3939SOL    HW123279   2.646   3.089   4.424  2.1001  1.1392  0.0674
 3939SOL    HW223280   2.710   3.192   4.512  1.2644 -1.6347 -1.2873
 3940SOL     OW23281   2.549   2.239   0.392 -0.4848 -0.1787  0.3441
 3940SOL    HW123282   2.486   2.290   0.342 -0.4377 -0.0771  0.3872
 3940SOL    HW223283   2.561   2.297   0.467 -0.0387  0.6804 -0.3926
 3941SOL     OW23284   0.378   2.074   8.792 -0.1345 -0.3651 -0.6869
 3941SOL    HW123285   0.439   2.138   8.830 -1.6882  0.6502  0.0771
 3941SOL    HW223286   0.295   2.065   8.838 -0.9754 -0.6665 -2.2572
 3942SOL     OW23287   4.044   2.382   1.682 -0.4535 -0.0381  0.0721
 3942SOL    HW123288   4.019   2.357   1.593 -0.9932  1.7817 -0.2952
 3942SOL    HW223289   4.119   2.441   1.671  0.5338 -1.2311  0.4475
 3943SOL     OW23290   0.504   3.456  13.857  0.7888 -0.3110  0.3309
 3943SOL    HW123291   0.514   3.414  13.772  4.3775 -2.7202  1.9436
 3943SOL    HW223292   0.419   3.428  13.893  0.6158  0.7899  0.7848
 3944SOL     OW23293   2.229   4.384   7.777  0.0257 -0.1453 -0.1081
 3944SOL    HW123294   2.141   4.346   7.773 -0.4815  1.0564 -0.4179
 3944SOL    HW223295   2.272   4.313   7.825 -1.4496 -1.0217 -0.0799
 3945SOL     OW23296   0.098   1.672   7.543 -0.8332  0.9575 -0.2080
 3945SOL    HW123297   0.090   1.689   7.449  3.2779 -0.5025 -0.8239
 3945SOL    HW223298   0.171   1.731   7.558  0.9636 -1.0921 -0.8824
 3946SOL     OW23299   3.806   4.012  11.227  0.1910  0.0324 -0.2386
 3946SOL    HW123300   3.861   4.041  11.300 -0.0589  1.3371 -0.5579
 3946SOL    HW223301   3.805   4.090  11.171 -0.4992 -0.3957 -0.8188
 3947SOL     OW23302   3.962   3.853   1.059  0.2746  0.4053 -0.5117
 3947SOL    HW123303   4.034   3.818   1.111 -2.0095 -0.0809  2.3596
 3947SOL    HW223304   3.966   3.782   0.995  1.1595  0.7353 -0.8099
 3948SOL     OW23305   2.625   3.172  10.024  0.0695  0.1085 -0.6781
 3948SOL    HW123306   2.649   3.263  10.040  1.5025 -0.5306  0.7982
 3948SOL    HW223307   2.544   3.169  10.075 -1.7640 -0.0059 -3.6058
 3949SOL     OW23308   3.177   3.857   0.598  0.6605  0.6605 -0.1184
 3949SOL    HW123309   3.182   3.937   0.545  0.2275  2.0491  1.9139
 3949SOL    HW223310   3.260   3.870   0.645  0.9326 -1.8271  0.0767
 3950SOL     OW23311   0.477   4.180   0.270  0.1517  0.4544  0.4256
 3950SOL    HW123312   0.509   4.265   0.238  0.7579 -0.1665 -0.6155
 3950SOL    HW223313   0.382   4.193   0.275 -0.2072 -1.9446 -0.2740
 3951SOL     OW23314   4.632   4.162   8.380  0.6472 -0.1215 -0.0733
 3951SOL    HW123315   4.638   4.078   8.334 -0.7064 -0.3106  0.0965
 3951SOL    HW223316   4.705   4.153   8.440  2.8654 -1.8730 -3.0248
 3952SOL     OW23317   0.893   3.140   3.589 -0.0817 -0.7471  0.2579
 3952SOL    HW123318   0.930   3.072   3.646  0.8393  0.7854  1.4921
 3952SOL    HW223319   0.896   3.102   3.501 -0.0748 -0.9763  0.3551
 3953SOL     OW23320   1.870   4.092  10.683  0.0744 -0.3326  0.2089
 3953SOL    HW123321   1.830   4.006  10.669  0.1503 -0.1219 -1.3764
 3953SOL    HW223322   1.832   4.128  10.763 -1.4577  0.0725 -0.7052
 3954SOL     OW23323   0.480   2.283  14.118  0.1306 -0.2382  0.2981
 3954SOL    HW123324   0.554   2.310  14.173 -0.7055  0.4667  1.0728
 3954SOL    HW223325   0.534   2.216  14.075  1.3996  0.6216  0.5567
 3955SOL     OW23326   0.404   4.376   2.758  0.2124  0.1763 -0.2094
 3955SOL    HW123327   0.324   4.341   2.719  1.6816 -1.2721 -1.9272
 3955SOL    HW223328   0.461   4.382   2.681 -1.0859 -1.7220 -1.3101
 3956SOL     OW23329   3.875   2.983   5.182  0.3138  0.5523 -0.6047
 3956SOL    HW123330   3.809   2.941   5.237  0.4996  1.0580 -0.0035
 3956SOL    HW223331   3.956   2.933   5.192 -0.5569 -0.9640 -1.0818
 3957SOL     OW23332   0.155   2.614  16.948  0.0411  0.0590 -0.3302
 3957SOL    HW123333   0.122   2.671  17.017 -1.8855  0.4894 -1.6032
 3957SOL    HW223334   0.089   2.545  16.957 -0.9035  1.0002 -0.0308
 3958SOL     OW23335   3.238   4.033   8.952 -0.4905 -0.2252 -0.0193
 3958SOL    HW123336   3.176   3.977   8.999  0.6051  0.3065  2.0453
 3958SOL    HW223337   3.307   3.966   8.948  0.7409  0.8185  4.0064
 3959SOL     OW23338   0.451   1.829  14.481 -0.3482 -0.1557  0.0510
 3959SOL    HW123339   0.375   1.857  14.429  0.2888  1.5065  0.0245
 3959SOL    HW223340   0.526   1.861  14.431  0.8387 -0.3353  1.7342
 3960SOL     OW23341   2.794   2.254  16.805 -0.2374 -0.0367 -0.2295
 3960SOL    HW123342   2.858   2.324  16.788 -0.5830  0.2587 -0.2970
 3960SOL    HW223343   2.722   2.307  16.837 -1.0900 -2.3588  1.7050
 3961SOL     OW23344   4.644   2.896   8.198  0.2069 -0.1042 -0.1767
 3961SOL    HW123345   0.016   2.903   8.231  1.0066 -0.5310 -2.2224
 3961SOL    HW223346   4.595   2.963   8.247  1.7298  1.1546 -0.3485
 3962SOL     OW23347   4.604   0.060   1.105 -0.5536 -0.1364  0.0482
 3962SOL    HW123348   4.683   0.044   1.053  0.6194  0.6317  1.6079
 3962SOL    HW223349   4.634   0.133   1.158  0.2141 -0.8698  0.6271
 3963SOL     OW23350   0.786   0.532  16.962  0.1353 -0.1778  0.3691
 3963SOL    HW123351   0.772   0.459  17.021  1.1918 -3.5935 -3.6280
 3963SOL    HW223352   0.735   0.600  17.006 -2.7832 -0.9116 -1.8172
 3964SOL     OW23353   2.972   1.662  12.511  0.3067 -0.1917 -0.4015
 3964SOL    HW123354   2.963   1.583  12.458  0.8923 -0.0834 -0.6546
 3964SOL    HW223355   2.959   1.727  12.442  1.2993  0.3669 -0.0569
 3965SOL     OW23356   2.852   2.436  17.673  0.3451 -0.2385 -0.4358
 3965SOL    HW123357   2.942   2.466  17.665  0.4000 -0.4124 -0.4717
 3965SOL    HW223358   2.868   2.361   0.057 -1.6624  0.8167  1.5177
 3966SOL     OW23359   2.710   1.052   6.854  0.1438  1.1350 -0.1336
 3966SOL    HW123360   2.731   1.144   6.837  2.1715  0.6909  0.0217
 3966SOL    HW223361   2.735   1.042   6.945 -0.7167 -2.5978 -0.3064
 3967SOL     OW23362   4.351   2.333   3.664  0.0448  0.7787 -0.2486
 3967SOL    HW123363   4.360   2.397   3.593 -0.9593  2.1146  0.8125
 3967SOL    HW223364   4.336   2.382   3.746 -2.3809 -0.3515 -0.0112
 3968SOL     OW23365   3.174   3.338   2.145  0.0573  0.7409 -0.2460
 3968SOL    HW123366   3.103   3.289   2.187 -0.0213  1.9862  1.0811
 3968SOL    HW223367   3.216   3.267   2.097 -1.4395  0.8694 -1.7644
 3969SOL     OW23368   0.017   3.111   5.608 -0.5685 -0.0764  0.0870
 3969SOL    HW123369   0.102   3.070   5.590 -0.1575  0.5534  0.5867
 3969SOL    HW223370   0.011   3.165   5.529 -1.1466  2.7209  2.0666
 3970SOL     OW23371   0.553   2.314  13.510 -0.1148 -0.2556  0.6370
 3970SOL    HW123372   0.467   2.356  13.502  0.3032  0.3686 -0.5221
 3970SOL    HW223373   0.530   2.233  13.466 -3.8755  0.8106  0.5577
 3971SOL     OW23374   4.261   3.005   6.391  0.3413 -0.1243 -0.2151
 3971SOL    HW123375   4.294   3.094   6.380  2.0872 -0.6419  0.8829
 3971SOL    HW223376   4.245   2.999   6.485  1.6171 -0.0298  0.0141
 3972SOL     OW23377   2.328   2.339   3.960  0.3149  0.2210 -0.1887
 3972SOL    HW123378   2.325   2.433   3.976  2.7011  0.4515 -1.1233
 3972SOL    HW223379   2.422   2.322   3.960  0.4936  1.1945  1.1067
 3973SOL     OW23380   0.808   2.635   8.540 -0.4240  0.3593  0.1691
 3973SOL    HW123381   0.733   2.602   8.490 -1.5573  2.2588  0.6153
 3973SOL    HW223382   0.870   2.662   8.473 -0.0572 -0.1013  0.3242
 3974SOL     OW23383   2.382   4.260  15.906  0.0166  0.0102  0.1175
 3974SOL    HW123384   2.313   4.240  15.843  0.0567  2.0150 -0.5797
 3974SOL    HW223385   2.458   4.278  15.850 -0.6910  0.3393 -0.7439
 3975SOL     OW23386   0.733   0.590   4.921  0.0596 -0.1028 -0.0037
 3975SOL    HW123387   0.773   0.593   5.008 -0.4085 -0.5789  0.2225
 3975SOL    HW223388   0.704   0.499   4.930 -1.8178  0.5239  0.2538
 3976SOL     OW23389   2.161   1.886   0.079  0.1062  0.2214 -0.3893
 3976SOL    HW123390   2.076   1.918   0.051 -0.0404  0.8520  0.7992
 3976SOL    HW223391   2.157   1.892   0.174 -0.6675  3.1067 -0.6277
 3977SOL     OW23392   4.304   2.464   5.918 -0.1493 -0.2939 -0.4313
 3977SOL    HW123393   4.383   2.511   5.945 -1.1365  0.3001  1.4127
 3977SOL    HW223394   4.244   2.478   5.991  0.6379 -0.5907  0.2748
 3978SOL     OW23395   4.300   4.590   5.703 -0.4805  0.0829  0.0254
 3978SOL    HW123396   4.242   4.664   5.724 -3.7737 -2.6400  0.6465
 3978SOL    HW223397   4.330   4.616   5.616  1.3379  3.1951  1.6219
 3979SOL     OW23398   3.324   1.523   1.779 -0.4088  0.1408  0.1900
 3979SOL    HW123399   3.325   1.618   1.793 -0.9958  0.2956 -0.7916
 3979SOL    HW223400   3.232   1.513   1.803 -0.3032 -2.9832 -0.6967
 3980SOL     OW23401   3.133   3.797   8.576 -0.0835 -0.4212  0.0168
 3980SOL    HW123402   3.056   3.846   8.604 -0.3752 -2.1405  2.2647
 3980SOL    HW223403   3.090   3.724   8.531 -2.0420  0.4945  0.3949
 3981SOL     OW23404   0.592   2.155   2.495 -0.4033  0.2662  0.3579
 3981SOL    HW123405   0.558   2.065   2.493 -0.1772  0.1643  1.0594
 3981SOL    HW223406   0.671   2.147   2.547 -1.1665  1.2463  1.6508
 3982SOL     OW23407   1.779   0.237   3.214  0.3323 -0.0859 -0.2488
 3982SOL    HW123408   1.760   0.264   3.304  1.7255 -0.7585  0.2451
 3982SOL    HW223409   1.872   0.218   3.228  0.4132 -0.9433 -1.9217
 3983SOL     OW23410   2.598   0.617   3.574 -0.2298  0.4035 -0.2487
 3983SOL    HW123411   2.670   0.664   3.532  0.1428 -0.5924 -0.7341
 3983SOL    HW223412   2.525   0.678   3.589  0.5597  1.5767 -1.1388
 3984SOL     OW23413   0.662   1.911   4.400  0.0462  0.0930 -0.0026
 3984SOL    HW123414   0.660   1.921   4.495 -2.3815  1.0371 -0.1754
 3984SOL    HW223415   0.710   1.989   4.372  0.4133 -0.3618 -0.6527
 3985SOL     OW23416   3.365   2.699  11.453 -0.4130 -0.2201  0.5694
 3985SOL    HW123417   3.338   2.624  11.506  0.3524 -0.5779  0.4585
 3985SOL    HW223418   3.433   2.734  11.510 -1.1082 -0.4900  1.5558
 3986SOL     OW23419   4.000   1.667   3.426 -0.4279 -0.1033 -0.1515
 3986SOL    HW123420   3.963   1.650   3.339  0.8032 -0.0688 -0.6841
 3986SOL    HW223421   4.089   1.698   3.410 -0.0024 -1.3971 -0.3098
 3987SOL     OW23422   0.068   0.662   4.954 -0.3283  0.0486  0.6985
 3987SOL    HW123423   0.070   0.622   5.040 -0.6610 -1.0870  0.1801
 3987SOL    HW223424   0.160   0.656   4.928 -0.6471  0.4031 -0.5419
 3988SOL     OW23425   3.640   4.564   1.055  0.0971 -0.4603  0.1076
 3988SOL    HW123426   3.643   4.474   1.086 -2.3014 -0.8003 -0.7292
 3988SOL    HW223427   3.548   4.589   1.063 -0.0614 -1.6125  1.7769
 3989SOL     OW23428   1.565   4.183   2.895 -0.4979 -0.3481  0.3897
 3989SOL    HW123429   1.644   4.130   2.885  0.1877  0.8538 -0.7201
 3989SOL    HW223430   1.495   4.129   2.859 -0.3728 -0.8704  0.9377
 3990SOL     OW23431   2.996   3.376  10.555 -0.3811 -0.0243  0.4983
 3990SOL    HW123432   2.980   3.434  10.480  0.2107 -1.7170 -0.9520
 3990SOL    HW223433   2.967   3.294  10.514 -0.0689  1.1249 -2.0423
 3991SOL     OW23434   4.692   1.771   7.984  0.4821 -0.1091 -0.0980
 3991SOL    HW123435   0.023   1.689   7.983  0.0206 -0.3701 -0.8419
 3991SOL    HW223436   4.676   1.773   7.889 -1.2776  0.5409  0.2121
 3992SOL     OW23437   0.454   0.911   2.955  0.2832  0.8058  0.7166
 3992SOL    HW123438   0.471   0.858   2.877  0.6284 -1.9263  2.6494
 3992SOL    HW223439   0.444   0.837   3.015 -0.5968 -0.1547 -0.6106
 3993SOL     OW23440   2.359   3.405   3.957  1.3653 -0.2313  0.4435
 3993SOL    HW123441   2.383   3.377   3.869 -0.0547  0.1061 -0.0474
 3993SOL    HW223442   2.267   3.382   3.972  0.9279  1.6384  0.5891
 3994SOL     OW23443   3.124   3.468   9.274  0.4846  0.1185 -0.2621
 3994SOL    HW123444   3.088   3.380   9.273  0.9347 -0.0719  0.6950
 3994SOL    HW223445   3.042   3.516   9.290  0.4434  0.4413 -1.4455
 3995SOL     OW23446   2.143   4.679  11.881 -0.1315  0.3962 -0.1003
 3995SOL    HW123447   2.229   4.689  11.840  0.9316 -1.8742  1.5232
 3995SOL    HW223448   2.109   4.590  11.869  0.6492 -0.0159  0.8019
 3996SOL     OW23449   2.577   1.211   4.436  0.3067  0.2289  0.1189
 3996SOL    HW123450   2.483   1.196   4.438  0.2203  1.0157  2.4937
 3996SOL    HW223451   2.603   1.136   4.383 -1.0508 -0.9187  1.1168
 3997SOL     OW23452   1.752   3.268   4.866 -0.2284  0.1159 -0.3265
 3997SOL    HW123453   1.755   3.323   4.787 -2.9750  2.3553  1.1392
 3997SOL    HW223454   1.836   3.223   4.872 -0.0127  0.1562 -2.7562
 3998SOL     OW23455   1.214   0.827   8.228 -0.1589  0.6356 -0.3270
 3998SOL    HW123456   1.217   0.910   8.275  0.5002  0.4226  0.0105
 3998SOL    HW223457   1.289   0.782   8.267  0.3265  0.8192 -1.0622
 3999SOL     OW23458   1.824   3.163  17.582  0.3132 -0.1257  0.0959
 3999SOL    HW123459   1.873   3.116  17.515  0.2515  1.7599 -1.2520
 3999SOL    HW223460   1.887   3.224  17.620  0.1297  0.3555 -0.3655
 4000SOL     OW23461   4.093   4.511   8.870 -0.6886  0.3863  0.0462
 4000SOL    HW123462   4.173   4.475   8.833  1.1087  1.8812  2.4483
 4000SOL    HW223463   4.042   4.432   8.887  0.9373 -0.6129  0.1987
 4001SOL     OW23464   2.399   0.606   3.332  0.1444 -0.2071 -0.1059
 4001SOL    HW123465   2.396   0.653   3.416 -1.5973 -1.2267  0.4066
 4001SOL    HW223466   2.382   0.687   3.283 -0.0053 -0.6994 -0.8517
 4002SOL     OW23467   0.305   2.150   5.363  0.2408  0.5161 -0.2293
 4002SOL    HW123468   0.321   2.241   5.389 -0.6648  0.8743 -0.9329
 4002SOL    HW223469   0.283   2.103   5.443 -2.8620  2.3341 -0.0122
 4003SOL     OW23470   1.511   3.511  12.358  0.4671 -0.3359  0.4206
 4003SOL    HW123471   1.424   3.487  12.325  0.6132 -1.2386  0.6835
 4003SOL    HW223472   1.509   3.605  12.340 -0.1961  0.3033  4.0020
 4004SOL     OW23473   1.712   3.377   3.766  0.2967  0.1246 -0.0605
 4004SOL    HW123474   1.769   3.413   3.698  0.6477  0.4018  0.3796
 4004SOL    HW223475   1.660   3.450   3.798 -0.9420  0.1694 -2.1536
 4005SOL     OW23476   0.908   1.085   8.718  0.2560 -0.0101  0.1538
 4005SOL    HW123477   0.872   1.002   8.688 -0.2103 -0.2263  1.2970
 4005SOL    HW223478   0.878   1.155   8.660 -1.2624  0.6346  1.6853
 4006SOL     OW23479   3.143   3.369   2.567  0.6279  0.3274  0.0921
 4006SOL    HW123480   3.163   3.450   2.614  1.5126 -2.4021  4.3717
 4006SOL    HW223481   3.165   3.311   2.639  0.0103 -0.1138 -0.0722
 4007SOL     OW23482   4.655   2.780  10.217 -0.1807 -0.3911 -0.0856
 4007SOL    HW123483   4.678   2.866  10.253 -1.3153  0.3755 -1.2074
 4007SOL    HW223484   0.018   2.775  10.165 -0.9565  2.2070 -1.5388
 4008SOL     OW23485   0.180   4.300   2.613  0.4567  0.0126 -0.4990
 4008SOL    HW123486   0.119   4.320   2.683 -2.3596  0.0382 -2.9630
 4008SOL    HW223487   0.183   4.380   2.561 -0.4536  0.0009 -0.5554
 4009SOL     OW23488   3.204   0.412   7.875 -0.1602 -0.2431  0.7822
 4009SOL    HW123489   3.260   0.369   7.810 -1.3934 -2.1784  1.0178
 4009SOL    HW223490   3.243   0.499   7.881 -1.6788  0.4707  0.4068
 4010SOL     OW23491   4.425   4.229   3.965 -0.3370 -0.1747 -0.9022
 4010SOL    HW123492   4.467   4.308   3.997 -0.4640 -1.8003  3.3190
 4010SOL    HW223493   4.425   4.177   4.046 -0.6477  2.0937  0.5383
 4011SOL     OW23494   2.361   4.308   4.950  0.3808 -0.0404 -0.2464
 4011SOL    HW123495   2.449   4.326   4.984  0.0320 -2.2638  1.9328
 4011SOL    HW223496   2.327   4.247   5.016  0.5606  3.8546  3.3963
 4012SOL     OW23497   0.228   1.631   3.104 -0.0182 -0.2571 -0.0586
 4012SOL    HW123498   0.168   1.595   3.170 -2.3048  1.4331 -1.2109
 4012SOL    HW223499   0.235   1.551   3.051 -0.9355 -0.1509 -0.3429
 4013SOL     OW23500   0.363   0.010  10.692 -0.3887 -0.0606  0.1174
 4013SOL    HW123501   0.348   0.093  10.739 -1.0209 -0.4033  0.5336
 4013SOL    HW223502   0.301   4.674  10.743  0.5571 -1.3125 -0.0587
 4014SOL     OW23503   2.777   1.579   9.274 -0.1201  0.7303  0.3194
 4014SOL    HW123504   2.780   1.674   9.263  0.1164  0.8942  1.8796
 4014SOL    HW223505   2.699   1.567   9.327 -0.7972 -0.3172 -0.8872
 4015SOL     OW23506   1.559   2.433   3.138 -0.0732 -0.1561 -0.3006
 4015SOL    HW123507   1.582   2.399   3.052 -2.2165 -1.9029 -0.1814
 4015SOL    HW223508   1.464   2.435   3.139 -0.0901 -0.3295 -1.2221
 4016SOL     OW23509   0.821   0.437  15.557  0.1527 -1.0255  0.0135
 4016SOL    HW123510   0.750   0.373  15.567 -0.5755 -0.7770 -3.2856
 4016SOL    HW223511   0.830   0.450  15.462  2.1198 -2.0847  0.0712
 4017SOL     OW23512   3.716   0.878   5.889  0.0702 -0.5124 -0.5183
 4017SOL    HW123513   3.750   0.904   5.803  0.5747  2.8341  0.7020
 4017SOL    HW223514   3.778   0.811   5.920  0.1493 -0.8558 -1.4116
 4018SOL     OW23515   3.596   0.288  12.098  0.4913  0.0450 -0.8289
 4018SOL    HW123516   3.663   0.283  12.030  0.1979  1.8305 -1.2557
 4018SOL    HW223517   3.632   0.226  12.161  0.9907  0.8216 -0.3450
 4019SOL     OW23518   0.789   0.898   2.164  0.0154  0.1357  0.0480
 4019SOL    HW123519   0.741   0.979   2.148 -1.6245 -0.1549  3.3450
 4019SOL    HW223520   0.846   0.936   2.230  0.2696  2.1863 -1.3737
 4020SOL     OW23521   2.759   1.093  13.753  0.6063  0.0405  0.4631
 4020SOL    HW123522   2.834   1.109  13.697 -0.0750 -2.3769 -1.1308
 4020SOL    HW223523   2.729   1.183  13.765  3.3407  1.0928 -0.8252
 4021SOL     OW23524   2.375   4.295   7.551 -0.3129 -0.3072  0.0958
 4021SOL    HW123525   2.340   4.340   7.627 -1.0950  1.9217 -1.5768
 4021SOL    HW223526   2.406   4.365   7.494  1.9671 -0.9648  0.5324
 4022SOL     OW23527   4.027   4.600  11.452  0.2142 -0.1753  0.0767
 4022SOL    HW123528   4.007   4.562  11.366  0.2140 -1.2686  0.5677
 4022SOL    HW223529   4.122   4.602  11.456  0.2422 -1.5112  0.0207
 4023SOL     OW23530   3.217   2.101   9.095  0.1437 -0.5445 -0.2997
 4023SOL    HW123531   3.203   2.042   9.020  2.8018  0.5177 -1.6381
 4023SOL    HW223532   3.246   2.181   9.052 -1.6147 -0.8303 -2.0281
 4024SOL     OW23533   4.017   4.031   6.645 -0.2773  0.4255 -0.1383
 4024SOL    HW123534   3.924   4.011   6.662 -0.6034  3.7137  1.9038
 4024SOL    HW223535   4.033   3.991   6.560 -1.4547 -3.7398  1.5839
 4025SOL     OW23536   3.286   2.722   6.078  0.1203 -0.4999  0.5019
 4025SOL    HW123537   3.233   2.650   6.111 -2.5795  0.9056 -0.7994
 4025SOL    HW223538   3.369   2.683   6.105  0.8542  0.3022 -0.6061
 4026SOL     OW23539   0.628   2.259   4.002 -0.4778 -0.3450 -0.0521
 4026SOL    HW123540   0.627   2.166   4.025  0.8883 -0.5829 -0.9521
 4026SOL    HW223541   0.628   2.254   3.906 -0.9362 -1.3916  0.0128
 4027SOL     OW23542   1.987   0.396  11.919  0.2234 -0.3731 -0.0914
 4027SOL    HW123543   1.932   0.456  11.969 -0.2563 -0.3446 -0.6474
 4027SOL    HW223544   2.044   0.454  11.869  0.4079 -1.5738 -1.2941
 4028SOL     OW23545   0.155   3.049   3.229  0.4510 -0.2846 -0.3370
 4028SOL    HW123546   0.154   3.105   3.151  2.2349  1.7237  1.0676
 4028SOL    HW223547   0.136   2.969   3.181  2.8804 -1.1194  0.0572
 4029SOL     OW23548   1.038   0.741   7.619 -0.0303 -0.4817  0.1854
 4029SOL    HW123549   1.100   0.798   7.666 -0.9756 -0.3467  1.2762
 4029SOL    HW223550   0.962   0.799   7.619 -0.4623 -1.0385  2.3436
 4030SOL     OW23551   0.953   1.892  13.162  0.0881 -0.1476 -0.7939
 4030SOL    HW123552   0.965   1.830  13.234  0.6699  1.4934  0.5298
 4030SOL    HW223553   0.963   1.977  13.204  1.8334 -1.1315  0.7905
 4031SOL     OW23554   4.686   4.545  10.993  0.1725  0.2217 -0.4647
 4031SOL    HW123555   0.020   4.475  11.033 -0.3237  0.2522  0.2208
 4031SOL    HW223556   4.648   4.588  11.069 -0.4376 -0.8955 -0.1388
 4032SOL     OW23557   3.984   1.725   1.846  0.0716 -0.5106  0.5160
 4032SOL    HW123558   3.988   1.753   1.937 -1.1690 -1.1077  0.7619
 4032SOL    HW223559   3.904   1.672   1.848 -1.3503  1.5422 -2.0483
 4033SOL     OW23560   2.630   0.103  10.758  0.0657 -0.1211  0.0932
 4033SOL    HW123561   2.555   0.045  10.741 -0.0981 -0.1610  0.9497
 4033SOL    HW223562   2.696   0.037  10.778  2.2068  1.8808 -0.4950
 4034SOL     OW23563   0.716   1.808   8.907  0.1355 -0.0399  0.2680
 4034SOL    HW123564   0.642   1.788   8.964  0.5496  3.6246  2.1024
 4034SOL    HW223565   0.719   1.717   8.877 -1.3314 -0.0018  0.0030
 4035SOL     OW23566   3.977   2.064   2.623  0.2920 -0.9351  0.3241
 4035SOL    HW123567   3.979   2.053   2.718  2.2448 -2.0785  0.1428
 4035SOL    HW223568   3.969   1.969   2.611  0.0736 -0.4956 -2.9367
 4036SOL     OW23569   2.873   2.756  17.671  0.1216  0.0360 -0.1306
 4036SOL    HW123570   2.818   2.831  17.648 -0.4043 -0.3972 -0.2663
 4036SOL    HW223571   2.817   2.686   0.030  1.1892 -0.1584  1.3048
 4037SOL     OW23572   0.811   2.371   9.794  0.1828  0.1709  0.4676
 4037SOL    HW123573   0.754   2.389   9.869  0.1793 -2.3781  1.0878
 4037SOL    HW223574   0.818   2.463   9.770 -1.8206 -0.2812 -1.8751
 4038SOL     OW23575   3.563   4.572  10.151 -0.1292  0.7204 -0.2811
 4038SOL    HW123576   3.628   4.617  10.206 -1.9037 -0.2192  2.5832
 4038SOL    HW223577   3.581   4.486  10.189  0.0603  1.1422  0.5994
 4039SOL     OW23578   3.624   3.693  10.452  0.2654 -0.3277  0.2100
 4039SOL    HW123579   3.576   3.678  10.370 -0.8362  0.5032  0.7075
 4039SOL    HW223580   3.576   3.646  10.520  0.2389  0.4917  0.7614
 4040SOL     OW23581   3.808   0.672   8.485 -0.1490  0.2809  0.1332
 4040SOL    HW123582   3.768   0.585   8.494 -0.8483  0.5618 -0.3291
 4040SOL    HW223583   3.853   0.697   8.566  1.8647  0.8121 -1.1527
 4041SOL     OW23584   0.407   2.739  16.299  0.0820 -1.1614  0.4234
 4041SOL    HW123585   0.454   2.702  16.374 -0.3236 -0.1761  1.1531
 4041SOL    HW223586   0.317   2.715  16.320  0.0244 -0.0359  1.4877
 4042SOL     OW23587   1.035   2.641  11.121  0.4412  0.3878  0.2116
 4042SOL    HW123588   1.126   2.670  11.125  0.7961 -0.5155 -1.7473
 4042SOL    HW223589   1.017   2.652  11.028  0.9113  1.3186  0.2280
 4043SOL     OW23590   4.237   4.354  11.733 -0.6807  0.3303  0.2713
 4043SOL    HW123591   4.258   4.317  11.819 -0.9796 -1.1160 -0.2720
 4043SOL    HW223592   4.217   4.446  11.747  0.2219  0.3394  1.4685
 4044SOL     OW23593   3.977   4.371   5.136  0.8734 -0.3015  0.4192
 4044SOL    HW123594   3.951   4.462   5.121  1.1208 -0.1638  0.8374
 4044SOL    HW223595   3.916   4.328   5.076  0.8998 -0.1453  0.2773
 4045SOL     OW23596   3.627   1.167   8.770 -0.0709  0.0145  0.1901
 4045SOL    HW123597   3.551   1.189   8.823  0.8284 -0.2622  1.5780
 4045SOL    HW223598   3.683   1.242   8.791  1.0885 -0.0578 -2.6031
 4046SOL     OW23599   3.805   1.027   2.784 -0.4169  0.3276 -0.1591
 4046SOL    HW123600   3.840   1.110   2.816  0.5727 -0.2336  0.2160
 4046SOL    HW223601   3.858   1.018   2.705 -2.1557 -1.0746 -1.1655
 4047SOL     OW23602   3.100   2.509   2.308  0.4981 -0.6253  0.1547
 4047SOL    HW123603   3.100   2.580   2.244  4.2868 -2.1867 -1.5973
 4047SOL    HW223604   3.013   2.476   2.288 -0.9512  3.3102  0.0439
 4048SOL     OW23605   4.051   1.677   3.777  0.2118 -0.0431  0.1620
 4048SOL    HW123606   3.968   1.715   3.747  0.8731  1.6377  0.4478
 4048SOL    HW223607   4.103   1.753   3.753 -1.4419  1.5809  1.6334
 4049SOL     OW23608   2.633   3.089   6.308 -0.2895  0.3300  0.4008
 4049SOL    HW123609   2.692   3.014   6.316 -2.7044 -1.4523  1.3876
 4049SOL    HW223610   2.633   3.130   6.394  0.9093  0.1123  0.5047
 4050SOL     OW23611   3.045   3.479   4.112 -0.4602  0.0144  0.4743
 4050SOL    HW123612   3.039   3.483   4.017 -1.7361  1.8811  0.6420
 4050SOL    HW223613   3.139   3.460   4.122 -0.8427 -2.1166  0.1064
 4051SOL     OW23614   2.697   4.207   3.927  0.4226  0.0840 -0.7520
 4051SOL    HW123615   2.603   4.219   3.924  0.1320 -1.5786  1.1962
 4051SOL    HW223616   2.721   4.252   3.846  0.1056  0.5334 -0.5922
 4052SOL     OW23617   1.312   1.792   2.055 -0.5494  0.4989  0.2360
 4052SOL    HW123618   1.404   1.778   2.034 -0.1512  0.9914  1.6625
 4052SOL    HW223619   1.322   1.839   2.137 -1.4199 -1.8509  1.6953
 4053SOL     OW23620   2.601   4.038   5.472  0.2660  0.1941  0.1837
 4053SOL    HW123621   2.626   3.959   5.519  2.0991  1.0500  0.6250
 4053SOL    HW223622   2.522   4.068   5.518  0.3652  1.9766 -0.7887
 4054SOL     OW23623   1.653   1.049   7.740 -0.3711 -0.0562  0.0865
 4054SOL    HW123624   1.657   1.108   7.815 -2.5801  0.4919 -0.2464
 4054SOL    HW223625   1.570   1.004   7.751  0.3463 -0.8838  2.0091
 4055SOL     OW23626   2.430   2.069   6.683  0.1840  0.3722 -0.1875
 4055SOL    HW123627   2.396   2.056   6.772 -2.1007  1.0915 -0.9541
 4055SOL    HW223628   2.452   1.981   6.654 -0.2347  0.8980 -2.0926
 4056SOL     OW23629   4.216   0.865   4.849 -0.0748 -0.1599  0.5882
 4056SOL    HW123630   4.182   0.944   4.891  2.1333  1.2102 -0.2027
 4056SOL    HW223631   4.159   0.795   4.882  0.3592 -0.9552 -0.3526
 4057SOL     OW23632   3.592   2.830   8.275  0.3425  0.0717 -0.1880
 4057SOL    HW123633   3.591   2.915   8.318  1.2213 -0.0684  0.1043
 4057SOL    HW223634   3.687   2.817   8.280  0.4177  0.4613 -0.5948
 4058SOL     OW23635   0.367   0.464   7.009  0.0116 -0.4699 -0.0554
 4058SOL    HW123636   0.448   0.442   7.056 -0.5767 -0.7004  0.8595
 4058SOL    HW223637   0.319   0.500   7.084  0.2043 -0.1311 -0.0936
 4059SOL     OW23638   3.296   3.149  10.506 -0.5855  0.3918 -0.0755
 4059SOL    HW123639   3.305   3.055  10.493 -1.0650  0.6874 -2.5860
 4059SOL    HW223640   3.277   3.175  10.416 -1.7039 -2.7650 -0.7352
 4060SOL     OW23641   1.000   4.395   2.008 -0.4001  0.3539 -0.9172
 4060SOL    HW123642   0.983   4.302   1.995  0.2325  0.0849  0.2042
 4060SOL    HW223643   0.964   4.432   1.927 -1.3864  0.8342 -0.2495
 4061SOL     OW23644   0.642   4.419  14.079  0.2116 -0.1510 -0.2028
 4061SOL    HW123645   0.580   4.359  14.122 -1.2698  1.5585  0.0274
 4061SOL    HW223646   0.608   4.397  13.992 -0.5848  0.8709 -0.1516
 4062SOL     OW23647   1.186   1.831   9.287 -0.2979  0.3217 -0.0040
 4062SOL    HW123648   1.151   1.767   9.349  0.6799 -1.4149 -1.2493
 4062SOL    HW223649   1.253   1.870   9.342  1.4717 -0.0808 -1.8930
 4063SOL     OW23650   3.664   1.830   5.758  0.1238  0.0430  0.0175
 4063SOL    HW123651   3.662   1.767   5.830 -0.6637 -0.4487 -0.4408
 4063SOL    HW223652   3.733   1.793   5.703  0.1337 -1.9676  1.3724
 4064SOL     OW23653   0.083   3.622  16.415  0.2840 -0.3536  0.0690
 4064SOL    HW123654   0.078   3.611  16.320 -1.5367  1.1509  0.0019
 4064SOL    HW223655   0.005   3.573  16.442  1.0684 -1.6580  0.0084
 4065SOL     OW23656   2.800   1.117   0.617 -0.4579  0.0541 -0.7798
 4065SOL    HW123657   2.708   1.135   0.598 -0.4203  0.6361 -0.4297
 4065SOL    HW223658   2.809   1.025   0.641 -0.5505  0.1401 -0.4170
 4066SOL     OW23659   4.165   0.069  12.062  0.0263  0.6711 -0.1844
 4066SOL    HW123660   4.225   0.100  12.130  0.4401  0.7027 -0.5606
 4066SOL    HW223661   4.224   0.050  11.989 -2.7301 -2.0875 -1.6654
 4067SOL     OW23662   3.373   1.895   0.922 -0.1895 -0.1210  0.3481
 4067SOL    HW123663   3.326   1.925   1.000 -1.2391 -1.9470  0.4104
 4067SOL    HW223664   3.300   1.870   0.865  1.7408 -2.2393 -1.1742
 4068SOL     OW23665   3.892   2.753   3.129 -0.4721  0.4059  0.1390
 4068SOL    HW123666   3.832   2.783   3.061  1.5388 -0.1856 -1.9139
 4068SOL    HW223667   3.836   2.724   3.201  0.0505  0.9456  0.7582
 4069SOL     OW23668   2.542   3.608   6.041 -0.6406  0.2352 -0.2346
 4069SOL    HW123669   2.450   3.596   6.065 -0.3785  0.1165  0.7440
 4069SOL    HW223670   2.575   3.658   6.116 -1.0114  0.3783 -0.1652
 4070SOL     OW23671   2.500   0.392   8.595 -0.2694 -0.1244  0.2887
 4070SOL    HW123672   2.452   0.315   8.567 -2.5893  0.5686  2.3548
 4070SOL    HW223673   2.459   0.424   8.675 -1.1934 -0.0756 -0.2006
 4071SOL     OW23674   2.351   0.882   1.323 -0.0711  0.2589  0.0189
 4071SOL    HW123675   2.267   0.913   1.358  0.5492  0.9515  0.9037
 4071SOL    HW223676   2.410   0.907   1.394  0.5131  0.7802 -0.6439
 4072SOL     OW23677   1.416   1.751  13.893 -0.2844  0.4439 -0.2883
 4072SOL    HW123678   1.488   1.775  13.951  0.1098 -1.4489 -0.0113
 4072SOL    HW223679   1.348   1.735  13.959  0.8451 -1.7325  0.3418
 4073SOL     OW23680   0.641   2.506   5.883  0.3229 -0.0215 -0.2485
 4073SOL    HW123681   0.554   2.523   5.846  0.5650 -1.6738 -1.5478
 4073SOL    HW223682   0.633   2.553   5.967  2.5057  1.3767 -0.8506
 4074SOL     OW23683   1.067   1.927   9.969  0.3381 -0.1662 -1.2206
 4074SOL    HW123684   1.014   1.870   9.913 -1.3209 -0.5666  0.7641
 4074SOL    HW223685   1.041   2.018   9.954 -0.6878 -0.3977 -0.8422
 4075SOL     OW23686   2.056   1.028   7.452  0.0001 -0.4155  0.0208
 4075SOL    HW123687   2.123   1.096   7.456 -0.2398 -0.2886  2.1143
 4075SOL    HW223688   1.973   1.071   7.472 -0.0380 -0.3613 -0.2479
 4076SOL     OW23689   0.635   4.355   9.755 -0.0824 -0.4481 -0.0235
 4076SOL    HW123690   0.691   4.414   9.705 -1.6508  0.5517 -0.5851
 4076SOL    HW223691   0.559   4.407   9.780 -2.3198 -3.3315 -0.7762
 4077SOL     OW23692   0.784   1.230  15.809  0.3809 -0.2134  0.4979
 4077SOL    HW123693   0.798   1.288  15.734  0.2315 -0.6100  0.1634
 4077SOL    HW223694   0.800   1.142  15.775 -1.1874  0.4332 -1.9878
 4078SOL     OW23695   2.561   2.747   4.529  0.0393  0.4549 -0.0572
 4078SOL    HW123696   2.546   2.777   4.440 -1.2604 -2.7999 -0.9260
 4078SOL    HW223697   2.474   2.710   4.543  1.2412 -1.4166  2.5052
 4079SOL     OW23698   1.420   0.122   8.824 -0.1931 -0.4625  0.3015
 4079SOL    HW123699   1.510   0.091   8.816  0.4579  1.7259 -1.0930
 4079SOL    HW223700   1.435   0.190   8.890 -1.0701  0.8514 -0.8557
 4080SOL     OW23701   3.712   1.493  17.099 -0.0617  0.6138 -0.7533
 4080SOL    HW123702   3.631   1.544  17.096 -2.1877 -2.8062 -1.4425
 4080SOL    HW223703   3.780   1.555  17.126  1.9687 -1.2426 -1.6519
 4081SOL     OW23704   2.577   2.273   6.429 -0.2278 -0.6246 -0.3425
 4081SOL    HW123705   2.581   2.351   6.484  0.1504  0.8141 -2.4365
 4081SOL    HW223706   2.484   2.272   6.404 -0.3792 -0.9163  0.2124
 4082SOL     OW23707   0.944   0.418  14.278  0.4387  0.0892  0.6797
 4082SOL    HW123708   0.888   0.486  14.242 -0.1797  0.3745  2.2045
 4082SOL    HW223709   1.033   0.447  14.260  0.1035  1.1787  0.7849
 4083SOL     OW23710   4.371   0.229  10.459  0.3675 -0.5736 -0.0477
 4083SOL    HW123711   4.282   0.225  10.424 -0.0119  1.2825  0.6690
 4083SOL    HW223712   4.418   0.228  10.376 -1.5907 -1.4456 -1.1480
 4084SOL     OW23713   0.436   0.355   4.899  0.5429 -0.9451  0.6952
 4084SOL    HW123714   0.525   0.321   4.908  0.8155 -0.2216  0.7420
 4084SOL    HW223715   0.443   0.422   4.967  0.5771  0.9843 -1.1713
 4085SOL     OW23716   3.631   2.653  14.435 -0.2371  0.0069 -1.3604
 4085SOL    HW123717   3.626   2.664  14.530  0.5535  2.3855 -1.5806
 4085SOL    HW223718   3.600   2.563  14.428 -0.4791 -0.0087 -0.1188
 4086SOL     OW23719   4.093   4.482  15.038  0.1447  0.5995  0.2430
 4086SOL    HW123720   4.117   4.461  15.128  1.5836  1.7872  0.1451
 4086SOL    HW223721   4.129   4.570  15.028 -0.6185  0.7340 -1.2989
 4087SOL     OW23722   3.793   0.553  10.065  0.3937 -0.0332 -0.0645
 4087SOL    HW123723   3.770   0.496   9.992  0.3720 -0.4528  0.2674
 4087SOL    HW223724   3.857   0.615  10.030 -1.0234 -0.0868 -2.7394
 4088SOL     OW23725   0.881   4.319   5.700 -0.5374 -0.1112 -0.0027
 4088SOL    HW123726   0.929   4.304   5.619 -0.1552 -3.2407  0.8313
 4088SOL    HW223727   0.867   4.237   5.746 -1.5301 -0.8878 -1.6822
 4089SOL     OW23728   3.195   4.555   6.919  0.0122 -0.6222 -0.4997
 4089SOL    HW123729   3.164   4.527   7.006  3.2303  3.2037  1.9033
 4089SOL    HW223730   3.229   4.641   6.944 -1.9034  0.4282 -1.6024
 4090SOL     OW23731   1.600   4.484   7.692 -0.0498  0.0968 -0.0382
 4090SOL    HW123732   1.543   4.466   7.767 -0.4883 -2.4494 -0.9607
 4090SOL    HW223733   1.654   4.558   7.720 -1.5570  1.4456 -0.6693
 4091SOL     OW23734   4.238   1.594   2.562 -0.0649 -0.1569  0.6183
 4091SOL    HW123735   4.169   1.627   2.620 -0.9203 -0.2632 -0.3299
 4091SOL    HW223736   4.271   1.672   2.519  0.9875 -1.0237 -0.1487
 4092SOL     OW23737   1.205   3.902  12.870 -0.5202 -0.1063  1.3106
 4092SOL    HW123738   1.206   3.808  12.854  2.0607  0.0859  0.4196
 4092SOL    HW223739   1.205   3.911  12.965 -2.2630  0.4178  1.2659
 4093SOL     OW23740   3.143   2.862   5.838  0.4026  0.8599  0.2805
 4093SOL    HW123741   3.174   2.787   5.787  1.8455  1.0077  0.9531
 4093SOL    HW223742   3.167   2.843   5.929  1.4307  0.1092 -0.1400
 4094SOL     OW23743   3.371   0.790   6.524 -0.0859 -0.7347 -0.5414
 4094SOL    HW123744   3.425   0.866   6.542 -0.0729 -0.8188 -0.2229
 4094SOL    HW223745   3.320   0.788   6.605 -0.3183  1.3097 -0.6397
 4095SOL     OW23746   3.237   1.265   0.621  0.4381 -0.2730  0.2456
 4095SOL    HW123747   3.270   1.279   0.532 -0.0921 -0.9673 -0.0588
 4095SOL    HW223748   3.175   1.195   0.601 -0.7136  0.7547  0.2400
 4096SOL     OW23749   3.695   3.466   1.503 -0.5738  1.0189  0.4340
 4096SOL    HW123750   3.645   3.536   1.546 -1.6072  0.0718  0.7814
 4096SOL    HW223751   3.736   3.517   1.433  0.0526  0.2159  0.2250
 4097SOL     OW23752   1.357   0.057   5.294  0.4437 -0.3232  0.2960
 4097SOL    HW123753   1.399   0.094   5.216 -0.2906 -0.6012 -0.2366
 4097SOL    HW223754   1.383   0.111   5.368  1.1087 -0.3570  0.0859
 4098SOL     OW23755   0.247   0.269  17.085 -0.8570 -0.1469  0.1090
 4098SOL    HW123756   0.160   0.253  17.048  0.4907 -0.6277 -2.8193
 4098SOL    HW223757   0.304   0.307  17.019 -1.1196 -0.0392 -0.0521
 4099SOL     OW23758   0.523   0.086  17.667  0.3589  0.0838 -0.4724
 4099SOL    HW123759   0.454   0.020  17.672  2.1023 -1.6380  0.8642
 4099SOL    HW223760   0.476   0.159  17.626 -1.1606 -1.8707 -2.1789
 4100SOL     OW23761   1.316   2.572   7.761 -0.2333  0.0028 -0.2167
 4100SOL    HW123762   1.227   2.597   7.738 -0.3680 -0.8285 -0.6086
 4100SOL    HW223763   1.336   2.502   7.699  0.9191 -0.6045  0.8320
 4101SOL     OW23764   3.499   2.941   2.573 -0.1418 -0.0159  0.2527
 4101SOL    HW123765   3.433   2.894   2.624  0.8448 -1.4215  0.2420
 4101SOL    HW223766   3.467   2.912   2.487  1.9308  0.8746 -0.8226
 4102SOL     OW23767   1.600   3.214   3.023  0.8121  0.1843  0.0362
 4102SOL    HW123768   1.534   3.267   2.978 -0.4762 -1.6263 -0.2096
 4102SOL    HW223769   1.548   3.134   3.022 -1.7047  1.8418 -0.7661
 4103SOL     OW23770   1.893   0.280   5.095  0.4540 -0.2667  0.6508
 4103SOL    HW123771   1.961   0.217   5.119  1.1541  0.2663  0.0580
 4103SOL    HW223772   1.892   0.278   5.000  0.0861  2.0872  0.6057
 4104SOL     OW23773   1.063   3.054   8.669 -0.9878  0.3054  0.0120
 4104SOL    HW123774   1.075   3.136   8.717  2.8294 -1.1282  1.5179
 4104SOL    HW223775   0.970   3.067   8.653 -0.5578  0.3574 -2.4566
 4105SOL     OW23776   2.354   3.513  10.868 -0.4244  0.6451  0.5878
 4105SOL    HW123777   2.342   3.491  10.960 -0.8136 -0.2193  0.3322
 4105SOL    HW223778   2.319   3.601  10.853 -0.5317  0.3406 -0.9642
 4106SOL     OW23779   2.011   4.668   2.532 -0.0824 -0.4973  0.0400
 4106SOL    HW123780   1.988   4.692   2.442 -1.0897 -0.3930  0.3197
 4106SOL    HW223781   2.074   4.599   2.512  0.0950 -0.2179 -0.3780
 4107SOL     OW23782   4.644   3.779   6.504  0.2463  0.6652  0.2608
 4107SOL    HW123783   4.698   3.858   6.510  2.1328 -0.8187  2.7135
 4107SOL    HW223784   4.572   3.814   6.556  2.2100  3.3336  1.1965
 4108SOL     OW23785   1.773   1.088   6.650  0.3310 -0.0052 -0.2028
 4108SOL    HW123786   1.776   1.142   6.730 -2.4953  2.6072 -1.8755
 4108SOL    HW223787   1.829   1.018   6.683 -1.0058 -0.3652  1.3077
 4109SOL     OW23788   1.747   2.390   3.713 -0.0779  0.0407 -0.0897
 4109SOL    HW123789   1.693   2.314   3.688  0.5581  0.2572 -2.0945
 4109SOL    HW223790   1.684   2.458   3.737  0.1952 -0.1186  1.0674
 4110SOL     OW23791   3.437   2.623   7.449  0.3756  0.0890 -0.6632
 4110SOL    HW123792   3.351   2.657   7.473  0.9730  1.4884 -0.4914
 4110SOL    HW223793   3.411   2.570   7.373  0.4956 -3.5321  1.8507
 4111SOL     OW23794   2.296   3.195   3.579  0.3565 -0.2286  0.6470
 4111SOL    HW123795   2.361   3.207   3.510  1.0430  0.9518  1.5127
 4111SOL    HW223796   2.344   3.182   3.661 -1.8100 -0.2778  1.9244
 4112SOL     OW23797   2.535   3.015   4.833  0.1054  0.1463  0.2569
 4112SOL    HW123798   2.620   2.986   4.800  0.6092 -0.1636  1.8245
 4112SOL    HW223799   2.542   3.006   4.928  0.3884 -1.0674  0.1197
 4113SOL     OW23800   2.872   0.852   4.230  0.4097 -0.1244 -0.4042
 4113SOL    HW123801   2.916   0.935   4.250  0.4499 -0.0031 -0.9788
 4113SOL    HW223802   2.800   0.852   4.292  0.7813 -0.0830  0.0280
 4114SOL     OW23803   1.202   4.622  17.402  0.5294  0.0640 -0.2972
 4114SOL    HW123804   1.281   4.600  17.353 -0.6144 -2.2795 -1.1173
 4114SOL    HW223805   1.220   4.714  17.420  1.0147 -0.3189  1.1535
 4115SOL     OW23806   4.039   3.287  10.917 -0.2997  0.3518 -0.3576
 4115SOL    HW123807   4.036   3.284  11.013 -1.5000  3.2037 -0.3206
 4115SOL    HW223808   4.027   3.381  10.901 -0.4358  0.1041 -1.7458
 4116SOL     OW23809   2.253   4.552   4.153 -0.0458  0.7855  0.0083
 4116SOL    HW123810   2.208   4.620   4.103 -0.0051 -0.3306 -1.5340
 4116SOL    HW223811   2.177   4.495   4.164  2.0124 -2.0768 -0.7254
 4117SOL     OW23812   0.487   3.409  17.208  0.2727  0.0752  0.4329
 4117SOL    HW123813   0.542   3.386  17.133 -0.1788  1.1345 -0.2184
 4117SOL    HW223814   0.425   3.465  17.162  2.3512  0.9732 -1.2869
 4118SOL     OW23815   3.517   0.394   8.948 -0.3348  0.2217 -0.0590
 4118SOL    HW123816   3.585   0.327   8.948 -0.1433  0.4220  2.3897
 4118SOL    HW223817   3.555   0.469   8.993  0.7469  0.5746 -1.5555
 4119SOL     OW23818   3.380   0.108   5.628  0.2726  0.2322 -0.5991
 4119SOL    HW123819   3.309   0.153   5.581  0.1600  0.9636  0.2710
 4119SOL    HW223820   3.453   0.159   5.593 -0.2927 -0.1439 -2.3020
 4120SOL     OW23821   4.416   4.285   2.965  0.4941  0.2137  0.1989
 4120SOL    HW123822   4.367   4.313   2.887 -1.2362 -1.1503  0.8009
 4120SOL    HW223823   4.391   4.346   3.034  2.6023 -1.1259  2.1169
 4121SOL     OW23824   0.113   4.104   2.454 -0.1481  0.8242 -0.3284
 4121SOL    HW123825   0.141   4.181   2.504  0.3074  1.3467 -1.3820
 4121SOL    HW223826   0.079   4.046   2.522 -0.1969 -0.8376 -1.7832
 4122SOL     OW23827   1.105   1.087   5.852 -0.2034 -0.1978 -0.1020
 4122SOL    HW123828   1.188   1.118   5.889 -0.7393 -1.3427  2.0003
 4122SOL    HW223829   1.093   1.160   5.790 -0.5505 -0.7234 -0.6535
 4123SOL     OW23830   0.219   1.436   6.526 -0.3683  0.6569 -0.4147
 4123SOL    HW123831   0.181   1.367   6.581  0.4276  0.6998  0.1927
 4123SOL    HW223832   0.237   1.502   6.593  2.9545  0.3672 -1.0265
 4124SOL     OW23833   0.367   3.932   5.482 -0.2927 -0.7832 -0.1639
 4124SOL    HW123834   0.343   3.841   5.501 -0.5843 -0.8233 -0.7286
 4124SOL    HW223835   0.393   3.929   5.390 -0.4840  0.3774 -0.2532
 4125SOL     OW23836   2.940   3.624  11.676  0.0136 -0.1878 -0.2314
 4125SOL    HW123837   3.006   3.653  11.740 -1.1373  0.8227  0.4893
 4125SOL    HW223838   2.864   3.646  11.729  1.8281  0.4783  2.1302
 4126SOL     OW23839   1.210   0.842   1.472 -0.2435  0.1109 -0.2129
 4126SOL    HW123840   1.219   0.937   1.478 -1.5084  0.3876 -2.6217
 4126SOL    HW223841   1.121   0.828   1.442 -0.3562  0.6980 -0.1489
 4127SOL     OW23842   2.917   0.378   3.885  0.4468 -0.0490  0.3598
 4127SOL    HW123843   2.938   0.367   3.792 -2.6166 -1.3134 -0.1625
 4127SOL    HW223844   2.939   0.469   3.903 -0.1745  0.1707  0.0127
 4128SOL     OW23845   3.909   0.527  12.476  0.5445 -0.4690 -0.5539
 4128SOL    HW123846   3.835   0.556  12.424 -0.1428  1.4079  1.4683
 4128SOL    HW223847   3.918   0.601  12.537  2.2002 -2.8991  2.1882
 4129SOL     OW23848   0.472   2.684   0.452  0.1448 -0.0209  0.2717
 4129SOL    HW123849   0.456   2.647   0.539 -0.3724  1.5328  0.8517
 4129SOL    HW223850   0.567   2.672   0.451  0.0798 -0.4373 -0.7200
 4130SOL     OW23851   4.041   4.311   5.697 -0.7784  0.1245  0.3458
 4130SOL    HW123852   4.038   4.404   5.672 -0.9780  0.1951  0.6316
 4130SOL    HW223853   4.055   4.277   5.609  0.6907  0.8353  0.3018
 4131SOL     OW23854   3.704   2.722   5.576 -0.4572  0.0644 -0.3080
 4131SOL    HW123855   3.749   2.639   5.560 -0.2268  0.5055 -1.9144
 4131SOL    HW223856   3.626   2.702   5.627  0.9136 -0.1391  1.7119
 4132SOL     OW23857   3.384   1.742  16.662  0.1910  0.2749  0.2941
 4132SOL    HW123858   3.446   1.794  16.610  0.5067 -0.4926 -0.0933
 4132SOL    HW223859   3.414   1.758  16.752  1.0256  1.7691 -0.2399
 4133SOL     OW23860   0.749   0.746  17.654 -0.1010 -0.3583  0.4793
 4133SOL    HW123861   0.703   0.725   0.061 -0.3100  0.3255  0.5318
 4133SOL    HW223862   0.729   0.839  17.655  0.7072 -0.2181  3.0847
 4134SOL     OW23863   2.135   2.265   7.830  0.3070  0.3084 -0.0903
 4134SOL    HW123864   2.117   2.351   7.870 -2.2773 -0.5727  0.6586
 4134SOL    HW223865   2.199   2.291   7.763 -1.3689  0.7035 -1.5303
 4135SOL     OW23866   3.351   0.812   5.836  0.1788 -0.1742  0.0366
 4135SOL    HW123867   3.383   0.768   5.757 -0.4385  1.0416 -0.8947
 4135SOL    HW223868   3.306   0.742   5.882  0.1691 -0.3596 -0.2501
 4136SOL     OW23869   2.111   3.695  11.766 -0.6349 -0.0961  0.0513
 4136SOL    HW123870   2.134   3.663  11.853 -1.4043 -1.5037 -0.2591
 4136SOL    HW223871   2.036   3.749  11.789 -0.5066 -0.3931  1.1596
 4137SOL     OW23872   4.681   0.997   6.776 -0.1464  0.2955 -0.1783
 4137SOL    HW123873   4.685   1.073   6.834  0.4713  0.4381 -0.4154
 4137SOL    HW223874   0.042   1.019   6.726  1.2469 -0.9955  1.4648
 4138SOL     OW23875   2.066   4.242   6.303  0.3738 -0.0266 -0.3536
 4138SOL    HW123876   2.040   4.324   6.261 -3.0430 -1.3946 -0.8707
 4138SOL    HW223877   1.983   4.217   6.342  0.6049 -0.9877 -0.4819
 4139SOL     OW23878   1.097   4.520  14.815  1.1508  0.5429 -0.7114
 4139SOL    HW123879   1.175   4.537  14.868  0.1616 -0.3548  1.0351
 4139SOL    HW223880   1.054   4.450  14.864  0.2837  3.3820  2.6349
 4140SOL     OW23881   2.045   2.112   7.543  0.1932 -0.6809  0.4111
 4140SOL    HW123882   1.966   2.140   7.590  0.2622  0.6514 -0.2708
 4140SOL    HW223883   2.010   2.059   7.471 -1.5729  2.0860 -0.7560
 4141SOL     OW23884   1.562   1.612  16.128  0.3950 -0.5915 -0.0791
 4141SOL    HW123885   1.485   1.561  16.153 -0.8685  2.1497  1.6771
 4141SOL    HW223886   1.637   1.574  16.173  1.9290 -0.1745 -2.2586
 4142SOL     OW23887   2.646   4.397   5.600  0.3693 -0.2363  0.4037
 4142SOL    HW123888   2.714   4.335   5.573 -0.5688 -0.4936 -1.3619
 4142SOL    HW223889   2.635   4.376   5.693  0.2386 -0.6243  0.3033
 4143SOL     OW23890   3.158   4.274  10.413  0.1322 -0.3553  0.0476
 4143SOL    HW123891   3.218   4.237  10.349  0.2249 -1.0547  0.5425
 4143SOL    HW223892   3.106   4.336  10.360 -0.9372 -1.0447  0.2948
 4144SOL     OW23893   3.706   2.229   5.929 -0.4245 -0.2346 -0.1510
 4144SOL    HW123894   3.743   2.185   5.852  0.2932  0.8265 -0.4131
 4144SOL    HW223895   3.738   2.314   5.900 -0.8733  0.4256  1.2797
 4145SOL     OW23896   4.283   1.618  11.001  0.3229  0.5873 -0.4098
 4145SOL    HW123897   4.318   1.560  11.069  1.0463  1.8242  0.2655
 4145SOL    HW223898   4.295   1.698  11.051 -0.4065  0.4623 -0.0301
 4146SOL     OW23899   2.954   2.943   4.462 -0.1190 -0.3286  0.0969
 4146SOL    HW123900   3.003   2.870   4.498 -2.3217 -1.2670  1.1683
 4146SOL    HW223901   2.887   2.902   4.408  0.1696 -1.0293  0.2817
 4147SOL     OW23902   1.288   1.812  15.132  0.0544 -0.2213  0.3091
 4147SOL    HW123903   1.230   1.820  15.057  0.1982 -1.6461  0.0442
 4147SOL    HW223904   1.345   1.887  15.117 -2.9754  2.1369  0.5822
 4148SOL     OW23905   3.786   2.098   5.704  0.0241 -0.3923 -0.7078
 4148SOL    HW123906   3.757   2.028   5.763  0.6670 -0.1350 -0.0889
 4148SOL    HW223907   3.836   2.053   5.635  0.0833 -0.0665 -0.8761
 4149SOL     OW23908   2.329   3.455   3.324  0.5427 -0.8541  0.2779
 4149SOL    HW123909   2.337   3.530   3.383  1.4369 -0.2586 -0.5972
 4149SOL    HW223910   2.375   3.484   3.245  1.3968 -1.8980  0.3987
 4150SOL     OW23911   4.297   1.018   0.409 -0.2983  0.1103 -0.1033
 4150SOL    HW123912   4.369   1.020   0.346  1.5781  0.5242  2.0134
 4150SOL    HW223913   4.273   1.109   0.425 -0.0781  0.6828 -3.1769
 4151SOL     OW23914   3.525   3.197   4.803  0.5647  0.0231  0.2477
 4151SOL    HW123915   3.473   3.222   4.726 -0.4317 -1.9387  0.2807
 4151SOL    HW223916   3.589   3.265   4.820  0.6468 -0.0089  0.0686
 4152SOL     OW23917   2.668   4.112   6.786  0.4160  0.1455  0.4843
 4152SOL    HW123918   2.662   4.107   6.691 -1.6409 -0.6079  0.6443
 4152SOL    HW223919   2.729   4.184   6.803  0.2665  0.4179 -0.1354
 4153SOL     OW23920   4.575   2.330  14.867 -0.4698  0.0183 -0.3110
 4153SOL    HW123921   4.480   2.328  14.860 -0.6238 -2.6861  2.9891
 4153SOL    HW223922   4.594   2.407  14.813  1.2250  0.7079  1.2705
 4154SOL     OW23923   4.068   2.403   6.885 -0.5772  0.3168 -0.1676
 4154SOL    HW123924   4.088   2.451   6.965  1.3982  1.6362 -1.4443
 4154SOL    HW223925   4.034   2.474   6.830  0.2362  0.5232 -0.4132
 4155SOL     OW23926   4.629   3.600   8.012  0.1747  0.1754  0.3299
 4155SOL    HW123927   4.711   3.595   8.061 -0.0799  3.6486  1.1055
 4155SOL    HW223928   4.580   3.529   8.055  1.4731 -0.7914  0.2290
 4156SOL     OW23929   1.720   2.509   5.940  0.4233 -0.5787  0.4738
 4156SOL    HW123930   1.747   2.576   5.877 -1.1106  0.2533  0.7017
 4156SOL    HW223931   1.791   2.444   5.945 -0.3640 -1.3561  1.6419
 4157SOL     OW23932   2.624   0.471   9.365  0.6085 -0.1384 -0.0799
 4157SOL    HW123933   2.669   0.493   9.447 -0.1904  2.7114 -0.3808
 4157SOL    HW223934   2.617   0.376   9.363 -0.1566 -0.0696 -0.2729
 4158SOL     OW23935   0.879   3.774  17.163 -0.2812  0.0250  0.4098
 4158SOL    HW123936   0.829   3.816  17.234  0.7745  0.0428  1.1435
 4158SOL    HW223937   0.949   3.730  17.212  0.2161  0.3622 -0.0060
 4159SOL     OW23938   3.381   2.792   3.702 -0.5715  0.4444 -0.0325
 4159SOL    HW123939   3.427   2.786   3.786 -1.1987  1.7737  0.4050
 4159SOL    HW223940   3.339   2.706   3.694 -0.5980  0.4522  0.0196
 4160SOL     OW23941   2.682   0.590   3.904 -0.2188 -0.5826  0.4750
 4160SOL    HW123942   2.696   0.629   3.818  0.3508 -0.9267  0.4103
 4160SOL    HW223943   2.683   0.499   3.874  0.0979 -0.4165 -0.0224
 4161SOL     OW23944   3.102   3.697  10.433  0.4981 -0.4991 -1.0660
 4161SOL    HW123945   3.126   3.726  10.520  0.4943 -0.3975 -1.0989
 4161SOL    HW223946   3.035   3.763  10.413 -1.8806 -3.2321 -2.0608
 4162SOL     OW23947   0.616   1.500   1.992  0.3362  0.2545  0.3341
 4162SOL    HW123948   0.691   1.446   2.019  0.2451 -0.1381 -0.1871
 4162SOL    HW223949   0.656   1.534   1.912 -0.5383  1.6530  0.4976
 4163SOL     OW23950   4.051   3.554  10.834  0.4416 -0.7735  0.3390
 4163SOL    HW123951   4.087   3.556  10.746 -0.9588 -1.3835 -0.2375
 4163SOL    HW223952   3.998   3.633  10.833  0.1970 -0.9827 -2.6441
 4164SOL     OW23953   0.314   2.356   2.837 -0.0896 -0.1517  0.3101
 4164SOL    HW123954   0.381   2.360   2.905 -0.2231  2.0619  0.3198
 4164SOL    HW223955   0.358   2.347   2.752 -0.7450  0.9639 -0.1563
 4165SOL     OW23956   2.787   3.314   2.823 -0.9386  0.4029  0.6475
 4165SOL    HW123957   2.752   3.234   2.785  0.9572  0.2946 -0.8724
 4165SOL    HW223958   2.875   3.288   2.846 -0.2148  1.6717 -0.6413
 4166SOL     OW23959   3.580   0.292   5.898 -0.2688  0.0002  0.2653
 4166SOL    HW123960   3.533   0.230   5.953  2.2703 -0.8190  1.5201
 4166SOL    HW223961   3.671   0.267   5.912 -0.7141 -2.3970 -1.1822
 4167SOL     OW23962   3.961   3.221  11.179 -0.5264 -0.1295  0.1929
 4167SOL    HW123963   3.925   3.132  11.177 -2.1669  0.5696 -2.0559
 4167SOL    HW223964   4.031   3.216  11.244 -0.7363 -1.8083  0.3032
 4168SOL     OW23965   2.222   2.595  11.528 -0.7996 -0.2495  0.3365
 4168SOL    HW123966   2.164   2.637  11.591  1.0245 -1.2488  2.7036
 4168SOL    HW223967   2.224   2.653  11.452  0.0051 -0.2431  0.3550
 4169SOL     OW23968   2.579   0.354   3.786  0.1570 -0.5521 -0.5373
 4169SOL    HW123969   2.640   0.301   3.734 -0.5473 -2.1969  0.2872
 4169SOL    HW223970   2.517   0.385   3.720 -0.4518  1.7858  1.1708
 4170SOL     OW23971   3.042   1.197  15.656 -0.5551 -0.9605 -0.1380
 4170SOL    HW123972   3.057   1.208  15.562  1.6690 -0.5297  0.2699
 4170SOL    HW223973   3.029   1.288  15.684  1.3697 -0.9434  0.6635
 4171SOL     OW23974   3.816   1.226   6.822 -0.3058 -0.1211 -0.1889
 4171SOL    HW123975   3.747   1.161   6.831  0.9872 -0.9737  3.7157
 4171SOL    HW223976   3.773   1.286   6.883  2.0190  1.1925  0.1663
 4172SOL     OW23977   1.024   3.517  14.955 -0.0360 -0.2795  0.0722
 4172SOL    HW123978   0.944   3.490  14.999  0.6082  1.6879  2.5117
 4172SOL    HW223979   1.084   3.479  15.020  0.0151  1.7242  1.2183
 4173SOL     OW23980   4.373   4.407  11.519  0.2675 -0.3067  0.5067
 4173SOL    HW123981   4.330   4.380  11.600 -1.1459 -1.1549 -0.5416
 4173SOL    HW223982   4.354   4.501  11.518 -1.1240 -0.6195 -0.6012
 4174SOL     OW23983   3.617   4.567   3.590 -0.1762 -0.3998  0.6534
 4174SOL    HW123984   3.681   4.608   3.531 -1.6038 -0.1854 -0.7449
 4174SOL    HW223985   3.556   4.539   3.523 -0.5605  0.3629  0.6791
 4175SOL     OW23986   1.093   3.149  10.512  0.2728 -0.0469  0.4081
 4175SOL    HW123987   1.171   3.095  10.527  0.3416 -0.1701 -0.3571
 4175SOL    HW223988   1.028   3.127  10.578 -0.3361  2.9545  0.8060
 4176SOL     OW23989   1.572   4.309  11.064 -0.2448 -0.6546 -0.4533
 4176SOL    HW123990   1.501   4.349  11.015  1.1126  1.1634 -0.9140
 4176SOL    HW223991   1.602   4.237  11.009  0.2141 -0.5299 -0.3690
 4177SOL     OW23992   2.411   4.513   0.068  0.0223  0.0189 -0.3826
 4177SOL    HW123993   2.401   4.476   0.156  0.8317  0.7576  0.0250
 4177SOL    HW223994   2.323   4.500   0.034  0.3092 -1.8046 -0.4206
 4178SOL     OW23995   1.700   1.862   2.261  0.3214  0.1716  0.2281
 4178SOL    HW123996   1.664   1.931   2.317 -1.3512 -0.7700  0.2978
 4178SOL    HW223997   1.771   1.820   2.310 -1.7612 -1.0331  2.2071
 4179SOL     OW23998   4.228   3.520  13.299  0.6191 -0.1406  0.0052
 4179SOL    HW123999   4.179   3.457  13.246 -0.9487  1.1610 -0.1330
 4179SOL    HW224000   4.302   3.534  13.240  1.0548  1.3712  0.9240
 4180SOL     OW24001   4.555   0.189   1.560 -0.1398  0.6177  0.5882
 4180SOL    HW124002   4.599   0.218   1.481 -0.4508  1.6859  0.7986
 4180SOL    HW224003   4.547   0.096   1.538  0.6007  0.8843 -0.8042
 4181SOL     OW24004   4.076   1.258   0.212  0.8355 -0.3129 -0.3064
 4181SOL    HW124005   4.133   1.288   0.284  1.0178  0.4168 -0.7470
 4181SOL    HW224006   4.028   1.184   0.249  0.6651 -0.4501 -0.8104
 4182SOL     OW24007   2.279   0.459   8.114  0.2727  0.4948  0.2251
 4182SOL    HW124008   2.298   0.544   8.152  1.1708 -0.0302  0.9310
 4182SOL    HW224009   2.361   0.421   8.144  1.4419  3.2400  0.4620
 4183SOL     OW24010   4.066   4.384   2.190 -0.3180  0.1528 -0.2318
 4183SOL    HW124011   4.128   4.338   2.245 -0.1043  0.7152  0.0040
 4183SOL    HW224012   4.127   4.442   2.143  0.1775 -0.3260 -0.1686
 4184SOL     OW24013   2.292   2.715   4.134  0.0397  0.3994 -0.0324
 4184SOL    HW124014   2.266   2.769   4.059 -2.4552 -0.0704  0.5162
 4184SOL    HW224015   2.245   2.635   4.109  1.1008 -0.2289 -0.0297
 4185SOL     OW24016   1.239   0.828   7.014 -0.4290  0.2554  0.4093
 4185SOL    HW124017   1.200   0.905   7.055  1.9234  1.2400  0.7962
 4185SOL    HW224018   1.248   0.775   7.093 -1.7179 -0.0789  0.3215
 4186SOL     OW24019   3.686   4.440   3.828  0.0892  0.8651 -0.1978
 4186SOL    HW124020   3.766   4.476   3.865  0.5532 -0.0427 -0.3309
 4186SOL    HW224021   3.660   4.503   3.760 -0.7320  0.8259  0.0809
 4187SOL     OW24022   2.837   2.489   1.798 -0.3072 -0.1714 -0.0709
 4187SOL    HW124023   2.885   2.414   1.833 -1.5882 -1.2493 -0.6135
 4187SOL    HW224024   2.746   2.461   1.792 -0.6934  0.7945  1.1941
 4188SOL     OW24025   3.819   1.674   5.608  0.0341 -0.3871  0.2588
 4188SOL    HW124026   3.802   1.580   5.595  3.9547 -0.9340 -1.1224
 4188SOL    HW224027   3.909   1.671   5.641  0.4398  1.3529 -0.7032
 4189SOL     OW24028   3.205   1.297  11.906  0.7491 -0.0159 -0.5008
 4189SOL    HW124029   3.110   1.290  11.897  0.6205  1.6837 -0.4252
 4189SOL    HW224030   3.231   1.269  11.818 -1.6386  0.0754 -1.2398
 4190SOL     OW24031   1.911   1.355   5.547  0.0965  0.2013  1.0021
 4190SOL    HW124032   1.975   1.362   5.618  0.5333  1.2553  0.4925
 4190SOL    HW224033   1.924   1.427   5.485 -2.1062  0.6111  0.9980
 4191SOL     OW24034   1.243   1.543  14.985 -0.1143  0.4757  0.2985
 4191SOL    HW124035   1.240   1.624  15.035  0.3822  1.6340 -1.5642
 4191SOL    HW224036   1.319   1.500  15.023  0.5568  0.5603 -0.9289
 4192SOL     OW24037   1.224   0.943   7.687 -0.5026  0.4048 -0.0557
 4192SOL    HW124038   1.250   0.991   7.608 -1.0268 -0.4395 -0.7361
 4192SOL    HW224039   1.308   0.903   7.707 -0.1717  1.0463 -0.1470
 4193SOL     OW24040   3.934   1.143   7.298  0.4393 -0.4706  0.2527
 4193SOL    HW124041   3.950   1.057   7.260  0.8214  0.2209 -1.1635
 4193SOL    HW224042   4.017   1.172   7.335 -0.0873 -0.3164  1.3063
 4194SOL     OW24043   4.416   3.286   6.858  0.8232 -0.2500 -0.0139
 4194SOL    HW124044   4.417   3.369   6.810  1.3346  0.2703  0.9143
 4194SOL    HW224045   4.467   3.303   6.936 -1.7970  0.2303  1.5947
 4195SOL     OW24046   4.324   4.238  11.081  0.1649  0.5873 -0.5035
 4195SOL    HW124047   4.387   4.259  11.012  1.8167 -2.6410  0.0047
 4195SOL    HW224048   4.274   4.166  11.044  0.4287  0.2192 -0.1475
 4196SOL     OW24049   2.157   3.107   5.209 -0.7005 -0.8364 -0.1938
 4196SOL    HW124050   2.210   3.184   5.229 -1.1212 -0.3959 -0.7685
 4196SOL    HW224051   2.076   3.129   5.255 -1.2129  0.4512 -1.7173
 4197SOL     OW24052   1.896   0.926   8.385 -0.6081  0.1200 -0.0753
 4197SOL    HW124053   1.828   0.924   8.318 -1.6730  0.3055  0.9930
 4197SOL    HW224054   1.972   0.954   8.334 -0.8995 -0.9435 -1.0832
 4198SOL     OW24055   4.160   4.306   6.407 -0.1968 -0.4885  0.2972
 4198SOL    HW124056   4.143   4.338   6.496 -2.4350 -0.2289 -0.2226
 4198SOL    HW224057   4.107   4.363   6.351 -2.1790 -1.5639  1.0914
 4199SOL     OW24058   3.331   3.062  13.316 -0.3514  0.1945  0.0401
 4199SOL    HW124059   3.379   2.980  13.316  0.1668  0.5133 -1.9750
 4199SOL    HW224060   3.403   3.122  13.300 -0.8852  0.6376 -0.7115
 4200SOL     OW24061   2.995   1.485  15.727 -0.4560  0.5713 -0.2914
 4200SOL    HW124062   2.913   1.506  15.773  0.6884 -1.0907  2.5350
 4200SOL    HW224063   3.034   1.571  15.709 -0.4785  0.7165  0.3503
 4201SOL     OW24064   2.935   3.059   6.164  0.5338  0.1046  0.4998
 4201SOL    HW124065   2.938   3.153   6.147  1.3314  0.2012  1.2054
 4201SOL    HW224066   3.029   3.048   6.175  0.5642 -2.0156 -1.7651
 4202SOL     OW24067   4.536   3.304  12.254 -0.1302 -0.1051  0.6187
 4202SOL    HW124068   4.539   3.237  12.323 -0.8582  0.2367  0.9708
 4202SOL    HW224069   4.600   3.272  12.190 -1.0862  0.6018 -0.6795
 4203SOL     OW24070   0.573   4.686   5.511  0.0612 -0.7494 -0.4131
 4203SOL    HW124071   0.630   4.611   5.527 -0.3323 -0.8177  0.7256
 4203SOL    HW224072   0.637   0.020   5.462  0.7514 -1.3512 -0.1318
 4204SOL     OW24073   1.303   2.543  10.326 -0.0561 -0.1130  0.4414
 4204SOL    HW124074   1.314   2.473  10.261  0.2237  0.2648  0.0796
 4204SOL    HW224075   1.379   2.528  10.383  1.4872 -0.1708 -1.6140
 4205SOL     OW24076   1.057   0.646   3.135 -0.2734 -1.0363 -0.2909
 4205SOL    HW124077   1.059   0.627   3.041 -0.0405 -1.3713 -0.2169
 4205SOL    HW224078   1.142   0.622   3.172  0.2179  0.2327 -0.5671
 4206SOL     OW24079   0.651   4.690   3.415 -0.0061 -0.1790 -0.0558
 4206SOL    HW124080   0.600   0.030   3.472  1.0185  0.1665  0.5153
 4206SOL    HW224081   0.615   4.698   3.326  3.2262 -0.4050 -1.4057
 4207SOL     OW24082   2.340   1.079   5.930 -0.2078 -0.0378 -0.3210
 4207SOL    HW124083   2.260   1.118   5.966  0.4319 -0.5794  1.6785
 4207SOL    HW224084   2.352   0.999   5.982  0.6056 -1.1970 -2.2700
 4208SOL     OW24085   2.078   1.319   8.344 -0.0716  0.1618 -0.1403
 4208SOL    HW124086   2.000   1.279   8.307 -1.1938  0.4145  1.9508
 4208SOL    HW224087   2.040   1.376   8.411 -0.7485 -1.0399  0.4970
 4209SOL     OW24088   4.343   0.978   3.775 -0.0948 -0.2423  0.2218
 4209SOL    HW124089   4.267   0.994   3.720  1.3183 -0.3160 -1.7390
 4209SOL    HW224090   4.297   0.956   3.857 -0.0680 -1.8305 -0.1787
 4210SOL     OW24091   2.879   2.500  13.439 -0.0091 -0.0855  0.1812
 4210SOL    HW124092   2.884   2.505  13.535  0.2562  0.2336  0.1523
 4210SOL    HW224093   2.796   2.452  13.435  0.9426 -1.4992 -2.2577
 4211SOL     OW24094   2.217   2.198   4.231  0.8398 -0.1337 -0.2400
 4211SOL    HW124095   2.269   2.265   4.187  1.0016  0.6610  1.1608
 4211SOL    HW224096   2.138   2.243   4.262  0.2273 -1.9114  0.7554
 4212SOL     OW24097   3.984   2.150  16.940  0.1058  0.5006  0.3398
 4212SOL    HW124098   3.936   2.206  17.001  0.3666  0.0216  0.9888
 4212SOL    HW224099   4.047   2.110  17.000  2.3590  2.2262 -0.8841
 4213SOL     OW24100   4.474   2.119   6.878 -0.6350 -0.3411 -0.8796
 4213SOL    HW124101   4.473   2.083   6.967  1.3496 -0.1920 -0.7949
 4213SOL    HW224102   4.380   2.134   6.869 -0.7823 -0.3437  0.5784
 4214SOL     OW24103   2.454   2.226   9.658  0.3390  0.3409 -0.7059
 4214SOL    HW124104   2.522   2.176   9.613  1.5023  0.5853  0.7574
 4214SOL    HW224105   2.464   2.312   9.617  1.3707  1.0318  0.9652
 4215SOL     OW24106   3.791   3.010   3.245 -0.7079 -0.2999 -0.5080
 4215SOL    HW124107   3.838   2.944   3.194 -0.4912  1.0409 -2.0527
 4215SOL    HW224108   3.770   2.950   3.317 -0.9555  0.9854  0.4867
 4216SOL     OW24109   4.089   1.961   1.785 -0.0552  0.0608  0.0457
 4216SOL    HW124110   4.048   1.879   1.811  0.8758 -0.7666 -1.0995
 4216SOL    HW224111   4.094   1.959   1.689  0.7195  0.7344  0.0730
 4217SOL     OW24112   1.735   3.989  13.937 -0.2013  0.3034  0.3356
 4217SOL    HW124113   1.639   3.984  13.934 -0.1037 -2.6272  2.3771
 4217SOL    HW224114   1.750   4.072  13.892  1.5750 -0.0213  0.3307
 4218SOL     OW24115   4.668   0.902   0.341 -0.1128 -0.1187 -0.2743
 4218SOL    HW124116   0.033   0.914   0.294 -0.8901  2.5823 -0.9300
 4218SOL    HW224117   4.612   0.873   0.269 -0.9650  1.3598 -0.2088
 4219SOL     OW24118   0.642   0.914   3.428  0.0566 -0.1208 -0.2205
 4219SOL    HW124119   0.696   0.968   3.370  1.4043 -0.1467  1.0208
 4219SOL    HW224120   0.562   0.909   3.374  0.2614 -1.5211 -0.3813
 4220SOL     OW24121   2.475   4.353   4.563  0.7797  0.3862  0.2282
 4220SOL    HW124122   2.457   4.370   4.471  2.2337  0.5546 -0.0130
 4220SOL    HW224123   2.498   4.260   4.563 -0.4296  0.0890 -1.2579
 4221SOL     OW24124   3.744   1.863  10.272  0.1436  0.2287 -0.7809
 4221SOL    HW124125   3.700   1.845  10.356  1.5425 -1.1129 -0.3319
 4221SOL    HW224126   3.755   1.773  10.243  1.9063 -0.1871  1.2175
 4222SOL     OW24127   1.180   0.025   6.440  0.2572 -0.3082 -0.5746
 4222SOL    HW124128   1.238   4.701   6.503 -0.2835 -0.3171 -0.0757
 4222SOL    HW224129   1.092   0.015   6.478  0.1605 -2.4699 -1.3900
 4223SOL     OW24130   0.013   3.741   2.635 -0.5647 -0.4393  0.5411
 4223SOL    HW124131   0.003   3.826   2.678  1.8347  0.3855 -0.5400
 4223SOL    HW224132   0.060   3.775   2.559 -2.3884  0.2259 -0.2810
 4224SOL     OW24133   2.865   1.518   5.505 -0.2383 -0.3347  0.0152
 4224SOL    HW124134   2.837   1.492   5.593 -0.9137  0.4531  0.0313
 4224SOL    HW224135   2.905   1.604   5.514 -1.2863  0.0864  0.6995
 4225SOL     OW24136   2.764   1.721   7.684  0.1287  0.2075  0.0744
 4225SOL    HW124137   2.853   1.696   7.659 -0.3745 -0.7448 -0.7338
 4225SOL    HW224138   2.783   1.776   7.761 -0.8285 -3.4754  2.9522
 4226SOL     OW24139   2.468   0.882   4.291  0.3782 -0.0351  0.4663
 4226SOL    HW124140   2.482   0.860   4.199 -0.4333 -0.4085  0.4298
 4226SOL    HW224141   2.499   0.799   4.327 -3.2214 -1.3617  0.4558
 4227SOL     OW24142   3.357   0.905  15.862  0.0998  0.2876  0.2622
 4227SOL    HW124143   3.419   0.892  15.790  1.5841  2.8632  1.0853
 4227SOL    HW224144   3.271   0.895  15.820 -0.0608  0.0218  0.6610
 4228SOL     OW24145   0.044   4.313   7.291 -0.2911 -0.7805  0.0312
 4228SOL    HW124146   0.121   4.259   7.275 -0.5907 -1.0899 -0.3689
 4228SOL    HW224147   0.079   4.360   7.366 -2.8728 -0.8311  1.2655
 4229SOL     OW24148   0.319   3.842   2.610  0.0402 -0.0659 -0.5583
 4229SOL    HW124149   0.292   3.803   2.527  0.4500 -0.8836 -0.2958
 4229SOL    HW224150   0.350   3.764   2.656 -1.9014  0.9028  2.3960
 4230SOL     OW24151   2.372   3.477   5.582  0.0945  0.3726  0.2333
 4230SOL    HW124152   2.464   3.485   5.556 -0.2252  3.8379  0.0947
 4230SOL    HW224153   2.365   3.382   5.571 -2.0089  0.7687 -1.8878
 4231SOL     OW24154   2.738   4.284   5.833 -0.0746 -0.7283  0.0306
 4231SOL    HW124155   2.744   4.245   5.920  1.3863 -0.5463 -0.0020
 4231SOL    HW224156   2.799   4.227   5.786  0.3258  1.2718 -1.9210
 4232SOL     OW24157   3.397   4.572  16.457  0.0045  0.0825 -0.2947
 4232SOL    HW124158   3.421   4.561  16.365  0.3769  0.2151 -0.2136
 4232SOL    HW224159   3.331   4.642  16.460  0.4357  0.5097 -0.8554
 4233SOL     OW24160   1.404   3.856   7.992 -0.0651 -0.3056 -0.1416
 4233SOL    HW124161   1.397   3.829   8.083  0.8529  1.7584  0.5538
 4233SOL    HW224162   1.421   3.776   7.943  0.0462 -1.3241  1.5816
 4234SOL     OW24163   4.593   1.331   2.284  0.1021 -0.2751  0.4166
 4234SOL    HW124164   4.575   1.237   2.275 -1.3148  0.2505 -2.1168
 4234SOL    HW224165   4.611   1.338   2.377  2.2589 -0.2454  0.0196
 4235SOL     OW24166   3.805   3.530   6.897 -0.2493 -0.1572 -0.3373
 4235SOL    HW124167   3.891   3.490   6.887 -0.6766 -0.6538 -2.0581
 4235SOL    HW224168   3.787   3.567   6.810  0.1372  0.5682 -0.1172
 4236SOL     OW24169   1.238   4.471  10.171  0.8758 -0.1237 -0.3221
 4236SOL    HW124170   1.242   4.565  10.152  0.2843 -0.7999 -3.7855
 4236SOL    HW224171   1.309   4.448  10.111  0.8402  0.0620 -0.4376
 4237SOL     OW24172   1.557   0.990   2.888  0.2369 -0.4132  0.0288
 4237SOL    HW124173   1.465   0.976   2.869 -0.0350 -0.4396  1.4087
 4237SOL    HW224174   1.585   0.999   2.797  0.1117 -0.1358  0.0175
 4238SOL     OW24175   0.208   1.761   9.422  0.5566  0.1283 -0.2538
 4238SOL    HW124176   0.185   1.799   9.338 -0.1149 -0.2244 -0.2321
 4238SOL    HW224177   0.226   1.668   9.407  0.1012 -0.1766  1.0513
 4239SOL     OW24178   3.006   0.234   8.105 -0.1547  0.1431  0.4468
 4239SOL    HW124179   3.038   0.171   8.041 -1.3202 -1.5441  1.5360
 4239SOL    HW224180   3.090   0.275   8.124 -1.1130  0.8087  3.3745
 4240SOL     OW24181   3.661   3.400   0.827  0.3000 -0.1364 -0.4191
 4240SOL    HW124182   3.611   3.320   0.842  0.1575 -0.2029 -1.2443
 4240SOL    HW224183   3.722   3.407   0.901  0.8629 -1.8507 -0.7170
 4241SOL     OW24184   0.083   1.756  14.420  0.2455  0.1217  0.0618
 4241SOL    HW124185   0.091   1.786  14.511  0.4706 -0.1788  0.1382
 4241SOL    HW224186   0.002   1.797  14.389  1.4997  3.4811  1.2458
 4242SOL     OW24187   0.634   3.397  13.034 -0.0163  0.3854  0.1027
 4242SOL    HW124188   0.625   3.471  13.094  1.9444 -0.6673  1.7246
 4242SOL    HW224189   0.613   3.431  12.947 -0.4902 -0.3709 -0.0791
 4243SOL     OW24190   2.504   2.094   1.678 -0.0258 -0.0408 -0.2487
 4243SOL    HW124191   2.464   2.034   1.741 -0.0482 -1.5861 -1.7116
 4243SOL    HW224192   2.429   2.106   1.620  0.0688  0.0502 -0.3533
 4244SOL     OW24193   1.730   0.307   2.922  0.0725 -0.2397  0.4988
 4244SOL    HW124194   1.759   0.306   3.013 -1.0836 -1.1678  0.8610
 4244SOL    HW224195   1.803   0.260   2.881  0.7240 -0.2199  1.6297
 4245SOL     OW24196   3.163   1.790   3.014  0.0099  0.4331 -0.2740
 4245SOL    HW124197   3.241   1.815   2.965  0.5732 -1.6307 -0.4458
 4245SOL    HW224198   3.089   1.826   2.965 -0.0502 -1.4290 -1.5553
 4246SOL     OW24199   4.157   2.448  10.917 -0.4158  0.2761  0.1312
 4246SOL    HW124200   4.174   2.537  10.888 -0.0577  0.2688  0.3219
 4246SOL    HW224201   4.241   2.434  10.961  0.2087  2.0950 -0.4952
 4247SOL     OW24202   1.047   0.499   5.122  0.1109 -0.2339 -0.6015
 4247SOL    HW124203   1.038   0.461   5.209 -1.3384 -1.5399 -1.3176
 4247SOL    HW224204   0.960   0.533   5.097 -0.0876  0.4646  1.0277
 4248SOL     OW24205   1.413   3.443   6.873  0.0921 -0.8583  0.1738
 4248SOL    HW124206   1.394   3.503   6.801 -0.7043 -1.6301 -0.2464
 4248SOL    HW224207   1.404   3.356   6.835 -1.2936 -0.7914  0.3249
 4249SOL     OW24208   4.365   3.787  12.310 -0.0493  0.1068 -0.2510
 4249SOL    HW124209   4.351   3.758  12.220  0.2810 -2.8127  0.6334
 4249SOL    HW224210   4.405   3.708  12.348  0.4449  0.6086  0.2857
 4250SOL     OW24211   0.172   1.306   4.622  0.1424  0.2174  0.2978
 4250SOL    HW124212   0.172   1.292   4.527 -0.3590 -0.9300  0.4759
 4250SOL    HW224213   0.212   1.221   4.641  0.8585  0.3801 -0.4310
 4251SOL     OW24214   1.658   3.963   8.141 -0.0339  0.4890 -0.3484
 4251SOL    HW124215   1.586   3.903   8.122 -0.5157  1.2827 -1.0906
 4251SOL    HW224216   1.608   4.019   8.201  0.3656  0.3784  0.0891
 4252SOL     OW24217   4.549   0.171   5.715  0.6336  0.6769 -0.5159
 4252SOL    HW124218   4.636   0.200   5.686  0.9201 -0.2002 -0.5385
 4252SOL    HW224219   4.568   0.103   5.779  1.8894  2.0685  0.6018
 4253SOL     OW24220   0.623   2.245   3.288 -0.2899 -0.4536 -0.0527
 4253SOL    HW124221   0.683   2.250   3.363  1.0669  1.9141 -1.2878
 4253SOL    HW224222   0.665   2.179   3.232 -0.3428  1.5853 -2.4905
 4254SOL     OW24223   2.965   2.439   6.891 -0.8338  0.2986  0.1249
 4254SOL    HW124224   3.015   2.374   6.941  0.5638  1.2567 -0.0377
 4254SOL    HW224225   2.895   2.389   6.849  0.4893 -0.0367 -1.6797
 4255SOL     OW24226   0.592   3.138   6.587  0.1621 -0.4646 -0.0056
 4255SOL    HW124227   0.523   3.172   6.645 -0.0055 -0.8767  0.0385
 4255SOL    HW224228   0.538   3.105   6.516 -2.2602  0.0413  1.5923
 4256SOL     OW24229   2.745   0.888   4.693  0.0838  0.1887 -0.0945
 4256SOL    HW124230   2.803   0.817   4.717  0.0951  0.2918  0.1853
 4256SOL    HW224231   2.680   0.892   4.763  1.8514 -0.7660  1.5746
 4257SOL     OW24232   2.733   3.052   8.760  0.5142 -0.0821 -0.6770
 4257SOL    HW124233   2.654   2.999   8.753  1.1399 -1.1279  0.1020
 4257SOL    HW224234   2.756   3.039   8.852 -3.4955 -0.0045  0.3661
 4258SOL     OW24235   3.153   0.408   4.170 -0.4079  0.7855  0.6794
 4258SOL    HW124236   3.126   0.341   4.232 -0.1448  0.6127  0.6090
 4258SOL    HW224237   3.077   0.466   4.165 -0.4726  0.5719 -0.8970
 4259SOL     OW24238   3.729   4.710   6.798 -0.7961  0.2023 -0.6290
 4259SOL    HW124239   3.672   4.637   6.773 -2.3478  1.2648 -0.2417
 4259SOL    HW224240   3.815   4.671   6.784 -0.3960  1.0959 -0.6135
 4260SOL     OW24241   1.388   1.390  15.727  0.0223 -0.5804  0.2446
 4260SOL    HW124242   1.330   1.401  15.803  0.1690 -1.7424  0.5391
 4260SOL    HW224243   1.412   1.297  15.737 -1.7067 -1.1284 -0.7770
 4261SOL     OW24244   4.170   4.192   5.901  0.4263  0.4033  0.1658
 4261SOL    HW124245   4.143   4.204   5.811  1.7256 -2.3138 -0.5825
 4261SOL    HW224246   4.115   4.255   5.948 -1.1681 -1.0008  0.1762
 4262SOL     OW24247   2.068   3.182  10.736  0.1506  0.4718 -0.5388
 4262SOL    HW124248   2.129   3.255  10.726 -0.7942  1.1259 -1.4610
 4262SOL    HW224249   2.054   3.202  10.829 -0.3702 -3.4176  0.2160
 4263SOL     OW24250   1.277   4.421   5.539 -0.3015 -0.1305 -0.1463
 4263SOL    HW124251   1.184   4.408   5.556  0.0839 -0.5034  1.6341
 4263SOL    HW224252   1.308   4.467   5.617  0.8500 -1.0607 -0.0649
 4264SOL     OW24253   3.593   1.809   4.857 -0.2111  0.2617  0.1008
 4264SOL    HW124254   3.687   1.826   4.850 -0.2271  0.3182  0.0212
 4264SOL    HW224255   3.568   1.858   4.936  1.9211 -0.2856  1.1012
 4265SOL     OW24256   0.567   3.768  10.724  0.2412 -0.0115  0.2009
 4265SOL    HW124257   0.602   3.741  10.639 -1.1334 -2.8263  0.5296
 4265SOL    HW224258   0.483   3.794  10.688  0.0358  0.1331  0.7780
 4266SOL     OW24259   2.307   3.003   4.713 -0.4369 -0.3065  0.3906
 4266SOL    HW124260   2.395   2.995   4.749 -0.0965  0.0728 -0.3567
 4266SOL    HW224261   2.262   2.956   4.783 -1.4347  0.7822  0.4772
 4267SOL     OW24262   1.131   1.995  16.063  0.1003  0.1368  0.1332
 4267SOL    HW124263   1.076   1.993  16.142  0.1932  0.8582  0.2163
 4267SOL    HW224264   1.183   2.074  16.078 -1.4332  1.4125 -1.2739
 4268SOL     OW24265   4.193   1.377   7.066  0.5503 -0.5489  0.1967
 4268SOL    HW124266   4.110   1.420   7.045  0.0850 -1.1687  0.7338
 4268SOL    HW224267   4.186   1.367   7.161 -1.3421 -1.2555  0.0041
 4269SOL     OW24268   1.384   3.564   9.248 -0.1866 -0.2750 -0.1578
 4269SOL    HW124269   1.333   3.633   9.290 -2.5571 -1.8657 -0.3715
 4269SOL    HW224270   1.364   3.484   9.297 -3.2401 -1.0176 -2.5918
 4270SOL     OW24271   4.239   0.871  17.155 -0.6116  0.3884 -0.3192
 4270SOL    HW124272   4.212   0.779  17.147  1.7839 -0.2225 -1.4390
 4270SOL    HW224273   4.154   0.903  17.124  0.8500  2.2749 -2.3552
 4271SOL     OW24274   0.065   0.488   2.402 -0.2488 -0.2806  0.4045
 4271SOL    HW124275   0.115   0.506   2.481 -1.8386  1.8992  0.9316
 4271SOL    HW224276   0.130   0.478   2.333 -1.4135 -0.0744 -0.7249
 4272SOL     OW24277   0.288   3.496  17.043 -0.6670  0.3033  0.1919
 4272SOL    HW124278   0.313   3.490  16.951 -1.4796  0.9570 -0.0710
 4272SOL    HW224279   0.236   3.416  17.048 -1.6541  1.1150  2.6413
 4273SOL     OW24280   3.065   1.523   1.823 -0.7021  0.2118 -0.3947
 4273SOL    HW124281   3.045   1.604   1.869 -0.7410  0.8153 -1.4883
 4273SOL    HW224282   3.036   1.456   1.885 -0.9517  0.7373  0.0500
 4274SOL     OW24283   0.859   0.377  10.071 -0.2776 -0.0097  0.2029
 4274SOL    HW124284   0.948   0.397  10.101  0.0471 -0.5619 -0.4053
 4274SOL    HW224285   0.841   0.441  10.002  3.0592  3.3686  2.3994
 4275SOL     OW24286   0.702   1.896   7.842  0.0698  0.0838  0.6530
 4275SOL    HW124287   0.656   1.833   7.787 -1.0097 -0.0184  1.6813
 4275SOL    HW224288   0.658   1.894   7.927 -2.3864  2.2930 -0.5694
 4276SOL     OW24289   2.674   3.402   0.624  0.2847 -0.3429  0.0786
 4276SOL    HW124290   2.755   3.422   0.577  1.4026 -1.8252  1.3845
 4276SOL    HW224291   2.707   3.316   0.652  0.3390  0.0146  1.1027
 4277SOL     OW24292   3.623   2.390   1.869  0.1407  0.7987  0.0692
 4277SOL    HW124293   3.621   2.314   1.811  1.1443  0.9434 -0.1450
 4277SOL    HW224294   3.713   2.422   1.867  0.5343 -0.3573 -0.4605
 4278SOL     OW24295   3.073   3.517   1.262  0.1194 -0.3001 -0.1935
 4278SOL    HW124296   2.995   3.516   1.317 -1.4415  0.9147 -2.3801
 4278SOL    HW224297   3.057   3.601   1.219  0.7004  1.2573  2.6192
 4279SOL     OW24298   3.687   3.858   0.271 -0.5107 -0.8169 -0.6153
 4279SOL    HW124299   3.749   3.870   0.198  0.7379 -0.8500  0.4354
 4279SOL    HW224300   3.682   3.763   0.280  1.9879 -0.9031 -0.0580
 4280SOL     OW24301   0.349   4.321   3.183 -0.3945  0.3270 -0.1458
 4280SOL    HW124302   0.326   4.250   3.244  1.2566  0.3992  0.5755
 4280SOL    HW224303   0.269   4.372   3.176 -0.1993  0.7036  0.3347
 4281SOL     OW24304   1.376   0.346   2.748 -0.3291 -0.3728  0.3097
 4281SOL    HW124305   1.470   0.353   2.766 -0.5315 -0.4507  1.3699
 4281SOL    HW224306   1.376   0.299   2.665  0.5242  0.8314 -0.3846
 4282SOL     OW24307   1.243   0.065   6.771 -0.5823  0.7702  0.0780
 4282SOL    HW124308   1.303   0.127   6.728  1.2109  1.3021  3.3692
 4282SOL    HW224309   1.262   0.078   6.864  0.1320  1.5855 -0.1835
 4283SOL     OW24310   0.337   0.760  17.076 -0.4774 -0.3144  0.1091
 4283SOL    HW124311   0.411   0.702  17.095 -3.2527 -3.2371  1.8528
 4283SOL    HW224312   0.380   0.845  17.074 -1.1456 -0.0071 -1.2276
 4284SOL     OW24313   0.892   3.513   4.747 -0.0434  0.0266 -0.1275
 4284SOL    HW124314   0.815   3.566   4.766  2.0016  2.0942  2.3299
 4284SOL    HW224315   0.895   3.497   4.652  0.6834  2.1177 -0.4731
 4285SOL     OW24316   3.477   3.353   5.966 -0.9363  0.4614  0.4916
 4285SOL    HW124317   3.471   3.428   5.907 -0.0047  0.2267  0.1043
 4285SOL    HW224318   3.396   3.361   6.017  1.3380 -1.8013  4.5081
 4286SOL     OW24319   3.821   4.481   1.846 -0.1563  0.7621 -0.5363
 4286SOL    HW124320   3.871   4.466   1.766 -0.3914  0.7914 -0.6896
 4286SOL    HW224321   3.748   4.538   1.820  0.4516  1.2519 -1.1513
 4287SOL     OW24322   2.430   1.329   2.892  0.5890 -0.2671  0.2271
 4287SOL    HW124323   2.453   1.411   2.935  3.4665 -1.3357  0.7887
 4287SOL    HW224324   2.493   1.333   2.820 -0.2492 -0.4186 -0.5057
 4288SOL     OW24325   0.657   1.247   7.043  0.3134 -0.2680  0.3248
 4288SOL    HW124326   0.574   1.216   7.078  1.9398 -1.1478  3.3687
 4288SOL    HW224327   0.615   1.322   7.001  0.8059  0.6238  1.4467
 4289SOL     OW24328   4.125   1.446   2.889 -0.4494  0.5322 -0.0871
 4289SOL    HW124329   4.132   1.423   2.982  1.7590 -1.0302 -0.6283
 4289SOL    HW224330   4.123   1.542   2.886 -2.7629  0.4506 -0.4992
 4290SOL     OW24331   1.006   1.391   3.994 -0.0117 -0.4330 -0.7361
 4290SOL    HW124332   0.999   1.298   3.973 -0.1427 -0.2788 -1.3816
 4290SOL    HW224333   0.933   1.431   3.947  1.2381  0.3872 -1.9778
 4291SOL     OW24334   2.233   1.325   3.257 -0.6078  0.1183 -0.4362
 4291SOL    HW124335   2.287   1.359   3.185 -1.0126 -0.0063 -0.7937
 4291SOL    HW224336   2.297   1.258   3.280  0.7200  0.8488 -1.9858
 4292SOL     OW24337   1.977   1.112   2.921 -0.1781 -0.1887  0.1056
 4292SOL    HW124338   2.048   1.050   2.940 -0.3017 -0.5198 -0.5091
 4292SOL    HW224339   2.034   1.185   2.895 -1.3253  0.9184  0.7250
 4293SOL     OW24340   2.184   4.412  13.776 -0.3858  0.2236 -0.0792
 4293SOL    HW124341   2.222   4.326  13.760 -0.0913  0.5825 -1.3093
 4293SOL    HW224342   2.099   4.403  13.733 -1.1483 -0.7855  1.6396
 4294SOL     OW24343   0.697   0.554   8.355  0.0861 -0.0167 -0.3139
 4294SOL    HW124344   0.627   0.560   8.420  1.8867  1.1153  1.5162
 4294SOL    HW224345   0.774   0.576   8.407 -0.7481  0.9089  0.5316
 4295SOL     OW24346   2.004   1.782   4.995  0.7596 -0.0061  0.0655
 4295SOL    HW124347   2.001   1.878   4.999 -1.9109 -0.0650 -0.8934
 4295SOL    HW224348   1.927   1.763   5.049  0.8136  1.0408  0.5047
 4296SOL     OW24349   1.453   0.269  14.423  0.2088  0.3801 -0.5166
 4296SOL    HW124350   1.538   0.285  14.464 -0.8202  1.7576  1.0609
 4296SOL    HW224351   1.419   0.359  14.419  1.1443  0.6892 -1.2529
 4297SOL     OW24352   1.658   4.102  16.444 -0.6191 -0.4595 -0.2444
 4297SOL    HW124353   1.573   4.081  16.482 -1.2659 -0.1047 -1.4979
 4297SOL    HW224354   1.658   4.046  16.367 -0.7225  0.6703 -1.0663
 4298SOL     OW24355   0.357   0.084  16.191 -0.0529 -0.3762 -0.4775
 4298SOL    HW124356   0.428   0.101  16.253 -0.8956  3.0119 -0.4610
 4298SOL    HW224357   0.379   0.148  16.123  2.3184 -0.3601  0.3125
 4299SOL     OW24358   0.752   1.262   3.223  0.1817  0.1413 -0.3958
 4299SOL    HW124359   0.718   1.179   3.189 -1.2994  1.3136 -1.7792
 4299SOL    HW224360   0.757   1.310   3.141  1.5465  1.0535  0.2331
 4300SOL     OW24361   1.580   3.616   1.296 -0.1295  0.1862  0.4401
 4300SOL    HW124362   1.644   3.545   1.289  2.7069  2.6756  1.1930
 4300SOL    HW224363   1.545   3.597   1.382 -0.3633  0.7567  0.4676
 4301SOL     OW24364   0.216   0.956   9.121  0.0116  0.4677  0.1393
 4301SOL    HW124365   0.261   0.936   9.203 -0.4410 -0.7218  0.0862
 4301SOL    HW224366   0.246   1.047   9.111 -0.6202  0.6480 -0.1462
 4302SOL     OW24367   2.369   0.652   6.593 -0.2201 -0.2842  0.3290
 4302SOL    HW124368   2.441   0.703   6.556 -0.2026  0.2832  1.1219
 4302SOL    HW224369   2.313   0.730   6.589 -1.7086 -1.3192  0.8887
 4303SOL     OW24370   2.540   1.233   9.347 -0.1750 -0.2872 -0.1841
 4303SOL    HW124371   2.456   1.272   9.373 -0.0863  0.5744 -1.1991
 4303SOL    HW224372   2.591   1.287   9.408 -1.6921 -1.3517  2.0074
 4304SOL     OW24373   0.141   3.073   2.216  0.1205  0.5694 -0.5300
 4304SOL    HW124374   0.125   3.024   2.135 -2.1192 -0.7429  0.7206
 4304SOL    HW224375   0.089   3.019   2.275 -0.7374  3.1558  1.0750
 4305SOL     OW24376   0.723   3.333   2.134 -0.3591 -0.4167 -0.3556
 4305SOL    HW124377   0.636   3.303   2.106  0.5204 -3.0447 -0.2679
 4305SOL    HW224378   0.776   3.258   2.108  0.1151 -0.7030  1.4106
 4306SOL     OW24379   2.413   1.949   6.375  0.3170  0.1885  0.0022
 4306SOL    HW124380   2.348   1.992   6.431 -1.4623 -0.7981 -1.2969
 4306SOL    HW224381   2.447   1.881   6.434 -1.4282  0.4170  1.2555
 4307SOL     OW24382   0.450   3.400   1.141  0.4674  0.1402  0.0492
 4307SOL    HW124383   0.397   3.461   1.090  0.3631  1.3871  1.6328
 4307SOL    HW224384   0.383   3.338   1.169 -1.6973  1.6701 -1.7320
 4308SOL     OW24385   2.526   4.201   2.659 -0.4411 -0.4089 -0.1308
 4308SOL    HW124386   2.523   4.105   2.664 -2.2763 -0.2735  1.1732
 4308SOL    HW224387   2.556   4.215   2.569  1.9534 -0.3367  0.7004
 4309SOL     OW24388   1.309   0.458  10.419 -0.1421  0.3270  0.2234
 4309SOL    HW124389   1.297   0.548  10.390 -1.3104  0.0893 -0.0383
 4309SOL    HW224390   1.356   0.422  10.343  1.6150 -0.3156  1.6357
 4310SOL     OW24391   2.525   1.446   6.378  0.9247 -0.5203  0.3264
 4310SOL    HW124392   2.541   1.418   6.468  1.7406  0.7891  0.5752
 4310SOL    HW224393   2.484   1.367   6.342  0.4106 -1.3426  2.7413
 4311SOL     OW24394   4.337   2.608   4.995  0.2402 -0.4320 -0.0970
 4311SOL    HW124395   4.281   2.668   4.945 -0.3918  0.3554  1.5651
 4311SOL    HW224396   4.414   2.621   4.939  0.4619  0.3344  0.3929
 4312SOL     OW24397   3.837   0.549   4.941 -0.6763 -0.0977 -0.1901
 4312SOL    HW124398   3.830   0.555   4.845 -1.5348  0.7173 -0.0807
 4312SOL    HW224399   3.764   0.489   4.959 -1.2497  0.7071  0.1718
 4313SOL     OW24400   1.597   1.685  16.536  0.2800 -0.1910 -0.9586
 4313SOL    HW124401   1.557   1.615  16.588  1.0698 -0.5634 -0.8537
 4313SOL    HW224402   1.644   1.733  16.605 -0.4700  0.5663 -0.9766
 4314SOL     OW24403   1.260   1.425   5.003 -0.5364 -0.4950 -0.3639
 4314SOL    HW124404   1.176   1.392   4.971 -0.9413  1.4449 -1.2936
 4314SOL    HW224405   1.309   1.427   4.920  1.2815 -0.1701  0.7151
 4315SOL     OW24406   3.525   3.571  17.448 -0.4353  0.0574 -0.3594
 4315SOL    HW124407   3.576   3.536  17.375  1.9682 -0.7521  1.7011
 4315SOL    HW224408   3.438   3.532  17.445  0.1253 -1.1447 -1.3865
 4316SOL     OW24409   3.912   3.991   5.585  0.4141 -0.7043  0.1824
 4316SOL    HW124410   3.835   3.987   5.642 -1.7326 -1.0436 -2.7793
 4316SOL    HW224411   3.864   3.967   5.506 -0.6517  0.0015  0.6073
 4317SOL     OW24412   4.504   0.988  17.160  0.3982 -0.0676 -0.2720
 4317SOL    HW124413   4.515   1.020  17.249  2.7031  0.3607 -0.7100
 4317SOL    HW224414   4.423   0.937  17.161 -0.0467  0.6894  1.3909
 4318SOL     OW24415   1.341   2.007   4.637  0.6836 -0.3934 -0.6642
 4318SOL    HW124416   1.436   1.995   4.645  0.3604 -1.6093  1.3175
 4318SOL    HW224417   1.341   2.097   4.603  2.1897 -0.8839 -1.9815
 4319SOL     OW24418   4.110   2.543   2.442 -0.2536 -0.2510 -0.3313
 4319SOL    HW124419   4.038   2.552   2.379  2.3527  2.0710 -2.9982
 4319SOL    HW224420   4.100   2.635   2.466  0.7985 -0.0419 -0.6743
 4320SOL     OW24421   3.404   4.198  10.286  0.5582 -0.4873 -0.2707
 4320SOL    HW124422   3.423   4.116  10.331  1.2333  0.3657  1.0207
 4320SOL    HW224423   3.480   4.254  10.303  1.0367 -0.9920 -0.7687
 4321SOL     OW24424   3.708   4.135   0.950  0.3753  0.1850 -0.6511
 4321SOL    HW124425   3.651   4.204   0.984 -2.0609 -1.7960 -0.6972
 4321SOL    HW224426   3.655   4.060   0.976  3.0836 -0.9049  1.7547
 4322SOL     OW24427   2.950   3.750   4.958 -0.1782 -0.3591 -0.3638
 4322SOL    HW124428   2.925   3.680   5.018 -2.4767  1.1128  0.3949
 4322SOL    HW224429   2.867   3.780   4.922 -0.8799  1.9434  3.2264
 4323SOL     OW24430   1.303   2.705   1.887 -0.1412  0.1592  0.1153
 4323SOL    HW124431   1.292   2.688   1.793 -1.0290  1.7150 -0.0725
 4323SOL    HW224432   1.306   2.800   1.876 -3.6721  0.0542 -1.9218
 4324SOL     OW24433   1.687   0.820   4.507  0.3284  0.2454  0.3250
 4324SOL    HW124434   1.732   0.871   4.439  3.6271  1.4073  3.3871
 4324SOL    HW224435   1.606   0.870   4.504 -0.0292 -0.2316  1.7550
 4325SOL     OW24436   0.411   1.966   2.101 -0.2993  0.1124  0.1060
 4325SOL    HW124437   0.437   1.877   2.124 -0.9867  0.0788  0.7557
 4325SOL    HW224438   0.468   1.980   2.026 -1.2705 -2.4334 -1.0764
 4326SOL     OW24439   1.784   3.129   8.675  0.0788  0.3596  0.3639
 4326SOL    HW124440   1.734   3.186   8.732  0.3187  0.6781  0.2542
 4326SOL    HW224441   1.853   3.184   8.637  1.8353 -2.3797 -0.4596
 4327SOL     OW24442   1.088   4.008   0.641  0.3028  0.2551  0.2289
 4327SOL    HW124443   1.100   3.930   0.587 -1.3034 -0.6491  1.1605
 4327SOL    HW224444   1.144   3.985   0.715  1.0960  0.5434 -0.2882
 4328SOL     OW24445   1.725   0.255   1.674 -0.5011  0.1200  0.0109
 4328SOL    HW124446   1.739   0.252   1.580 -1.2762  0.4761 -0.1179
 4328SOL    HW224447   1.678   0.337   1.690  1.0294  1.1756 -0.8385
 4329SOL     OW24448   0.627   1.701   3.234  0.4181 -0.0316 -0.3331
 4329SOL    HW124449   0.711   1.678   3.274 -1.6103 -1.1305  3.3159
 4329SOL    HW224450   0.610   1.621   3.184 -0.6789 -0.8563  1.3594
 4330SOL     OW24451   0.109   1.378   0.346  0.8080  0.5267 -1.4059
 4330SOL    HW124452   0.090   1.336   0.262  0.3469 -3.3852  0.6599
 4330SOL    HW224453   0.116   1.471   0.322 -0.9786  0.6254 -1.5633
 4331SOL     OW24454   3.420   2.779   7.149  0.3789  0.2422  0.2902
 4331SOL    HW124455   3.400   2.713   7.215  2.1389 -1.3930 -0.7940
 4331SOL    HW224456   3.336   2.824   7.143  1.4657  2.1951 -0.3811
 4332SOL     OW24457   0.605   1.784  15.482  0.0871  0.4714 -0.7243
 4332SOL    HW124458   0.593   1.727  15.558 -0.3818  0.7570 -0.5867
 4332SOL    HW224459   0.676   1.844  15.505  0.4099  0.5054 -1.7967
 4333SOL     OW24460   2.252   2.113   8.020  0.4884 -0.2773 -0.4410
 4333SOL    HW124461   2.286   2.147   8.102  0.3476 -1.2360  0.0154
 4333SOL    HW224462   2.193   2.181   7.986 -0.4067 -1.3571 -1.0702
 4334SOL     OW24463   3.572   2.355   3.877 -1.1113  0.1790  0.0735
 4334SOL    HW124464   3.650   2.396   3.839 -0.6985  0.3330  1.0701
 4334SOL    HW224465   3.537   2.296   3.810  0.3994 -1.7718  1.0145
 4335SOL     OW24466   1.104   1.684  10.557 -0.1108  0.6794 -0.0907
 4335SOL    HW124467   1.035   1.694  10.623 -2.2262  0.9919 -2.3484
 4335SOL    HW224468   1.051   1.663  10.480  1.5099  1.3822 -1.3765
 4336SOL     OW24469   0.718   1.280   6.597  0.1527  0.3470 -0.1460
 4336SOL    HW124470   0.803   1.261   6.637  0.0177 -0.5231 -0.2852
 4336SOL    HW224471   0.664   1.254   6.671  2.0193 -0.0044  1.0785
 4337SOL     OW24472   4.348   2.326   4.953  0.1947 -0.0292  0.1672
 4337SOL    HW124473   4.322   2.309   4.862  1.8722  0.9166 -0.4945
 4337SOL    HW224474   4.348   2.422   4.953  1.8963 -0.0136 -1.8823
 4338SOL     OW24475   2.289   2.844   7.225  0.2250 -0.8187 -0.1483
 4338SOL    HW124476   2.228   2.846   7.298  2.3182 -1.4582  1.6288
 4338SOL    HW224477   2.332   2.760   7.239 -0.2552 -0.7773  1.6140
 4339SOL     OW24478   4.485   2.446  10.872 -0.9077 -0.2609  0.2007
 4339SOL    HW124479   4.550   2.481  10.812 -0.9828 -0.0247  0.2599
 4339SOL    HW224480   4.485   2.513  10.941 -0.2358 -2.0044  1.9177
 4340SOL     OW24481   0.075   4.656   8.602  0.6354 -0.5299  0.8564
 4340SOL    HW124482   0.009   4.590   8.581  1.4421 -0.7277 -1.1115
 4340SOL    HW224483   0.034   0.010   8.553  0.6212  0.1966  1.9280
 4341SOL     OW24484   4.566   0.878  15.285 -0.0944  0.2105 -0.0701
 4341SOL    HW124485   4.651   0.915  15.309 -1.0190  2.4308 -0.1862
 4341SOL    HW224486   4.534   0.919  15.204  0.2786  2.4951  0.9180
 4342SOL     OW24487   3.341   1.566   2.358  0.3475 -0.2222  0.3268
 4342SOL    HW124488   3.300   1.638   2.310  0.4605 -0.4618 -0.1309
 4342SOL    HW224489   3.295   1.557   2.441 -0.1384  0.1669  0.1003
 4343SOL     OW24490   4.353   2.901   5.175  0.4282 -0.1439  0.0506
 4343SOL    HW124491   4.416   2.964   5.138 -1.1086  1.3364 -0.0708
 4343SOL    HW224492   4.413   2.854   5.233 -0.6345 -0.0403  1.2245
 4344SOL     OW24493   0.483   4.713  13.947 -0.0942 -0.2604 -0.3165
 4344SOL    HW124494   0.507   4.716  14.039 -0.5763  0.1386 -0.2052
 4344SOL    HW224495   0.533   0.076  13.929  0.1966 -1.1654 -3.5529
 4345SOL     OW24496   2.612   2.626   2.032 -0.1091  0.0168 -0.4065
 4345SOL    HW124497   2.556   2.639   1.955 -0.5823  0.8544  0.0692
 4345SOL    HW224498   2.550   2.636   2.105 -0.6811 -0.5940 -0.8031
 4346SOL     OW24499   0.954   2.940   4.431 -0.0316 -0.2160  0.4368
 4346SOL    HW124500   0.932   3.028   4.399  1.8132  0.8355  2.0754
 4346SOL    HW224501   0.868   2.897   4.439  0.2452 -0.9120 -0.3529
 4347SOL     OW24502   1.833   1.029  10.664 -0.6868  0.0562 -0.4442
 4347SOL    HW124503   1.760   0.969  10.646 -2.0061  1.0725  1.5123
 4347SOL    HW224504   1.895   0.978  10.612  2.3976 -0.3962  3.7804
 4348SOL     OW24505   3.928   4.128  10.822 -0.2421  0.1320 -0.4052
 4348SOL    HW124506   3.903   4.037  10.806 -0.7793  0.1761  0.1855
 4348SOL    HW224507   3.915   4.128  10.917  3.2796 -0.7716  0.0548
 4349SOL     OW24508   0.967   1.844   2.631  0.3323 -0.1676 -0.0469
 4349SOL    HW124509   0.894   1.799   2.589  2.5422 -1.0976 -2.9310
 4349SOL    HW224510   1.008   1.870   2.548  1.4014  0.2222  0.6015
 4350SOL     OW24511   1.982   1.802  15.111  0.0137 -0.4466  0.5515
 4350SOL    HW124512   2.044   1.831  15.044 -1.3825 -2.1496 -1.4551
 4350SOL    HW224513   1.901   1.852  15.100 -0.1555 -0.2360  2.6200
 4351SOL     OW24514   3.930   1.458   8.263 -0.0102  0.4545 -0.2749
 4351SOL    HW124515   3.995   1.527   8.270  0.2397  0.1928 -0.0405
 4351SOL    HW224516   3.853   1.509   8.238  0.2505  0.4937 -0.9957
 4352SOL     OW24517   0.287   3.571   1.987  0.1350  0.5432  0.2537
 4352SOL    HW124518   0.279   3.624   2.066  1.3492  0.3670  0.5050
 4352SOL    HW224519   0.303   3.485   2.025 -0.4975  0.6870  0.8455
 4353SOL     OW24520   4.225   2.005   5.438  0.7555 -0.0177 -0.3350
 4353SOL    HW124521   4.300   2.050   5.477 -0.7438  2.1271  0.0557
 4353SOL    HW224522   4.201   2.061   5.364  0.6462 -0.6718 -0.7899
 4354SOL     OW24523   3.959   3.088   6.158  0.3083 -0.0470  0.0688
 4354SOL    HW124524   3.998   3.152   6.217  1.2953  1.5259 -2.3070
 4354SOL    HW224525   3.887   3.140   6.123  0.2328 -0.7201 -0.7890
 4355SOL     OW24526   3.789   1.055   8.091  0.1914 -0.1455  0.0210
 4355SOL    HW124527   3.708   1.082   8.049  0.4552  0.0949 -0.3342
 4355SOL    HW224528   3.765   0.970   8.127  0.8933  0.8355  2.8160
 4356SOL     OW24529   3.893   4.030  17.568  0.0855 -0.1402 -0.1934
 4356SOL    HW124530   3.884   3.935  17.564 -0.4990 -0.1695  1.8203
 4356SOL    HW224531   3.962   4.047  17.504 -1.5631 -1.3387 -2.2688
 4357SOL     OW24532   0.426   2.283   8.257 -0.1626  0.0456 -0.5456
 4357SOL    HW124533   0.386   2.196   8.253 -0.8696  0.3842 -0.8049
 4357SOL    HW224534   0.465   2.271   8.344 -0.8415 -0.6949 -0.3439
 4358SOL     OW24535   1.600   2.555   0.367 -0.2740 -0.5682  0.7179
 4358SOL    HW124536   1.591   2.465   0.398 -0.7357  0.1330  2.6190
 4358SOL    HW224537   1.617   2.599   0.450  1.7472  2.5406 -1.3309
 4359SOL     OW24538   3.111   1.625  16.867 -0.6639  0.3624  0.0007
 4359SOL    HW124539   3.118   1.601  16.775  1.7575 -0.0167  0.2879
 4359SOL    HW224540   3.193   1.670  16.883 -0.8406  0.0792  1.6776
 4360SOL     OW24541   2.313   1.014  15.998 -0.0963  0.0550  0.1472
 4360SOL    HW124542   2.377   1.029  15.928  0.0726 -1.3482 -0.0078
 4360SOL    HW224543   2.371   0.969  16.059  0.7616 -2.2799 -2.3601
 4361SOL     OW24544   2.483   0.565   3.023  0.2146 -0.2399  0.1939
 4361SOL    HW124545   2.547   0.521   2.967  2.0239  1.5069  0.8775
 4361SOL    HW224546   2.540   0.633   3.062 -1.3161  0.7339  0.7443
 4362SOL     OW24547   1.270   2.857   5.613 -0.9158  0.5194 -0.0574
 4362SOL    HW124548   1.286   2.908   5.534 -2.3186  1.4936  0.2891
 4362SOL    HW224549   1.174   2.864   5.617 -1.1883 -1.7006 -2.5652
 4363SOL     OW24550   1.679   3.863   4.619 -0.4127 -0.6415  0.4709
 4363SOL    HW124551   1.686   3.777   4.660  2.7307 -0.3271  0.6046
 4363SOL    HW224552   1.584   3.871   4.630 -0.5629 -1.5869 -0.1962
 4364SOL     OW24553   3.828   4.375   8.150 -0.0486 -0.1130 -0.6983
 4364SOL    HW124554   3.821   4.282   8.170 -0.7384  0.5882  2.3161
 4364SOL    HW224555   3.914   4.405   8.180  0.1395 -0.6949 -0.6638
 4365SOL     OW24556   0.848   4.322  10.066 -0.7036  0.0650 -0.1756
 4365SOL    HW124557   0.884   4.342  10.153  1.5009 -1.4144 -0.7686
 4365SOL    HW224558   0.856   4.405  10.020  0.7046 -0.8256 -1.5369
 4366SOL     OW24559   0.527   4.477   2.485 -0.0762 -0.0573 -0.0843
 4366SOL    HW124560   0.546   4.471   2.391  0.1596 -1.7170  0.0625
 4366SOL    HW224561   0.551   4.389   2.516 -2.7401 -0.6654  0.2997
 4367SOL     OW24562   3.723   4.486   4.626  0.0929 -0.5695 -0.0848
 4367SOL    HW124563   3.697   4.578   4.626 -2.6238 -1.3389  0.5794
 4367SOL    HW224564   3.638   4.444   4.634 -1.0602  1.3389 -2.1601
 4368SOL     OW24565   4.550   3.973   4.272 -0.9018 -0.8616 -0.1029
 4368SOL    HW124566   4.591   3.905   4.219  0.4355 -0.8177  0.8820
 4368SOL    HW224567   4.583   4.058   4.241  0.3234 -1.3244 -0.0543
 4369SOL     OW24568   3.924   0.862  12.916 -0.3831 -0.0153  0.3918
 4369SOL    HW124569   3.849   0.890  12.968 -0.1241  0.0617  0.7156
 4369SOL    HW224570   3.929   0.774  12.952  1.1922 -0.6117 -1.2932
 4370SOL     OW24571   0.303   3.579   2.450 -0.2359 -0.3486  0.6098
 4370SOL    HW124572   0.232   3.517   2.438  0.0612 -0.5966  0.1133
 4370SOL    HW224573   0.374   3.526   2.486 -1.4104 -1.5382  1.1537
 4371SOL     OW24574   1.048   1.510   9.307 -0.4766  0.7148 -0.2992
 4371SOL    HW124575   1.008   1.424   9.310  0.3604  0.3972  1.6657
 4371SOL    HW224576   1.080   1.528   9.395  0.4645  0.5069 -0.5952
 4372SOL     OW24577   2.175   0.406   9.154  0.1167 -0.6973 -0.0701
 4372SOL    HW124578   2.180   0.318   9.192 -1.7831  0.1355  2.0913
 4372SOL    HW224579   2.252   0.454   9.182  0.6193 -1.1104 -0.7323
 4373SOL     OW24580   4.066   0.182   1.283 -0.1599  0.2532  0.4858
 4373SOL    HW124581   4.117   0.170   1.202  1.1277 -2.2643  1.6587
 4373SOL    HW224582   4.140   0.217   1.333 -1.3941  2.3018  0.8549
 4374SOL     OW24583   4.331   2.968   9.426  0.0453  0.1291 -0.0956
 4374SOL    HW124584   4.314   2.907   9.498 -3.8056 -0.6472 -1.6303
 4374SOL    HW224585   4.379   3.034   9.475 -0.8806  0.1137  0.8220
 4375SOL     OW24586   3.111   0.231  13.214  0.1172 -0.1351 -0.4369
 4375SOL    HW124587   3.065   0.251  13.132 -0.7150  0.3049  0.1404
 4375SOL    HW224588   3.039   0.202  13.270 -0.0968 -1.3973 -1.3553
 4376SOL     OW24589   1.128   1.782  10.185  0.4463  0.2009 -0.1044
 4376SOL    HW124590   1.200   1.739  10.138 -0.4984  1.3759 -2.5823
 4376SOL    HW224591   1.101   1.853  10.127  0.8781  1.1578  0.8641
 4377SOL     OW24592   1.293   1.707   6.445  0.1621  0.1388  0.2343
 4377SOL    HW124593   1.306   1.756   6.364 -0.6175  2.1553  1.3317
 4377SOL    HW224594   1.216   1.651   6.439  0.1848  0.2682 -1.0964
 4378SOL     OW24595   4.639   4.651   2.571 -0.2052  0.1576 -0.0519
 4378SOL    HW124596   4.683   4.699   2.501 -1.6351  0.5437 -0.6815
 4378SOL    HW224597   4.715   4.653   2.628 -0.9370  0.2212  0.9199
 4379SOL     OW24598   4.598   0.308   4.211  0.1060  0.0181 -0.5861
 4379SOL    HW124599   4.507   0.330   4.192  0.1136  0.4586 -0.1219
 4379SOL    HW224600   4.606   0.354   4.295  2.6112 -2.5306  0.5975
 4380SOL     OW24601   3.995   1.821   2.094 -0.0523 -0.0190 -0.6534
 4380SOL    HW124602   3.936   1.809   2.168  0.3848 -2.1306 -0.6749
 4380SOL    HW224603   4.081   1.813   2.135  0.0939  0.3190 -0.8906
 4381SOL     OW24604   3.890   4.520   0.737  0.1798  0.3554  0.2177
 4381SOL    HW124605   3.958   4.580   0.768 -0.0217  1.2340 -1.0378
 4381SOL    HW224606   3.818   4.581   0.725  1.7759  2.3214  0.5860
 4382SOL     OW24607   0.810   3.401  16.720 -0.2838 -0.1450 -0.0396
 4382SOL    HW124608   0.747   3.334  16.745 -0.8074  0.1431 -0.5626
 4382SOL    HW224609   0.888   3.347  16.710 -0.5800 -0.6278  0.2980
 4383SOL     OW24610   4.319   2.455   5.492  0.0922  0.4608 -0.5277
 4383SOL    HW124611   4.339   2.541   5.529  1.8166  0.1360 -0.7122
 4383SOL    HW224612   4.339   2.477   5.401 -0.7775 -2.8834 -1.5241
 4384SOL     OW24613   3.173   1.287   2.699  0.1138  0.6007 -0.1739
 4384SOL    HW124614   3.088   1.327   2.680 -0.3995  0.6024  2.1457
 4384SOL    HW224615   3.169   1.213   2.639  2.2288 -0.7776  1.3894
 4385SOL     OW24616   0.001   0.842   4.588 -0.6092 -0.1702  0.2687
 4385SOL    HW124617   4.672   0.856   4.671  0.1638 -1.2184  0.8766
 4385SOL    HW224618   0.080   0.793   4.611 -1.7651 -0.8038  2.9217
 4386SOL     OW24619   2.696   0.232   2.800  0.8798 -0.3330 -0.0145
 4386SOL    HW124620   2.681   0.212   2.893 -1.1524 -0.3360 -0.3399
 4386SOL    HW224621   2.788   0.259   2.801  0.5436  0.9503 -3.2299
 4387SOL     OW24622   2.233   1.540  16.887 -0.1290 -0.1685  0.0234
 4387SOL    HW124623   2.235   1.631  16.916  0.1338 -0.3060  0.4486
 4387SOL    HW224624   2.259   1.542  16.795 -1.0185 -4.1829 -0.3286
 4388SOL     OW24625   4.158   3.944   5.497 -0.1316  1.0075 -0.8013
 4388SOL    HW124626   4.072   3.978   5.520 -0.3866  0.2037 -0.5903
 4388SOL    HW224627   4.200   4.026   5.468 -0.5518  1.7359  0.6415
 4389SOL     OW24628   0.850   0.452   6.414  0.0381  0.2941  0.2931
 4389SOL    HW124629   0.785   0.522   6.423 -1.0754 -0.6184 -0.7090
 4389SOL    HW224630   0.888   0.456   6.502  1.2560  0.0148 -0.2164
 4390SOL     OW24631   3.683   0.572   3.654  0.2736  0.1415  1.1545
 4390SOL    HW124632   3.724   0.623   3.583  0.7732 -0.6720  0.8527
 4390SOL    HW224633   3.721   0.484   3.641  4.0622  1.4014  3.7381
 4391SOL     OW24634   4.394   3.824   3.943 -0.7495  0.3247 -0.0823
 4391SOL    HW124635   4.326   3.851   4.006 -2.0862  0.1596 -1.4407
 4391SOL    HW224636   4.340   3.788   3.872  0.4877 -0.2449 -0.7231
 4392SOL     OW24637   3.685   4.291   5.672  0.4344 -0.0259 -0.3574
 4392SOL    HW124638   3.659   4.200   5.687  0.4880 -0.2032 -1.3792
 4392SOL    HW224639   3.666   4.328   5.758 -3.1008 -0.2957 -1.0511
 4393SOL     OW24640   0.680   4.538   4.059 -0.1223  0.1078 -0.4269
 4393SOL    HW124641   0.703   4.460   4.009 -0.6724 -0.5451  0.3501
 4393SOL    HW224642   0.594   4.524   4.099 -0.3255  0.8722 -0.5963
 4394SOL     OW24643   2.619   2.253   2.089 -0.2334 -0.1746 -0.0923
 4394SOL    HW124644   2.651   2.320   2.150  1.1256 -2.0562  1.2379
 4394SOL    HW224645   2.587   2.303   2.014 -0.3883 -0.4737 -0.2264
 4395SOL     OW24646   1.699   4.068   2.521 -0.5518  0.1172  0.2322
 4395SOL    HW124647   1.672   4.072   2.612 -1.1563  0.1589  0.0525
 4395SOL    HW224648   1.783   4.022   2.522 -1.0037 -0.7295 -0.1169
 4396SOL     OW24649   2.128   1.402  15.240 -0.5048 -0.6346  0.1150
 4396SOL    HW124650   2.219   1.431  15.242 -0.9769  0.9130 -0.7918
 4396SOL    HW224651   2.104   1.425  15.151 -0.7155 -2.3567 -0.2636
 4397SOL     OW24652   2.153   1.708   7.740 -0.0624 -0.2758  0.1001
 4397SOL    HW124653   2.163   1.803   7.750  0.3649 -0.4549  1.3264
 4397SOL    HW224654   2.148   1.673   7.828  0.2864  1.2627  0.7309
 4398SOL     OW24655   3.231   1.007   1.968  0.3588 -0.4243 -0.0418
 4398SOL    HW124656   3.180   0.969   1.896 -0.2723  1.1684 -0.4238
 4398SOL    HW224657   3.312   1.029   1.922  0.4078 -0.8398 -0.1572
 4399SOL     OW24658   0.889   0.768  11.878  0.3007  0.0036 -0.0296
 4399SOL    HW124659   0.890   0.754  11.972 -1.4535  1.4897  0.1987
 4399SOL    HW224660   0.932   0.853  11.873  0.9469 -0.2983  0.4056
 4400SOL     OW24661   2.984   4.192   8.744  0.7872 -0.1705  0.8560
 4400SOL    HW124662   2.976   4.099   8.767  1.4652 -0.2985  0.5633
 4400SOL    HW224663   3.005   4.224   8.832 -0.4496 -1.4683  1.6356
 4401SOL     OW24664   0.260   2.808   7.453  0.0226 -0.0932  0.0605
 4401SOL    HW124665   0.301   2.787   7.537  0.5549 -1.2170 -0.4759
 4401SOL    HW224666   0.224   2.720   7.437 -2.3186  1.0440 -1.0305
 4402SOL     OW24667   2.962   4.111   7.178 -0.0402  0.1984 -0.1796
 4402SOL    HW124668   3.042   4.161   7.163  1.3354 -2.2222 -0.9359
 4402SOL    HW224669   2.960   4.106   7.274  1.7418 -0.7024 -0.1831
 4403SOL     OW24670   1.479   1.411  12.768 -0.1210 -0.2752  0.0261
 4403SOL    HW124671   1.391   1.449  12.774  0.2341  0.2837  1.6873
 4403SOL    HW224672   1.518   1.479  12.713 -1.9779 -0.2714 -1.2953
 4404SOL     OW24673   1.543   4.442   9.283 -0.0290  0.5394 -0.1399
 4404SOL    HW124674   1.462   4.482   9.313 -1.0098 -1.1008 -0.6068
 4404SOL    HW224675   1.557   4.503   9.210 -0.9010  1.2018  0.2544
 4405SOL     OW24676   3.610   2.503   2.978  0.2128 -0.0353  0.3184
 4405SOL    HW124677   3.662   2.432   3.015  1.8135 -0.3453 -2.5301
 4405SOL    HW224678   3.541   2.450   2.938  0.5188 -1.1375  1.2585
 4406SOL     OW24679   2.560   1.613   8.448  0.0114 -0.3244 -0.5698
 4406SOL    HW124680   2.524   1.632   8.535 -0.8949 -1.7913 -0.6210
 4406SOL    HW224681   2.651   1.607   8.477 -0.9314 -0.7315  2.2903
 4407SOL     OW24682   0.358   4.306   7.340  0.1978 -0.3090  0.2003
 4407SOL    HW124683   0.442   4.290   7.383 -0.3320 -1.5744  0.7861
 4407SOL    HW224684   0.323   4.217   7.344 -1.4699  0.2418 -1.7249
 4408SOL     OW24685   4.201   3.724   3.770  0.0658  0.7134  0.1254
 4408SOL    HW124686   4.106   3.726   3.759  0.0680 -1.7565 -0.3236
 4408SOL    HW224687   4.237   3.706   3.684  0.3994  1.2134  0.1621
 4409SOL     OW24688   3.760   3.386   9.791  0.4259 -0.6318 -0.0684
 4409SOL    HW124689   3.856   3.383   9.790  0.4457 -1.5262  2.5020
 4409SOL    HW224690   3.743   3.310   9.736  1.8437 -0.3223 -0.9394
 4410SOL     OW24691   2.138   1.450   7.644  0.9948 -0.1154  0.2006
 4410SOL    HW124692   2.144   1.546   7.646 -2.2233  0.1094 -0.6951
 4410SOL    HW224693   2.228   1.421   7.659  2.0185  2.1414 -1.5839
 4411SOL     OW24694   3.051   0.232   6.136  0.5072  0.2350 -0.4432
 4411SOL    HW124695   3.007   0.224   6.221 -1.1109  0.5185 -1.2440
 4411SOL    HW224696   2.981   0.255   6.074 -1.2239 -2.8890  0.3693
 4412SOL     OW24697   4.350   2.265   8.721 -0.5765  0.2943  0.1146
 4412SOL    HW124698   4.332   2.271   8.627 -0.8175  0.2314  0.1573
 4412SOL    HW224699   4.271   2.220   8.750 -1.3806  0.4240 -1.8441
 4413SOL     OW24700   1.533   2.537   9.148 -0.2348  0.1515  0.0113
 4413SOL    HW124701   1.544   2.443   9.141  0.6217  0.0065  3.1427
 4413SOL    HW224702   1.611   2.553   9.202 -1.1255  1.9705  0.7638
 4414SOL     OW24703   3.783   3.209   6.761  0.0625 -0.4077  0.3307
 4414SOL    HW124704   3.740   3.147   6.703  0.8338 -0.4105 -0.2362
 4414SOL    HW224705   3.715   3.220   6.827 -0.1758 -3.3631  0.5544
 4415SOL     OW24706   1.616   3.218   8.261 -0.5186 -0.4120  0.4277
 4415SOL    HW124707   1.615   3.136   8.212 -0.2508 -0.0773 -0.1430
 4415SOL    HW224708   1.709   3.239   8.258 -0.8020  0.7487 -0.1482
 4416SOL     OW24709   2.055   2.177   9.601 -0.3783  0.4126  1.1484
 4416SOL    HW124710   2.113   2.119   9.552 -0.4978 -0.0227  1.5257
 4416SOL    HW224711   1.985   2.120   9.632 -0.5263  1.4631  2.7214
 4417SOL     OW24712   1.866   0.950   3.347 -0.5906 -0.0085  0.2504
 4417SOL    HW124713   1.848   0.949   3.253  0.1017 -0.5736  0.1161
 4417SOL    HW224714   1.836   1.036   3.376  0.6516 -0.1667  1.9788
 4418SOL     OW24715   1.049   3.614  13.091  0.3498 -0.0408  0.3248
 4418SOL    HW124716   1.112   3.675  13.131 -0.8165  0.2291  1.7201
 4418SOL    HW224717   1.109   3.539  13.087  0.2227  0.0013 -2.3636
 4419SOL     OW24718   4.692   1.844  10.072  0.0424  0.2078  0.3303
 4419SOL    HW124719   4.636   1.879  10.002 -1.3675 -1.2978  0.6966
 4419SOL    HW224720   4.656   1.899  10.142 -0.8316  0.7861 -0.5702
 4420SOL     OW24721   1.329   3.315   0.437 -0.1775  0.0595  0.0488
 4420SOL    HW124722   1.340   3.263   0.517 -1.9149  0.3754  0.5118
 4420SOL    HW224723   1.388   3.272   0.376  0.2361  0.6907  0.0119
 4421SOL     OW24724   4.521   4.521  10.779  0.1000 -0.1486  0.0416
 4421SOL    HW124725   4.508   4.521  10.874  3.8718 -1.1321  0.5272
 4421SOL    HW224726   4.614   4.504  10.766 -0.0768  0.7811 -2.4336
 4422SOL     OW24727   4.259   1.301   0.403 -0.0503  0.2716 -0.2230
 4422SOL    HW124728   4.339   1.290   0.352  0.5542 -1.5205  1.1096
 4422SOL    HW224729   4.279   1.377   0.457  1.7165  0.3081 -0.9439
 4423SOL     OW24730   1.969   4.328   3.289  0.1757 -0.5260 -0.3612
 4423SOL    HW124731   1.918   4.408   3.303  0.0512 -0.5416 -0.7362
 4423SOL    HW224732   1.897   4.267   3.275 -0.5687  0.0953  0.7593
 4424SOL     OW24733   4.100   0.511   2.352  0.1166  0.2388 -0.1969
 4424SOL    HW124734   4.136   0.526   2.265  2.0844 -1.6317  0.3150
 4424SOL    HW224735   4.022   0.567   2.356  0.5555  0.8439 -0.0172
 4425SOL     OW24736   3.174   0.077   9.255  0.3008 -0.0658  0.0099
 4425SOL    HW124737   3.085   0.043   9.245  0.7790 -1.3648  0.1145
 4425SOL    HW224738   3.162   0.155   9.201  1.2610  1.2791  1.7653
 4426SOL     OW24739   3.078   1.342  15.945 -0.6195  0.1351  0.2072
 4426SOL    HW124740   3.087   1.417  16.005 -3.1635  0.0182  0.7141
 4426SOL    HW224741   3.065   1.390  15.863 -0.5327  2.6758  1.6686
 4427SOL     OW24742   0.892   4.077   4.383 -0.4057 -0.1515  0.3450
 4427SOL    HW124743   0.885   4.034   4.468  0.7683 -0.1237  0.4557
 4427SOL    HW224744   0.905   4.167   4.409 -0.0478 -0.4285  1.1123
 4428SOL     OW24745   2.757   3.890   7.755  0.1519  0.4469  0.1671
 4428SOL    HW124746   2.734   3.824   7.690  3.1615  0.7893 -1.2428
 4428SOL    HW224747   2.671   3.903   7.796 -0.9977 -2.7225 -1.2730
 4429SOL     OW24748   0.516   2.284   5.572 -0.6232  0.4491  0.5143
 4429SOL    HW124749   0.423   2.262   5.572 -0.9387  1.7641  1.9657
 4429SOL    HW224750   0.519   2.336   5.653  2.1237  0.8139  0.1956
 4430SOL     OW24751   1.127   3.759   8.301  0.0079  0.2080 -0.0681
 4430SOL    HW124752   1.042   3.732   8.266 -0.1990  0.2585  0.3941
 4430SOL    HW224753   1.117   3.854   8.312  0.1470  0.3666 -1.3835
 4431SOL     OW24754   0.582   3.805  14.940 -0.6458 -0.5399  0.1286
 4431SOL    HW124755   0.639   3.829  15.013 -3.4183  0.3913  1.9827
 4431SOL    HW224756   0.556   3.889  14.902 -1.7747 -1.0683 -0.3033
 4432SOL     OW24757   0.695   2.552   5.463  0.3956  0.1131 -0.3094
 4432SOL    HW124758   0.623   2.532   5.523  0.7739 -1.5840 -0.4160
 4432SOL    HW224759   0.717   2.464   5.432  0.2760 -0.3198  0.8130
 4433SOL     OW24760   2.325   3.305  10.665 -0.1849 -0.1658 -0.4918
 4433SOL    HW124761   2.413   3.270  10.658 -0.2667 -0.5318  0.3503
 4433SOL    HW224762   2.320   3.346  10.751  0.7774  0.3369 -0.6752
 4434SOL     OW24763   1.068   3.282   8.815  0.0651  0.4498 -0.2084
 4434SOL    HW124764   1.102   3.342   8.881 -1.6352  0.7887  0.3433
 4434SOL    HW224765   1.023   3.344   8.757  0.1168  0.3112 -0.3985
 4435SOL     OW24766   3.741   3.643   4.770  0.4234  0.1248  0.2566
 4435SOL    HW124767   3.653   3.654   4.804 -0.5494 -0.4403 -2.0402
 4435SOL    HW224768   3.788   3.684   4.842  0.0256  1.8986 -0.4776
 4436SOL     OW24769   4.660   2.208  15.270  0.6042  0.4220  0.3598
 4436SOL    HW124770   4.586   2.147  15.274  1.9094 -0.9797  3.0082
 4436SOL    HW224771   0.009   2.159  15.220  1.6075  1.7880  0.3646
 4437SOL     OW24772   0.507   3.684   8.168  0.2373  0.0225 -0.3467
 4437SOL    HW124773   0.473   3.609   8.118 -1.3087  1.1886 -1.0630
 4437SOL    HW224774   0.461   3.753   8.120  0.6270  1.8264  1.8764
 4438SOL     OW24775   0.917   3.850   9.101 -0.1779  0.0590 -0.5767
 4438SOL    HW124776   0.996   3.796   9.101 -0.2448 -0.0518  1.5700
 4438SOL    HW224777   0.897   3.837   9.194 -1.0462  0.6738 -0.6781
 4439SOL     OW24778   0.866   3.911   6.016 -0.3918  0.0432  0.1982
 4439SOL    HW124779   0.921   3.884   6.089  0.4978 -0.4692 -0.6567
 4439SOL    HW224780   0.922   3.957   5.954  1.9209 -0.4584  1.9319
 4440SOL     OW24781   4.566   1.182  10.666  0.7073  0.1985  0.1082
 4440SOL    HW124782   4.537   1.188  10.757 -1.0555  1.0676 -0.5250
 4440SOL    HW224783   4.636   1.247  10.673  1.2483 -0.4562  0.8446
 4441SOL     OW24784   0.917   0.102   6.232  0.5733 -0.1372 -0.4036
 4441SOL    HW124785   0.851   0.048   6.275  0.0228  1.2464  0.5001
 4441SOL    HW224786   0.967   0.026   6.203  0.1879 -1.0281  1.2981
 4442SOL     OW24787   3.443   3.360   6.652 -0.2517 -0.1935 -1.0201
 4442SOL    HW124788   3.505   3.375   6.581  0.2627 -0.1628 -0.5610
 4442SOL    HW224789   3.408   3.449   6.658  2.4940  0.9487 -1.9739
 4443SOL     OW24790   2.100   0.273   7.403 -0.1869 -0.4277  0.5359
 4443SOL    HW124791   2.175   0.282   7.463 -0.8904  1.1308  1.1970
 4443SOL    HW224792   2.032   0.241   7.462  2.8069 -2.3583  2.9000
 4444SOL     OW24793   1.890   4.505   0.036  0.2155 -0.1742  0.6268
 4444SOL    HW124794   1.848   4.589   0.051  0.7878  0.3679 -0.8093
 4444SOL    HW224795   1.833   4.441   0.078 -0.0567 -0.5683 -0.3398
 4445SOL     OW24796   4.440   0.687   1.997 -0.5749  0.7687 -0.0110
 4445SOL    HW124797   4.532   0.667   2.016 -0.8872  0.7733  1.4957
 4445SOL    HW224798   4.439   0.667   1.903  0.9504 -1.6851  0.4930
 4446SOL     OW24799   3.371   2.708   8.144 -0.4039  0.4973 -0.1840
 4446SOL    HW124800   3.440   2.746   8.197 -0.2443  1.2956 -0.9718
 4446SOL    HW224801   3.400   2.617   8.141 -2.1647 -0.0996  0.8048
 4447SOL     OW24802   1.914   2.315   4.003  0.1538 -0.0384 -0.3427
 4447SOL    HW124803   1.860   2.241   3.977  0.8016 -0.7372  0.3080
 4447SOL    HW224804   1.974   2.306   3.929 -1.3013  1.6624 -1.7359
 4448SOL     OW24805   4.682   3.176   2.526 -0.0377 -0.0152 -0.1555
 4448SOL    HW124806   4.650   3.105   2.470  1.4526  0.3049 -1.4298
 4448SOL    HW224807   4.604   3.211   2.569  1.5622  0.3446  2.4501
 4449SOL     OW24808   3.955   4.134  11.427 -0.0593  0.2291  0.9504
 4449SOL    HW124809   3.995   4.171  11.348  0.1853  0.9724  1.4282
 4449SOL    HW224810   4.037   4.108  11.469  0.4139 -1.0320 -0.7570
 4450SOL     OW24811   1.631   3.488   0.525 -0.3223 -0.0018  0.3715
 4450SOL    HW124812   1.576   3.428   0.474  0.7657 -0.7249  0.0646
 4450SOL    HW224813   1.569   3.554   0.556 -0.0234  0.7560 -0.6247
 4451SOL     OW24814   4.537   4.072   7.229  0.2272  0.1403 -0.4211
 4451SOL    HW124815   4.607   4.118   7.184 -0.0844  0.8192 -0.2058
 4451SOL    HW224816   4.460   4.078   7.172 -0.9115  0.2755  1.1091
 4452SOL     OW24817   3.265   1.773   8.153 -0.1808 -0.8774 -0.1959
 4452SOL    HW124818   3.180   1.735   8.130 -1.3346  0.9547  1.0492
 4452SOL    HW224819   3.239   1.865   8.160 -0.4808 -0.8021 -2.2693
 4453SOL     OW24820   0.249   0.278  12.458  0.7422 -0.3009 -0.3844
 4453SOL    HW124821   0.336   0.238  12.462  0.8114 -0.2248 -1.2190
 4453SOL    HW224822   0.275   0.370  12.456  1.6576 -0.5382  0.5717
 4454SOL     OW24823   2.304   0.534   7.353 -0.0289  0.6140  0.6148
 4454SOL    HW124824   2.282   0.449   7.315  0.5862 -0.2164  2.0978
 4454SOL    HW224825   2.217   0.563   7.379  0.5374  3.0693 -0.1877
 4455SOL     OW24826   3.862   1.211  15.487 -0.1846  0.1460  0.4125
 4455SOL    HW124827   3.819   1.234  15.404 -0.6981 -2.5586 -0.0558
 4455SOL    HW224828   3.866   1.116  15.482  0.5912  0.2004 -0.0556
 4456SOL     OW24829   1.415   4.188   8.773  0.1637  0.4361 -0.4931
 4456SOL    HW124830   1.415   4.215   8.681 -1.2951 -0.2025 -0.6829
 4456SOL    HW224831   1.322   4.199   8.793 -0.0502  0.5478 -1.5661
 4457SOL     OW24832   0.746   1.592   6.270  0.6798 -0.1162 -0.5583
 4457SOL    HW124833   0.799   1.549   6.204  0.2120  0.8936 -1.5913
 4457SOL    HW224834   0.742   1.527   6.340  0.3585 -0.0020 -0.4682
 4458SOL     OW24835   2.802   0.504  12.992 -0.2002  0.7978 -0.3071
 4458SOL    HW124836   2.876   0.524  12.935  0.5730  1.4414  0.9333
 4458SOL    HW224837   2.831   0.424  13.034 -0.9370  0.5966 -0.1704
 4459SOL     OW24838   2.058   2.048   0.753  0.1851 -0.0212 -0.1820
 4459SOL    HW124839   2.137   2.032   0.806 -0.0802 -0.3762  0.1070
 4459SOL    HW224840   2.009   2.102   0.815  2.4445  2.1840 -0.2902
 4460SOL     OW24841   0.428   0.242   7.776  0.4834 -0.1361  0.1107
 4460SOL    HW124842   0.470   0.328   7.773  1.2210 -0.4930  0.2320
 4460SOL    HW224843   0.457   0.198   7.696  1.9316 -0.0907  0.6134
 4461SOL     OW24844   0.502   0.001   4.524  0.2154 -0.5655  0.3214
 4461SOL    HW124845   0.498   4.696   4.617 -0.0795 -0.1378  0.4118
 4461SOL    HW224846   0.475   0.092   4.513 -0.5956 -0.6681  1.5135
 4462SOL     OW24847   4.077   2.630   6.383  0.2894 -0.0784 -0.5489
 4462SOL    HW124848   4.081   2.716   6.341 -1.8885  0.1982 -0.2102
 4462SOL    HW224849   4.051   2.651   6.473 -0.7854 -0.9329 -0.6567
 4463SOL     OW24850   3.030   2.822   4.145 -0.0364  0.2257 -0.3870
 4463SOL    HW124851   2.952   2.796   4.194 -0.0852 -0.5920 -0.8901
 4463SOL    HW224852   3.057   2.735   4.115 -2.4298 -0.9061  0.7021
 4464SOL     OW24853   0.592   4.469  14.456  0.5470 -0.2657  0.0222
 4464SOL    HW124854   0.606   4.561  14.432  0.1817  0.0207  0.8987
 4464SOL    HW224855   0.502   4.463  14.424 -0.2531 -0.2798  2.2756
 4465SOL     OW24856   1.849   3.316  12.302 -0.0567 -0.1257  0.1996
 4465SOL    HW124857   1.902   3.349  12.229 -0.7377  2.2490  0.7798
 4465SOL    HW224858   1.820   3.397  12.343 -0.7988 -0.3055  0.0228
 4466SOL     OW24859   1.000   4.305  14.963 -0.3584  0.0450 -0.0338
 4466SOL    HW124860   1.011   4.242  15.034  1.0401  1.7353  1.2344
 4466SOL    HW224861   0.990   4.378  15.023 -0.6048 -0.6660  0.7975
 4467SOL     OW24862   2.965   3.363   7.086  0.5905 -0.1622 -0.0486
 4467SOL    HW124863   3.004   3.450   7.083  2.1988 -0.9207 -2.4520
 4467SOL    HW224864   3.033   3.317   7.135  0.3211  0.1518  0.6037
 4468SOL     OW24865   0.818   4.092   8.212 -0.5492  0.6631 -0.0332
 4468SOL    HW124866   0.807   4.055   8.299  0.0836  1.0502  0.2147
 4468SOL    HW224867   0.773   4.029   8.156  0.6402 -1.7078  1.6757
 4469SOL     OW24868   0.027   2.242   2.280  0.5633  0.2587 -0.7672
 4469SOL    HW124869   0.005   2.170   2.339 -0.9528  1.6149  0.2780
 4469SOL    HW224870   0.094   2.213   2.218  0.1560 -0.6754 -0.7762
 4470SOL     OW24871   3.891   3.851  15.838  0.2007  0.1802  0.1167
 4470SOL    HW124872   3.797   3.857  15.819  0.2059  1.3909  0.4620
 4470SOL    HW224873   3.909   3.911  15.911 -1.5508  0.0826  0.6329
 4471SOL     OW24874   0.606   0.671  17.117  0.2141 -0.5827  0.5223
 4471SOL    HW124875   0.634   0.659  17.208  1.7651 -2.3184 -0.1692
 4471SOL    HW224876   0.609   0.766  17.129 -0.5214 -0.3895 -0.8468
 4472SOL     OW24877   3.019   1.623   6.832 -0.1359 -0.1287 -0.5462
 4472SOL    HW124878   2.953   1.570   6.878  1.1326  0.5691  2.0906
 4472SOL    HW224879   3.100   1.573   6.840 -0.3269 -0.7402 -2.4847
 4473SOL     OW24880   4.647   0.672   0.549  0.4585 -0.1950  0.5063
 4473SOL    HW124881   0.002   0.615   0.522  0.2903  0.6559 -1.6907
 4473SOL    HW224882   4.648   0.755   0.502  1.2088  0.0951  1.0344
 4474SOL     OW24883   2.177   1.665   8.013 -0.0922 -0.2570 -0.6646
 4474SOL    HW124884   2.220   1.688   8.095 -2.2305 -0.6399  0.5510
 4474SOL    HW224885   2.116   1.738   8.022  0.5568  0.0415  1.1604
 4475SOL     OW24886   1.283   0.451   5.364  0.5031  0.0855 -0.3149
 4475SOL    HW124887   1.233   0.394   5.423 -1.4981  1.0754 -1.0289
 4475SOL    HW224888   1.369   0.446   5.405 -0.0775  1.7541  1.1292
 4476SOL     OW24889   4.387   3.187   3.355 -0.7592 -0.0105  0.1877
 4476SOL    HW124890   4.456   3.201   3.420 -2.1049 -0.5102  1.7137
 4476SOL    HW224891   4.441   3.203   3.277  0.1504 -1.3864  0.5399
 4477SOL     OW24892   1.810   2.421  13.693 -0.3039  0.2644  0.2175
 4477SOL    HW124893   1.828   2.370  13.614 -0.2391  2.3338 -1.1053
 4477SOL    HW224894   1.716   2.435  13.682 -0.3728  0.0177  0.4753
 4478SOL     OW24895   4.094   0.181   7.226  0.0586  0.6676  0.6841
 4478SOL    HW124896   4.145   0.261   7.214  0.0544  0.5673 -0.0150
 4478SOL    HW224897   4.050   0.190   7.311 -0.6543 -2.0703  0.5949
 4479SOL     OW24898   0.778   2.183   7.397 -0.2930 -0.1424  0.2733
 4479SOL    HW124899   0.769   2.202   7.490  0.3435  0.6470  0.1642
 4479SOL    HW224900   0.687   2.163   7.374 -0.6136  1.7938 -0.0893
 4480SOL     OW24901   3.827   3.124   4.938  0.4671 -0.2239  0.4373
 4480SOL    HW124902   3.841   3.050   4.997  1.3514 -0.1160  0.3636
 4480SOL    HW224903   3.747   3.165   4.969 -0.0679  0.4658 -1.8291
 4481SOL     OW24904   2.223   0.961   4.802 -0.0486 -0.0367 -0.2893
 4481SOL    HW124905   2.197   0.939   4.712 -0.4500  2.2628 -0.7363
 4481SOL    HW224906   2.244   1.054   4.794  0.4019 -0.1349 -0.2542
 4482SOL     OW24907   0.636   3.737   3.382  0.3808 -0.3430 -0.3976
 4482SOL    HW124908   0.622   3.644   3.396  0.6244 -0.6121 -2.0185
 4482SOL    HW224909   0.679   3.741   3.297 -1.4183 -2.2611 -1.3903
 4483SOL     OW24910   1.004   1.368   8.381 -0.4297  0.0279  0.0681
 4483SOL    HW124911   0.953   1.331   8.453  0.6224 -1.1626  0.1779
 4483SOL    HW224912   1.081   1.404   8.425 -0.1731  1.3415 -1.4160
 4484SOL     OW24913   2.700   3.055   0.293 -0.2806 -0.2918 -0.2801
 4484SOL    HW124914   2.790   3.074   0.267 -0.4574  1.0313  0.0824
 4484SOL    HW224915   2.673   3.001   0.218 -1.9290 -1.4078  1.1364
 4485SOL     OW24916   0.462   2.984   2.808  0.2919 -0.1526  0.1993
 4485SOL    HW124917   0.514   3.025   2.739  0.5766  0.8643  1.0112
 4485SOL    HW224918   0.377   3.018   2.780 -0.1541  1.1631  3.1257
 4486SOL     OW24919   4.580   0.267  10.243 -0.4139  0.0141  0.4012
 4486SOL    HW124920   4.580   0.298  10.153  0.6470 -0.5673  0.2076
 4486SOL    HW224921   4.530   0.185  10.239  0.7656 -0.6537 -0.5129
 4487SOL     OW24922   4.206   0.428   4.830  0.3390 -0.6543 -0.8838
 4487SOL    HW124923   4.300   0.412   4.830  1.1356  4.3435  1.2770
 4487SOL    HW224924   4.204   0.481   4.750 -2.0542  0.8619  0.2085
 4488SOL     OW24925   4.091   0.009   4.569  0.4377  0.0719  0.8547
 4488SOL    HW124926   4.143   0.077   4.527  2.2457 -1.6065  0.3671
 4488SOL    HW224927   4.131   4.648   4.532  1.6165  1.6236 -1.1826
 4489SOL     OW24928   4.153   1.882   9.448  0.3769 -0.1524 -0.5084
 4489SOL    HW124929   4.240   1.918   9.433 -0.0343  1.5020  1.1398
 4489SOL    HW224930   4.128   1.917   9.534 -0.1140  0.9666 -1.1106
 4490SOL     OW24931   2.410   0.262   1.813 -0.2784 -0.1940  0.2463
 4490SOL    HW124932   2.491   0.295   1.851 -0.7032  0.6929  0.3914
 4490SOL    HW224933   2.357   0.329   1.857 -0.8332 -1.0584  0.8767
 4491SOL     OW24934   0.768   1.994  12.435  0.2117  0.0964 -0.2861
 4491SOL    HW124935   0.752   2.077  12.392  0.5606  0.5339  0.4174
 4491SOL    HW224936   0.683   1.951  12.445  0.5902 -0.8632 -1.2128
 4492SOL     OW24937   0.575   4.160  17.016  0.4009 -0.4332  0.9598
 4492SOL    HW124938   0.500   4.107  17.043 -0.9712 -1.1421 -4.3241
 4492SOL    HW224939   0.649   4.099  17.019  2.4770  1.8775 -3.9242
 4493SOL     OW24940   4.242   3.171   0.874 -0.2753  0.2934  0.0819
 4493SOL    HW124941   4.269   3.172   0.965 -1.8848 -2.3198  0.5854
 4493SOL    HW224942   4.325   3.186   0.829 -1.4402 -0.3854 -2.3365
 4494SOL     OW24943   1.877   2.115   1.259 -0.1269  0.3138  0.4211
 4494SOL    HW124944   1.785   2.136   1.243 -0.6465 -2.0191  0.4285
 4494SOL    HW224945   1.905   2.158   1.340  2.1188 -1.5429  0.6306
 4495SOL     OW24946   0.874   3.335  14.316 -0.3827  0.3307  0.2442
 4495SOL    HW124947   0.926   3.390  14.258  0.9313 -1.0121  0.1548
 4495SOL    HW224948   0.826   3.279  14.255  2.2501 -0.0001 -1.5350
 4496SOL     OW24949   0.380   0.509  14.432  0.4496 -0.1875 -0.7506
 4496SOL    HW124950   0.293   0.473  14.416  0.5298 -0.7550  0.1330
 4496SOL    HW224951   0.425   0.485  14.350  1.1302 -0.5351 -0.2753
 4497SOL     OW24952   3.889   3.335  10.624  0.3484 -0.7901  0.2261
 4497SOL    HW124953   3.960   3.393  10.597 -0.2404 -1.4596 -2.7830
 4497SOL    HW224954   3.857   3.386  10.698 -0.2239  1.3160 -1.4610
 4498SOL     OW24955   2.297   4.687  13.683 -0.5187  0.3457  0.4897
 4498SOL    HW124956   2.245   4.613  13.713  2.4059 -0.4813  3.4684
 4498SOL    HW224957   2.270   4.690  13.591 -2.4178 -2.2147  0.9753
 4499SOL     OW24958   0.275   0.755   5.745 -0.3895  0.3406 -0.5987
 4499SOL    HW124959   0.346   0.723   5.690  1.4294  0.0602  1.9072
 4499SOL    HW224960   0.221   0.679   5.724 -1.7930  1.5554 -1.4037
 4500SOL     OW24961   4.113   0.479   4.302 -0.5285  0.6475 -0.0408
 4500SOL    HW124962   4.028   0.440   4.281 -1.1381  1.1662  1.4798
 4500SOL    HW224963   4.125   0.548   4.237  3.0494  0.2889  0.2388
 4501SOL     OW24964   0.821   0.738  12.156  0.9382 -0.0773 -0.5328
 4501SOL    HW124965   0.740   0.727  12.205  1.0285  0.0098 -0.3612
 4501SOL    HW224966   0.874   0.702  12.228 -1.6771  1.5788  2.2078
 4502SOL     OW24967   0.065   1.458   9.233  0.4551 -0.9627 -0.1534
 4502SOL    HW124968   0.071   1.543   9.190 -0.5405 -1.5558 -1.4676
 4502SOL    HW224969   0.119   1.469   9.311 -0.4300  1.4895  0.1141
 4503SOL     OW24970   0.760   3.526   4.469  0.6343 -1.0481  0.4450
 4503SOL    HW124971   0.680   3.578   4.476  0.4552 -1.1955 -0.4749
 4503SOL    HW224972   0.790   3.549   4.381 -1.3619 -1.0193 -0.2288
 4504SOL     OW24973   3.877   1.978   3.846  0.3758 -0.3414 -0.6564
 4504SOL    HW124974   3.919   1.957   3.929 -0.0824 -1.0647 -0.6147
 4504SOL    HW224975   3.820   1.903   3.832 -0.0723 -0.2388  0.6291
 4505SOL     OW24976   2.028   4.166   4.690 -0.0354  0.3031 -0.0200
 4505SOL    HW124977   1.958   4.223   4.722 -0.3601  1.1220 -2.1701
 4505SOL    HW224978   2.100   4.229   4.691 -1.0712  1.5668 -2.5775
 4506SOL     OW24979   1.580   0.697   6.222  0.1831 -0.1650 -0.3300
 4506SOL    HW124980   1.599   0.663   6.310 -1.2944 -1.0171 -0.3353
 4506SOL    HW224981   1.663   0.695   6.176  1.2358  1.0643  1.5276
 4507SOL     OW24982   1.656   0.733  11.415  0.7234 -0.9974  0.0991
 4507SOL    HW124983   1.630   0.822  11.391  2.8847  0.1285  1.8839
 4507SOL    HW224984   1.586   0.703  11.473 -0.4131  0.4851 -0.5192
 4508SOL     OW24985   4.701   2.635   5.556  0.1716  0.1331 -0.3804
 4508SOL    HW124986   4.713   2.551   5.511  3.2408  0.5469 -0.3474
 4508SOL    HW224987   0.076   2.659   5.556 -0.0492  0.9348  1.7590
 4509SOL     OW24988   3.222   2.055   8.225  0.6899 -0.6504 -0.4761
 4509SOL    HW124989   3.259   2.121   8.284  1.0140 -1.6923  0.4952
 4509SOL    HW224990   3.265   2.081   8.144  1.1243  3.6071  1.1317
 4510SOL     OW24991   2.979   4.441   5.209  0.3244  0.1099 -0.3265
 4510SOL    HW124992   3.001   4.466   5.120  0.8521  1.9852  0.3142
 4510SOL    HW224993   2.899   4.391   5.196 -0.7272  1.7535 -0.2518
 4511SOL     OW24994   2.647   0.557   1.708 -0.9308  0.4168 -0.4208
 4511SOL    HW124995   2.561   0.596   1.722 -1.2670 -0.9388  1.2628
 4511SOL    HW224996   2.693   0.635   1.677 -0.4195 -0.2906 -1.4617
 4512SOL     OW24997   3.657   0.077  13.232 -0.2749 -0.4585 -0.1490
 4512SOL    HW124998   3.645   0.063  13.138  0.7914  0.2244 -0.3857
 4512SOL    HW224999   3.637   4.704  13.257  1.1226 -0.4248  1.0800
 4513SOL     OW25000   3.067   0.445   4.742 -0.6342  0.1064 -0.1545
 4513SOL    HW125001   3.135   0.505   4.710 -0.2147 -0.9804 -1.3162
 4513SOL    HW225002   2.993   0.503   4.757 -0.2394  0.3775  0.7125
 4514SOL     OW25003   3.760   3.415   6.196  0.1913 -0.4358 -0.0925
 4514SOL    HW125004   3.771   3.361   6.118 -1.4985 -0.4917 -0.2770
 4514SOL    HW225005   3.691   3.476   6.171 -1.5478 -1.6167  1.8113
 4515SOL     OW25006   2.509   0.893  15.576 -0.0870  0.5214  0.5581
 4515SOL    HW125007   2.568   0.858  15.510 -0.7951  0.7824 -0.2165
 4515SOL    HW225008   2.532   0.984  15.558  0.7034  0.3388  0.6584
 4516SOL     OW25009   1.650   2.338   4.632 -0.6068  0.2023  0.2923
 4516SOL    HW125010   1.592   2.380   4.695  0.4342  1.1455  0.6373
 4516SOL    HW225011   1.604   2.359   4.551 -0.8727 -0.4377  0.2800
 4517SOL     OW25012   3.303   0.225   4.735 -0.5423  0.9279 -0.2222
 4517SOL    HW125013   3.222   0.276   4.724 -0.9631 -0.3339 -3.0716
 4517SOL    HW225014   3.260   0.144   4.760  0.3533  0.6266  0.3037
 4518SOL     OW25015   1.584   3.826  12.806 -0.2161 -0.0206  0.2853
 4518SOL    HW125016   1.533   3.908  12.808 -0.5771 -0.2872  2.3707
 4518SOL    HW225017   1.620   3.814  12.894  0.5002 -2.1760 -0.3164
 4519SOL     OW25018   4.091   1.530   5.375 -0.0500  0.0348  0.0779
 4519SOL    HW125019   4.131   1.611   5.343  1.2352 -0.9686 -0.8271
 4519SOL    HW225020   4.034   1.506   5.302 -0.8196 -2.1050  1.3654
 4520SOL     OW25021   1.669   2.241  15.130  0.1308 -0.1621 -0.8170
 4520SOL    HW125022   1.659   2.197  15.214  0.0803 -0.3129 -0.9022
 4520SOL    HW225023   1.610   2.316  15.131 -0.0890 -0.2989 -2.1871
 4521SOL     OW25024   0.835   1.500   3.754  0.7764 -0.3614  0.1501
 4521SOL    HW125025   0.741   1.487   3.756  0.7204 -0.0275 -0.3962
 4521SOL    HW225026   0.831   1.592   3.727  0.2965 -0.2223  0.7072
 4522SOL     OW25027   0.062   1.183  14.444  0.0696  0.1422 -0.4221
 4522SOL    HW125028   0.068   1.238  14.366  1.8145 -1.0446 -1.1252
 4522SOL    HW225029   0.014   1.109  14.405 -0.3665  1.1441 -1.8013
 4523SOL     OW25030   3.859   3.998   7.018  0.1626  0.3086 -0.1977
 4523SOL    HW125031   3.769   3.971   7.036  1.9250 -3.6527  2.7524
 4523SOL    HW225032   3.906   3.916   7.037 -0.0172  0.3006  0.2214
 4524SOL     OW25033   4.020   2.593   2.967 -0.0299 -0.0438 -0.0383
 4524SOL    HW125034   3.936   2.557   2.940 -1.4959  1.3706  2.6304
 4524SOL    HW225035   3.989   2.650   3.037 -1.6452 -0.8907 -0.0696
 4525SOL     OW25036   0.072   4.517   7.492 -0.2052  0.6969  0.0113
 4525SOL    HW125037   0.044   4.580   7.426 -1.4527  0.7169  0.5588
 4525SOL    HW225038   0.061   4.577   7.566  1.3068 -0.9897  1.6052
 4526SOL     OW25039   1.279   3.985  11.952  0.2209 -0.2581  0.1900
 4526SOL    HW125040   1.315   4.054  11.897  2.3658 -1.6439 -0.1457
 4526SOL    HW225041   1.345   3.976  12.020  0.5655  1.5146  0.0888
 4527SOL     OW25042   2.231   1.065   6.973  0.6774 -0.2362  0.2605
 4527SOL    HW125043   2.151   1.054   7.024  1.5181 -2.2227  1.1707
 4527SOL    HW225044   2.258   0.974   6.963  1.1311 -0.3225  2.2443
 4528SOL     OW25045   2.508   0.764   2.135  0.4166 -0.4923  0.0143
 4528SOL    HW125046   2.574   0.744   2.069  0.0421  1.4729 -0.9762
 4528SOL    HW225047   2.467   0.842   2.098 -0.9928  0.1602  2.9978
 4529SOL     OW25048   4.025   3.326   0.910  0.2325  0.1599 -0.3146
 4529SOL    HW125049   4.098   3.265   0.902  1.5259  1.4711  1.5967
 4529SOL    HW225050   4.050   3.382   0.837  0.1617  0.3629 -0.1826
 4530SOL     OW25051   2.261   2.980   4.452 -0.3903  0.5728 -0.1934
 4530SOL    HW125052   2.316   2.903   4.436  1.1044  1.7249 -0.5894
 4530SOL    HW225053   2.260   2.977   4.548 -0.6054 -0.5932 -0.2252
 4531SOL     OW25054   2.533   1.680  16.923 -0.2375  0.1674  0.3726
 4531SOL    HW125055   2.499   1.606  16.973  3.3215  0.0688  2.5880
 4531SOL    HW225056   2.454   1.712  16.880 -1.7522 -0.7877  2.4584
 4532SOL     OW25057   4.596   2.392   4.695  0.1900  0.1569  0.1168
 4532SOL    HW125058   4.639   2.424   4.616 -0.7112 -0.8816 -0.7928
 4532SOL    HW225059   4.511   2.431   4.675  0.3718  0.2219 -0.5314
 4533SOL     OW25060   2.487   2.726   7.919 -0.0275  0.2763  0.1975
 4533SOL    HW125061   2.438   2.728   7.837  2.0096  1.3191 -0.9744
 4533SOL    HW225062   2.517   2.816   7.924  0.1252  0.2820 -0.8990
 4534SOL     OW25063   2.481   3.860   7.332  0.4863  0.6647  0.1952
 4534SOL    HW125064   2.430   3.940   7.337 -0.2408  0.2553 -0.6772
 4534SOL    HW225065   2.419   3.808   7.280  0.1386 -1.0687  2.3292
 4535SOL     OW25066   0.694   1.193   4.625  0.1805 -0.1923  0.1513
 4535SOL    HW125067   0.777   1.163   4.662 -0.8626 -0.5297  2.1863
 4535SOL    HW225068   0.664   1.107   4.596  0.4286 -0.1895 -0.1172
 4536SOL     OW25069   4.212   2.740  11.238 -0.1891  0.0371  0.6504
 4536SOL    HW125070   4.208   2.798  11.161  0.8242 -0.6751  0.0550
 4536SOL    HW225071   4.162   2.800  11.292  0.4818 -0.0676  1.3912
 4537SOL     OW25072   1.107   3.680  10.956  0.0747 -0.5165 -0.1804
 4537SOL    HW125073   1.016   3.707  10.966  0.1033 -0.8315  0.8967
 4537SOL    HW225074   1.143   3.713  11.038  2.2731 -2.0261 -0.5276
 4538SOL     OW25075   2.273   3.275  16.767 -0.4717 -0.6551 -0.5209
 4538SOL    HW125076   2.250   3.200  16.712 -2.9125  0.8682 -1.5906
 4538SOL    HW225077   2.214   3.337  16.724  1.0141  1.0848 -0.0436
 4539SOL     OW25078   2.130   0.913   6.334 -0.0460  0.1326  0.2280
 4539SOL    HW125079   2.039   0.885   6.338  0.6529 -1.7623  3.2770
 4539SOL    HW225080   2.156   0.876   6.418  1.1708 -1.1988 -0.7104
 4540SOL     OW25081   1.510   4.014   2.280 -0.3520  0.1818 -0.7457
 4540SOL    HW125082   1.585   4.037   2.335 -0.6743  0.3877 -0.3889
 4540SOL    HW225083   1.469   3.940   2.326  0.4124 -0.1164 -0.5410
 4541SOL     OW25084   1.192   1.606   3.981 -0.7659 -0.5115 -0.3473
 4541SOL    HW125085   1.148   1.524   4.004 -0.6195 -0.2787  0.7458
 4541SOL    HW225086   1.225   1.595   3.892  0.3612  1.2211 -0.1292
 4542SOL     OW25087   2.120   2.227   3.808 -0.0243  0.0557  0.4920
 4542SOL    HW125088   2.183   2.260   3.873  2.3736 -0.0526 -1.7675
 4542SOL    HW225089   2.109   2.303   3.751  0.9393  1.0546  1.6326
 4543SOL     OW25090   2.498   3.247   3.409 -0.4219  0.2254  0.1653
 4543SOL    HW125091   2.504   3.209   3.321  0.8976  0.8381 -0.0145
 4543SOL    HW225092   2.436   3.318   3.395  0.9074  1.0795 -1.5209
 4544SOL     OW25093   4.307   3.147   3.716 -0.1224 -0.1125 -0.5709
 4544SOL    HW125094   4.280   3.207   3.785 -0.1714 -0.3996 -0.3397
 4544SOL    HW225095   4.398   3.168   3.697 -0.0098 -0.5750 -0.5542
 4545SOL     OW25096   3.093   4.572   3.982 -0.4552 -0.2849  0.7893
 4545SOL    HW125097   3.001   4.590   3.964 -0.2259  1.5426  1.4431
 4545SOL    HW225098   3.138   4.618   3.911  0.9000 -1.6249  0.7718
 4546SOL     OW25099   1.565   4.129   5.664  0.0300  0.2215 -0.3244
 4546SOL    HW125100   1.619   4.095   5.736 -0.9348  0.0907  0.3329
 4546SOL    HW225101   1.548   4.052   5.610  0.2801 -0.1614  0.1467
 4547SOL     OW25102   4.547   3.563  14.920 -0.1398  0.2583  0.1019
 4547SOL    HW125103   4.496   3.537  14.844 -2.1786 -0.0023  1.5422
 4547SOL    HW225104   4.531   3.494  14.984  2.1121 -1.6320 -1.3623
 4548SOL     OW25105   2.091   3.228  11.003 -0.3670 -0.4318 -0.3515
 4548SOL    HW125106   2.172   3.230  11.055 -2.0484 -2.3137  2.3704
 4548SOL    HW225107   2.045   3.154  11.042 -0.5362 -0.1389  0.0102
 4549SOL     OW25108   2.023   0.681   4.831 -0.1363  0.4132 -0.5395
 4549SOL    HW125109   2.079   0.659   4.756  0.0949  1.6484 -0.7398
 4549SOL    HW225110   1.983   0.756   4.785  0.1321  1.9586  1.7827
 4550SOL     OW25111   1.653   3.525  14.853  0.0476  0.0696 -0.0661
 4550SOL    HW125112   1.700   3.564  14.780  0.8289  0.8640  0.8533
 4550SOL    HW225113   1.660   3.431  14.835 -0.8017 -0.0398  0.1573
 4551SOL     OW25114   2.701   2.230   1.306 -0.3494 -0.8029 -0.2555
 4551SOL    HW125115   2.754   2.272   1.238 -2.1517 -0.5540 -1.5138
 4551SOL    HW225116   2.739   2.273   1.382  0.9918  0.6185 -1.7174
 4552SOL     OW25117   3.691   4.594   6.035 -0.0959  0.3586  0.9186
 4552SOL    HW125118   3.720   4.513   5.993 -0.8180  0.1503  0.8200
 4552SOL    HW225119   3.674   4.644   5.955 -1.7111 -1.9187 -0.1598
 4553SOL     OW25120   2.014   3.959  17.080 -0.5397  0.6461  0.3282
 4553SOL    HW125121   2.041   4.037  17.032  1.0134 -1.4175 -2.1246
 4553SOL    HW225122   2.087   3.928  17.134  1.2144  1.8599 -1.3294
 4554SOL     OW25123   0.355   0.076   8.261 -0.7192  0.0086  0.5080
 4554SOL    HW125124   0.416   0.146   8.285 -0.2804  0.1532 -0.9954
 4554SOL    HW225125   0.277   0.094   8.314 -0.5864 -1.7401  1.3113
 4555SOL     OW25126   4.564   1.163   3.753 -0.2801 -0.4519 -0.3097
 4555SOL    HW125127   4.626   1.107   3.799 -0.6177  0.6425  1.4843
 4555SOL    HW225128   4.480   1.124   3.779 -0.3663 -0.1641 -0.1448
 4556SOL     OW25129   2.803   0.606   3.251 -0.0975  0.1033  0.4946
 4556SOL    HW125130   2.833   0.682   3.302 -1.3063  0.0915  1.2126
 4556SOL    HW225131   2.869   0.541   3.274 -2.5245 -1.7348  2.2144
 4557SOL     OW25132   4.675   1.457   4.715  0.0368  0.0769  0.0691
 4557SOL    HW125133   0.039   1.467   4.666  0.9308 -2.2224  1.1277
 4557SOL    HW225134   4.654   1.364   4.716 -2.8485  0.7416  0.6895
 4558SOL     OW25135   0.830   1.962   6.702 -0.0394  0.3509 -0.0562
 4558SOL    HW125136   0.909   1.951   6.649 -1.1006 -1.6058 -1.1929
 4558SOL    HW225137   0.778   1.893   6.662 -0.8154  0.2471  1.1358
 4559SOL     OW25138   3.274   3.872   4.522 -0.2452  0.3387 -0.3275
 4559SOL    HW125139   3.194   3.822   4.503  0.3675 -1.4098  1.6940
 4559SOL    HW225140   3.317   3.873   4.436  0.7861 -2.2141  0.1571
 4560SOL     OW25141   0.387   4.149   8.702 -0.6716 -0.2338  0.5885
 4560SOL    HW125142   0.404   4.171   8.794  0.5363 -2.8836  0.9930
 4560SOL    HW225143   0.397   4.053   8.706  0.5235 -0.2056 -1.7766
 4561SOL     OW25144   2.116   1.031   8.997 -0.3205  0.0202  0.1075
 4561SOL    HW125145   2.105   0.943   8.961  0.4949  0.7973 -1.9936
 4561SOL    HW225146   2.153   1.079   8.923  0.0324 -0.7931 -0.2512
 4562SOL     OW25147   1.028   4.341  16.214  0.2691  0.1153 -0.0712
 4562SOL    HW125148   0.995   4.418  16.259 -0.3639 -0.8920  1.1843
 4562SOL    HW225149   0.967   4.337  16.140  0.0202  0.7178  0.1008
 4563SOL     OW25150   0.910   3.048   5.180 -0.4881  0.2196 -0.0167
 4563SOL    HW125151   0.845   2.981   5.163 -0.0726 -0.1141 -0.3054
 4563SOL    HW225152   0.911   3.063   5.274 -0.8969 -3.4351  0.5589
 4564SOL     OW25153   1.941   4.379   1.963 -0.2007  1.1715 -0.1404
 4564SOL    HW125154   1.983   4.445   2.019  1.3266  0.4760 -0.4705
 4564SOL    HW225155   1.919   4.430   1.885 -0.8085  1.6419  0.3364
 4565SOL     OW25156   1.622   1.234   4.413 -0.2626  0.4845 -0.0827
 4565SOL    HW125157   1.640   1.304   4.351 -0.0732  1.1603  0.7274
 4565SOL    HW225158   1.560   1.181   4.363  0.2942  0.8092 -1.1013
 4566SOL     OW25159   2.753   2.550   9.769 -0.5188 -0.0428  0.4364
 4566SOL    HW125160   2.758   2.458   9.742 -1.8396 -0.0005  0.0683
 4566SOL    HW225161   2.838   2.587   9.745  0.9789 -2.8677  1.2782
 4567SOL     OW25162   2.211   3.028   2.713  0.3777 -0.0356 -0.0892
 4567SOL    HW125163   2.220   2.938   2.683  0.8947  0.5909 -1.8657
 4567SOL    HW225164   2.119   3.050   2.726  0.7297 -0.3417  2.8403
 4568SOL     OW25165   1.143   4.703   4.220 -0.0020  0.1624 -0.3765
 4568SOL    HW125166   1.216   4.701   4.158 -0.3086 -0.4422 -0.7181
 4568SOL    HW225167   1.091   4.630   4.186  3.0525 -2.1278 -0.1408
 4569SOL     OW25168   1.260   2.101   6.407  0.5443 -1.0302 -0.6622
 4569SOL    HW125169   1.349   2.104   6.444 -0.6183  1.6306  1.8701
 4569SOL    HW225170   1.285   2.118   6.316  0.6308 -0.8816 -0.6114
 4570SOL     OW25171   3.480   2.030   1.975  0.7353 -0.1253  0.0885
 4570SOL    HW125172   3.562   2.027   2.024  0.0062 -2.1966  1.1969
 4570SOL    HW225173   3.418   2.031   2.048  0.1951  0.7729 -0.3881
 4571SOL     OW25174   4.705   2.946   7.425  0.2539  0.3130  0.1701
 4571SOL    HW125175   0.054   2.880   7.402  1.2461  1.0972  0.7797
 4571SOL    HW225176   4.694   2.944   7.520 -2.5439 -2.9943 -0.2200
 4572SOL     OW25177   0.812   2.904   9.680  0.1810 -0.1839  0.3453
 4572SOL    HW125178   0.765   2.821   9.671  0.6763 -0.2982 -1.1758
 4572SOL    HW225179   0.829   2.896   9.774  0.4213  0.2052  0.3349
 4573SOL     OW25180   3.313   0.955  13.222  0.2204  0.6036  0.1189
 4573SOL    HW125181   3.286   0.930  13.134  0.8363 -0.3720  0.2123
 4573SOL    HW225182   3.382   0.895  13.250 -1.0286 -0.4652  0.8938
 4574SOL     OW25183   1.370   2.234   6.950  0.1152 -0.3053  0.1475
 4574SOL    HW125184   1.287   2.277   6.970 -0.2337 -0.4389 -0.9830
 4574SOL    HW225185   1.374   2.241   6.855  0.9718 -2.3690  0.0305
 4575SOL     OW25186   1.243   2.142   3.243 -0.9161 -0.4231  0.0598
 4575SOL    HW125187   1.256   2.236   3.232  0.7183 -0.7212 -0.5159
 4575SOL    HW225188   1.233   2.108   3.154 -2.6818  2.3839 -0.8031
 4576SOL     OW25189   3.676   4.096   3.021 -0.2166 -0.2586  1.4934
 4576SOL    HW125190   3.748   4.157   3.009  0.6664 -1.4920  0.5240
 4576SOL    HW225191   3.725   4.018   3.045 -0.8073 -0.8146  0.9008
 4577SOL     OW25192   3.009   4.139   4.787 -1.2064 -0.4442  0.4864
 4577SOL    HW125193   3.075   4.083   4.746  1.2143  1.7165  1.4272
 4577SOL    HW225194   3.053   4.128   4.871  0.4800  1.2141 -0.1760
 4578SOL     OW25195   1.307   1.458   2.947 -0.5560  0.0147  0.1532
 4578SOL    HW125196   1.328   1.431   2.858 -0.5330  2.5991 -0.6195
 4578SOL    HW225197   1.325   1.375   2.992 -0.6441  1.3097  2.6305
 4579SOL     OW25198   3.590   1.831  16.527  1.0827 -0.1872 -0.7062
 4579SOL    HW125199   3.615   1.866  16.441  0.1378 -1.0767 -1.3493
 4579SOL    HW225200   3.660   1.853  16.589 -2.8452  3.8693  2.2159
 4580SOL     OW25201   1.109   1.260   7.279 -0.3139 -0.4243  0.0862
 4580SOL    HW125202   1.021   1.293   7.264 -0.6477 -2.1723 -1.8797
 4580SOL    HW225203   1.162   1.339   7.283  0.1368 -0.6744 -0.8423
 4581SOL     OW25204   1.932   4.285  17.526 -0.1770 -0.3574  0.1954
 4581SOL    HW125205   1.917   4.375  17.554  2.4127 -0.1424  0.8580
 4581SOL    HW225206   1.881   4.283  17.444 -2.3784  5.0986  1.4486
 4582SOL     OW25207   2.024   1.940  12.579 -0.2703 -0.6862 -0.1904
 4582SOL    HW125208   1.929   1.943  12.593 -0.7278 -1.1616 -3.1370
 4582SOL    HW225209   2.035   1.845  12.588  1.5310 -0.6541 -2.0534
 4583SOL     OW25210   1.405   4.025   2.719 -0.0296 -0.1050 -1.0235
 4583SOL    HW125211   1.312   4.014   2.701 -0.6658  0.9325  1.5865
 4583SOL    HW225212   1.408   4.120   2.703  0.9607  0.0023 -0.2908
 4584SOL     OW25213   0.532   3.457   0.734 -0.1093  0.2700 -0.3207
 4584SOL    HW125214   0.473   3.392   0.772  3.5787 -2.4410  0.7715
 4584SOL    HW225215   0.596   3.395   0.698 -0.9516 -2.1415  2.3764
 4585SOL     OW25216   3.264   0.823  11.460 -0.5991  0.0659  0.0357
 4585SOL    HW125217   3.199   0.772  11.411 -0.4089 -0.2078  0.0709
 4585SOL    HW225218   3.308   0.752  11.505  0.1862 -0.1599 -1.0785
 4586SOL     OW25219   1.349   1.959   4.305 -0.3199  0.9762 -0.0205
 4586SOL    HW125220   1.361   1.894   4.235 -2.0320  1.3953 -0.7111
 4586SOL    HW225221   1.267   1.993   4.270 -1.2164  0.6188  1.7273
 4587SOL     OW25222   4.157   0.718   6.701  0.8326 -0.2005 -0.4665
 4587SOL    HW125223   4.175   0.632   6.663  0.3235 -1.4251  2.0982
 4587SOL    HW225224   4.061   0.723   6.699  0.8464  0.0818 -0.3822
 4588SOL     OW25225   0.775   2.485   3.173 -0.0885  0.2537  0.0502
 4588SOL    HW125226   0.734   2.401   3.154  0.6947  0.0886 -0.9312
 4588SOL    HW225227   0.704   2.547   3.156 -1.2803 -0.6230  1.8992
 4589SOL     OW25228   2.568   1.632   4.661 -1.1303  0.4614  0.6464
 4589SOL    HW125229   2.642   1.620   4.721  0.0849 -0.1557 -0.9659
 4589SOL    HW225230   2.572   1.727   4.652  1.7106  0.4409  1.5320
 4590SOL     OW25231   1.111   3.539   4.515  0.3225 -0.5222 -0.1457
 4590SOL    HW125232   1.128   3.591   4.594 -3.4454 -0.7883  0.8432
 4590SOL    HW225233   1.177   3.470   4.514 -0.5108 -1.3347  1.0134
 4591SOL     OW25234   0.864   1.471  16.122 -0.3910  0.1779 -0.3513
 4591SOL    HW125235   0.917   1.394  16.100  1.2849  1.7139 -1.7690
 4591SOL    HW225236   0.848   1.461  16.215  0.9845 -0.9739 -0.2451
 4592SOL     OW25237   1.919   4.468   0.373  0.2400  1.2801  0.0315
 4592SOL    HW125238   1.922   4.553   0.330 -2.8924 -0.0379 -2.8431
 4592SOL    HW225239   1.945   4.488   0.462 -2.8720 -1.5753  1.6083
 4593SOL     OW25240   2.353   1.213   0.017  0.0730  1.0316  0.1575
 4593SOL    HW125241   2.310   1.285  17.643  0.9677  2.9049  2.1872
 4593SOL    HW225242   2.290   1.143   0.036  0.2112  1.0225  0.5749
 4594SOL     OW25243   2.018   2.309   4.363  0.4758 -0.0019 -0.0845
 4594SOL    HW125244   1.959   2.382   4.347  2.8515  2.4256  2.0155
 4594SOL    HW225245   1.960   2.233   4.373 -3.6042  3.2700  0.9356
 4595SOL     OW25246   1.815   1.017   4.352 -0.0858  0.1701 -0.1384
 4595SOL    HW125247   1.751   1.085   4.332 -1.0388 -1.5888 -3.0444
 4595SOL    HW225248   1.899   1.052   4.322  0.1469 -0.3665 -0.1129
 4596SOL     OW25249   1.984   4.439   7.375 -0.0838  0.5261 -0.0185
 4596SOL    HW125250   2.044   4.473   7.442 -0.9419  3.2881 -0.6650
 4596SOL    HW225251   1.957   4.353   7.409 -0.5668 -0.0674 -1.8704
 4597SOL     OW25252   2.571   2.578  15.198 -0.0711  0.4201 -0.2771
 4597SOL    HW125253   2.512   2.502  15.199 -0.1397  0.5290  3.1085
 4597SOL    HW225254   2.643   2.556  15.257  0.1465 -1.3818 -1.2212
 4598SOL     OW25255   1.947   0.456   7.332  0.4415  0.5083  0.3774
 4598SOL    HW125256   2.002   0.379   7.343  0.9333  0.6283 -1.2076
 4598SOL    HW225257   1.969   0.494   7.417  0.5511  0.6835  0.2719
 4599SOL     OW25258   3.390   2.450   7.663  0.4571  0.1301  0.0982
 4599SOL    HW125259   3.435   2.526   7.627 -0.3752 -0.2287 -1.6915
 4599SOL    HW225260   3.453   2.419   7.729  0.3213 -0.0979  0.1237
 4600SOL     OW25261   2.602   1.687   4.082 -0.0866  0.2615 -0.6932
 4600SOL    HW125262   2.591   1.723   4.170 -0.0020 -1.5134  0.0381
 4600SOL    HW225263   2.617   1.594   4.097 -2.8373 -0.1799 -0.7567
 4601SOL     OW25264   1.291   3.425   5.082 -0.1390  0.6922 -0.2429
 4601SOL    HW125265   1.197   3.408   5.083  0.0225 -0.1893 -0.2447
 4601SOL    HW225266   1.331   3.342   5.056  0.7348  1.2149 -0.5685
 4602SOL     OW25267   1.633   2.090   7.267  0.1574  0.2309  0.1989
 4602SOL    HW125268   1.692   2.127   7.334 -0.2126  0.9423  0.1353
 4602SOL    HW225269   1.555   2.079   7.320  2.2140 -0.9061  2.9934
 4603SOL     OW25270   2.794   4.665  11.552  0.3229  0.1301 -0.6733
 4603SOL    HW125271   2.712   4.701  11.587  0.8675  0.7224 -0.0133
 4603SOL    HW225272   2.859   4.680  11.621 -0.9531 -0.2753  0.6176
 4604SOL     OW25273   2.914   3.656   9.333  0.1262 -0.3026 -0.1328
 4604SOL    HW125274   2.900   3.748   9.358 -1.8792 -0.9418  1.1436
 4604SOL    HW225275   2.838   3.627   9.283 -0.2184  0.1036  0.1562
 4605SOL     OW25276   2.091   4.543   8.362 -0.1447 -0.3680  0.4132
 4605SOL    HW125277   2.156   4.585   8.306  1.1385 -1.5721  1.0067
 4605SOL    HW225278   2.059   4.477   8.301 -1.1774 -1.5182  2.2050
 4606SOL     OW25279   3.379   1.043  14.018 -0.2959  0.2330  0.3250
 4606SOL    HW125280   3.313   1.087  14.071 -0.7145  2.1649 -1.7700
 4606SOL    HW225281   3.353   1.070  13.930 -0.1512  0.3902  0.3292
 4607SOL     OW25282   3.233   4.322  16.316  0.7146 -0.0141  0.2654
 4607SOL    HW125283   3.296   4.343  16.247 -0.4220 -0.2007 -0.8228
 4607SOL    HW225284   3.175   4.399  16.313 -0.2136 -0.7397 -0.3230
 4608SOL     OW25285   2.516   1.606  15.042  0.2300  0.3191  0.1376
 4608SOL    HW125286   2.560   1.556  14.974 -0.1676  0.2422 -0.0687
 4608SOL    HW225287   2.486   1.535  15.099 -1.9037  1.3460  0.2955
 4609SOL     OW25288   2.716   1.474   5.274 -0.0516  0.7016 -0.6335
 4609SOL    HW125289   2.779   1.439   5.212 -1.0193  0.7759 -1.6522
 4609SOL    HW225290   2.765   1.463   5.356  0.0329 -2.1471 -1.0866
 4610SOL     OW25291   3.739   1.043   4.937  0.0921  0.4197  0.2744
 4610SOL    HW125292   3.680   0.982   4.893  1.6664 -1.2808  0.5126
 4610SOL    HW225293   3.791   1.068   4.861  0.9345 -0.4447  0.5620
 4611SOL     OW25294   0.068   0.544  16.379  0.5779 -0.0864  0.3903
 4611SOL    HW125295   0.125   0.477  16.342 -0.5936 -0.0849 -1.4413
 4611SOL    HW225296   0.097   0.540  16.470  1.0326  0.3008  0.2598
 4612SOL     OW25297   2.854   1.778  14.983  0.2281 -0.2666 -0.5909
 4612SOL    HW125298   2.860   1.690  14.946 -1.6676 -0.3373 -0.7140
 4612SOL    HW225299   2.884   1.775  15.073 -0.3211 -0.0750 -0.4006
 4613SOL     OW25300   2.843   3.522   8.914 -0.5345 -0.4730 -0.3427
 4613SOL    HW125301   2.881   3.451   8.966 -0.0000  0.3030  0.3298
 4613SOL    HW225302   2.922   3.572   8.894  0.6362 -2.0824  0.2088
 4614SOL     OW25303   1.747   0.464  13.210 -0.6535  0.5025  0.6191
 4614SOL    HW125304   1.733   0.541  13.265 -1.3029 -0.5199  1.8987
 4614SOL    HW225305   1.704   0.477  13.126 -1.3910  1.2971  1.1194
 4615SOL     OW25306   3.942   3.304   3.274 -0.1380 -0.9763 -0.0486
 4615SOL    HW125307   3.928   3.291   3.368  1.1515  0.9618  0.4000
 4615SOL    HW225308   3.901   3.228   3.232  0.1453 -1.2726  0.2078
 4616SOL     OW25309   2.240   0.570   4.992 -0.5858  0.4188 -0.3161
 4616SOL    HW125310   2.267   0.647   5.042  2.2023 -0.5845 -0.2555
 4616SOL    HW225311   2.156   0.600   4.958 -0.4168 -1.7923 -2.6534
 4617SOL     OW25312   0.958   2.952   4.909  0.2837  0.7112 -0.6341
 4617SOL    HW125313   1.041   2.913   4.936 -1.7782 -0.9010  3.3144
 4617SOL    HW225314   0.924   3.002   4.984  0.9130  0.9445 -0.5015
 4618SOL     OW25315   0.663   1.419   1.703  0.2412 -0.0412 -0.2142
 4618SOL    HW125316   0.576   1.432   1.666  0.5994 -0.8586 -1.3396
 4618SOL    HW225317   0.656   1.338   1.752  0.3426  0.2978  0.3556
 4619SOL     OW25318   3.744   2.866   2.935 -0.2658  0.3435 -0.4312
 4619SOL    HW125319   3.770   2.947   2.890  3.1317 -1.3547 -1.5230
 4619SOL    HW225320   3.649   2.858   2.943 -0.0647 -0.4324  1.1961
 4620SOL     OW25321   2.131   3.616   2.958  0.3705  0.3329  0.6282
 4620SOL    HW125322   2.087   3.679   2.901  0.1283 -0.6601 -0.2808
 4620SOL    HW225323   2.108   3.647   3.046 -0.6265 -1.6089  1.0569
 4621SOL     OW25324   4.334   1.876   3.350  0.1541 -0.1508  0.1492
 4621SOL    HW125325   4.311   1.869   3.257  2.6133 -1.2528 -0.3719
 4621SOL    HW225326   4.270   1.938   3.385 -1.4387 -1.2413 -0.8574
 4622SOL     OW25327   0.303   2.347   7.817 -0.0761  0.3271 -0.3863
 4622SOL    HW125328   0.221   2.377   7.857  0.5035  1.4453 -0.0313
 4622SOL    HW225329   0.368   2.406   7.854 -0.0084  1.3152 -2.1008
 4623SOL     OW25330   2.549   4.129   8.865  0.1852  0.1621  0.1913
 4623SOL    HW125331   2.595   4.045   8.865 -0.2589 -0.0810  0.6948
 4623SOL    HW225332   2.458   4.103   8.880  0.4662  0.0714  1.6669
 4624SOL     OW25333   3.143   2.838   5.268 -0.0502 -0.1481  0.1224
 4624SOL    HW125334   3.100   2.871   5.189  0.1354 -1.0367 -0.3499
 4624SOL    HW225335   3.074   2.833   5.334 -0.2093 -0.9834 -0.1030
 4625SOL     OW25336   2.321   4.157  13.688 -0.1947 -0.5990 -0.4685
 4625SOL    HW125337   2.391   4.163  13.623  0.6180  1.1981  0.5773
 4625SOL    HW225338   2.353   4.091  13.750 -1.7667  0.4618  1.4718
 4626SOL     OW25339   2.893   3.534   3.816  0.4613  0.4139  0.2097
 4626SOL    HW125340   2.808   3.548   3.858  0.2386 -0.9359  0.2064
 4626SOL    HW225341   2.898   3.443   3.787  0.5595  0.7228 -0.7528
 4627SOL     OW25342   4.048   1.062   6.862 -0.3426 -0.4106 -0.1473
 4627SOL    HW125343   3.979   1.120   6.831  1.7124  0.9583 -2.2193
 4627SOL    HW225344   4.123   1.122   6.855 -1.2520  0.8581  0.9119
 4628SOL     OW25345   3.766   4.242   6.111  0.2995 -0.2633 -0.3653
 4628SOL    HW125346   3.822   4.169   6.139  2.1511  1.7723  1.1883
 4628SOL    HW225347   3.808   4.274   6.032  2.7501 -0.8847  0.6805
 4629SOL     OW25348   3.465   0.235   1.019  0.1015 -0.2080  0.2433
 4629SOL    HW125349   3.384   0.273   1.053 -0.8497 -1.7762 -0.2334
 4629SOL    HW225350   3.519   0.309   0.992 -0.0874 -0.3016 -0.3989
 4630SOL     OW25351   2.241   0.477   3.147 -0.2427  0.1706  0.1977
 4630SOL    HW125352   2.323   0.502   3.106 -1.2726 -1.1101 -2.6549
 4630SOL    HW225353   2.250   0.527   3.228  0.5755 -0.9300  0.7943
 4631SOL     OW25354   4.546   4.433   1.851  0.1883  0.7884 -0.1714
 4631SOL    HW125355   4.536   4.417   1.945  1.4847 -0.8308 -0.3206
 4631SOL    HW225356   4.496   4.362   1.811  0.8435  1.2629 -1.8325
 4632SOL     OW25357   4.475   1.659   4.880 -0.0658 -0.0536  0.1186
 4632SOL    HW125358   4.384   1.683   4.864 -0.4697 -1.4611  0.3118
 4632SOL    HW225359   4.464   1.578   4.929 -1.2026 -0.9777 -1.6891
 4633SOL     OW25360   1.784   1.723   8.080 -0.3346  0.5876  0.3330
 4633SOL    HW125361   1.845   1.795   8.067  0.9117 -0.1667  2.0884
 4633SOL    HW225362   1.704   1.760   8.041 -0.5732 -0.7374 -0.4604
 4634SOL     OW25363   3.367   1.768   6.948 -0.0294 -0.2121  0.3937
 4634SOL    HW125364   3.305   1.709   6.990 -1.5828  0.5752 -0.8143
 4634SOL    HW225365   3.409   1.818   7.018  0.0785  0.4371 -0.1384
 4635SOL     OW25366   4.049   0.385   1.922 -0.1868  0.6376 -0.0038
 4635SOL    HW125367   4.078   0.407   1.834  1.1466  0.0733  0.3011
 4635SOL    HW225368   3.973   0.330   1.899  0.0784 -0.7953  2.4913
 4636SOL     OW25369   0.353   3.001   1.278 -0.0036 -0.3054 -0.3887
 4636SOL    HW125370   0.318   2.932   1.223  0.8229 -0.7857 -0.3156
 4636SOL    HW225371   0.433   2.958   1.309  0.4382 -1.3911 -3.0430
 4637SOL     OW25372   3.404   0.728   5.571  0.0273 -0.3093  0.1803
 4637SOL    HW125373   3.313   0.698   5.582  0.7365 -1.9499  1.5798
 4637SOL    HW225374   3.399   0.789   5.498 -1.6719 -1.6000 -0.7885
 4638SOL     OW25375   2.110   4.279  10.621  1.2299 -0.0567 -0.1194
 4638SOL    HW125376   2.174   4.347  10.642  0.6776 -0.1558  1.9093
 4638SOL    HW225377   2.028   4.327  10.630  1.5466  0.8420 -2.1931
 4639SOL     OW25378   0.827   2.745   3.453 -0.0329 -0.1213 -0.3673
 4639SOL    HW125379   0.737   2.767   3.429 -0.1118  3.0448  2.8449
 4639SOL    HW225380   0.851   2.689   3.380 -0.0056  0.7376 -1.0111
 4640SOL     OW25381   0.713   0.656  17.408  0.0459 -0.1313 -0.0066
 4640SOL    HW125382   0.715   0.681  17.501 -1.1085 -1.3667  0.3568
 4640SOL    HW225383   0.746   0.566  17.409  1.0606  0.2434  0.2518
 4641SOL     OW25384   3.365   4.249   8.149 -0.6836  0.1420 -1.1940
 4641SOL    HW125385   3.305   4.318   8.178  0.2248  1.4318 -2.3749
 4641SOL    HW225386   3.392   4.204   8.229  0.1154  0.2085 -1.4287
 4642SOL     OW25387   1.930   0.501   1.126  0.1818  0.0467  0.4646
 4642SOL    HW125388   2.025   0.505   1.110  0.5378 -1.5297  2.1626
 4642SOL    HW225389   1.926   0.544   1.211  0.1560  2.4722 -0.7528
 4643SOL     OW25390   2.200   2.315   1.490 -0.0147  0.0422 -0.4103
 4643SOL    HW125391   2.115   2.307   1.448  0.8976  1.0104 -2.4179
 4643SOL    HW225392   2.257   2.275   1.424  0.8043  0.7265 -0.1150
 4644SOL     OW25393   1.061   1.679   3.542  0.0317 -0.0764  0.0458
 4644SOL    HW125394   1.066   1.594   3.587 -1.2249  0.4810  1.2289
 4644SOL    HW225395   1.009   1.729   3.604 -0.9799 -0.5472 -0.4165
 4645SOL     OW25396   3.346   3.518  10.469  0.6841  0.0006  0.3493
 4645SOL    HW125397   3.293   3.487  10.542 -0.3647  0.2661 -0.2842
 4645SOL    HW225398   3.279   3.579  10.436  0.0306 -0.0234  1.6279
 4646SOL     OW25399   0.142   0.464   1.127  0.2668 -0.0560  0.4890
 4646SOL    HW125400   0.095   0.441   1.047 -1.3078 -0.1534  1.4216
 4646SOL    HW225401   0.191   0.540   1.097 -1.4557  1.8200  2.4224
 4647SOL     OW25402   2.459   2.206   7.444 -0.4623  0.2222  0.0818
 4647SOL    HW125403   2.515   2.191   7.521 -0.1577 -0.6341 -0.3085
 4647SOL    HW225404   2.379   2.211   7.497 -0.6159 -0.2145 -0.1091
 4648SOL     OW25405   2.269   1.794   5.171  0.1486  0.4575 -0.2994
 4648SOL    HW125406   2.223   1.712   5.189 -0.4998  0.8765 -0.0758
 4648SOL    HW225407   2.214   1.824   5.099  0.5779  0.3623 -0.6687
 4649SOL     OW25408   2.024   4.049   7.674  0.8753 -0.0026  0.0907
 4649SOL    HW125409   1.989   4.099   7.600  0.4293 -1.8536 -0.9441
 4649SOL    HW225410   1.948   3.991   7.680 -0.1438  1.2409 -0.8766
 4650SOL     OW25411   3.279   1.512   9.991 -0.1021  0.1173  0.0932
 4650SOL    HW125412   3.197   1.561   9.995 -0.4713 -0.4501 -0.5267
 4650SOL    HW225413   3.348   1.579   9.995 -2.5365  2.4999  1.4139
 4651SOL     OW25414   0.463   0.798   6.682 -0.3101 -0.1567 -0.3672
 4651SOL    HW125415   0.400   0.727   6.674 -0.2518 -0.0546 -1.6097
 4651SOL    HW225416   0.419   0.873   6.642 -1.3522 -0.1128  0.8405
 4652SOL     OW25417   4.230   0.551   8.035 -0.6348  0.3023 -0.1230
 4652SOL    HW125418   4.256   0.629   8.084  1.6436 -0.1889 -0.5625
 4652SOL    HW225419   4.238   0.479   8.097  0.4119 -0.8253 -1.5609
 4653SOL     OW25420   4.459   3.453   4.711 -0.2047 -0.1650 -0.5084
 4653SOL    HW125421   4.435   3.363   4.730  1.4628 -0.3950  0.4647
 4653SOL    HW225422   4.372   3.483   4.683 -0.3267 -1.2623 -1.2571
 4654SOL     OW25423   4.464   3.351   5.567 -0.1176 -0.6337 -0.4752
 4654SOL    HW125424   4.436   3.432   5.524 -2.1659 -1.5129 -0.8187
 4654SOL    HW225425   4.459   3.288   5.494 -0.8180 -0.8471 -0.2491
 4655SOL     OW25426   2.522   3.035   9.015 -0.1235 -0.3175  0.0093
 4655SOL    HW125427   2.443   2.981   9.013 -0.1488 -0.3082  0.8221
 4655SOL    HW225428   2.496   3.107   9.073  2.2197 -0.6933  1.4925
 4656SOL     OW25429   2.385   0.398  12.675  0.1817  0.2769 -0.3714
 4656SOL    HW125430   2.457   0.456  12.702  0.8325  0.1209 -1.7740
 4656SOL    HW225431   2.322   0.430  12.739  0.8950  0.9507  0.0004
 4657SOL     OW25432   0.937   3.227   7.886 -0.3898  0.1418  0.4842
 4657SOL    HW125433   0.929   3.260   7.976 -0.6436 -0.8495  0.8189
 4657SOL    HW225434   0.868   3.274   7.839 -0.3782  1.1112  1.4136
 4658SOL     OW25435   2.432   2.270   1.309  0.5945 -0.3908 -0.3131
 4658SOL    HW125436   2.527   2.274   1.301  0.5225  1.6459 -0.2415
 4658SOL    HW225437   2.414   2.180   1.283 -1.4362  0.7037 -2.7133
 4659SOL     OW25438   3.923   1.553  11.069 -0.5053  0.3448 -0.2663
 4659SOL    HW125439   3.973   1.534  11.149 -1.3976 -0.5923  0.0541
 4659SOL    HW225440   3.838   1.539  11.109 -0.4023 -0.6756 -0.4219
 4660SOL     OW25441   3.995   3.374   1.926 -0.0009  0.8315 -0.3468
 4660SOL    HW125442   3.920   3.366   1.868 -1.2637  0.1804  1.3813
 4660SOL    HW225443   4.056   3.406   1.860  0.4467  1.4922  0.3795
 4661SOL     OW25444   0.208   0.250   8.610  0.2246 -0.2182 -0.1023
 4661SOL    HW125445   0.265   0.206   8.673 -0.7318 -0.0035  0.9117
 4661SOL    HW225446   0.234   0.341   8.616 -2.1760  0.4432  0.1393
 4662SOL     OW25447   4.317   1.573  10.299  0.3814 -0.0057 -0.1545
 4662SOL    HW125448   4.300   1.610  10.385  1.2614  1.8814 -0.8077
 4662SOL    HW225449   4.270   1.490  10.313 -0.3264  0.5095  0.4960
 4663SOL     OW25450   0.118   1.731   6.638 -0.3321  0.0686  0.0975
 4663SOL    HW125451   0.128   1.732   6.733 -0.1643 -2.8299  0.0958
 4663SOL    HW225452   0.101   1.822   6.614  0.9880  0.6939  1.5850
 4664SOL     OW25453   4.227   1.650   7.222  0.2005 -0.0953 -0.1260
 4664SOL    HW125454   4.264   1.578   7.273  0.0399 -0.1754 -0.1237
 4664SOL    HW225455   4.234   1.620   7.132  2.1731  0.6654 -0.2243
 4665SOL     OW25456   0.894   4.356   2.385 -0.6541 -0.3622  0.1945
 4665SOL    HW125457   0.854   4.425   2.437  1.2352 -0.9190  2.3686
 4665SOL    HW225458   0.825   4.347   2.320  0.3944 -3.6959 -0.4736
 4666SOL     OW25459   3.056   3.903   9.113 -0.3541  0.0979  0.3327
 4666SOL    HW125460   3.083   3.898   9.205  1.6867  0.4485 -0.2521
 4666SOL    HW225461   2.960   3.894   9.108 -0.6627  1.7665  3.7578
 4667SOL     OW25462   1.017   1.256  15.984 -0.5003 -0.1758  0.3549
 4667SOL    HW125463   0.938   1.272  15.931 -0.9366  0.2023  1.1250
 4667SOL    HW225464   1.052   1.175  15.946  2.2252  0.4897  1.5426
 4668SOL     OW25465   4.304   3.646   4.361 -0.2821  0.2539  0.0906
 4668SOL    HW125466   4.271   3.556   4.364  0.3532 -0.0342 -2.0236
 4668SOL    HW225467   4.223   3.684   4.329 -1.4530 -2.4754 -0.1846
 4669SOL     OW25468   4.158   0.139   8.619  0.0550 -0.4738  0.0207
 4669SOL    HW125469   4.222   0.077   8.586  1.2660  1.8227 -1.8779
 4669SOL    HW225470   4.195   0.171   8.702 -1.0261  0.5906  0.0915
 4670SOL     OW25471   0.331   0.623   6.085  0.2336 -0.0951 -0.2365
 4670SOL    HW125472   0.407   0.565   6.075  0.5742  0.2199  0.4766
 4670SOL    HW225473   0.386   0.700   6.102  1.1714 -0.8193  0.0475
 4671SOL     OW25474   4.557   1.565   4.136  0.4627 -0.3407 -0.2750
 4671SOL    HW125475   4.509   1.599   4.060 -0.4144 -1.3723 -0.1759
 4671SOL    HW225476   4.575   1.480   4.098  2.0406  0.0313 -0.3754
 4672SOL     OW25477   0.614   4.286   7.470 -0.0428  0.6385 -0.7610
 4672SOL    HW125478   0.707   4.309   7.470  0.7556 -2.6668  0.5284
 4672SOL    HW225479   0.613   4.293   7.565  0.6754  0.8308 -0.7646
 4673SOL     OW25480   1.155   0.588   5.657 -0.3835 -0.3503 -0.3849
 4673SOL    HW125481   1.210   0.655   5.618 -0.8002  0.9907  1.3443
 4673SOL    HW225482   1.123   0.634   5.734  0.4758  0.3975 -0.4916
 4674SOL     OW25483   2.411   1.239   4.014 -0.6484  0.8506  0.1800
 4674SOL    HW125484   2.423   1.275   3.926  0.0101 -0.9291 -0.4494
 4674SOL    HW225485   2.502   1.250   4.040  0.1129 -0.5023 -1.9036
 4675SOL     OW25486   1.522   0.467   7.270 -0.6965  0.0011 -0.3237
 4675SOL    HW125487   1.576   0.449   7.347 -0.9099 -0.7708 -0.3519
 4675SOL    HW225488   1.557   0.420   7.194  2.1735  0.4374  0.7427
 4676SOL     OW25489   3.866   3.728   2.344  0.1349 -0.1262  0.2949
 4676SOL    HW125490   3.773   3.705   2.353 -0.0863  0.3121 -0.9684
 4676SOL    HW225491   3.893   3.658   2.285  0.5405  1.3954 -1.3201
 4677SOL     OW25492   4.177   1.346  10.349 -0.0254  0.1878  0.0457
 4677SOL    HW125493   4.123   1.360  10.427  0.1423 -2.0130  0.5741
 4677SOL    HW225494   4.122   1.312  10.278 -0.3708 -3.0774  1.8443
 4678SOL     OW25495   3.838   2.518   2.089 -0.0437 -0.0568 -0.9677
 4678SOL    HW125496   3.839   2.540   2.182  0.8720  2.3613 -1.5539
 4678SOL    HW225497   3.912   2.573   2.061  2.7211 -2.0373  2.4513
 4679SOL     OW25498   2.578   4.472   3.788  0.3804  0.6533  0.0115
 4679SOL    HW125499   2.571   4.472   3.692 -1.4603  0.9372  0.1577
 4679SOL    HW225500   2.523   4.401   3.819  1.0996 -0.2035 -0.6803
 4680SOL     OW25501   0.117   1.092   2.374 -0.5552 -0.2974  0.4755
 4680SOL    HW125502   0.063   1.014   2.388  1.7624 -2.1326 -0.9703
 4680SOL    HW225503   0.081   1.113   2.287  1.6673 -1.6085 -0.7482
 4681SOL     OW25504   0.161   0.234   2.093  0.0840  0.6493  0.0236
 4681SOL    HW125505   0.201   0.158   2.136  0.6604  0.0790 -1.5085
 4681SOL    HW225506   0.070   0.229   2.124  0.3337 -3.4059  0.0937
 4682SOL     OW25507   1.660   2.527  10.617 -0.5985 -0.0811  0.1483
 4682SOL    HW125508   1.629   2.618  10.625  3.8819  1.1700  2.9229
 4682SOL    HW225509   1.621   2.486  10.694  0.2190  1.2264  1.2679
 4683SOL     OW25510   1.781   1.577   3.425  0.2779 -0.4630 -0.3351
 4683SOL    HW125511   1.730   1.500   3.401 -0.1917 -0.6630  1.3301
 4683SOL    HW225512   1.754   1.629   3.349 -0.7753 -0.7450 -0.1487
 4684SOL     OW25513   3.154   3.035   3.601  0.0242  0.3050 -0.0231
 4684SOL    HW125514   3.131   2.985   3.679 -1.2547  0.7819 -0.0799
 4684SOL    HW225515   3.074   3.015   3.552 -1.7616  0.3506  2.8272
 4685SOL     OW25516   0.453   0.281   9.037  0.3727 -0.3781 -0.0616
 4685SOL    HW125517   0.449   0.335   9.116  0.2346  0.8179 -0.8882
 4685SOL    HW225518   0.464   0.338   8.961 -1.0637 -0.7151 -0.5121
 4686SOL     OW25519   4.706   1.480   4.982 -0.7799 -0.5181  0.3669
 4686SOL    HW125520   4.702   1.460   4.888 -2.0449 -0.5781  0.4447
 4686SOL    HW225521   0.081   1.503   4.975 -0.9849 -0.3071 -1.7208
 4687SOL     OW25522   0.948   3.407   9.610 -0.1032 -0.1797  0.5455
 4687SOL    HW125523   0.934   3.419   9.516  1.7730 -0.6620  0.1989
 4687SOL    HW225524   0.911   3.320   9.626  0.0150 -0.5147 -0.9856
 4688SOL     OW25525   1.652   0.258   2.396 -0.0090  0.5786 -0.5612
 4688SOL    HW125526   1.559   0.278   2.387  0.1900  1.3600 -0.8747
 4688SOL    HW225527   1.687   0.270   2.309 -0.2408 -0.8077 -0.8509
 4689SOL     OW25528   4.105   1.337   4.216 -0.0561 -0.1130  0.1109
 4689SOL    HW125529   4.167   1.304   4.150  0.2951  1.3718 -0.3118
 4689SOL    HW225530   4.120   1.431   4.205  0.1228 -0.2621 -1.0172
 4690SOL     OW25531   1.265   3.512   3.718  0.4446 -0.1478 -0.7532
 4690SOL    HW125532   1.212   3.567   3.776 -0.3179  0.0647 -1.6354
 4690SOL    HW225533   1.204   3.457   3.669 -0.4973 -1.6925  2.2031
 4691SOL     OW25534   1.055   3.549   5.834 -0.2382  0.1465  0.0516
 4691SOL    HW125535   1.014   3.581   5.753  0.2208  2.4480  0.7251
 4691SOL    HW225536   0.988   3.487   5.861  0.1607 -0.3462 -0.0873
 4692SOL     OW25537   0.620   2.094   5.295  0.2621 -0.3441  0.2801
 4692SOL    HW125538   0.656   2.045   5.220  1.6237 -0.6975  1.1540
 4692SOL    HW225539   0.537   2.115   5.253 -1.5911 -1.3766  3.3776
 4693SOL     OW25540   3.393   3.001   5.933  0.1322 -0.4140 -0.5450
 4693SOL    HW125541   3.463   3.022   5.872  0.6670 -0.2558  0.1259
 4693SOL    HW225542   3.398   2.905   5.942  2.2081 -0.1409  1.0940
 4694SOL     OW25543   1.023   1.753   5.414 -1.1365  0.0787  0.2708
 4694SOL    HW125544   0.935   1.780   5.437 -1.8705 -2.9542  0.9955
 4694SOL    HW225545   0.997   1.714   5.330 -0.8436 -0.3525  0.3797
 4695SOL     OW25546   1.859   4.299   4.849 -0.0159  0.0564 -0.4846
 4695SOL    HW125547   1.806   4.237   4.900  1.8144 -2.1522 -1.2465
 4695SOL    HW225548   1.798   4.372   4.837  0.8004  0.6277 -1.1470
 4696SOL     OW25549   1.734   1.792  12.075 -0.1081 -0.2421 -0.4968
 4696SOL    HW125550   1.807   1.850  12.094 -1.4011  0.9458  0.8788
 4696SOL    HW225551   1.662   1.845  12.111  0.8229  0.4395  0.3806
 4697SOL     OW25552   1.892   1.167  11.545 -0.1857 -0.6348 -0.0502
 4697SOL    HW125553   1.844   1.085  11.561 -1.3542  0.3585  1.5320
 4697SOL    HW225554   1.959   1.141  11.482  1.1143 -0.2245  1.1828
 4698SOL     OW25555   1.007   4.660  10.559 -0.0198  0.0785 -0.2997
 4698SOL    HW125556   1.051   0.025  10.539  1.6451 -1.0768 -1.4627
 4698SOL    HW225557   1.082   4.601  10.547 -0.8653 -0.3581 -3.3790
 4699SOL     OW25558   1.590   1.341  12.412 -0.0014  0.3095  0.3630
 4699SOL    HW125559   1.680   1.309  12.404 -0.1802  0.2928 -1.6656
 4699SOL    HW225560   1.604   1.433  12.387  2.0433 -0.0267  0.2035
 4700SOL     OW25561   1.383   4.259  12.161 -0.0975  0.1250 -0.3509
 4700SOL    HW125562   1.472   4.292  12.149  0.2406 -1.2517 -1.6002
 4700SOL    HW225563   1.343   4.283  12.077 -0.6722  0.9932  0.1776
 4701SOL     OW25564   3.050   1.605   2.231  0.0624 -0.1029  1.0936
 4701SOL    HW125565   2.986   1.648   2.287  1.0150 -0.1991  2.2585
 4701SOL    HW225566   3.125   1.665   2.225  1.1158 -1.6020 -0.5190
 4702SOL     OW25567   4.418   4.205   1.691  0.3540  0.0736 -0.5062
 4702SOL    HW125568   4.344   4.150   1.668 -0.5048  0.6236  0.8846
 4702SOL    HW225569   4.487   4.142   1.672 -0.9181 -1.7864  1.0124
 4703SOL     OW25570   2.849   0.062   5.450  0.2424  0.5586  0.4483
 4703SOL    HW125571   2.883   0.047   5.362 -1.7577 -1.9836  0.1074
 4703SOL    HW225572   2.765   0.017   5.460  0.3653  0.6673  2.0753
 4704SOL     OW25573   3.230   0.173   2.066 -0.2102 -0.1513 -0.8087
 4704SOL    HW125574   3.287   0.108   2.024 -0.0847 -0.0074 -0.8600
 4704SOL    HW225575   3.156   0.181   2.007  0.9378  2.2325 -1.9368
 4705SOL     OW25576   4.606   3.819  15.416  0.1339  0.1180 -0.1252
 4705SOL    HW125577   4.656   3.737  15.417  0.0240  0.0266 -1.2790
 4705SOL    HW225578   4.523   3.784  15.382  0.1921 -2.4236  2.3478
 4706SOL     OW25579   2.935   3.874  13.846 -0.5031 -0.8209 -0.0325
 4706SOL    HW125580   2.892   3.866  13.931 -1.4085  1.0381 -0.3143
 4706SOL    HW225581   2.947   3.967  13.825  0.5126 -0.3390  2.6263
 4707SOL     OW25582   1.032   2.889  12.740 -0.3626  0.1115  0.1637
 4707SOL    HW125583   1.068   2.812  12.697 -0.8995 -0.1936  0.2588
 4707SOL    HW225584   1.064   2.971  12.704 -1.3250  0.8064  0.8673
 4708SOL     OW25585   2.243   2.083   3.163 -0.6686 -0.4582 -0.4729
 4708SOL    HW125586   2.167   2.048   3.118 -1.0870  0.0910 -0.1885
 4708SOL    HW225587   2.212   2.171   3.182  2.2511  0.7918 -1.5905
 4709SOL     OW25588   4.351   1.685   1.683 -0.3099 -0.1260  0.2862
 4709SOL    HW125589   4.367   1.760   1.626  1.1486 -2.2384 -2.0562
 4709SOL    HW225590   4.345   1.614   1.620  1.8923  0.4326 -0.5556
 4710SOL     OW25591   2.682   1.940   3.994  0.2984  0.1060 -0.8967
 4710SOL    HW125592   2.649   1.850   4.004 -0.3650  0.1842 -2.4294
 4710SOL    HW225593   2.748   1.931   4.063 -0.2261  0.6645 -0.3317
 4711SOL     OW25594   2.186   1.972   7.742  0.0091 -0.3020  0.0518
 4711SOL    HW125595   2.202   2.030   7.816 -1.0391  0.8941 -0.6602
 4711SOL    HW225596   2.147   2.030   7.677 -0.3789 -0.4310  0.1693
 4712SOL     OW25597   0.338   0.685   4.921  0.4963 -0.5013  0.1834
 4712SOL    HW125598   0.371   0.619   4.981  0.5297 -0.6492  0.0021
 4712SOL    HW225599   0.408   0.751   4.919  0.4899 -0.5121 -0.7292
 4713SOL     OW25600   2.050   1.258   0.912 -0.2097  0.2672 -0.1403
 4713SOL    HW125601   2.110   1.228   0.980 -0.2448 -0.6723 -0.5284
 4713SOL    HW225602   1.962   1.250   0.947  0.4366  3.7461  2.2833
 4714SOL     OW25603   3.767   0.227   1.583 -0.2862  0.4556 -0.0131
 4714SOL    HW125604   3.678   0.229   1.618  0.2265  3.5233  1.0456
 4714SOL    HW225605   3.758   0.283   1.506 -1.4502 -0.2092 -0.3579
 4715SOL     OW25606   3.907   4.521   2.701  0.1259 -0.0932 -0.5852
 4715SOL    HW125607   3.842   4.592   2.707  0.5859  0.2683  0.1770
 4715SOL    HW225608   3.906   4.494   2.609 -0.1270 -1.2508 -0.2430
 4716SOL     OW25609   3.117   1.662  16.596  0.3237 -0.0751 -0.1490
 4716SOL    HW125610   3.075   1.748  16.605  2.5225  0.8469  1.2089
 4716SOL    HW225611   3.209   1.684  16.588  0.3033 -0.6326 -1.8659
 4717SOL     OW25612   2.492   0.920   0.426  0.3392  0.1324  0.3252
 4717SOL    HW125613   2.406   0.906   0.386  0.2343 -1.1992  1.0167
 4717SOL    HW225614   2.545   0.950   0.353 -0.9237 -1.1730 -1.1106
 4718SOL     OW25615   1.222   3.899   3.852  0.9184  0.0370 -0.0403
 4718SOL    HW125616   1.149   3.957   3.873  2.1464  1.1451  1.2517
 4718SOL    HW225617   1.280   3.963   3.810  2.0863 -0.0343  1.4797
 4719SOL     OW25618   1.282   1.553   6.116 -0.1241 -0.2754 -0.3138
 4719SOL    HW125619   1.240   1.582   6.034  2.5255  0.5992 -1.3718
 4719SOL    HW225620   1.273   1.630   6.172 -1.9776 -0.7613  0.0447
 4720SOL     OW25621   3.350   3.608   1.280 -0.3980  0.0939  0.0983
 4720SOL    HW125622   3.267   3.561   1.279  0.2442 -1.0147 -0.7954
 4720SOL    HW225623   3.359   3.624   1.374  2.8021 -0.4358 -0.1193
 4721SOL     OW25624   3.763   3.234   5.982  0.3095  0.0561  0.5561
 4721SOL    HW125625   3.670   3.253   5.970  0.3284  0.0236  0.3430
 4721SOL    HW225626   3.791   3.228   5.890  0.2492 -2.6219  0.7119
 4722SOL     OW25627   0.943   4.460   1.512  0.9058  0.3525  0.0747
 4722SOL    HW125628   1.026   4.482   1.554  0.9582  0.8141 -0.2773
 4722SOL    HW225629   0.975   4.433   1.426  2.5654 -1.3914  1.2376
 4723SOL     OW25630   3.358   2.254   3.624 -0.7119 -0.0559  0.0072
 4723SOL    HW125631   3.350   2.191   3.696  0.2299 -1.9759 -1.6107
 4723SOL    HW225632   3.266   2.273   3.608 -0.7944 -0.7055 -0.2747
 4724SOL     OW25633   1.617   3.068   5.068  0.2542  0.6555 -0.2866
 4724SOL    HW125634   1.670   3.124   5.011  1.8246 -0.4479  0.1176
 4724SOL    HW225635   1.671   2.991   5.083 -0.6116 -0.0176 -0.6251
 4725SOL     OW25636   0.741   2.018   3.795 -0.2105  0.6229 -0.1337
 4725SOL    HW125637   0.732   2.102   3.750  1.9162  1.1320  0.3905
 4725SOL    HW225638   0.654   1.980   3.808 -0.0113  0.3792  0.4804
 4726SOL     OW25639   4.490   3.274   4.206 -0.3358  0.0233 -0.2016
 4726SOL    HW125640   4.487   3.368   4.224  4.8068  0.0219  0.5468
 4726SOL    HW225641   4.467   3.241   4.293 -1.2582  0.5607 -0.2434
 4727SOL     OW25642   2.959   0.087   8.526 -0.0655  0.3726  0.5353
 4727SOL    HW125643   3.037   0.080   8.471 -0.4491 -2.3931  0.3555
 4727SOL    HW225644   2.989   0.149   8.593  0.2286  1.5127 -0.6393
 4728SOL     OW25645   0.806   1.589   4.873 -0.1932  0.2663 -0.1174
 4728SOL    HW125646   0.798   1.660   4.809 -0.9736 -0.0952 -0.4217
 4728SOL    HW225647   0.751   1.520   4.837  1.4928 -1.0090 -0.2375
 4729SOL     OW25648   0.087   4.019   0.795  0.1816  0.3526  0.2037
 4729SOL    HW125649   0.166   3.968   0.812 -0.3830 -0.6976 -0.3873
 4729SOL    HW225650   0.102   4.053   0.707 -1.4285 -0.9851 -0.5813
 4730SOL     OW25651   0.999   2.258   5.065 -0.3033  0.1804  0.0113
 4730SOL    HW125652   1.024   2.172   5.098 -0.2907 -0.1699 -0.8894
 4730SOL    HW225653   1.059   2.305   5.122  0.0074 -0.9819  0.6401
 4731SOL     OW25654   3.483   1.543   8.727  0.4110 -0.1052 -0.1837
 4731SOL    HW125655   3.561   1.569   8.677 -0.0183  1.6624  0.0829
 4731SOL    HW225656   3.516   1.522   8.814 -0.4666  3.7872  1.0915
 4732SOL     OW25657   0.665   1.332  14.929 -0.1536 -0.0114 -0.2595
 4732SOL    HW125658   0.701   1.293  14.849  0.8612 -0.9560  0.6484
 4732SOL    HW225659   0.608   1.389  14.879 -0.8460  0.7327  1.3834
 4733SOL     OW25660   1.670   1.353   7.632  0.3956  0.3540  0.0105
 4733SOL    HW125661   1.641   1.275   7.679 -1.2493  0.6155 -0.5435
 4733SOL    HW225662   1.630   1.422   7.685  0.4570  2.2254 -2.3710
 4734SOL     OW25663   2.152   3.124  17.591 -0.2735 -0.1246 -0.3747
 4734SOL    HW125664   2.198   3.197  17.632  0.1265 -0.5540 -0.0480
 4734SOL    HW225665   2.112   3.150  17.509  0.9781  2.3465 -0.1863
 4735SOL     OW25666   1.081   3.627   5.275  0.1038  0.5484  0.2927
 4735SOL    HW125667   1.084   3.661   5.185 -1.9689 -2.4700 -0.9055
 4735SOL    HW225668   1.071   3.533   5.261 -2.9157  0.5583  2.5243
 4736SOL     OW25669   4.429   3.526  16.344 -0.7197  0.1935  0.1132
 4736SOL    HW125670   4.443   3.431  16.337  1.9484  0.6316 -0.4782
 4736SOL    HW225671   4.351   3.530  16.289 -0.2400  2.8209 -0.3588
 4737SOL     OW25672   4.546   3.529   2.364 -0.1950  0.2536  0.5399
 4737SOL    HW125673   4.493   3.450   2.378 -0.8333  0.6484  0.3509
 4737SOL    HW225674   4.542   3.567   2.452  0.7852 -0.7942  1.0322
 4738SOL     OW25675   3.896   1.343   1.534  0.1758  0.6429  0.3596
 4738SOL    HW125676   3.834   1.304   1.472  0.9554 -1.7464  1.1029
 4738SOL    HW225677   3.869   1.321   1.623  0.8010  2.0394  0.8981
 4739SOL     OW25678   3.478   0.824   1.776  0.5791  0.2454  0.8090
 4739SOL    HW125679   3.465   0.919   1.781 -0.0759  0.2794 -1.5694
 4739SOL    HW225680   3.452   0.797   1.864  0.5380 -1.5408  0.2627
 4740SOL     OW25681   1.024   3.970  11.153  0.1397 -0.5842  0.0302
 4740SOL    HW125682   1.089   3.908  11.189  1.1538  1.3621  1.5600
 4740SOL    HW225683   0.956   3.914  11.116 -0.3324 -0.0687  0.1081
 4741SOL     OW25684   0.780   4.658   7.526 -0.3455 -0.3368  0.0642
 4741SOL    HW125685   0.872   4.685   7.535 -0.8344  0.2756  3.1044
 4741SOL    HW225686   0.790   4.584   7.466 -3.5601 -1.2560  0.6444
 4742SOL     OW25687   0.207   3.796   8.923  0.2926  0.3936 -0.0735
 4742SOL    HW125688   0.278   3.831   8.869  0.6053 -1.1225 -0.6297
 4742SOL    HW225689   0.260   3.751   8.988 -0.2751 -0.2271 -0.0424
 4743SOL     OW25690   3.958   2.304   6.603  0.6009  0.8918  0.2897
 4743SOL    HW125691   3.892   2.255   6.652  1.1176 -0.6730 -0.5658
 4743SOL    HW225692   3.988   2.361   6.674  0.8508  2.7894 -1.3441
 4744SOL     OW25693   2.062   1.912   8.052  0.7988  0.0257  0.9639
 4744SOL    HW125694   2.143   1.963   8.058  0.8076  0.0016  1.0497
 4744SOL    HW225695   2.000   1.980   8.025  0.7078 -0.4703 -0.0633
 4745SOL     OW25696   3.638   0.012   3.837  0.2594 -0.3935  0.7673
 4745SOL    HW125697   3.548   4.699   3.850 -0.0343 -0.9815 -2.5890
 4745SOL    HW225698   3.625   0.060   3.755 -1.6508 -1.3123  0.5281
 4746SOL     OW25699   4.422   4.522  17.472  0.1083  0.2070 -0.2493
 4746SOL    HW125700   4.326   4.515  17.465  0.0646  2.4937 -1.9404
 4746SOL    HW225701   4.447   4.447  17.419 -0.9266  0.0631 -0.5442
 4747SOL     OW25702   4.211   2.891  16.587  1.1429  0.7654  0.3386
 4747SOL    HW125703   4.195   2.860  16.676 -0.3130  0.8003  0.0866
 4747SOL    HW225704   4.151   2.965  16.584 -0.4591 -0.5726 -0.3621
 4748SOL     OW25705   1.429   3.428  10.306 -0.5550 -0.6036 -0.6641
 4748SOL    HW125706   1.485   3.377  10.247 -0.3398  0.2731 -1.2106
 4748SOL    HW225707   1.479   3.509  10.319 -1.6611 -0.1987  0.9992
 4749SOL     OW25708   4.446   0.443   2.860 -0.6789 -0.1200  0.4215
 4749SOL    HW125709   4.505   0.400   2.798  1.3211  2.1355  0.7638
 4749SOL    HW225710   4.486   0.529   2.870  0.7225 -0.7486  0.3009
 4750SOL     OW25711   4.094   4.372   2.905 -0.9367 -0.7588 -0.5332
 4750SOL    HW125712   4.078   4.466   2.913 -0.4042 -0.7713  0.6341
 4750SOL    HW225713   4.008   4.346   2.873 -1.0098 -0.2767 -0.7309
 4751SOL     OW25714   0.839   2.930  10.647  0.3190 -0.0763  0.4133
 4751SOL    HW125715   0.875   2.866  10.585 -0.6688  0.7094 -0.9817
 4751SOL    HW225716   0.751   2.937  10.609  1.1888  3.4985 -0.8996
 4752SOL     OW25717   4.047   2.029   8.602 -0.3119  0.0519 -0.1748
 4752SOL    HW125718   4.048   2.020   8.698  0.3331  2.5080  0.0565
 4752SOL    HW225719   4.022   1.940   8.576  2.4485 -0.5051 -0.8226
 4753SOL     OW25720   2.432   3.921  10.915 -0.2159  0.0251  0.0361
 4753SOL    HW125721   2.351   3.887  10.953  0.9465 -1.9420  0.7281
 4753SOL    HW225722   2.435   3.875  10.832 -1.8810 -0.9741  0.5274
 4754SOL     OW25723   1.520   2.592   3.400 -0.7659 -0.5478 -0.2740
 4754SOL    HW125724   1.558   2.540   3.329 -0.8014 -0.7003 -0.1816
 4754SOL    HW225725   1.595   2.622   3.451 -1.4978 -1.3975  1.2893
 4755SOL     OW25726   1.586   3.635   4.481 -0.4663  0.1621 -0.0070
 4755SOL    HW125727   1.667   3.585   4.491 -1.4373 -1.1143  1.5460
 4755SOL    HW225728   1.625   3.711   4.438 -1.3615  1.2956  1.2191
 4756SOL     OW25729   1.493   3.551   5.419  0.3475 -0.2764 -0.6734
 4756SOL    HW125730   1.519   3.515   5.503 -0.5178 -0.3945 -0.4532
 4756SOL    HW225731   1.566   3.613   5.415  1.7090 -1.8263  0.2863
 4757SOL     OW25732   0.681   4.660  11.308 -0.3270 -0.3693  0.0224
 4757SOL    HW125733   0.589   4.633  11.316 -1.1729  2.4436 -0.3237
 4757SOL    HW225734   0.716   4.605  11.378  1.0800  0.4137 -0.0782
 4758SOL     OW25735   3.473   1.735   6.478 -0.8733 -0.1636 -0.6193
 4758SOL    HW125736   3.430   1.764   6.397  0.3595 -0.3301 -1.3414
 4758SOL    HW225737   3.462   1.641   6.464  0.7044  0.0357 -3.3372
 4759SOL     OW25738   1.244   4.416   4.527  0.0486  0.1656 -0.3242
 4759SOL    HW125739   1.328   4.423   4.572  0.6494  0.5262 -1.4904
 4759SOL    HW225740   1.276   4.366   4.451 -0.0164  0.2866 -0.4323
 4760SOL     OW25741   2.471   1.114  16.317  0.0409  0.7890  0.1676
 4760SOL    HW125742   2.457   1.021  16.338  0.3534  0.8760  0.7586
 4760SOL    HW225743   2.396   1.163  16.351 -0.7838 -0.9753  0.9163
 4761SOL     OW25744   0.086   2.759   2.674  0.0020 -0.2528  0.4449
 4761SOL    HW125745   0.176   2.754   2.641 -0.3090  1.1538 -0.6287
 4761SOL    HW225746   0.074   2.664   2.671 -0.3815 -0.2361  1.4217
 4762SOL     OW25747   4.706   2.923  13.471 -0.1194  0.3314  0.2218
 4762SOL    HW125748   4.635   2.865  13.498  0.1380 -0.7279 -1.3700
 4762SOL    HW225749   0.048   2.918  13.546 -0.3093  0.2917  0.3692
 4763SOL     OW25750   0.440   3.091   3.693 -0.2829 -0.1371 -0.3118
 4763SOL    HW125751   0.359   3.091   3.643 -0.0593 -3.7668 -0.6460
 4763SOL    HW225752   0.423   3.020   3.754  0.5201 -1.0983 -1.2010
 4764SOL     OW25753   1.918   1.970   3.267 -0.1956 -0.3419 -0.2697
 4764SOL    HW125754   1.951   1.983   3.178  0.1770  0.0014 -0.0809
 4764SOL    HW225755   1.827   1.959   3.239  0.0416 -0.8347 -0.8570
 4765SOL     OW25756   3.609   4.513   5.093  0.0556  0.3504 -0.1133
 4765SOL    HW125757   3.670   4.564   5.041  0.4321 -0.4080 -0.4135
 4765SOL    HW225758   3.600   4.433   5.042  0.1697 -2.1349  3.7159
 4766SOL     OW25759   4.365   4.403   6.177  0.2809  0.3226  0.2367
 4766SOL    HW125760   4.378   4.337   6.244  0.9869 -0.8888 -1.0996
 4766SOL    HW225761   4.447   4.406   6.128  2.3367  1.2355  3.7281
 4767SOL     OW25762   2.775   0.745   6.357 -0.4037 -0.1547  0.1138
 4767SOL    HW125763   2.831   0.752   6.280 -1.4684  0.7254 -0.5859
 4767SOL    HW225764   2.722   0.823   6.338  0.7056  0.1926 -1.5739
 4768SOL     OW25765   2.952   2.429   5.686 -0.3769  0.4313 -0.4698
 4768SOL    HW125766   2.982   2.347   5.725  1.1409  1.2396  0.0530
 4768SOL    HW225767   2.905   2.473   5.757  0.0863  1.3265 -0.7190
 4769SOL     OW25768   3.517   2.396  11.069  0.4783  0.3902  0.5059
 4769SOL    HW125769   3.585   2.344  11.111 -1.4514 -1.0757  1.7906
 4769SOL    HW225770   3.572   2.465  11.031  0.2577 -0.9614 -2.2558
 4770SOL     OW25771   1.706   0.147   5.551  0.1731 -0.7304 -0.2620
 4770SOL    HW125772   1.768   0.212   5.518 -0.5100  1.2288  2.2685
 4770SOL    HW225773   1.728   0.072   5.496 -1.6912 -2.5720  1.5268
 4771SOL     OW25774   4.037   1.994   4.967 -0.1960 -0.3406  0.0616
 4771SOL    HW125775   3.985   1.918   4.941 -0.2438 -0.4835  0.5621
 4771SOL    HW225776   4.082   1.999   4.883  0.2759 -0.9324  0.2769
 4772SOL     OW25777   1.462   0.837   7.755  0.1872 -0.4173 -0.1747
 4772SOL    HW125778   1.408   0.758   7.762 -0.2171 -0.3698 -2.7766
 4772SOL    HW225779   1.546   0.794   7.739  0.3795  0.9855 -2.9198
 4773SOL     OW25780   2.154   2.678  11.212 -0.3793  0.4470  0.2004
 4773SOL    HW125781   2.087   2.613  11.192 -0.4082  0.3247  0.6761
 4773SOL    HW225782   2.240   2.640  11.196 -0.9885 -0.3069 -1.2940
 4774SOL     OW25783   4.294   0.844   1.152 -0.5405 -0.4266 -0.1976
 4774SOL    HW125784   4.320   0.761   1.190  2.3768  0.6451  0.1416
 4774SOL    HW225785   4.213   0.824   1.106 -0.4381 -2.7811  0.6651
 4775SOL     OW25786   2.688   3.731   8.233 -0.2704 -0.1030  1.1457
 4775SOL    HW125787   2.664   3.644   8.202  0.7883  0.0110  0.0211
 4775SOL    HW225788   2.697   3.709   8.326  1.3249  0.5569  1.1591
 4776SOL     OW25789   0.720   0.322  13.041  0.5348 -0.4122 -0.8463
 4776SOL    HW125790   0.807   0.327  13.082  1.9447  2.2735 -4.1499
 4776SOL    HW225791   0.745   0.241  12.997 -2.3876 -2.3141  1.0323
 4777SOL     OW25792   0.638   0.632   7.566 -0.0611  0.2066 -0.4053
 4777SOL    HW125793   0.660   0.625   7.473 -1.2279 -1.1125 -0.5737
 4777SOL    HW225794   0.580   0.556   7.577  1.8488 -0.9779  1.5856
 4778SOL     OW25795   1.660   1.703   0.062  0.1864 -0.3928  0.0175
 4778SOL    HW125796   1.654   1.726   0.155  0.7880 -1.5222  0.3309
 4778SOL    HW225797   1.685   1.611   0.074  0.7953 -0.5427 -2.3174
 4779SOL     OW25798   2.233   4.520   3.137  0.1784  0.5862  0.0138
 4779SOL    HW125799   2.231   4.462   3.212  1.5082  1.1005  0.4586
 4779SOL    HW225800   2.165   4.588   3.138  0.4663  0.8533  1.2194
 4780SOL     OW25801   0.227   3.692   4.227 -0.2797 -0.7591  0.5593
 4780SOL    HW125802   0.243   3.688   4.133 -1.8565  2.6167  0.1612
 4780SOL    HW225803   0.268   3.776   4.247 -1.2497 -0.3744  0.9397
 4781SOL     OW25804   2.710   3.700  11.806  0.4892  0.2449 -0.3456
 4781SOL    HW125805   2.625   3.659  11.815  0.0919  1.1693  0.1135
 4781SOL    HW225806   2.706   3.757  11.883 -2.6028  0.0788 -0.3958
 4782SOL     OW25807   3.598   3.828   1.802  0.4813 -0.1653  0.1081
 4782SOL    HW125808   3.660   3.769   1.844  0.0183 -0.7665 -0.0518
 4782SOL    HW225809   3.582   3.894   1.869  1.2002 -0.0316  0.1563
 4783SOL     OW25810   0.947   0.667  12.403  0.5595 -0.1373 -0.6015
 4783SOL    HW125811   0.871   0.640  12.455 -1.1103  0.9013 -2.5182
 4783SOL    HW225812   1.003   0.589  12.414 -0.2923 -0.5860  0.5901
 4784SOL     OW25813   1.794   3.568  12.704 -0.2181  0.1414  0.8630
 4784SOL    HW125814   1.773   3.479  12.733 -0.9331 -0.3140 -1.0664
 4784SOL    HW225815   1.817   3.608  12.788  0.0260  0.2645  0.7390
 4785SOL     OW25816   3.721   2.012   2.113 -0.2612  0.3517  0.4016
 4785SOL    HW125817   3.804   2.039   2.075 -0.4625  0.9341  0.3707
 4785SOL    HW225818   3.735   1.928   2.157  1.5401  0.8578  0.7824
 4786SOL     OW25819   0.687   0.161  15.994 -0.6006 -0.1282 -0.0102
 4786SOL    HW125820   0.646   0.076  15.978  1.3678 -0.2661 -4.1198
 4786SOL    HW225821   0.612   0.220  15.982 -0.1939  0.5310  0.6857
 4787SOL     OW25822   4.049   1.699   6.106 -0.2610 -0.4287  0.0683
 4787SOL    HW125823   3.977   1.640   6.128 -1.3915  1.2024  0.7215
 4787SOL    HW225824   4.106   1.637   6.059 -2.2934 -2.9782  0.9635
 4788SOL     OW25825   1.635   2.195   7.002 -0.1927  0.1736 -0.1737
 4788SOL    HW125826   1.617   2.161   7.089  0.5909 -0.3856 -0.2272
 4788SOL    HW225827   1.556   2.235   6.965 -0.0960  1.4962  1.0526
 4789SOL     OW25828   0.704   3.587  16.933 -0.3070  0.1721  0.1095
 4789SOL    HW125829   0.770   3.641  16.976 -0.8972  0.8777  0.1514
 4789SOL    HW225830   0.742   3.574  16.846 -0.2642  1.3105 -0.0486
 4790SOL     OW25831   4.192   2.768   8.728 -0.4472  0.2524  0.0747
 4790SOL    HW125832   4.186   2.684   8.774  0.8960  1.2553  2.1100
 4790SOL    HW225833   4.110   2.812   8.749 -0.5376  0.0475  0.1578
 4791SOL     OW25834   3.143   2.870   7.172  0.2721 -0.7003 -0.0638
 4791SOL    HW125835   3.186   2.955   7.170  0.8307 -0.9583  0.6837
 4791SOL    HW225836   3.054   2.896   7.149  0.0957 -2.5112 -1.4518
 4792SOL     OW25837   3.972   0.072   7.039 -0.5252 -0.3612 -0.8335
 4792SOL    HW125838   3.953   4.696   7.043 -1.1796 -0.1632  0.5066
 4792SOL    HW225839   4.041   0.084   7.104 -1.0914  0.6560 -0.4239
 4793SOL     OW25840   1.546   0.187   4.396 -0.5932  0.3902 -0.0601
 4793SOL    HW125841   1.630   0.145   4.416  0.0620  1.2589 -0.9933
 4793SOL    HW225842   1.480   0.132   4.437 -1.3831  0.3104 -1.4365
 4794SOL     OW25843   0.862   3.391  15.141  0.3095 -0.4531  0.0342
 4794SOL    HW125844   0.947   3.376  15.182 -0.7193 -2.3007  1.5166
 4794SOL    HW225845   0.806   3.319  15.172 -1.8530  0.7190 -1.1807
 4795SOL     OW25846   1.888   1.367  15.387  0.7716  0.1170  0.1905
 4795SOL    HW125847   1.883   1.356  15.482 -1.4633 -1.7661 -0.1465
 4795SOL    HW225848   1.978   1.357  15.357  0.9155  1.1996  0.2351
 4796SOL     OW25849   3.611   1.200   3.754 -0.3277 -0.3350 -0.4276
 4796SOL    HW125850   3.593   1.106   3.764  3.5625 -1.1730 -1.4009
 4796SOL    HW225851   3.595   1.210   3.660 -1.4969  0.3899 -0.1569
 4797SOL     OW25852   4.274   0.697   5.101  0.8716 -0.2609 -0.5683
 4797SOL    HW125853   4.300   0.611   5.136  1.4589 -0.3162 -1.1280
 4797SOL    HW225854   4.187   0.677   5.066  0.9754 -2.9770  0.7804
 4798SOL     OW25855   3.227   3.677   3.117 -0.4557 -0.0336 -0.3936
 4798SOL    HW125856   3.201   3.624   3.193 -2.4402  1.2306 -0.1951
 4798SOL    HW225857   3.247   3.760   3.160 -0.5287 -0.5695  0.6776
 4799SOL     OW25858   3.146   3.679  15.695 -0.6016 -1.1554 -0.1433
 4799SOL    HW125859   3.181   3.768  15.694 -2.8339 -0.2900  0.7904
 4799SOL    HW225860   3.191   3.641  15.619  0.1898 -0.6605  0.0764
 4800SOL     OW25861   1.411   4.243   5.126  0.3714  0.1346 -0.1205
 4800SOL    HW125862   1.437   4.218   5.215  1.2228  1.9055  0.1209
 4800SOL    HW225863   1.450   4.181   5.064 -0.7395 -1.7181  1.0257
 4801SOL     OW25864   1.803   4.157  15.439  0.6572  0.6644 -0.3137
 4801SOL    HW125865   1.746   4.087  15.471  4.1701 -0.9911  2.3190
 4801SOL    HW225866   1.830   4.198  15.521  1.3845 -1.3611  0.4667
 4802SOL     OW25867   0.823   1.158   2.886  0.1949  0.0256 -0.3344
 4802SOL    HW125868   0.809   1.246   2.921  0.2766 -1.1907  2.7949
 4802SOL    HW225869   0.761   1.102   2.933 -1.5314  4.0097  2.0800
 4803SOL     OW25870   1.243   1.824   3.356  0.5481  0.0416  0.2076
 4803SOL    HW125871   1.211   1.870   3.434  1.5558  3.2316 -1.2921
 4803SOL    HW225872   1.186   1.747   3.365  0.2680  0.3312  0.8949
 4804SOL     OW25873   1.437   1.777   5.837 -0.8230 -0.4153 -0.0113
 4804SOL    HW125874   1.363   1.717   5.849 -1.4584  0.0650 -1.4927
 4804SOL    HW225875   1.502   1.729   5.887  0.2490  0.6605 -0.3785
 4805SOL     OW25876   4.542   3.406   7.603  0.2148 -0.0458  0.1869
 4805SOL    HW125877   4.550   3.347   7.678 -1.4290  0.2312  0.5829
 4805SOL    HW225878   4.632   3.440   7.600  0.8186 -1.4982  2.1991
 4806SOL     OW25879   0.802   3.967   3.204  0.3449  0.0214  0.0271
 4806SOL    HW125880   0.844   3.906   3.143 -0.8442  1.4129 -2.2053
 4806SOL    HW225881   0.864   3.972   3.276  1.2805 -2.3350 -0.6382
 4807SOL     OW25882   1.788   1.437  11.530  0.0198 -0.5747  0.2192
 4807SOL    HW125883   1.774   1.429  11.624  1.6135 -4.4308  0.1276
 4807SOL    HW225884   1.830   1.355  11.504 -1.3277 -1.1966 -0.0372
 4808SOL     OW25885   0.183   0.295   4.904 -0.6683 -0.5746 -0.0294
 4808SOL    HW125886   0.278   0.300   4.897 -0.6817  0.5852  0.5014
 4808SOL    HW225887   0.154   0.367   4.960  1.0193 -0.3876  0.5804
 4809SOL     OW25888   0.966   1.713  14.428 -0.0255 -0.1202 -0.1143
 4809SOL    HW125889   0.969   1.640  14.366  1.7140 -0.0311 -0.1294
 4809SOL    HW225890   0.981   1.657  14.504  0.2004 -0.0628 -0.1159
 4810SOL     OW25891   2.834   0.230   6.644 -0.6273  0.0513 -0.2366
 4810SOL    HW125892   2.776   0.305   6.626  0.4148  1.2587  1.4420
 4810SOL    HW225893   2.906   0.258   6.587  0.4069 -0.9234  0.6035
 4811SOL     OW25894   2.215   2.908  11.339 -0.2774  0.2289  0.0403
 4811SOL    HW125895   2.295   2.885  11.387 -0.6584 -0.6210  0.2766
 4811SOL    HW225896   2.187   2.818  11.323  1.5806 -0.6847  1.9840
 4812SOL     OW25897   0.438   0.953   7.398  0.1654 -0.2651 -0.6127
 4812SOL    HW125898   0.474   0.979   7.313  0.2994 -0.6897 -0.6828
 4812SOL    HW225899   0.479   0.871   7.426 -0.5128 -0.3243  0.1782
 4813SOL     OW25900   2.014   3.997   6.546 -0.4101  0.2443 -0.4470
 4813SOL    HW125901   2.102   4.025   6.571 -0.0134 -0.0021 -1.6073
 4813SOL    HW225902   2.043   3.921   6.496  0.1848 -1.2215  2.1219
 4814SOL     OW25903   2.524   2.629   5.738 -0.4850  0.0361 -0.2128
 4814SOL    HW125904   2.541   2.700   5.800 -1.4337  1.8308 -2.0033
 4814SOL    HW225905   2.590   2.568   5.771  0.8768  1.0899 -1.0004
 4815SOL     OW25906   1.917   3.255   8.970 -0.2218 -0.2025 -0.5972
 4815SOL    HW125907   1.985   3.308   8.927 -0.3084  1.2283  1.0243
 4815SOL    HW225908   1.842   3.296   8.928 -0.3783 -1.2564 -1.3483
 4816SOL     OW25909   2.567   2.709  11.685  0.0467 -0.2013 -0.1020
 4816SOL    HW125910   2.518   2.754  11.754 -0.3052 -0.2532 -0.3172
 4816SOL    HW225911   2.507   2.655  11.634 -1.6609 -0.3515  2.0857
 4817SOL     OW25912   2.095   0.412  16.388 -0.2017 -0.6023 -0.1071
 4817SOL    HW125913   2.011   0.376  16.417 -1.0422  1.7210  0.3291
 4817SOL    HW225914   2.121   0.337  16.334 -0.9854  1.0827 -2.8284
 4818SOL     OW25915   1.983   1.049   3.850 -0.0523 -0.0862  0.3157
 4818SOL    HW125916   2.010   1.108   3.780 -1.4191 -0.1522 -0.2646
 4818SOL    HW225917   1.944   1.117   3.906  1.4803  0.7880  0.3295
 4819SOL     OW25918   2.408   1.749   5.929 -0.5953  0.4650 -0.3748
 4819SOL    HW125919   2.323   1.712   5.906 -0.7879  1.2146 -0.8596
 4819SOL    HW225920   2.393   1.745   6.024 -0.4423 -3.2346 -0.4863
 4820SOL     OW25921   3.409   4.673   4.846 -0.0935 -0.0613 -0.4197
 4820SOL    HW125922   3.490   4.640   4.808 -0.2619  0.4423 -1.2220
 4820SOL    HW225923   3.339   4.664   4.781 -1.1878  0.4931  0.6547
 4821SOL     OW25924   0.427   2.030   4.930 -0.0629 -0.2719 -0.1145
 4821SOL    HW125925   0.383   2.114   4.916  0.4840  0.5132  2.7312
 4821SOL    HW225926   0.378   2.002   5.007  2.3392  0.8944  1.8534
 4822SOL     OW25927   4.662   2.957  10.984 -0.1558 -1.0636 -0.7658
 4822SOL    HW125928   4.650   3.032  10.926 -0.6574 -0.2785  0.3672
 4822SOL    HW225929   4.611   2.982  11.060  0.0248 -2.0567 -0.3194
 4823SOL     OW25930   4.486   3.121   0.653  0.0993 -1.0546 -0.0000
 4823SOL    HW125931   4.433   3.041   0.657 -0.3746 -0.6561  1.9280
 4823SOL    HW225932   4.576   3.093   0.667  0.7341 -0.4954 -3.0426
 4824SOL     OW25933   0.143   2.515   3.287  0.2879 -0.2004  0.5371
 4824SOL    HW125934   0.146   2.546   3.378  0.5971  0.2430  0.3758
 4824SOL    HW225935   0.219   2.457   3.281 -0.5212 -1.1559 -0.3921
 4825SOL     OW25936   0.436   3.383   6.126  0.2770 -0.2106 -0.7852
 4825SOL    HW125937   0.346   3.350   6.117  0.2139 -0.8055  1.9630
 4825SOL    HW225938   0.449   3.379   6.221  1.4944 -1.8513 -1.0228
 4826SOL     OW25939   0.809   3.190   8.514 -0.3787 -0.3905  0.4449
 4826SOL    HW125940   0.806   3.119   8.450 -2.5340  1.1334 -1.1845
 4826SOL    HW225941   0.713   3.199   8.519 -0.5840 -1.3822 -1.8857
 4827SOL     OW25942   2.457   0.566   4.712 -0.5904 -0.1780 -0.4280
 4827SOL    HW125943   2.402   0.500   4.755 -1.2734 -0.1486 -1.2627
 4827SOL    HW225944   2.514   0.591   4.784  1.7698 -0.9078 -2.0369
 4828SOL     OW25945   2.068   0.338   2.281  0.2235 -0.5116 -0.5137
 4828SOL    HW125946   2.004   0.365   2.347  0.1886 -0.4416 -0.5750
 4828SOL    HW225947   2.040   0.401   2.215 -3.5996 -2.4248 -0.7279
 4829SOL     OW25948   3.984   2.298  11.687 -0.4291  0.2671  0.0555
 4829SOL    HW125949   3.993   2.251  11.604 -2.4823  0.2763 -0.1825
 4829SOL    HW225950   3.890   2.291  11.705 -0.1940 -1.0096  0.7967
 4830SOL     OW25951   4.265   4.428  10.785 -0.0834  0.0146 -0.2374
 4830SOL    HW125952   4.241   4.498  10.845 -1.6732 -1.6605  1.0630
 4830SOL    HW225953   4.361   4.435  10.787 -0.2099  1.8421 -0.5843
 4831SOL     OW25954   1.964   0.584   9.253  0.5956  0.0665  0.4674
 4831SOL    HW125955   1.975   0.544   9.339 -0.2186 -1.5559 -0.1918
 4831SOL    HW225956   2.025   0.540   9.194 -0.3521 -0.8957  0.1890
 4832SOL     OW25957   3.070   1.663   3.857 -0.6334 -0.7132  0.1976
 4832SOL    HW125958   3.096   1.676   3.948 -0.2190  2.5010 -0.3551
 4832SOL    HW225959   3.053   1.569   3.859  0.2947 -0.8738  0.7984
 4833SOL     OW25960   3.128   1.767   2.605 -0.2981  0.1044  0.5008
 4833SOL    HW125961   3.044   1.774   2.651 -0.7927  1.2189 -0.5793
 4833SOL    HW225962   3.152   1.678   2.631  1.3674  1.1118  2.4690
 4834SOL     OW25963   0.498   0.734   5.544  0.2946  0.0084  0.3068
 4834SOL    HW125964   0.562   0.665   5.565 -0.7298 -0.6422  1.2857
 4834SOL    HW225965   0.560   0.807   5.544  1.7666 -1.2405 -0.9562
 4835SOL     OW25966   1.035   2.173   5.610 -0.0185 -0.4313 -0.5077
 4835SOL    HW125967   0.941   2.182   5.595 -0.2305  0.7510  1.4518
 4835SOL    HW225968   1.049   2.083   5.640 -0.0365 -0.0324  0.7162
 4836SOL     OW25969   0.726   0.690   0.254 -0.0700 -0.6472  0.5524
 4836SOL    HW125970   0.799   0.629   0.265  0.4487 -0.3273 -1.1958
 4836SOL    HW225971   0.681   0.677   0.338  1.8145 -0.3537  1.6129
 4837SOL     OW25972   4.572   1.037   5.541  0.2224  0.3659 -0.1594
 4837SOL    HW125973   4.572   1.018   5.447  3.1896 -0.3626 -0.0119
 4837SOL    HW225974   4.594   1.130   5.535 -0.9525  0.7311  1.2365
 4838SOL     OW25975   3.830   4.661   3.407 -0.0031  0.3875  0.0246
 4838SOL    HW125976   3.846   4.650   3.314 -1.2175  2.3025 -0.4179
 4838SOL    HW225977   3.889   4.606   3.459 -0.3508  0.0242  0.0329
 4839SOL     OW25978   3.036   4.362  12.570 -0.8809 -0.7101  0.4136
 4839SOL    HW125979   3.043   4.437  12.512  1.0175 -1.9189 -0.9015
 4839SOL    HW225980   2.942   4.368  12.587 -1.1678  0.0235 -1.4189
 4840SOL     OW25981   1.525   2.835  17.096 -0.1587  0.0675 -0.9181
 4840SOL    HW125982   1.531   2.931  17.103  1.6569 -0.0831 -0.3595
 4840SOL    HW225983   1.444   2.821  17.143 -0.5497  2.9034 -0.7264
 4841SOL     OW25984   3.362   2.848   4.495  0.3168 -0.0074  0.4175
 4841SOL    HW125985   3.436   2.852   4.435 -1.9984  1.2772 -2.3385
 4841SOL    HW225986   3.308   2.922   4.470  0.7060  0.3102  0.5143
 4842SOL     OW25987   1.707   3.361   5.523 -0.5663  0.6467  0.1610
 4842SOL    HW125988   1.695   3.338   5.430 -0.2445  0.8560  0.0666
 4842SOL    HW225989   1.671   3.282   5.561 -3.2488  1.6382 -0.3213
 4843SOL     OW25990   1.555   1.779  15.320  0.1705 -0.6871 -0.5927
 4843SOL    HW125991   1.600   1.717  15.376 -0.1709 -0.3104  0.1050
 4843SOL    HW225992   1.608   1.786  15.241  1.1615 -0.4403  0.1041
 4844SOL     OW25993   3.133   4.072   9.389  0.1968  0.7205 -0.0432
 4844SOL    HW125994   3.167   4.034   9.470  1.5515 -1.0471 -1.4436
 4844SOL    HW225995   3.211   4.067   9.333 -0.2127 -1.5483 -0.4089
 4845SOL     OW25996   2.200   2.503   8.254 -0.0149  0.3254  0.0981
 4845SOL    HW125997   2.208   2.507   8.159  0.9437  0.7649  0.2038
 4845SOL    HW225998   2.288   2.483   8.284  0.6043 -0.5524 -2.3404
 4846SOL     OW25999   1.255   2.898   9.701  0.0697 -0.7741 -0.5405
 4846SOL    HW126000   1.314   2.846   9.647 -2.2064 -1.7667 -2.0497
 4846SOL    HW226001   1.208   2.936   9.627 -2.1780  1.0502  1.8138
 4847SOL     OW26002   0.566   3.318   4.004  0.3075  0.5554 -0.2708
 4847SOL    HW126003   0.650   3.286   3.971  0.2877 -0.4042  0.6500
 4847SOL    HW226004   0.570   3.405   3.964 -0.0291  0.6912 -0.0023
 4848SOL     OW26005   3.471   2.809  13.238 -0.4506 -0.2950  0.2156
 4848SOL    HW126006   3.466   2.738  13.303  0.3051  0.0433  0.6483
 4848SOL    HW226007   3.532   2.775  13.172 -0.8896 -0.7672  0.0549
 4849SOL     OW26008   0.701   1.578   8.757  0.0942  0.4402  0.2519
 4849SOL    HW126009   0.666   1.523   8.827  2.7598 -0.4839  0.8537
 4849SOL    HW226010   0.686   1.527   8.678  1.1866  0.9823 -0.3141
 4850SOL     OW26011   4.113   2.641   2.029 -0.2588 -0.5589 -0.4090
 4850SOL    HW126012   4.158   2.698   2.091 -1.1311 -0.1435 -0.1549
 4850SOL    HW226013   4.186   2.580   2.022 -0.4881 -0.8211 -0.5319
 4851SOL     OW26014   4.540   0.621   4.863 -0.1284 -0.2737  0.0610
 4851SOL    HW126015   4.635   0.630   4.867  0.0011 -1.5870 -0.0458
 4851SOL    HW226016   4.501   0.704   4.892  0.6845  0.1313 -0.0220
 4852SOL     OW26017   2.283   0.048  11.545 -0.5111 -0.0955 -0.1405
 4852SOL    HW126018   2.310   0.033  11.454  2.4447  1.0559  0.5222
 4852SOL    HW226019   2.350   0.005  11.598  0.7128  1.7708 -0.1558
 4853SOL     OW26020   0.461   2.960   3.135  0.6855  0.1108 -0.1116
 4853SOL    HW126021   0.481   2.968   3.229 -0.6067 -1.4011  0.3000
 4853SOL    HW226022   0.464   3.050   3.102  0.5241 -0.2998 -1.2343
 4854SOL     OW26023   1.460   0.333   8.994 -0.3343  0.0187  0.2579
 4854SOL    HW126024   1.434   0.416   8.953  2.2406  1.3051  1.2091
 4854SOL    HW226025   1.526   0.365   9.055 -2.5363  1.0962  2.0511
 4855SOL     OW26026   2.769   2.285   3.026 -0.4668 -0.8160 -0.8991
 4855SOL    HW126027   2.695   2.248   3.073 -0.7994 -0.1435 -0.8904
 4855SOL    HW226028   2.772   2.373   3.063  0.4683 -0.4761 -1.7600
 4856SOL     OW26029   2.527   0.263   5.247 -0.4086  0.5007  0.1372
 4856SOL    HW126030   2.554   0.171   5.242 -1.5433  0.1300  0.8378
 4856SOL    HW226031   2.570   0.287   5.329 -1.3029 -0.2562  0.8208
 4857SOL     OW26032   1.668   2.824   9.189 -0.0020 -0.0610 -0.0217
 4857SOL    HW126033   1.704   2.777   9.114 -1.9387  0.9037 -1.5715
 4857SOL    HW226034   1.694   2.783   9.271 -0.6901  2.3673  1.4301
 4858SOL     OW26035   2.580   4.037  17.449  0.4154  0.3431 -0.1802
 4858SOL    HW126036   2.495   3.991  17.452  0.4816  0.3026  0.9243
 4858SOL    HW226037   2.576   4.079  17.534  1.8103  0.7839 -0.3455
 4859SOL     OW26038   1.104   4.024   6.419  0.3247  0.6574 -0.3282
 4859SOL    HW126039   1.029   4.083   6.413 -0.3279 -0.0912  0.3776
 4859SOL    HW226040   1.180   4.082   6.418 -0.5464  1.7939 -0.3797
 4860SOL     OW26041   3.808   1.319   4.967 -0.0784  0.2863 -0.0782
 4860SOL    HW126042   3.725   1.356   4.996  0.7086  2.3098 -0.4109
 4860SOL    HW226043   3.806   1.229   5.000 -0.4727  0.9612  1.7223
 4861SOL     OW26044   1.680   0.512   1.802  0.3473 -0.6153 -0.3255
 4861SOL    HW126045   1.615   0.560   1.751 -0.3279 -1.0770  0.0967
 4861SOL    HW226046   1.635   0.498   1.886  0.7356 -2.2826 -0.3874
 4862SOL     OW26047   2.622   3.044   3.557 -0.2277  0.2661  0.2012
 4862SOL    HW126048   2.600   3.119   3.501  0.6315  0.7962  0.5744
 4862SOL    HW226049   2.565   2.979   3.517 -0.1539 -0.6559  1.6158
 4863SOL     OW26050   3.792   2.606   2.796  0.3831  0.0795 -0.6428
 4863SOL    HW126051   3.769   2.683   2.744  2.1704  0.5849 -0.7126
 4863SOL    HW226052   3.723   2.593   2.862  0.2927 -0.7259 -0.8957
 4864SOL     OW26053   1.224   4.093   9.674 -0.1751 -0.7751  0.0027
 4864SOL    HW126054   1.169   4.122   9.602 -1.6464  0.3193  1.5557
 4864SOL    HW226055   1.228   4.005   9.639  0.9756 -0.7126 -0.0460
 4865SOL     OW26056   0.626   0.144   2.268 -0.2399  0.0047  0.2088
 4865SOL    HW126057   0.568   0.092   2.323 -0.8010 -0.5023 -0.8701
 4865SOL    HW226058   0.708   0.095   2.269  2.0694  3.8839  1.2002
 4866SOL     OW26059   1.219   3.182   8.023 -0.4707 -0.3337 -0.0975
 4866SOL    HW126060   1.182   3.266   7.996  0.6530  0.6189  1.3271
 4866SOL    HW226061   1.304   3.211   8.055 -0.5178 -0.5672  0.2389
 4867SOL     OW26062   3.786   3.982   5.331 -0.2389 -0.6579  0.3430
 4867SOL    HW126063   3.728   3.927   5.278 -0.6270  1.9374 -1.9404
 4867SOL    HW226064   3.767   4.069   5.297 -3.6925 -0.9286  1.6178
 4868SOL     OW26065   0.896   3.035   9.319 -0.3171 -0.6367  0.4154
 4868SOL    HW126066   0.844   3.008   9.244 -0.0900 -0.1287  0.0743
 4868SOL    HW226067   0.957   3.094   9.274 -0.2815 -0.3632  0.8189
 4869SOL     OW26068   1.916   2.325   5.834 -0.1544  0.4138 -0.8407
 4869SOL    HW126069   1.884   2.292   5.750  1.3662 -2.3671 -0.3480
 4869SOL    HW226070   2.006   2.353   5.818  0.1646  1.5691  2.9619
 4870SOL     OW26071   1.550   4.078   6.996  0.3314 -0.5881 -0.2300
 4870SOL    HW126072   1.612   4.030   6.940  1.0720 -1.1313  1.0466
 4870SOL    HW226073   1.591   4.164   7.008 -0.7541 -0.4251  2.3249
 4871SOL     OW26074   4.430   0.999   6.586  0.1851 -0.0729  0.2106
 4871SOL    HW126075   4.455   0.976   6.676  1.0921  1.1220  0.2597
 4871SOL    HW226076   4.482   1.078   6.574  1.8013 -0.5157  4.2894
 4872SOL     OW26077   2.081   0.084   5.983 -0.1429 -0.1812  0.2321
 4872SOL    HW126078   2.152   0.077   6.047 -1.8348  0.4548  2.1741
 4872SOL    HW226079   2.125   0.052   5.904 -0.0732  2.7196 -0.9030
 4873SOL     OW26080   1.375   1.484   6.936  0.2443  0.5262  0.1193
 4873SOL    HW126081   1.449   1.529   6.976  1.6098 -2.1266  0.5957
 4873SOL    HW226082   1.416   1.399   6.919 -0.4184  0.1498  0.4231
 4874SOL     OW26083   1.982   2.053   5.035  0.0822  0.1923 -0.2164
 4874SOL    HW126084   2.041   2.112   4.988  1.3767 -0.7972  0.1687
 4874SOL    HW226085   1.897   2.096   5.029  0.1407  0.1695 -1.2192
 4875SOL     OW26086   0.819   3.316  17.067  0.2799  0.0360  0.8950
 4875SOL    HW126087   0.740   3.297  17.016  1.4952 -1.7278 -0.3329
 4875SOL    HW226088   0.782   3.391  17.114 -3.1001 -1.6042  0.8865
 4876SOL     OW26089   3.984   1.361   7.893 -0.0255 -0.4635 -0.2831
 4876SOL    HW126090   4.033   1.367   7.975 -0.0972  0.2465 -0.2858
 4876SOL    HW226091   4.004   1.272   7.864  0.8415 -0.1482 -0.6576
 4877SOL     OW26092   0.456   1.070   4.865  0.3455 -0.2407  0.2447
 4877SOL    HW126093   0.517   1.125   4.915 -1.2269 -0.0827  1.9879
 4877SOL    HW226094   0.479   0.985   4.902  0.1026 -1.2593 -1.9634
 4878SOL     OW26095   0.775   2.751   7.550 -0.7243 -0.6829  0.1998
 4878SOL    HW126096   0.741   2.695   7.480  1.9829 -1.9299 -0.1276
 4878SOL    HW226097   0.851   2.782   7.501  0.2416  0.0551  2.1507
 4879SOL     OW26098   4.013   2.179  11.438  0.4242  0.1565 -0.4612
 4879SOL    HW126099   4.060   2.132  11.369  2.3722  0.3139  0.7715
 4879SOL    HW226100   3.923   2.151  11.421  0.6822 -0.2414 -1.1680
 4880SOL     OW26101   0.606   0.389   7.143  0.2109 -0.0609 -0.4766
 4880SOL    HW126102   0.630   0.442   7.219 -0.3768  0.1302 -0.4234
 4880SOL    HW226103   0.629   0.302   7.175  2.7931  0.8278  0.1028
 4881SOL     OW26104   2.403   4.278   0.791 -0.0337 -0.1376 -0.1091
 4881SOL    HW126105   2.495   4.274   0.766 -0.7513 -0.4348 -2.6299
 4881SOL    HW226106   2.372   4.193   0.759  2.1130 -0.6260 -0.8666
 4882SOL     OW26107   2.841   2.245   5.969  0.2148  0.5241  0.6128
 4882SOL    HW126108   2.894   2.166   5.976  1.5868  1.2184 -2.0995
 4882SOL    HW226109   2.756   2.208   5.944  0.5549 -0.5820  1.0912
 4883SOL     OW26110   3.394   3.403   3.200  0.7273 -0.1320  0.1821
 4883SOL    HW126111   3.423   3.363   3.281  3.6383 -0.1078 -0.8545
 4883SOL    HW226112   3.473   3.451   3.174  2.2466 -1.3325  2.5613
 4884SOL     OW26113   0.496   2.026   2.817 -0.4395 -0.0005 -0.1273
 4884SOL    HW126114   0.536   1.989   2.895 -1.5077 -0.0342  0.4036
 4884SOL    HW226115   0.576   2.034   2.764  1.1306 -0.0164  2.2344
 4885SOL     OW26116   2.515   1.500   1.473  0.5281  0.0549 -0.4307
 4885SOL    HW126117   2.512   1.524   1.566  1.0537  1.6072 -0.8194
 4885SOL    HW226118   2.610   1.505   1.461  0.2576  1.1411 -2.0954
 4886SOL     OW26119   0.310   1.116   9.748 -0.7027  0.2595 -0.4321
 4886SOL    HW126120   0.289   1.023   9.743  1.1563 -0.2067  0.3639
 4886SOL    HW226121   0.304   1.125   9.843 -2.1652 -1.0389 -0.3931
 4887SOL     OW26122   0.781   1.009  12.529 -0.0517 -0.0557 -0.2975
 4887SOL    HW126123   0.871   1.005  12.560 -0.2240 -0.4545  0.1520
 4887SOL    HW226124   0.802   1.016  12.436 -4.2918 -0.4703 -1.2909
 4888SOL     OW26125   3.951   0.222  10.508  0.4154 -0.2248  0.1103
 4888SOL    HW126126   3.894   0.279  10.456  0.8453  0.1544  0.0583
 4888SOL    HW226127   3.978   0.287  10.573  0.9041  0.0228 -0.3370
 4889SOL     OW26128   2.913   2.990  14.185 -0.2973 -0.7550 -0.0092
 4889SOL    HW126129   2.864   3.066  14.154  0.2156 -0.1135  0.7634
 4889SOL    HW226130   2.903   2.922  14.118  0.1720 -0.6098 -0.2272
 4890SOL     OW26131   2.989   2.706   9.675  0.0444  0.1732  0.1310
 4890SOL    HW126132   3.084   2.691   9.679  0.2452  1.6280  0.8899
 4890SOL    HW226133   2.994   2.800   9.692 -0.4055  0.3603 -0.7444
 4891SOL     OW26134   2.954   3.500  10.302 -0.0996  0.5786  0.0466
 4891SOL    HW126135   3.001   3.581  10.324  0.5296 -0.3658  2.2107
 4891SOL    HW226136   3.012   3.470  10.232 -1.9450 -2.8269  0.0346
 4892SOL     OW26137   1.934   0.033   8.097 -0.1728 -0.2212  0.2507
 4892SOL    HW126138   1.985   4.672   8.117  0.1367  0.5004  2.1986
 4892SOL    HW226139   2.002   0.100   8.098 -2.8195  2.4931 -0.1480
 4893SOL     OW26140   2.750   4.671  14.625  0.4168  0.1527  0.0067
 4893SOL    HW126141   2.689   4.671  14.699  0.8091  0.0449  0.3276
 4893SOL    HW226142   2.741   0.036  14.578  2.3844 -0.1687 -0.9244
 4894SOL     OW26143   0.203   0.546   5.508  0.5510  0.3011  0.2182
 4894SOL    HW126144   0.250   0.472   5.471 -0.9663  0.1077 -1.3336
 4894SOL    HW226145   0.245   0.618   5.462  0.8741  0.3848  0.6438
 4895SOL     OW26146   0.058   2.035   9.487 -0.4457 -0.3919  0.2655
 4895SOL    HW126147   4.680   2.041   9.490 -0.4715 -1.3878  1.4916
 4895SOL    HW226148   0.072   1.941   9.487  0.8389 -0.2032 -1.0852
 4896SOL     OW26149   1.120   1.753   4.838  1.0842 -0.0663  0.2092
 4896SOL    HW126150   1.080   1.699   4.771  1.4214  1.1195 -0.9401
 4896SOL    HW226151   1.177   1.809   4.785  0.1192 -0.7947 -1.5661
 4897SOL     OW26152   2.890   3.835  10.823 -0.0572 -0.6683 -0.1519
 4897SOL    HW126153   2.844   3.753  10.805  0.1242 -0.5268 -1.2834
 4897SOL    HW226154   2.881   3.872  10.735  2.7141  2.3500  0.8169
 4898SOL     OW26155   0.185   2.043  14.529  0.3549  0.0653 -0.1656
 4898SOL    HW126156   0.242   2.116  14.552  0.2813  0.6258 -1.7984
 4898SOL    HW226157   0.111   2.065  14.586  0.9935 -0.9271  1.0442
 4899SOL     OW26158   0.014   4.188   6.323 -0.4859 -0.2856  0.7223
 4899SOL    HW126159   4.693   4.216   6.406 -0.4385  1.5373  0.1134
 4899SOL    HW226160   4.662   4.211   6.261 -2.1316 -2.0193  1.9226
 4900SOL     OW26161   4.663   3.765   5.531  0.1644 -0.0208 -0.1543
 4900SOL    HW126162   4.686   3.843   5.481  0.0448 -0.8494 -1.5106
 4900SOL    HW226163   4.628   3.815   5.605  0.3462 -1.1212  0.6759
 4901SOL     OW26164   0.708   1.683   7.609 -0.6814 -0.2895 -0.0205
 4901SOL    HW126165   0.789   1.723   7.578  0.9627 -3.0052  0.7922
 4901SOL    HW226166   0.647   1.728   7.549  0.9919  2.1676  0.1262
 4902SOL     OW26167   0.588   4.169   3.511 -0.3980 -0.2692 -0.4144
 4902SOL    HW126168   0.595   4.153   3.417 -0.4261  1.6299 -0.7364
 4902SOL    HW226169   0.617   4.260   3.516 -0.6782 -0.1625 -0.7046
 4903SOL     OW26170   0.508   1.502   6.612  0.1710 -0.3510 -0.4844
 4903SOL    HW126171   0.485   1.443   6.684 -2.5360  1.5458  0.1890
 4903SOL    HW226172   0.590   1.468   6.577  1.7792  1.5335  1.4866
 4904SOL     OW26173   1.558   1.547  13.728 -0.2618 -0.0805  0.7372
 4904SOL    HW126174   1.622   1.579  13.791  0.3397 -0.7885  0.4820
 4904SOL    HW226175   1.469   1.569  13.758  0.2384  1.3826  1.1418
 4905SOL     OW26176   3.861   4.161   2.581 -0.7765 -0.1480 -0.0530
 4905SOL    HW126177   3.815   4.181   2.500 -1.7024 -1.5529  0.1372
 4905SOL    HW226178   3.875   4.069   2.561  0.4249 -0.2642  1.2788
 4906SOL     OW26179   0.678   4.336   4.575  0.3218 -0.3730  0.0591
 4906SOL    HW126180   0.751   4.339   4.513  0.3367  3.0233  0.2161
 4906SOL    HW226181   0.725   4.331   4.659  1.2626 -0.4757 -0.4801
 4907SOL     OW26182   2.800   3.761  15.167 -0.0960  0.3408  0.5496
 4907SOL    HW126183   2.855   3.818  15.113 -1.4389 -0.3270 -1.5326
 4907SOL    HW226184   2.857   3.691  15.198  2.9676  2.4864 -0.1664
 4908SOL     OW26185   3.003   0.432   2.160 -0.2155 -0.3576 -0.0984
 4908SOL    HW126186   2.973   0.356   2.111  0.6377 -0.5468 -0.3199
 4908SOL    HW226187   2.965   0.505   2.111 -0.1223  0.0763  0.4636
 4909SOL     OW26188   4.167   0.547   4.574  0.3332 -0.2439 -0.2567
 4909SOL    HW126189   4.204   0.624   4.532  2.1558 -1.9266 -1.6940
 4909SOL    HW226190   4.129   0.501   4.499  1.9881 -1.2413 -0.4834
 4910SOL     OW26191   1.286   2.220   5.395 -0.4990 -0.5771 -0.0790
 4910SOL    HW126192   1.235   2.274   5.334  0.1778  1.6050  1.2717
 4910SOL    HW226193   1.241   2.137   5.385 -0.6132 -0.6690  1.1442
 4911SOL     OW26194   1.986   1.126   5.924  0.3824 -0.1588 -0.0589
 4911SOL    HW126195   2.040   1.121   6.003  0.8859 -0.1731 -0.4030
 4911SOL    HW226196   1.902   1.086   5.942  0.1412  0.7120  0.7567
 4912SOL     OW26197   1.594   1.497   4.573  0.0274  0.2195  0.6253
 4912SOL    HW126198   1.675   1.547   4.568 -0.7169  1.0403 -3.3202
 4912SOL    HW226199   1.619   1.412   4.536 -0.9430  0.2675 -0.1717
 4913SOL     OW26200   1.212   0.622   0.340 -0.3720 -0.7833 -0.3286
 4913SOL    HW126201   1.233   0.674   0.417  3.3545  0.3336 -2.1171
 4913SOL    HW226202   1.237   0.683   0.271 -0.0703 -1.7125 -1.0345
 4914SOL     OW26203   1.824   3.188  15.031  0.6714 -0.3130  0.0205
 4914SOL    HW126204   1.774   3.220  14.956  2.8245  0.2261 -1.1674
 4914SOL    HW226205   1.799   3.256  15.094  0.9847  0.2836 -0.5057
 4915SOL     OW26206   3.703   4.016   7.488  0.7050  0.3688 -0.5155
 4915SOL    HW126207   3.748   3.933   7.474  0.0009  0.2836 -2.1618
 4915SOL    HW226208   3.626   3.994   7.541  0.6784  1.6626 -0.0257
 4916SOL     OW26209   0.653   0.959   2.734  0.9034  0.0587  0.3512
 4916SOL    HW126210   0.671   0.943   2.641 -0.0797 -1.7977  0.4881
 4916SOL    HW226211   0.728   1.013   2.759  0.5880  0.7076 -0.1002
 4917SOL     OW26212   3.443   1.047   4.610 -0.2376 -0.7127  0.1176
 4917SOL    HW126213   3.443   1.000   4.527 -2.0930 -1.1499  0.3488
 4917SOL    HW226214   3.348   1.053   4.620 -0.4289 -0.2297 -2.1163
 4918SOL     OW26215   0.059   0.842   8.517 -0.1558 -0.0621 -0.2321
 4918SOL    HW126216   4.689   0.805   8.506 -0.3995  1.0813 -2.2219
 4918SOL    HW226217   0.043   0.934   8.537  4.9275  0.5352  0.8239
 4919SOL     OW26218   4.483   1.235   3.495  0.6578  0.9385 -0.2300
 4919SOL    HW126219   4.414   1.300   3.484 -0.1281 -0.1769 -1.8728
 4919SOL    HW226220   4.498   1.235   3.590 -1.9263  0.8275  0.1855
 4920SOL     OW26221   2.603   1.180   5.851 -0.3053 -0.3545 -0.3001
 4920SOL    HW126222   2.627   1.121   5.780  0.9210  1.2789 -1.2534
 4920SOL    HW226223   2.510   1.163   5.864 -0.0469 -1.1968  0.4962
 4921SOL     OW26224   4.551   1.982  15.986  0.3489  0.1338  0.1025
 4921SOL    HW126225   4.481   2.036  16.022  1.2515  0.1372  1.8567
 4921SOL    HW226226   4.627   2.025  16.025  0.8176  0.1226 -0.7883
 4922SOL     OW26227   4.128   2.643   0.333 -0.5586 -0.3957 -0.6208
 4922SOL    HW126228   4.067   2.715   0.322 -0.4420  0.2856  2.9508
 4922SOL    HW226229   4.089   2.590   0.403  1.7112 -1.4557 -0.1353
 4923SOL     OW26230   4.223   2.410   6.277 -0.1937 -0.0253  0.1966
 4923SOL    HW126231   4.303   2.459   6.259  0.0917 -0.8739 -0.8190
 4923SOL    HW226232   4.184   2.462   6.347 -1.2581 -2.8638  1.7291
 4924SOL     OW26233   2.162   2.425   8.597  0.6263 -0.1760 -0.5745
 4924SOL    HW126234   2.170   2.471   8.514 -1.5705 -0.2199 -0.8095
 4924SOL    HW226235   2.089   2.370   8.570 -0.0554  1.6612 -2.3979
 4925SOL     OW26236   2.376   1.506   5.600  0.6093  0.4788  0.2555
 4925SOL    HW126237   2.316   1.580   5.597  1.3002  1.1414  2.1403
 4925SOL    HW226238   2.459   1.552   5.618  2.8006 -2.6701 -1.9744
 4926SOL     OW26239   3.911   2.201   7.024 -0.5466 -0.4804  0.0276
 4926SOL    HW126240   3.908   2.260   6.948  1.1690 -2.5809 -1.6618
 4926SOL    HW226241   3.844   2.239   7.082 -0.5978 -0.4222 -0.0693
 4927SOL     OW26242   1.385   1.300   2.649  0.4630 -0.4165 -0.6574
 4927SOL    HW126243   1.478   1.318   2.642  0.6328 -1.4398 -1.0493
 4927SOL    HW226244   1.395   1.204   2.651  1.2652 -0.3344 -0.7838
 4928SOL     OW26245   1.837   3.224   6.349  0.6122 -0.7315 -0.1458
 4928SOL    HW126246   1.762   3.186   6.395 -0.3862  1.1863 -0.2116
 4928SOL    HW226247   1.818   3.190   6.262  1.3196 -1.2538 -0.0995
 4929SOL     OW26248   3.581   1.400   6.460  0.2537  0.1560 -0.1728
 4929SOL    HW126249   3.652   1.348   6.498  0.4879 -0.3137 -1.2557
 4929SOL    HW226250   3.502   1.353   6.488  1.2588 -1.4180  0.0504
 4930SOL     OW26251   2.792   0.027  12.966 -0.2467  0.6466  0.2470
 4930SOL    HW126252   2.828   4.668  13.010 -0.4628 -0.0728 -0.8485
 4930SOL    HW226253   2.698   0.014  12.976  0.4049 -4.5481 -0.5628
 4931SOL     OW26254   2.404   1.148   5.023  0.1533 -0.1122  0.6769
 4931SOL    HW126255   2.380   1.222   4.967  0.9754 -0.3327  0.0354
 4931SOL    HW226256   2.324   1.145   5.075 -0.8933 -1.1676 -0.9998
 4932SOL     OW26257   0.951   2.793   6.658 -0.0345 -0.1022  0.7764
 4932SOL    HW126258   0.955   2.798   6.754  0.7606  0.4614  0.7201
 4932SOL    HW226259   0.948   2.887   6.639 -2.5445 -0.6464 -1.5235
 4933SOL     OW26260   3.663   0.976   7.502  0.3114  0.0523  0.4594
 4933SOL    HW126261   3.615   0.927   7.569  0.3598 -0.3909  0.1655
 4933SOL    HW226262   3.753   0.970   7.536  0.3112  0.8522  0.6069
 4934SOL     OW26263   3.976   0.995   1.247 -0.3222 -0.2090 -0.1033
 4934SOL    HW126264   4.064   1.023   1.271 -0.2108 -1.0866  0.5420
 4934SOL    HW226265   3.933   1.079   1.259 -2.1498 -0.9599 -1.3953
 4935SOL     OW26266   4.682   0.748   6.889 -0.0511 -0.1016 -0.2732
 4935SOL    HW126267   0.051   0.735   6.849  0.4477 -0.3689  0.8762
 4935SOL    HW226268   4.654   0.833   6.854  1.7688  0.3832 -0.5562
 4936SOL     OW26269   2.779   1.217   7.636 -0.8506  0.3766  0.0468
 4936SOL    HW126270   2.785   1.282   7.567 -0.6437 -0.4192 -0.6810
 4936SOL    HW226271   2.844   1.152   7.608  0.7966  0.0508  4.6030
 4937SOL     OW26272   4.569   3.445  10.353 -0.4123  0.5600  0.3762
 4937SOL    HW126273   4.556   3.361  10.309 -0.1938  0.8006 -0.1480
 4937SOL    HW226274   4.634   3.485  10.296 -0.4490 -1.8728 -1.3760
 4938SOL     OW26275   3.153   0.961   5.664  0.1333 -0.1779 -0.1245
 4938SOL    HW126276   3.209   0.925   5.732  0.5164  0.3974 -0.1420
 4938SOL    HW226277   3.091   0.889   5.646 -2.2149  1.9488 -0.5199
 4939SOL     OW26278   3.972   1.488   3.951 -0.4990  0.2650  0.5524
 4939SOL    HW126279   3.975   1.551   3.880 -2.0043 -1.4769 -1.0623
 4939SOL    HW226280   3.944   1.406   3.911 -0.0290  0.3656  0.0275
 4940SOL     OW26281   3.257   3.917   8.098 -0.3048 -0.3903  0.0073
 4940SOL    HW126282   3.235   3.949   8.186 -1.0613 -0.8111 -0.0241
 4940SOL    HW226283   3.169   3.927   8.062 -0.2390  1.5565  0.4157
 4941SOL     OW26284   4.595   1.759  13.303 -0.0143 -0.2456  0.0758
 4941SOL    HW126285   4.648   1.811  13.242  0.3374 -3.6798 -2.5498
 4941SOL    HW226286   4.662   1.694  13.323  1.2033  1.2862  1.0314
 4942SOL     OW26287   2.852   4.235   5.505  0.3498 -0.5547  0.0276
 4942SOL    HW126288   2.914   4.304   5.528 -0.4880 -0.1006  0.9295
 4942SOL    HW226289   2.901   4.155   5.487  1.8693 -0.3999  3.4715
 4943SOL     OW26290   2.260   1.810  14.631  0.3233 -0.4154  0.0597
 4943SOL    HW126291   2.326   1.870  14.596  2.5180 -1.7652  1.8384
 4943SOL    HW226292   2.208   1.800  14.551  0.2527 -0.7909  0.1510
 4944SOL     OW26293   0.916   0.501   7.868  0.3343  0.2810  0.6117
 4944SOL    HW126294   0.851   0.571   7.877  1.7544  1.5562  0.8499
 4944SOL    HW226295   0.912   0.488   7.773 -0.1640  1.9590  0.3978
 4945SOL     OW26296   4.678   1.543   9.807 -0.3653  0.3251  0.1490
 4945SOL    HW126297   4.613   1.535   9.877 -0.1079  0.1577  0.3673
 4945SOL    HW226298   4.636   1.613   9.756 -1.1871 -0.9414 -0.9053
 4946SOL     OW26299   0.204   1.487  14.587 -0.2630  0.0932 -0.6081
 4946SOL    HW126300   0.276   1.432  14.556 -1.0574 -1.5723  0.4797
 4946SOL    HW226301   0.221   1.574  14.551  0.9268  0.4092  0.6999
 4947SOL     OW26302   4.443   3.913   8.716 -0.2087 -0.1170 -0.2602
 4947SOL    HW126303   4.475   3.824   8.729 -0.7798  0.0134  1.9320
 4947SOL    HW226304   4.503   3.956   8.777  0.8972 -0.4834 -1.0735
 4948SOL     OW26305   1.997   3.633   8.412  0.3531 -0.1524 -0.0357
 4948SOL    HW126306   1.939   3.648   8.338  0.1744  1.4004  0.4015
 4948SOL    HW226307   2.083   3.650   8.374  0.5808 -3.1084 -0.7983
 4949SOL     OW26308   1.682   1.753   2.846  0.0007  0.1951 -0.1965
 4949SOL    HW126309   1.667   1.670   2.891 -1.2774  1.3624  1.4996
 4949SOL    HW226310   1.594   1.788   2.844 -0.9333 -2.2293 -1.7889
 4950SOL     OW26311   2.786   4.384   7.860 -0.1414 -0.7573 -0.7759
 4950SOL    HW126312   2.701   4.347   7.836 -1.4493  2.8962 -1.8030
 4950SOL    HW226313   2.847   4.317   7.830  0.4468 -1.8809  2.9670
 4951SOL     OW26314   0.130   1.833   3.312 -0.3577  0.2207  0.2520
 4951SOL    HW126315   0.163   1.921   3.326  0.0384  0.3358 -1.4388
 4951SOL    HW226316   0.201   1.806   3.254 -1.6483 -0.1762 -1.1261
 4952SOL     OW26317   0.900   4.368  14.481  0.0581 -0.3257 -0.1923
 4952SOL    HW126318   0.870   4.280  14.456  1.7158 -0.6510 -1.0025
 4952SOL    HW226319   0.822   4.385  14.533 -2.3318  1.2909 -4.2889
 4953SOL     OW26320   2.559   1.705  13.145  0.3991 -0.2380 -0.4172
 4953SOL    HW126321   2.485   1.651  13.172 -0.2389 -1.7872 -5.3960
 4953SOL    HW226322   2.613   1.698  13.224  0.0539  2.3962  0.0402
 4954SOL     OW26323   4.263   3.686  15.067  0.2386 -0.3620  0.9489
 4954SOL    HW126324   4.269   3.729  14.982 -1.1476 -2.0778 -0.0231
 4954SOL    HW226325   4.190   3.626  15.056  0.8096 -0.7186 -0.8483
 4955SOL     OW26326   2.872   0.878  14.164  0.1084 -0.7380  0.8873
 4955SOL    HW126327   2.868   0.972  14.148  0.3511 -0.9194 -0.2310
 4955SOL    HW226328   2.823   0.846  14.088  0.3479 -0.5095  0.6348
 4956SOL     OW26329   2.290   3.244   5.460  0.0011 -0.0465  0.7523
 4956SOL    HW126330   2.262   3.153   5.472 -3.1811  1.0403  1.7123
 4956SOL    HW226331   2.201   3.280   5.460  1.2902  3.0983  0.8267
 4957SOL     OW26332   3.875   3.480  11.120 -0.3029 -0.8783 -0.3385
 4957SOL    HW126333   3.900   3.514  11.205 -1.2373  0.0372 -0.4360
 4957SOL    HW226334   3.894   3.387  11.130 -0.1621 -1.0192 -1.8485
 4958SOL     OW26335   4.084   0.412   8.322 -0.1709 -0.2130  0.2205
 4958SOL    HW126336   4.108   0.421   8.414  1.9044 -1.6158 -0.1856
 4958SOL    HW226337   4.150   0.352   8.287 -0.1182 -1.4024  2.3714
 4959SOL     OW26338   3.209   2.175   9.620 -0.2645 -0.3928 -0.4546
 4959SOL    HW126339   3.280   2.144   9.677 -0.2149  1.2290  0.3449
 4959SOL    HW226340   3.149   2.100   9.617  0.9622 -1.4697  1.9044
 4960SOL     OW26341   3.706   1.935  10.889 -0.2980 -0.4380  0.2748
 4960SOL    HW126342   3.707   2.031  10.889 -0.1410 -0.4376  1.2078
 4960SOL    HW226343   3.800   1.923  10.898 -0.2616 -0.9453 -0.8358
 4961SOL     OW26344   3.218   2.099  11.795 -0.0292  0.4461 -0.1070
 4961SOL    HW126345   3.299   2.124  11.840 -0.3490 -0.9645  1.2335
 4961SOL    HW226346   3.224   2.139  11.708 -2.0458 -1.0167 -0.9168
 4962SOL     OW26347   4.135   2.472   8.091 -0.8276 -0.0202  0.4704
 4962SOL    HW126348   4.132   2.487   7.996  1.7937 -0.3552  0.3397
 4962SOL    HW226349   4.052   2.424   8.095 -0.4845 -0.5632  1.0651
 4963SOL     OW26350   2.410   0.498   7.017  0.0395 -0.0735  0.0025
 4963SOL    HW126351   2.362   0.441   7.076 -0.0153 -1.5662 -1.5083
 4963SOL    HW226352   2.498   0.489   7.054  0.2736  1.0119 -0.2726
 4964SOL     OW26353   2.517   1.030   7.681  0.1447  0.0718  0.3707
 4964SOL    HW126354   2.608   1.056   7.663  0.7020 -1.1875  1.4195
 4964SOL    HW226355   2.492   0.979   7.604 -0.7643  0.3693  0.4746
 4965SOL     OW26356   3.040   4.326   4.123  0.2173 -0.2752  0.1227
 4965SOL    HW126357   3.075   4.398   4.069 -0.0302  0.3094  0.7376
 4965SOL    HW226358   2.956   4.360   4.155  0.2730 -0.8910  0.9299
 4966SOL     OW26359   1.417   0.290   9.341 -0.3400 -0.1525  0.2561
 4966SOL    HW126360   1.339   0.346   9.336  1.1309  1.9666  1.2000
 4966SOL    HW226361   1.420   0.231   9.265 -0.0351 -0.8801  0.8391
 4967SOL     OW26362   0.037   2.748  10.593 -0.2175  0.2708  0.8838
 4967SOL    HW126363   4.666   2.743  10.629 -1.4015 -0.1477 -2.0679
 4967SOL    HW226364   0.030   2.844  10.592  0.2616  0.2973 -1.4582
 4968SOL     OW26365   0.695   4.708   5.785  0.3994  0.1930  0.0625
 4968SOL    HW126366   0.726   0.040   5.861 -0.5721 -0.4272  0.8669
 4968SOL    HW226367   0.630   0.044   5.739  0.7904 -1.3632 -2.2674
 4969SOL     OW26368   3.975   0.224  11.039  0.2832  0.1478  0.1831
 4969SOL    HW126369   4.028   0.278  10.979 -0.8716 -1.4425 -2.2734
 4969SOL    HW226370   3.968   0.286  11.111  0.5108  1.0390 -0.5575
 4970SOL     OW26371   4.340   2.607   3.624  0.0483  0.1819  0.0551
 4970SOL    HW126372   4.355   2.604   3.719  2.8140  0.4312 -0.3597
 4970SOL    HW226373   4.283   2.683   3.621  1.6140  1.2873 -1.5940
 4971SOL     OW26374   1.993   1.766   3.783 -0.3007 -0.0828  0.0316
 4971SOL    HW126375   1.986   1.857   3.755 -1.3285  0.1256  0.9809
 4971SOL    HW226376   2.063   1.775   3.849 -1.2114 -3.6790  1.4996
 4972SOL     OW26377   1.655   2.601   7.514 -0.7688 -0.0148 -0.3360
 4972SOL    HW126378   1.627   2.535   7.577  0.5388 -2.0055 -1.8425
 4972SOL    HW226379   1.640   2.683   7.560 -0.6620  0.0101 -0.3470
 4973SOL     OW26380   0.467   0.110   3.122 -0.4466 -0.0211 -0.1127
 4973SOL    HW126381   0.405   0.087   3.191  0.5655 -3.4261 -0.3495
 4973SOL    HW226382   0.422   0.132   3.040  1.7853  1.3936 -0.9549
 4974SOL     OW26383   3.625   2.142  15.328  0.2696 -0.5912 -0.2513
 4974SOL    HW126384   3.684   2.100  15.390  1.3323 -1.1467 -1.6365
 4974SOL    HW226385   3.543   2.095  15.345 -0.0401  0.1657  0.3394
 4975SOL     OW26386   4.187   2.011   0.255 -0.3055  0.3038 -0.2240
 4975SOL    HW126387   4.122   1.965   0.308 -1.0733  2.3085  0.5583
 4975SOL    HW226388   4.242   1.942   0.217  0.6604  1.1330 -0.3261
 4976SOL     OW26389   4.148   0.839   4.450  0.1910  0.0113 -0.1696
 4976SOL    HW126390   4.056   0.841   4.474  0.6107 -0.8881  1.5375
 4976SOL    HW226391   4.163   0.929   4.421 -0.0627  0.3454  0.7513
 4977SOL     OW26392   4.327   4.501   3.165  0.1207  0.8662 -0.1870
 4977SOL    HW126393   4.370   4.557   3.229 -0.6312  0.6816  0.4754
 4977SOL    HW226394   4.335   4.555   3.087  1.9242 -0.7457 -1.1246
 4978SOL     OW26395   3.045   2.427   8.287 -0.1218  0.5235 -0.5764
 4978SOL    HW126396   3.099   2.479   8.346  0.1256 -0.2405 -0.1418
 4978SOL    HW226397   2.994   2.501   8.253 -0.6703 -0.2578 -1.4504
 4979SOL     OW26398   3.849   0.226   5.952 -0.2000  0.1327 -0.3350
 4979SOL    HW126399   3.865   0.273   5.871  1.2195 -1.5677 -1.0384
 4979SOL    HW226400   3.881   0.287   6.018 -0.4814 -0.5048  0.3964
 4980SOL     OW26401   1.109   2.597   0.135  0.1182 -0.2868 -0.0009
 4980SOL    HW126402   1.122   2.680   0.090  0.3157 -1.3799 -2.0104
 4980SOL    HW226403   1.060   2.553   0.065  0.5960 -0.2249 -0.3794
 4981SOL     OW26404   2.824   2.070   6.256 -0.3114 -0.1199 -0.1839
 4981SOL    HW126405   2.768   2.014   6.202  0.3041 -1.3273  0.4197
 4981SOL    HW226406   2.795   2.074   6.347  1.1691 -2.0539  0.3747
 4982SOL     OW26407   2.064   4.087   3.719  0.3875  0.0354 -0.2027
 4982SOL    HW126408   2.129   4.143   3.677  1.3668 -0.2167  0.9729
 4982SOL    HW226409   2.112   4.060   3.797  1.7054  1.1985 -0.6257
 4983SOL     OW26410   4.704   2.647   3.693 -0.1101  0.1818  0.1920
 4983SOL    HW126411   4.650   2.690   3.759  2.3860  2.2831  0.8575
 4983SOL    HW226412   4.634   2.618   3.634 -0.2587 -0.2848  0.6030
 4984SOL     OW26413   4.446   1.942  11.164 -0.4239 -0.5900 -0.8789
 4984SOL    HW126414   4.490   1.858  11.172  1.7793  0.6043 -0.3466
 4984SOL    HW226415   4.404   1.926  11.249 -0.1376 -0.0263 -0.6231
 4985SOL     OW26416   1.681   0.352   7.491  0.1314  0.7740 -0.1100
 4985SOL    HW126417   1.763   0.354   7.441 -1.1907 -0.2467 -2.3098
 4985SOL    HW226418   1.716   0.331   7.578 -0.1829  2.2421  0.3701
 4986SOL     OW26419   3.505   2.019   4.680  0.9389 -0.6644 -0.3956
 4986SOL    HW126420   3.501   1.961   4.756  4.3652  0.3982  0.6036
 4986SOL    HW226421   3.413   2.046   4.677  1.4860  1.2533  0.4457
 4987SOL     OW26422   2.825   2.674   5.496  0.3244 -0.6101  0.7382
 4987SOL    HW126423   2.854   2.585   5.517 -1.0821 -0.4984  3.1026
 4987SOL    HW226424   2.789   2.659   5.409  1.2802 -1.4180  0.4838
 4988SOL     OW26425   0.990   0.738  13.436 -0.0826 -0.1192 -0.0992
 4988SOL    HW126426   0.961   0.814  13.386  0.1463 -0.5423 -0.8705
 4988SOL    HW226427   0.918   0.721  13.497  1.8671 -0.0382  2.2522
 4989SOL     OW26428   1.748   0.795  10.482 -0.3175 -0.4141 -0.1944
 4989SOL    HW126429   1.842   0.811  10.483 -0.2559 -0.7232 -2.7164
 4989SOL    HW226430   1.746   0.699  10.478  0.3184 -0.4312 -0.0478
 4990SOL     OW26431   2.924   2.468   4.507  0.0317 -0.2752  0.4982
 4990SOL    HW126432   2.885   2.434   4.427  0.9201  1.4476 -0.6554
 4990SOL    HW226433   2.882   2.407   4.569 -0.2262  1.3855  1.9614
 4991SOL     OW26434   4.373   0.831   2.266  0.2952 -0.1418 -0.0862
 4991SOL    HW126435   4.361   0.750   2.315 -0.3616  0.5277  0.8735
 4991SOL    HW226436   4.383   0.795   2.178  0.7590  1.5883 -0.7424
 4992SOL     OW26437   2.680   1.863   3.709 -0.0919  0.3466 -0.2837
 4992SOL    HW126438   2.605   1.901   3.663 -0.7039 -0.6407 -0.0880
 4992SOL    HW226439   2.689   1.905   3.795 -1.3470 -0.0551  0.0406
 4993SOL     OW26440   0.338   1.575   1.365 -0.3221 -0.2160 -0.6132
 4993SOL    HW126441   0.264   1.636   1.369 -0.6078 -0.7150  2.1003
 4993SOL    HW226442   0.325   1.539   1.278 -0.6249  0.8966 -1.0273
 4994SOL     OW26443   3.658   4.232  14.707 -0.0968  0.3590 -0.1745
 4994SOL    HW126444   3.585   4.220  14.646 -0.1314  0.5481 -0.1723
 4994SOL    HW226445   3.641   4.164  14.772  1.7694  1.2631  1.2329
 4995SOL     OW26446   1.593   3.615   5.984  0.0093  0.7087  0.4241
 4995SOL    HW126447   1.578   3.682   5.916 -1.5906 -0.7228 -0.6184
 4995SOL    HW226448   1.528   3.554   5.948  1.0048  0.3813 -0.8233
 4996SOL     OW26449   1.650   2.670   4.019  0.9481  0.5449  0.4847
 4996SOL    HW126450   1.683   2.593   4.065 -2.2588  0.2732  2.3338
 4996SOL    HW226451   1.613   2.722   4.091  2.8722 -0.5304  2.2208
 4997SOL     OW26452   3.903   0.543   2.638  0.1424 -0.3065 -0.9660
 4997SOL    HW126453   3.839   0.547   2.567 -0.3375  0.7360 -0.4824
 4997SOL    HW226454   3.934   0.455   2.658  1.9084  0.4225 -0.5302
 4998SOL     OW26455   2.796   1.809  11.409  0.3349 -0.1565 -0.4821
 4998SOL    HW126456   2.778   1.733  11.464  2.9573 -0.9154 -0.6538
 4998SOL    HW226457   2.798   1.771  11.321  0.6626  1.7180 -1.2637
 4999SOL     OW26458   1.068   1.402  14.411  0.1646 -0.0212  0.7021
 4999SOL    HW126459   1.120   1.325  14.386 -0.1553 -0.1274  0.3777
 4999SOL    HW226460   1.053   1.447  14.328  2.5198 -0.1501  0.1979
 5000SOL     OW26461   4.209   3.325   3.931  0.0774  0.1586  0.4244
 5000SOL    HW126462   4.164   3.327   4.016  0.2781  5.0514  0.4479
 5000SOL    HW226463   4.281   3.384   3.955  0.4527  0.7054 -2.0976
 5001SOL     OW26464   1.798   0.973   5.629 -0.0812  0.0257  0.2634
 5001SOL    HW126465   1.877   0.942   5.673  0.0690 -0.5782 -0.4388
 5001SOL    HW226466   1.829   1.019   5.551 -1.4438 -1.0423 -0.8987
 5002SOL     OW26467   1.670   3.971  14.585  0.4117  0.2231 -0.0513
 5002SOL    HW126468   1.691   3.885  14.621  0.0822  0.3512  0.4562
 5002SOL    HW226469   1.651   3.959  14.492 -1.7525  0.7648  0.3397
 5003SOL     OW26470   2.426   0.063   3.228 -0.0722 -0.0803 -0.4971
 5003SOL    HW126471   2.350   0.108   3.192 -2.8751 -2.9167  1.9255
 5003SOL    HW226472   2.404   0.065   3.321 -0.5740 -2.9765 -0.5823
 5004SOL     OW26473   3.343   2.084   6.238  0.1365  0.3570 -0.5229
 5004SOL    HW126474   3.388   2.154   6.193 -2.0860  1.1883 -1.4544
 5004SOL    HW226475   3.261   2.078   6.188 -0.0870 -0.6307 -0.0498
 5005SOL     OW26476   0.161   0.526   7.943 -0.1678 -0.5382 -0.0792
 5005SOL    HW126477   0.240   0.554   7.988 -0.6497  2.2473 -0.9699
 5005SOL    HW226478   0.144   0.444   7.990  0.4054 -1.1607 -0.9644
 5006SOL     OW26479   2.835   2.638  10.054  0.4854  0.8906  0.1781
 5006SOL    HW126480   2.855   2.549  10.082 -1.8040  0.1747 -0.5120
 5006SOL    HW226481   2.765   2.621   9.992 -0.7171 -0.6504  1.9468
 5007SOL     OW26482   3.654   2.910   3.498 -0.0906  0.7941 -0.0820
 5007SOL    HW126483   3.677   2.998   3.527 -1.6776  1.5891 -1.2208
 5007SOL    HW226484   3.563   2.924   3.472 -0.8284 -1.0805  1.4328
 5008SOL     OW26485   4.549   4.204   2.269  0.0032  0.8003  0.5764
 5008SOL    HW126486   4.475   4.221   2.211  1.3320 -0.7351 -1.5581
 5008SOL    HW226487   4.511   4.212   2.356  1.2601 -1.9013  1.3706
 5009SOL     OW26488   2.582   1.653   1.999 -0.3662 -0.3902 -0.3890
 5009SOL    HW126489   2.555   1.565   1.974 -2.5320  0.4716 -1.1578
 5009SOL    HW226490   2.498   1.697   2.017 -0.3033 -0.1811 -0.5942
 5010SOL     OW26491   3.635   4.300  10.402 -0.5500 -0.0242 -0.1051
 5010SOL    HW126492   3.706   4.248  10.365  0.0708  1.3558 -0.8413
 5010SOL    HW226493   3.676   4.347  10.475 -1.1237 -1.3756  1.0895
 5011SOL     OW26494   3.993   4.405   9.734  0.8712 -0.4081  0.1100
 5011SOL    HW126495   3.960   4.316   9.723 -2.5493  0.8642  0.1372
 5011SOL    HW226496   4.079   4.395   9.693 -0.0925 -0.2833 -1.9001
 5012SOL     OW26497   1.018   4.627   3.817 -0.4525  0.3603 -0.0551
 5012SOL    HW126498   1.058   4.545   3.847  0.2453  0.2831 -1.1810
 5012SOL    HW226499   0.990   4.596   3.731 -1.7004  0.3217  0.3667
 5013SOL     OW26500   1.447   1.718  15.747 -0.1283 -0.6061 -0.0558
 5013SOL    HW126501   1.358   1.728  15.781 -0.7078  0.4910 -1.8859
 5013SOL    HW226502   1.434   1.626  15.724 -0.0254 -0.2925 -1.3769
 5014SOL     OW26503   4.169   1.255  16.372  0.7470 -0.3309  0.4004
 5014SOL    HW126504   4.179   1.287  16.283 -0.2977 -0.3445  0.2853
 5014SOL    HW226505   4.136   1.328  16.424 -1.1629 -1.5534  0.9361
 5015SOL     OW26506   2.599   3.330  16.815 -0.0526  0.3848  0.2364
 5015SOL    HW126507   2.639   3.333  16.902  1.1533 -2.6017 -0.2326
 5015SOL    HW226508   2.510   3.296  16.829 -0.9467  2.1395 -1.1229
 5016SOL     OW26509   2.849   0.809   8.332  0.6112  0.5975  0.8670
 5016SOL    HW126510   2.900   0.816   8.413  0.0985 -1.9077  1.3838
 5016SOL    HW226511   2.872   0.894   8.294  1.4499  0.7467  1.6852
 5017SOL     OW26512   1.812   1.353   2.999 -0.2322  0.8577  0.3543
 5017SOL    HW126513   1.887   1.319   2.951 -0.2644  1.8334 -0.3716
 5017SOL    HW226514   1.855   1.375   3.082 -0.3559 -2.2163  1.2250
 5018SOL     OW26515   1.199   3.390  13.062  0.5281  0.1778 -0.7667
 5018SOL    HW126516   1.210   3.298  13.088 -1.1052  0.5448  1.1471
 5018SOL    HW226517   1.287   3.422  13.039  0.8847 -0.7279 -0.6801
 5019SOL     OW26518   3.134   4.674   2.911 -0.1454  0.4692  0.2046
 5019SOL    HW126519   3.056   4.648   2.862  1.4634  1.6955 -3.0016
 5019SOL    HW226520   3.202   4.630   2.859 -2.0041 -0.4294 -1.4704
 5020SOL     OW26521   1.909   2.944  16.111  0.3701  0.4048  0.1834
 5020SOL    HW126522   1.937   3.030  16.080  1.6078 -0.1251 -0.1507
 5020SOL    HW226523   1.815   2.962  16.117 -0.1657 -2.5383  0.6561
 5021SOL     OW26524   2.737   2.417   6.225 -0.2615  0.0581 -0.1876
 5021SOL    HW126525   2.792   2.360   6.171 -0.9186 -0.5933 -0.1691
 5021SOL    HW226526   2.724   2.359   6.299  1.6764  0.4161  0.4272
 5022SOL     OW26527   2.701   4.051   7.116  0.2078 -0.0932  0.4595
 5022SOL    HW126528   2.686   4.100   7.035  0.4971  1.8943  1.5916
 5022SOL    HW226529   2.791   4.071   7.141  0.0211  1.1695  0.1488
 5023SOL     OW26530   0.008   2.804   4.438  0.4301 -0.2411  0.0641
 5023SOL    HW126531   0.050   2.753   4.507 -1.0570  0.6697  1.6645
 5023SOL    HW226532   0.073   2.860   4.395 -0.7454 -0.0431 -1.4528
 5024SOL     OW26533   3.336   2.597  14.135  0.2225  0.2823 -0.4347
 5024SOL    HW126534   3.269   2.529  14.139  1.2255 -0.7950 -1.9427
 5024SOL    HW226535   3.289   2.674  14.102  0.9246  0.6463 -0.5806
 5025SOL     OW26536   1.904   1.452   6.092  0.5518 -0.8610  0.1171
 5025SOL    HW126537   1.844   1.520   6.124 -0.6157 -1.1243 -1.5245
 5025SOL    HW226538   1.855   1.377   6.125 -0.4694 -0.5305 -0.6666
 5026SOL     OW26539   3.920   3.399   8.175 -0.5598  0.0116  0.3258
 5026SOL    HW126540   3.964   3.326   8.132 -0.1575 -0.3139  1.2894
 5026SOL    HW226541   3.922   3.453   8.096  4.1321 -0.0851  0.3258
 5027SOL     OW26542   2.415   2.885  13.888  0.0212  0.0186 -0.2112
 5027SOL    HW126543   2.424   2.885  13.793 -0.6719  0.1993 -0.2747
 5027SOL    HW226544   2.320   2.879  13.880  0.2386 -1.1670 -1.8301
 5028SOL     OW26545   2.410   4.167   6.752 -0.1741 -0.2599 -0.0365
 5028SOL    HW126546   2.495   4.124   6.763 -0.3492 -1.2558 -2.4712
 5028SOL    HW226547   2.434   4.259   6.751 -0.0833 -0.3024 -1.6593
 5029SOL     OW26548   4.391   2.539   2.609 -0.1118  0.1877 -0.4983
 5029SOL    HW126549   4.328   2.611   2.613 -2.1025 -1.4323 -2.9312
 5029SOL    HW226550   4.329   2.467   2.602  2.5312 -2.1451  0.2643
 5030SOL     OW26551   3.024   2.931  15.445 -0.8051 -0.7559  0.0684
 5030SOL    HW126552   3.078   2.918  15.523  0.3322 -0.6429 -0.7027
 5030SOL    HW226553   3.059   3.014  15.414 -0.7418 -0.9453 -0.3698
 5031SOL     OW26554   0.609   0.981   7.862  0.0327 -0.2381  0.1706
 5031SOL    HW126555   0.622   1.010   7.952  0.3677  0.5595 -0.1415
 5031SOL    HW226556   0.527   1.027   7.844 -0.2307 -0.4495  0.8024
 5032SOL     OW26557   3.426   0.202   1.295 -0.2600  0.5018  0.1256
 5032SOL    HW126558   3.477   0.185   1.216  0.9064 -0.2009  1.0357
 5032SOL    HW226559   3.461   0.291   1.306  1.9030 -0.2444 -0.8204
 5033SOL     OW26560   1.662   1.471  16.942  0.1773  0.0518 -0.2543
 5033SOL    HW126561   1.702   1.396  16.986 -2.9126 -0.8171  1.1322
 5033SOL    HW226562   1.743   1.521  16.937 -0.0273  0.5228  1.0986
 5034SOL     OW26563   2.426   2.400  16.291  0.0379  0.1879  0.1143
 5034SOL    HW126564   2.516   2.432  16.289  0.8089 -2.0770 -1.6828
 5034SOL    HW226565   2.421   2.364  16.379 -2.7079 -0.1066 -0.1800
 5035SOL     OW26566   0.973   3.355   5.241  0.3675 -0.4719 -0.4215
 5035SOL    HW126567   0.895   3.350   5.186 -1.9551  0.6248  2.8174
 5035SOL    HW226568   0.959   3.276   5.293 -0.2685 -0.5088 -0.6496
 5036SOL     OW26569   3.061   1.075   0.558  0.1067 -0.1608 -0.0422
 5036SOL    HW126570   3.058   1.053   0.465 -0.6536 -1.7104  0.3438
 5036SOL    HW226571   2.976   1.117   0.571  0.3458 -0.2921  1.8654
 5037SOL     OW26572   0.243   3.297   5.272  0.8167  0.1953  0.4531
 5037SOL    HW126573   0.245   3.281   5.177 -2.0033  0.6189  0.3324
 5037SOL    HW226574   0.290   3.380   5.273  0.3419  0.4587  0.5474
 5038SOL     OW26575   0.155   0.954   4.894 -0.3071 -0.1487  0.0929
 5038SOL    HW126576   0.201   0.932   4.976 -1.7575 -0.1263  0.9029
 5038SOL    HW226577   0.231   0.992   4.850 -1.1379  1.3247 -0.0628
 5039SOL     OW26578   1.504   2.553   5.459 -0.6786  0.0614  0.5202
 5039SOL    HW126579   1.515   2.539   5.553  0.3985  2.4422  0.7468
 5039SOL    HW226580   1.409   2.570   5.458 -0.9532 -1.4827  0.4245
 5040SOL     OW26581   0.953   4.624   5.377  0.5457  0.1476  0.4092
 5040SOL    HW126582   0.998   4.698   5.337 -1.8671  1.2376 -0.2667
 5040SOL    HW226583   0.966   4.638   5.471  0.3487  0.6728  0.3559
 5041SOL     OW26584   3.584   1.920   3.926 -0.2991 -0.4879  0.1549
 5041SOL    HW126585   3.548   1.884   4.006  0.2186 -0.1424  0.5464
 5041SOL    HW226586   3.630   1.999   3.955  1.6111 -2.1647  1.6621
 5042SOL     OW26587   4.615   0.760  17.493 -0.5194 -0.0361 -0.5869
 5042SOL    HW126588   4.670   0.764  17.414 -0.3940 -1.5409 -0.5752
 5042SOL    HW226589   4.524   0.762  17.463 -0.5550 -0.6961 -0.5006
 5043SOL     OW26590   0.309   0.526   7.557  0.2823  0.0767  0.6159
 5043SOL    HW126591   0.389   0.477   7.540 -1.0039 -1.4065 -1.2315
 5043SOL    HW226592   0.251   0.450   7.559  0.4941 -0.1090 -0.2613
 5044SOL     OW26593   3.162   4.126   5.019 -0.1476 -0.2659  0.0976
 5044SOL    HW126594   3.106   4.104   5.093 -1.4582  1.4478 -0.4095
 5044SOL    HW226595   3.224   4.180   5.068 -0.9622 -1.5650  2.5149
 5045SOL     OW26596   3.654   4.067   0.474 -0.5381  0.5709  0.1686
 5045SOL    HW126597   3.687   4.137   0.418 -2.0550  1.7981  0.8466
 5045SOL    HW226598   3.655   4.004   0.402 -2.6111  0.3869  0.3061
 5046SOL     OW26599   4.221   0.720   8.427  0.4657 -0.3469 -0.3543
 5046SOL    HW126600   4.156   0.650   8.435 -0.4633  0.5296 -0.1807
 5046SOL    HW226601   4.184   0.781   8.492 -1.1753 -1.6814 -0.0189
 5047SOL     OW26602   1.581   2.312   5.359 -0.1160 -0.2056  0.3396
 5047SOL    HW126603   1.517   2.265   5.306 -3.1317  1.1343  2.8145
 5047SOL    HW226604   1.530   2.385   5.394  0.8586  0.7972 -0.3276
 5048SOL     OW26605   1.118   0.956   8.875  0.0942 -0.0277  0.2039
 5048SOL    HW126606   1.034   0.981   8.835  0.6980 -1.2573 -1.8571
 5048SOL    HW226607   1.110   0.862   8.888  1.0066  0.4375  4.0531
 5049SOL     OW26608   1.664   1.850   6.915  0.0007  0.2864  0.3806
 5049SOL    HW126609   1.602   1.921   6.894 -0.0468  0.1871  0.1862
 5049SOL    HW226610   1.629   1.783   6.856 -2.2867  2.7444 -1.0818
 5050SOL     OW26611   2.152   0.020   3.949 -0.0794 -0.4663  0.3722
 5050SOL    HW126612   2.159   0.021   3.854  1.1797  3.0687  0.5260
 5050SOL    HW226613   2.056   0.022   3.949 -0.0398  1.3921 -1.5492
 5051SOL     OW26614   2.144   3.212   5.798  0.1363 -0.1893 -0.0759
 5051SOL    HW126615   2.144   3.197   5.893 -0.7059 -0.8312 -0.1819
 5051SOL    HW226616   2.236   3.239   5.799  0.3991 -1.0894 -1.0004
 5052SOL     OW26617   0.740   4.676   0.048 -0.5734 -0.1288 -0.7290
 5052SOL    HW126618   0.781   4.634  17.645 -1.8741 -1.2689 -0.7968
 5052SOL    HW226619   0.679   0.015   0.000  0.9636  1.9184 -0.2968
 5053SOL     OW26620   2.153   1.734   4.149  0.5988  0.0613  0.2623
 5053SOL    HW126621   2.076   1.788   4.168  0.6776  0.1209  0.4134
 5053SOL    HW226622   2.215   1.803   4.128  1.2563  0.4031  3.3345
 5054SOL     OW26623   4.627   2.169  14.147 -0.4642 -0.3767  0.0353
 5054SOL    HW126624   4.658   2.151  14.058  2.8852  0.6155  0.9956
 5054SOL    HW226625   4.694   2.119  14.193  0.9536  0.0277 -1.5605
 5055SOL     OW26626   1.737   3.021   4.411  0.3571  0.3428  0.6561
 5055SOL    HW126627   1.680   3.034   4.487  3.0705  1.6416  2.4591
 5055SOL    HW226628   1.805   3.086   4.427 -1.7697  3.4001 -2.5390
 5056SOL     OW26629   3.771   1.714  11.264 -0.4507  0.7962 -0.2639
 5056SOL    HW126630   3.748   1.627  11.229  0.9953 -0.5826  2.2663
 5056SOL    HW226631   3.715   1.764  11.204  0.1991  0.1586 -1.4209
 5057SOL     OW26632   4.410   4.334   4.889 -0.1975  0.6154 -0.1324
 5057SOL    HW126633   4.383   4.292   4.808  2.4486 -0.8678 -0.2331
 5057SOL    HW226634   4.384   4.424   4.870 -1.4502  0.0149 -1.2328
 5058SOL     OW26635   4.401   0.315   0.517  0.2388 -0.3734 -0.0589
 5058SOL    HW126636   4.378   0.389   0.573  1.6351  0.7931 -1.0610
 5058SOL    HW226637   4.311   0.296   0.489  0.3070 -0.8489  0.0378
 5059SOL     OW26638   2.347   2.444  12.784  0.3073  0.6988  0.4746
 5059SOL    HW126639   2.390   2.514  12.832  2.2554 -0.9642  1.1823
 5059SOL    HW226640   2.321   2.405  12.868 -1.6230  1.1097  0.0765
 5060SOL     OW26641   2.375   3.910   3.090 -0.4816 -0.0768 -0.2998
 5060SOL    HW126642   2.471   3.910   3.085 -0.4385  0.6268  0.4710
 5060SOL    HW226643   2.363   3.817   3.106 -0.3511 -0.1250 -0.4939
 5061SOL     OW26644   0.883   2.920  11.753  0.0759 -0.0427  0.1883
 5061SOL    HW126645   0.790   2.937  11.741 -0.2335 -1.7108  0.1207
 5061SOL    HW226646   0.910   2.931  11.661  0.2648  0.6060  0.3236
 5062SOL     OW26647   1.452   0.947   8.902  0.7438 -0.4238  0.2595
 5062SOL    HW126648   1.447   1.005   8.825  2.4198  1.7866  1.8102
 5062SOL    HW226649   1.467   1.009   8.973 -0.0496  2.5117 -2.1085
 5063SOL     OW26650   3.225   2.582   9.736 -0.2564  0.1587  0.1540
 5063SOL    HW126651   3.192   2.554   9.822 -1.1336  2.3955  0.5672
 5063SOL    HW226652   3.318   2.568   9.755 -0.3349 -0.4076  0.1042
 5064SOL     OW26653   2.244   0.027   3.696  0.4814 -0.6200  0.4619
 5064SOL    HW126654   2.337   0.029   3.714  0.4985  0.4580  0.2601
 5064SOL    HW226655   2.243   4.692   3.616 -2.0805  0.5761 -0.2919
 5065SOL     OW26656   1.300   4.474   6.647  0.7750 -0.4295 -0.1924
 5065SOL    HW126657   1.212   4.444   6.671  1.9703 -3.1534  0.7543
 5065SOL    HW226658   1.298   4.563   6.681 -0.9504 -1.1607  1.6234
 5066SOL     OW26659   0.292   0.328   6.270  0.3299  0.2239 -0.5779
 5066SOL    HW126660   0.260   0.404   6.221 -0.8840  0.6198  0.8336
 5066SOL    HW226661   0.341   0.281   6.202  2.4980  3.0669 -0.9806
 5067SOL     OW26662   2.215   0.695   4.399 -0.7710 -0.3675  0.2527
 5067SOL    HW126663   2.156   0.632   4.441 -2.1139  2.0061  1.9746
 5067SOL    HW226664   2.300   0.658   4.422  0.5151  1.0883 -2.2114
 5068SOL     OW26665   1.233   1.338   4.453 -0.3342 -0.4429  0.3765
 5068SOL    HW126666   1.151   1.332   4.405 -0.6686 -3.2307  1.2708
 5068SOL    HW226667   1.264   1.248   4.441  1.2525  0.3940 -1.7540
 5069SOL     OW26668   4.513   4.271   2.558 -0.7404  0.4538  0.1031
 5069SOL    HW126669   4.485   4.304   2.643 -4.4258 -1.0955 -0.5279
 5069SOL    HW226670   4.458   4.193   2.559  0.1525 -0.1837 -0.5256
 5070SOL     OW26671   2.872   4.071  16.568  0.0858 -0.1508  0.0920
 5070SOL    HW126672   2.924   4.138  16.523 -3.5182  2.3560 -0.3051
 5070SOL    HW226673   2.917   4.073  16.653 -0.4973  1.6361  0.3602
 5071SOL     OW26674   3.829   3.222   3.843  0.1890 -0.0874 -0.3808
 5071SOL    HW126675   3.842   3.306   3.887 -1.0571 -0.4374  0.6437
 5071SOL    HW226676   3.822   3.156   3.912  0.0359  0.4466  0.1136
 5072SOL     OW26677   1.975   4.132   5.675 -0.6210  0.2369 -0.6095
 5072SOL    HW126678   2.049   4.079   5.705 -1.0642 -0.0292  0.0154
 5072SOL    HW226679   2.001   4.221   5.698 -0.8240 -0.1723  1.1416
 5073SOL     OW26680   3.355   4.225   7.431  0.3029  0.0319  0.0931
 5073SOL    HW126681   3.435   4.178   7.407  0.3347  0.1613 -0.0559
 5073SOL    HW226682   3.388   4.314   7.447  2.1879 -0.1902 -2.5161
 5074SOL     OW26683   4.384   2.515   0.324  0.0888  0.1596  0.0504
 5074SOL    HW126684   4.352   2.425   0.311 -0.8667  0.7442 -1.6562
 5074SOL    HW226685   4.301   2.561   0.317  0.7134  1.3728  0.7680
 5075SOL     OW26686   1.993   4.496   6.198  0.2946 -0.4054  0.4525
 5075SOL    HW126687   1.967   4.501   6.106  1.5263 -0.2734  0.1175
 5075SOL    HW226688   2.066   4.558   6.200  0.7356 -0.9114 -0.1324
 5076SOL     OW26689   1.377   0.094   2.543  0.2266  0.2954 -0.2191
 5076SOL    HW126690   1.354   0.077   2.451 -3.2038  0.4818  0.6161
 5076SOL    HW226691   1.468   0.066   2.552 -0.2532 -0.6525  1.6139
 5077SOL     OW26692   3.339   3.600   3.947  0.2518 -0.1616 -0.2646
 5077SOL    HW126693   3.281   3.544   3.895 -0.1335 -1.5511  1.6382
 5077SOL    HW226694   3.335   3.553   4.031  0.3830 -0.3950 -0.3887
 5078SOL     OW26695   1.899   4.518   7.104  0.0507 -0.9476  0.0129
 5078SOL    HW126696   1.935   4.486   7.186 -1.2458 -2.4855 -0.0245
 5078SOL    HW226697   1.908   4.439   7.051  3.5741 -0.4801 -0.1164
 5079SOL     OW26698   1.836   3.829  10.612 -0.1575 -0.4289  0.1804
 5079SOL    HW126699   1.923   3.835  10.572 -0.3192 -1.7973 -0.4045
 5079SOL    HW226700   1.827   3.734  10.601 -1.0985 -0.1714 -1.2888
 5080SOL     OW26701   0.904   0.923  10.885  0.3054  0.0457  0.3212
 5080SOL    HW126702   0.922   0.978  10.961  1.8761  2.4617 -1.8211
 5080SOL    HW226703   0.869   0.843  10.925 -1.4089  0.6750  0.0999
 5081SOL     OW26704   2.722   0.188   4.004 -0.2040 -0.1643 -0.0436
 5081SOL    HW126705   2.734   0.113   3.946  1.5017 -1.4047  1.9372
 5081SOL    HW226706   2.759   0.261   3.954 -1.3629 -0.8051 -1.8442
 5082SOL     OW26707   3.339   4.701  10.507  0.0769 -0.0297  0.4619
 5082SOL    HW126708   3.424   0.025  10.519 -0.5445  1.1674  0.6417
 5082SOL    HW226709   3.276   0.051  10.532 -1.8039 -1.4472 -0.4538
 5083SOL     OW26710   3.933   0.660  15.410 -0.1347 -0.3928 -1.1304
 5083SOL    HW126711   3.955   0.570  15.433  1.8645  1.1433  2.9778
 5083SOL    HW226712   4.008   0.715  15.430  0.4055 -1.6245  0.2052
 5084SOL     OW26713   1.466   4.192   9.166  0.3250  0.0141 -0.0780
 5084SOL    HW126714   1.521   4.261   9.201  0.4396  0.5997 -1.4085
 5084SOL    HW226715   1.404   4.241   9.112  0.5979 -0.8233 -1.1564
 5085SOL     OW26716   1.764   4.621   8.644 -0.8537 -0.3939 -0.1501
 5085SOL    HW126717   1.812   4.642   8.724  2.3525  2.2897 -2.7636
 5085SOL    HW226718   1.796   4.532   8.630  4.1884  1.4536 -0.4193
 5086SOL     OW26719   3.138   3.272   3.280 -0.1101 -0.8997 -0.3404
 5086SOL    HW126720   3.068   3.333   3.302  1.0452  1.0846 -2.2023
 5086SOL    HW226721   3.203   3.340   3.261  2.5621 -2.6887  2.4522
 5087SOL     OW26722   2.560   4.426   3.520 -0.2063  0.0473 -0.1119
 5087SOL    HW126723   2.609   4.452   3.442  2.3273 -0.8110  1.1907
 5087SOL    HW226724   2.595   4.337   3.531 -3.3433 -1.1103  0.4643
 5088SOL     OW26725   2.075   4.105   4.379  0.4071  0.3363 -0.2314
 5088SOL    HW126726   2.060   4.103   4.474  0.9253  0.6235 -0.1486
 5088SOL    HW226727   2.166   4.133   4.375 -0.0370  1.4841 -2.0521
 5089SOL     OW26728   3.033   1.695   7.615  0.0754  0.2479 -0.6027
 5089SOL    HW126729   3.079   1.617   7.583 -0.1161  0.1504 -0.6424
 5089SOL    HW226730   3.100   1.754   7.650 -1.0088 -0.5156  2.7155
 5090SOL     OW26731   2.665   3.550   7.672  0.6363 -0.3311 -0.3284
 5090SOL    HW126732   2.714   3.474   7.640 -1.2044 -2.0594  1.0186
 5090SOL    HW226733   2.686   3.549   7.765 -2.5946  2.5101  0.4013
 5091SOL     OW26734   0.670   2.684   4.688  0.6805  0.1851 -0.0963
 5091SOL    HW126735   0.754   2.681   4.643 -1.0187 -0.7167 -3.2116
 5091SOL    HW226736   0.613   2.719   4.620  0.4922 -0.0295 -0.0511
 5092SOL     OW26737   3.303   0.851   3.194 -0.4061 -0.1445 -0.1017
 5092SOL    HW126738   3.375   0.801   3.233 -0.6302  0.0392  0.5546
 5092SOL    HW226739   3.253   0.780   3.154 -0.1120 -1.3540  1.7020
 5093SOL     OW26740   2.505   0.970  13.158 -0.1173  0.0197  0.4290
 5093SOL    HW126741   2.594   0.956  13.125 -0.6448 -1.7629 -0.2503
 5093SOL    HW226742   2.515   1.053  13.204 -0.7277  0.8787 -0.9566
 5094SOL     OW26743   3.560   1.855  11.097  0.3084 -0.0709 -0.1025
 5094SOL    HW126744   3.489   1.918  11.109  0.2330  0.5350 -3.6933
 5094SOL    HW226745   3.604   1.901  11.025 -2.2189  2.2806 -0.1700
 5095SOL     OW26746   3.740   2.469   0.610  0.3060  0.3921  0.0129
 5095SOL    HW126747   3.752   2.393   0.553  2.9266 -0.2043  1.3543
 5095SOL    HW226748   3.807   2.447   0.675 -0.7551  0.5535  1.1608
 5096SOL     OW26749   3.626   0.770   7.983 -0.2507  0.2192 -0.3470
 5096SOL    HW126750   3.637   0.754   8.077  1.7226  0.6768 -0.4815
 5096SOL    HW226751   3.708   0.740   7.943 -0.3330 -0.8376  0.2919
 5097SOL     OW26752   2.820   0.877  15.714  0.7264  0.2996 -0.1166
 5097SOL    HW126753   2.790   0.838  15.632 -1.4407 -0.9817  1.3087
 5097SOL    HW226754   2.777   0.819  15.776 -0.7025  0.8361 -0.6230
 5098SOL     OW26755   3.048   4.518   8.513 -0.0008 -0.1787  0.8588
 5098SOL    HW126756   3.042   4.609   8.541 -3.6169 -0.3671  0.6514
 5098SOL    HW226757   2.965   4.484   8.544  1.1353 -2.3765  1.5099
 5099SOL     OW26758   0.389   1.687   5.196  0.2394  0.1382 -0.0222
 5099SOL    HW126759   0.330   1.762   5.199 -0.8368 -0.7863  2.6704
 5099SOL    HW226760   0.378   1.657   5.106 -0.9510 -1.1973  0.5651
 5100SOL     OW26761   0.720   1.875   7.183 -0.2649  0.5282  0.7683
 5100SOL    HW126762   0.727   1.794   7.133  0.8581  0.6111  0.7901
 5100SOL    HW226763   0.647   1.927   7.150 -2.3839 -2.1011  1.3444
 5101SOL     OW26764   4.632   2.294   5.193 -0.5490  0.1390  0.3793
 5101SOL    HW126765   4.676   2.295   5.108 -1.8907  1.1660 -0.2973
 5101SOL    HW226766   4.564   2.359   5.178 -1.1210 -0.6714 -0.5340
 5102SOL     OW26767   0.170   1.207   8.802 -0.3100 -0.1431 -0.0233
 5102SOL    HW126768   0.180   1.221   8.896  2.0791 -2.8775  0.1192
 5102SOL    HW226769   0.247   1.153   8.785  0.9168  1.9354 -1.0330
 5103SOL     OW26770   3.277   1.065  10.254 -0.6745  0.0025  0.9479
 5103SOL    HW126771   3.267   1.160  10.250  3.2064  0.3082 -1.3782
 5103SOL    HW226772   3.253   1.041  10.165  0.9269 -0.6987  0.7036
 5104SOL     OW26773   2.817   1.872   7.913  0.4438 -0.5040  0.0426
 5104SOL    HW126774   2.889   1.934   7.915  1.7627 -2.0446  0.6121
 5104SOL    HW226775   2.750   1.915   7.967  0.1886  1.1000 -1.5778
 5105SOL     OW26776   1.507   1.562   9.132 -0.4795 -0.1942 -0.2387
 5105SOL    HW126777   1.417   1.579   9.106 -0.6859  0.4276  0.9025
 5105SOL    HW226778   1.496   1.480   9.180  1.6392 -0.0695  0.4732
 5106SOL     OW26779   1.926   2.781   1.562 -0.1105  0.3218 -0.0273
 5106SOL    HW126780   1.874   2.814   1.634 -0.7272  0.0542 -0.3525
 5106SOL    HW226781   2.010   2.762   1.604 -0.0864  0.0867 -0.1759
 5107SOL     OW26782   0.635   3.408  14.834 -0.2255  0.3693  0.0886
 5107SOL    HW126783   0.716   3.459  14.839 -0.6081  0.8806  1.0249
 5107SOL    HW226784   0.650   3.360  14.753  1.5045  0.4979  0.3511
 5108SOL     OW26785   3.304   3.013   8.299  0.3094  0.2236 -0.0997
 5108SOL    HW126786   3.270   2.971   8.220 -0.5840  0.5857  0.0908
 5108SOL    HW226787   3.388   3.047   8.269  1.2021 -2.1662 -0.3073
 5109SOL     OW26788   3.040   0.359   9.215  0.8656  0.3018  0.3047
 5109SOL    HW126789   3.055   0.419   9.288 -1.4195 -0.1349  1.1465
 5109SOL    HW226790   3.082   0.410   9.147  1.3104 -1.1933 -0.5414
 5110SOL     OW26791   2.587   2.216   7.696 -0.2503  0.6651  0.0107
 5110SOL    HW126792   2.595   2.121   7.698 -2.4918  0.4992  0.5251
 5110SOL    HW226793   2.668   2.245   7.738  0.6764 -1.0625 -0.5956
 5111SOL     OW26794   2.434   4.674   4.376  0.2353  0.3548  0.3533
 5111SOL    HW126795   2.417   0.050   4.366 -1.7743 -0.0172  0.3020
 5111SOL    HW226796   2.412   4.639   4.290  0.8994 -0.6192  0.5763
 5112SOL     OW26797   4.077   1.808   0.431  0.1427  0.4460 -0.5211
 5112SOL    HW126798   4.129   1.785   0.354 -0.2851  0.5716 -0.8484
 5112SOL    HW226799   4.105   1.731   0.481 -1.3599  0.7334  0.7447
 5113SOL     OW26800   0.981   0.668   8.333 -0.1895  0.2225 -0.4614
 5113SOL    HW126801   0.984   0.606   8.259 -0.4339  1.0615 -1.1699
 5113SOL    HW226802   1.048   0.722   8.291 -2.0226  1.1684 -2.1590
 5114SOL     OW26803   0.370   1.710  14.728  0.0265  0.8413  0.5451
 5114SOL    HW126804   0.329   1.776  14.784  1.2359  1.0675  1.1673
 5114SOL    HW226805   0.406   1.770  14.662  0.2656 -1.0833 -1.0826
 5115SOL     OW26806   4.417   3.399   1.076 -0.5738  0.6373  0.1604
 5115SOL    HW126807   4.358   3.348   1.131  2.3865 -2.2930  0.6098
 5115SOL    HW226808   4.374   3.401   0.990 -0.0491  2.2501 -0.0742
 5116SOL     OW26809   1.882   0.741   5.140 -0.0783 -0.0299  0.1178
 5116SOL    HW126810   1.952   0.769   5.081  1.7245 -0.7965  1.8880
 5116SOL    HW226811   1.899   0.789   5.221 -0.0481  0.1338  0.0144
 5117SOL     OW26812   1.074   1.430   5.346 -0.0432 -0.1807 -0.1532
 5117SOL    HW126813   1.152   1.408   5.295  1.1773  3.7636  0.0326
 5117SOL    HW226814   1.015   1.485   5.295 -0.2289 -0.5156 -0.3025
 5118SOL     OW26815   0.793   2.822   0.598  0.3364  0.1850 -0.2292
 5118SOL    HW126816   0.773   2.739   0.554  0.5893 -0.1643  0.3182
 5118SOL    HW226817   0.755   2.886   0.538  3.6856  0.6386 -1.8835
 5119SOL     OW26818   2.724   3.825   9.754 -0.5792 -0.1030  0.4624
 5119SOL    HW126819   2.678   3.901   9.789  3.1661  1.2220  2.5011
 5119SOL    HW226820   2.683   3.754   9.805 -2.5125  0.3845 -0.4453
 5120SOL     OW26821   2.087   3.270  11.343 -0.0953  0.2006  0.3196
 5120SOL    HW126822   2.040   3.207  11.287 -0.1067  0.1952  0.3354
 5120SOL    HW226823   2.173   3.252  11.304 -0.0238  0.5875  0.3039
 5121SOL     OW26824   0.526   0.974   5.343  0.0535  0.2955 -0.1153
 5121SOL    HW126825   0.443   1.004   5.379 -0.9186  0.0036 -2.1178
 5121SOL    HW226826   0.577   1.036   5.395 -0.5169  0.1626  0.6041
 5122SOL     OW26827   2.403   0.041   6.543 -0.1736 -0.2663  0.1650
 5122SOL    HW126828   2.382   4.665   6.538 -1.0071 -0.0356 -0.6188
 5122SOL    HW226829   2.499   0.036   6.539 -0.1768 -0.8297  0.7722
 5123SOL     OW26830   4.123   1.611   4.160  0.0425  0.7175 -0.0764
 5123SOL    HW126831   4.200   1.659   4.131  1.3686 -1.3198  0.0493
 5123SOL    HW226832   4.078   1.604   4.076 -1.1620 -1.3129  0.7500
 5124SOL     OW26833   2.107   0.351   3.969 -0.2260  0.3655 -0.1544
 5124SOL    HW126834   2.199   0.380   3.973  0.1047 -0.7390  0.1509
 5124SOL    HW226835   2.127   0.258   3.974  0.0530  0.4754  0.8333
 5125SOL     OW26836   2.963   3.920  11.726  0.9283 -0.2048  0.0233
 5125SOL    HW126837   3.011   4.000  11.746  1.9096 -0.7033 -0.3674
 5125SOL    HW226838   3.025   3.851  11.751  2.0463  0.4120 -1.0830
 5126SOL     OW26839   4.590   1.149   8.915  1.0410  0.0979 -0.4611
 5126SOL    HW126840   4.631   1.090   8.977 -0.8713  0.0594  0.7684
 5126SOL    HW226841   4.597   1.109   8.828  0.4367  0.4458 -0.6723
 5127SOL     OW26842   4.251   4.463   1.996  0.0188 -0.0127  0.1886
 5127SOL    HW126843   4.200   4.544   1.992 -1.7990 -1.0873  1.9052
 5127SOL    HW226844   4.239   4.437   1.905  1.2139 -0.7965  0.2598
 5128SOL     OW26845   3.010   3.420  14.942 -0.2694 -0.0866  0.4681
 5128SOL    HW126846   2.917   3.443  14.939 -0.6345 -1.4478  0.9395
 5128SOL    HW226847   3.010   3.341  14.887  1.1692 -0.3275  0.8112
 5129SOL     OW26848   0.574   1.955   4.664  0.5867 -0.0827 -0.5349
 5129SOL    HW126849   0.494   1.948   4.612  0.9040 -2.3061 -0.7442
 5129SOL    HW226850   0.557   2.021   4.732  1.8713  0.6394 -0.9154
 5130SOL     OW26851   2.267   3.758   7.216  0.3538  0.3622  0.1068
 5130SOL    HW126852   2.278   3.739   7.123  1.7083  1.0870  0.1203
 5130SOL    HW226853   2.192   3.701   7.232  0.8421 -0.1050  0.6909
 5131SOL     OW26854   4.256   4.483   2.387 -0.3971  0.5837 -0.7639
 5131SOL    HW126855   4.312   4.530   2.325  1.3657  0.7656  0.9530
 5131SOL    HW226856   4.170   4.520   2.367 -1.5733 -1.2012  0.9339
 5132SOL     OW26857   0.783   2.248   7.668 -0.1519 -0.2289  0.1177
 5132SOL    HW126858   0.769   2.335   7.706  1.9206  0.2443 -0.1696
 5132SOL    HW226859   0.705   2.209   7.707 -0.6778 -2.3129 -3.0312
 5133SOL     OW26860   1.550   0.723   7.211  0.3138  0.3627  0.3304
 5133SOL    HW126861   1.477   0.762   7.258  0.6594 -0.6479  1.7019
 5133SOL    HW226862   1.534   0.630   7.229  0.8688  0.4777  1.4461
 5134SOL     OW26863   4.066   1.051   3.279  0.0533 -0.7566 -0.0454
 5134SOL    HW126864   4.022   1.060   3.363  1.9737 -2.4823  1.1488
 5134SOL    HW226865   3.994   1.077   3.222  0.2360 -0.8354 -0.3131
 5135SOL     OW26866   4.226   4.518   2.661 -0.2685  0.5920  0.0643
 5135SOL    HW126867   4.140   4.559   2.671 -0.7249  0.5061 -3.3968
 5135SOL    HW226868   4.224   4.507   2.566 -0.3190 -1.0749  0.2654
 5136SOL     OW26869   2.030   1.577   3.550 -0.3663  0.2810 -0.7164
 5136SOL    HW126870   1.942   1.578   3.513  0.0663  1.0573 -1.7420
 5136SOL    HW226871   2.061   1.666   3.530 -0.2219  0.1998 -0.8567
 5137SOL     OW26872   3.735   0.627   4.399  0.2693 -0.3768  0.5702
 5137SOL    HW126873   3.736   0.658   4.308 -0.8658 -2.3029 -0.1065
 5137SOL    HW226874   3.759   0.707   4.446 -0.0305  0.0489  0.0005
 5138SOL     OW26875   0.152   0.116   0.976 -0.0944  0.4140 -0.1069
 5138SOL    HW126876   0.243   0.133   0.954 -1.0146  2.3641 -2.4060
 5138SOL    HW226877   0.139   0.031   0.933  0.7377  0.5255 -0.5752
 5139SOL     OW26878   2.698   1.824   0.108 -0.4594  0.5985  0.6285
 5139SOL    HW126879   2.604   1.841   0.112 -0.1682  2.5505 -0.8520
 5139SOL    HW226880   2.723   1.842   0.017 -0.6529  0.7489  0.6057
 5140SOL     OW26881   2.461   4.166  11.763  0.3353 -0.0341 -0.1651
 5140SOL    HW126882   2.419   4.094  11.716  1.1868  0.6797 -2.0504
 5140SOL    HW226883   2.553   4.141  11.753 -0.3400 -1.8340 -1.8437
 5141SOL     OW26884   4.436   1.652   6.583 -0.0469 -0.0380  0.7334
 5141SOL    HW126885   4.384   1.622   6.509 -1.8936  0.8957  1.6526
 5141SOL    HW226886   4.407   1.604   6.661 -2.1074 -0.4636 -0.3038
 5142SOL     OW26887   2.197   2.117   6.252  0.5622  0.5121  0.2436
 5142SOL    HW126888   2.189   2.027   6.284 -0.6263 -0.1342 -1.9137
 5142SOL    HW226889   2.199   2.103   6.158 -0.4010 -0.7134  0.4064
 5143SOL     OW26890   1.926   1.166   8.687  0.5589 -0.1803 -0.7238
 5143SOL    HW126891   1.894   1.077   8.669  0.8508 -0.4656  0.1946
 5143SOL    HW226892   1.877   1.190   8.766 -0.8156 -2.1234 -0.9746
 5144SOL     OW26893   0.515   2.609   2.853  0.2854  0.0809 -0.6402
 5144SOL    HW126894   0.586   2.592   2.791 -0.0131 -0.6881 -0.7737
 5144SOL    HW226895   0.514   2.518   2.883 -0.5776 -0.0122 -0.9453
 5145SOL     OW26896   3.706   4.705   2.735  0.4906 -0.4118 -0.3263
 5145SOL    HW126897   3.647   4.701   2.660  0.3622  1.1843 -0.3060
 5145SOL    HW226898   3.644   4.712   2.808  1.4551 -1.3333  0.5842
 5146SOL     OW26899   4.443   2.610   9.333  0.1197 -0.0688 -0.5103
 5146SOL    HW126900   4.537   2.612   9.320  0.4937 -4.9536  1.2961
 5146SOL    HW226901   4.408   2.613   9.244 -1.4547 -0.2832  0.0975
 5147SOL     OW26902   0.660   1.372   8.930 -0.0708  0.0152  0.4663
 5147SOL    HW126903   0.599   1.313   8.975 -2.1269  1.8585  0.0492
 5147SOL    HW226904   0.737   1.316   8.923  0.1287  0.2220  1.0042
 5148SOL     OW26905   2.000   3.798   9.773  0.6103  0.0848 -0.0169
 5148SOL    HW126906   2.013   3.885   9.810 -2.9057 -0.1557  1.7579
 5148SOL    HW226907   1.930   3.825   9.713  1.3393 -1.6776 -1.6597
 5149SOL     OW26908   2.832   4.537   7.092  0.1183  0.2135  0.8174
 5149SOL    HW126909   2.824   4.474   7.164 -1.5257 -0.4934  0.0218
 5149SOL    HW226910   2.922   4.508   7.079 -0.3881 -0.2785 -1.4978
 5150SOL     OW26911   0.941   2.421  10.048  0.4231  0.0945 -0.1102
 5150SOL    HW126912   0.911   2.334  10.073  1.1448  0.0924  0.7645
 5150SOL    HW226913   0.970   2.409   9.958  0.2192  1.0804 -0.3078
 5151SOL     OW26914   3.743   1.580   4.101  0.2147  0.3505  0.2557
 5151SOL    HW126915   3.829   1.541   4.086 -0.2873  0.0841 -1.8014
 5151SOL    HW226916   3.697   1.551   4.023 -1.9459  1.3789  1.1334
 5152SOL     OW26917   4.131   0.828   2.934 -0.1663  0.1294  0.5478
 5152SOL    HW126918   4.151   0.778   2.855 -1.7468 -0.0414  0.2656
 5152SOL    HW226919   4.063   0.778   2.979 -0.3818 -0.1990 -0.1480
 5153SOL     OW26920   4.334   1.766   5.600  0.4223  0.0496  0.5272
 5153SOL    HW126921   4.325   1.853   5.560  1.8015 -0.3330 -0.5934
 5153SOL    HW226922   4.382   1.781   5.681  2.0369 -0.1791 -0.4028
 5154SOL     OW26923   1.065   0.310  13.971 -0.0727 -0.3961 -0.2843
 5154SOL    HW126924   1.049   0.219  13.996  2.3529 -0.1147  2.3140
 5154SOL    HW226925   1.156   0.317  14.000 -0.8385  1.2796  1.7287
 5155SOL     OW26926   0.153   0.196   7.793  0.0474 -0.0219 -0.3326
 5155SOL    HW126927   0.247   0.203   7.777 -0.0145 -2.3844 -1.7178
 5155SOL    HW226928   0.152   0.162   7.882  1.3925 -0.0734 -0.3398
 5156SOL     OW26929   0.530   4.401   0.142  0.1677 -0.3798  0.0145
 5156SOL    HW126930   0.500   4.463   0.075 -0.5323  0.6976  1.3091
 5156SOL    HW226931   0.563   4.458   0.212 -0.6310  0.4334 -0.2643
 5157SOL     OW26932   2.405   2.459   5.487 -0.8201  0.0290 -0.0912
 5157SOL    HW126933   2.404   2.517   5.563  0.6077  0.7377 -0.6232
 5157SOL    HW226934   2.318   2.472   5.449 -0.8824 -1.7938 -0.5856
 5158SOL     OW26935   2.797   0.995  17.318 -0.4951  0.3291  0.0852
 5158SOL    HW126936   2.728   0.992  17.385 -1.7392 -0.1791 -1.2285
 5158SOL    HW226937   2.822   0.903  17.316 -2.4882 -0.1719 -1.3807
 5159SOL     OW26938   4.604   3.585   5.979 -0.2157  0.0710 -0.1213
 5159SOL    HW126939   4.598   3.639   6.058 -1.7892 -0.4344  0.1152
 5159SOL    HW226940   4.594   3.497   6.016  0.5158  0.9897  2.2455
 5160SOL     OW26941   2.603   0.547  12.247 -0.1425 -0.3293  0.3455
 5160SOL    HW126942   2.520   0.586  12.275  1.0442  0.2984  3.0013
 5160SOL    HW226943   2.612   0.468  12.300  2.0766 -0.3419 -0.0669
 5161SOL     OW26944   1.777   0.030   4.446 -0.5949 -0.0312 -0.6139
 5161SOL    HW126945   1.768   4.682   4.515  0.4756  0.5693  0.0924
 5161SOL    HW226946   1.847   0.091   4.467 -2.7661  2.0554  0.6218
 5162SOL     OW26947   4.324   2.523   3.908 -0.0126  0.3120 -0.2000
 5162SOL    HW126948   4.282   2.471   3.977 -2.0788  1.0378 -0.9046
 5162SOL    HW226949   4.252   2.586   3.903  0.1680  0.4757 -0.6488
 5163SOL     OW26950   4.116   2.885   4.122  0.2345 -0.0701 -0.4101
 5163SOL    HW126951   4.121   2.939   4.201 -1.6203  0.6217 -0.7509
 5163SOL    HW226952   4.205   2.888   4.087  0.6561  1.1195  0.7273
 5164SOL     OW26953   2.598   2.243   9.898 -0.0940  0.4180 -0.3188
 5164SOL    HW126954   2.545   2.263   9.821 -2.3348 -0.1981  1.0463
 5164SOL    HW226955   2.682   2.247   9.853  0.1690 -0.5137  0.0868
 5165SOL     OW26956   4.547   3.423   5.207 -0.1885 -0.4622 -0.1977
 5165SOL    HW126957   4.453   3.420   5.223 -0.0699  0.7168  0.7306
 5165SOL    HW226958   4.567   3.406   5.115 -0.0476  0.5496 -0.3491
 5166SOL     OW26959   1.491   3.790   4.954 -0.1997 -0.0989  0.3557
 5166SOL    HW126960   1.462   3.756   5.039 -0.1104  0.5145  0.6284
 5166SOL    HW226961   1.551   3.720   4.926 -0.8239 -0.4212 -0.1605
 5167SOL     OW26962   0.318   4.630  15.984 -0.4932 -0.2797 -0.4224
 5167SOL    HW126963   0.308   4.671  16.070  2.4168  0.8462 -0.6163
 5167SOL    HW226964   0.306   4.538  16.006 -2.4224  0.4295  1.4855
 5168SOL     OW26965   3.072   1.758  13.422 -0.1736 -0.3463  0.0669
 5168SOL    HW126966   3.132   1.740  13.350  1.5896 -1.2838  1.7707
 5168SOL    HW226967   3.017   1.829  13.388 -0.1022 -0.1989  0.2601
 5169SOL     OW26968   0.412   2.648  10.538  0.2430 -0.1854 -0.0456
 5169SOL    HW126969   0.398   2.578  10.603 -0.8783  0.2284  0.1508
 5169SOL    HW226970   0.505   2.635  10.520  0.3193  1.2502 -0.6261
 5170SOL     OW26971   3.387   2.662   0.104  0.0367  0.1629 -0.2986
 5170SOL    HW126972   3.300   2.685   0.072 -0.4342 -1.6500 -0.3191
 5170SOL    HW226973   3.381   2.582   0.156  1.6254  0.0841 -0.2130
 5171SOL     OW26974   2.235   1.613  14.176  0.1149  0.4167 -0.1375
 5171SOL    HW126975   2.196   1.671  14.241 -0.9536 -1.2272  0.6542
 5171SOL    HW226976   2.275   1.681  14.120  1.5235 -0.8869 -0.7147
 5172SOL     OW26977   1.834   3.997   4.798  0.2078  0.0533 -0.5492
 5172SOL    HW126978   1.785   3.969   4.721 -1.1850 -0.1826  0.4302
 5172SOL    HW226979   1.921   4.002   4.759  1.6026 -1.1304  2.4016
 5173SOL     OW26980   3.385   0.666   4.307 -0.0591 -0.5423 -0.0560
 5173SOL    HW126981   3.424   0.579   4.318 -1.6730 -1.3576 -0.8013
 5173SOL    HW226982   3.328   0.651   4.232  1.4135  0.5265 -1.3958
 5174SOL     OW26983   0.726   1.743   6.589 -0.2365  0.5908 -0.0787
 5174SOL    HW126984   0.792   1.674   6.596 -0.8450 -0.0152 -0.3127
 5174SOL    HW226985   0.684   1.735   6.504  0.4900  3.3038 -0.6769
 5175SOL     OW26986   0.861   0.872  17.291  0.4931 -0.6920  0.2147
 5175SOL    HW126987   0.828   0.800  17.345  1.7106 -0.5745  1.1299
 5175SOL    HW226988   0.782   0.885  17.238 -0.0175  0.4211  1.2533
 5176SOL     OW26989   2.779   2.318   6.736  0.3752 -0.4568  0.6172
 5176SOL    HW126990   2.684   2.303   6.733  0.1426  1.0097  0.5219
 5176SOL    HW226991   2.811   2.228   6.726  1.1749 -0.0773 -0.2645
 5177SOL     OW26992   2.143   0.920   4.501 -0.3741  0.1003  0.2287
 5177SOL    HW126993   2.169   0.837   4.461 -2.8134  0.4849 -2.1180
 5177SOL    HW226994   2.053   0.901   4.527 -0.7588  2.1725  0.3803
 5178SOL     OW26995   0.437   3.099   6.364 -0.7765 -0.2653 -0.3660
 5178SOL    HW126996   0.362   3.074   6.418  0.8954 -2.9860  0.6787
 5178SOL    HW226997   0.406   3.185   6.334  1.5964  0.2907 -1.2341
 5179SOL     OW26998   2.127   2.797   5.411 -0.5474 -0.0028 -0.0944
 5179SOL    HW126999   2.126   2.891   5.428 -2.3046  0.4396 -2.5638
 5179SOL    HW227000   2.188   2.777   5.482 -0.9614  1.9390  0.7929
 5180SOL     OW27001   3.670   4.256  14.138  0.4594 -0.0616  0.1331
 5180SOL    HW127002   3.665   4.250  14.042 -0.1814 -0.5060  0.1927
 5180SOL    HW227003   3.578   4.260  14.165  0.7928 -1.9536  1.5236
 5181SOL     OW27004   0.044   3.026   8.430  0.5434  0.2542  1.2231
 5181SOL    HW127005   0.089   3.006   8.512  2.3736  1.2909  0.4746
 5181SOL    HW227006   4.670   3.032   8.456 -0.3342 -1.2430 -1.6298
 5182SOL     OW27007   0.976   0.349  13.142 -0.2038 -0.2626  0.6161
 5182SOL    HW127008   1.042   0.388  13.084  0.4248 -0.7936  0.9774
 5182SOL    HW227009   1.027   0.336  13.222  1.3482  1.0170 -0.1763
 5183SOL     OW27010   3.826   2.167   5.064  0.1689  0.0570  0.7537
 5183SOL    HW127011   3.910   2.130   5.036 -0.3823 -0.0517 -0.7904
 5183SOL    HW227012   3.814   2.119   5.146 -0.0993 -2.2814 -0.6592
 5184SOL     OW27013   0.722   0.403   3.874 -0.7132  0.0724 -0.1643
 5184SOL    HW127014   0.654   0.371   3.933 -0.9702 -0.3693 -0.6973
 5184SOL    HW227015   0.665   0.449   3.812 -1.4576 -0.6390 -0.0035
 5185SOL     OW27016   0.344   3.911   0.785 -0.1164 -0.0747  0.3337
 5185SOL    HW127017   0.412   3.965   0.827  1.3553 -0.8410 -1.0867
 5185SOL    HW227018   0.389   3.871   0.711  0.2594 -0.5075  0.7988
 5186SOL     OW27019   1.833   0.802  12.925 -0.0597 -0.3939  0.1656
 5186SOL    HW127020   1.850   0.896  12.937 -0.0653 -0.3979  0.2052
 5186SOL    HW227021   1.899   0.760  12.981 -0.8572 -1.5477  0.2302
 5187SOL     OW27022   1.581   1.188  11.744 -0.0624 -0.2592 -0.0438
 5187SOL    HW127023   1.633   1.127  11.795 -0.8983 -0.6962  0.2777
 5187SOL    HW227024   1.632   1.268  11.758 -2.4556  0.8553  2.2002
 5188SOL     OW27025   4.488   4.300   3.289 -0.1259 -0.2529 -0.0482
 5188SOL    HW127026   4.421   4.366   3.272  0.4791  0.1826 -0.7458
 5188SOL    HW227027   4.568   4.350   3.309 -0.5879  0.3922  0.1652
 5189SOL     OW27028   1.569   2.149   4.295 -0.0390  0.2655 -0.2373
 5189SOL    HW127029   1.538   2.178   4.209 -2.2744 -1.7227 -0.1056
 5189SOL    HW227030   1.495   2.094   4.320  0.4976 -0.4774 -0.3180
 5190SOL     OW27031   2.318   4.614   7.932 -0.3060 -0.0179  0.0827
 5190SOL    HW127032   2.408   4.593   7.958  0.1576  0.0113 -1.5315
 5190SOL    HW227033   2.302   4.527   7.896  1.2602 -0.5564  0.6790
 5191SOL     OW27034   2.681   2.514  17.473  1.3229  0.1148  0.1061
 5191SOL    HW127035   2.763   2.540  17.431  2.2134  0.2696  1.9483
 5191SOL    HW227036   2.714   2.478  17.556  0.8429  0.6182  0.5159
 5192SOL     OW27037   4.034   4.579   0.462  0.6375  0.1619  0.3258
 5192SOL    HW127038   4.128   4.566   0.473  0.4728 -0.7324  0.6674
 5192SOL    HW227039   3.996   4.548   0.545 -0.8151  1.2659  0.0789
 5193SOL     OW27040   1.663   1.713   3.213 -0.0217 -0.4726 -0.5729
 5193SOL    HW127041   1.685   1.668   3.132  0.4425  0.7057 -1.0880
 5193SOL    HW227042   1.636   1.796   3.175  0.8174  0.9696  1.9612
 5194SOL     OW27043   3.296   3.599  17.282  0.0349 -0.0510  0.0985
 5194SOL    HW127044   3.348   3.672  17.251  0.6310 -0.4613  0.1247
 5194SOL    HW227045   3.323   3.531  17.220  0.5341  2.0744 -2.0131
 5195SOL     OW27046   4.221   3.384   4.357 -0.0659  0.4870  0.7172
 5195SOL    HW127047   4.179   3.400   4.441 -0.1338  1.3244  0.5247
 5195SOL    HW227048   4.256   3.296   4.371 -2.4275 -0.5476  0.0332
 5196SOL     OW27049   4.709   2.600   6.171  0.1209 -0.0885 -0.3278
 5196SOL    HW127050   0.030   2.688   6.179 -0.8925  0.6117 -3.2419
 5196SOL    HW227051   0.035   2.549   6.240 -0.0274 -0.3228 -0.4066
 5197SOL     OW27052   0.986   0.918  10.587 -0.1703 -0.0606  0.0783
 5197SOL    HW127053   0.912   0.976  10.570 -0.1838 -0.1908 -0.2921
 5197SOL    HW227054   0.995   0.917  10.682  2.3082 -3.9214 -0.1852
 5198SOL     OW27055   1.920   1.986  15.318 -0.1116 -0.1218 -0.4278
 5198SOL    HW127056   1.947   2.059  15.372  0.1882  1.8423 -3.1999
 5198SOL    HW227057   1.841   2.025  15.278 -0.8454 -1.5100 -0.3325
 5199SOL     OW27058   2.055   0.794   3.897  0.3790  0.6713  0.2677
 5199SOL    HW127059   2.099   0.783   3.982  0.6053 -1.7245 -0.1742
 5199SOL    HW227060   2.057   0.889   3.892  0.1165  0.7864  2.1914
 5200SOL     OW27061   0.262   0.685  14.593 -0.1841 -0.2436  0.2357
 5200SOL    HW127062   0.315   0.650  14.522  0.8683  1.6406  0.0910
 5200SOL    HW227063   0.205   0.611  14.613 -0.0119 -0.4425 -0.0097
 5201SOL     OW27064   3.079   2.246   3.665 -0.3766 -0.2933  0.2268
 5201SOL    HW127065   3.076   2.168   3.722 -0.9160 -0.0886  0.4780
 5201SOL    HW227066   3.023   2.303   3.718  2.4192  1.0050  1.8076
 5202SOL     OW27067   1.693   2.760   4.319  0.0902 -0.3605  0.2823
 5202SOL    HW127068   1.709   2.838   4.372 -0.6217  0.0360 -0.0775
 5202SOL    HW227069   1.618   2.719   4.362 -0.3214  1.1217  0.9722
 5203SOL     OW27070   1.289   1.229  17.504  0.0289 -0.1027 -0.1231
 5203SOL    HW127071   1.354   1.299  17.514  0.4837 -0.5744  0.2566
 5203SOL    HW227072   1.328   1.148  17.535  0.6443 -0.2206 -1.2186
 5204SOL     OW27073   0.760   1.285  15.542  0.2403  0.1343 -0.5737
 5204SOL    HW127074   0.844   1.317  15.510  0.2692  0.4082 -0.2265
 5204SOL    HW227075   0.702   1.315  15.472 -0.8607  1.5208  0.9137
 5205SOL     OW27076   3.572   2.635   6.516 -0.3797 -0.2899 -0.6309
 5205SOL    HW127077   3.477   2.635   6.528 -0.4762  1.8876 -1.3679
 5205SOL    HW227078   3.592   2.542   6.525 -0.2327 -0.5091 -2.9815
 5206SOL     OW27079   3.259   4.430   4.416  0.6261  0.3185  0.1221
 5206SOL    HW127080   3.190   4.484   4.380  0.7851  1.8863  2.2100
 5206SOL    HW227081   3.220   4.398   4.497 -1.0812  0.9522 -0.4568
 5207SOL     OW27082   2.603   1.350   6.635  0.4510 -0.2386  0.2488
 5207SOL    HW127083   2.542   1.284   6.671 -1.8458  1.1293 -1.1309
 5207SOL    HW227084   2.569   1.430   6.675 -0.0523 -0.3286  0.0083
 5208SOL     OW27085   0.471   3.989   7.204 -0.1897  0.4028 -0.1226
 5208SOL    HW127086   0.549   3.969   7.255  0.8501  0.1431 -1.8295
 5208SOL    HW227087   0.409   4.010   7.275 -1.2768 -0.0259 -0.9442
 5209SOL     OW27088   0.408   3.434  15.326  0.2664  0.0964  0.1733
 5209SOL    HW127089   0.394   3.389  15.243 -1.4255 -0.3739  0.7330
 5209SOL    HW227090   0.426   3.361  15.385 -3.3324  0.4546  1.6635
 5210SOL     OW27091   2.540   0.334  12.417 -0.1030 -0.2015  0.2797
 5210SOL    HW127092   2.583   0.369  12.495 -0.1098 -0.0130  0.1972
 5210SOL    HW227093   2.559   0.244  12.445 -0.8913 -0.2433  0.6728
 5211SOL     OW27094   2.417   3.464   6.907  0.0991 -0.1539  0.5035
 5211SOL    HW127095   2.356   3.534   6.932 -0.5772 -0.6555  0.2775
 5211SOL    HW227096   2.377   3.390   6.953  1.0759  0.9248  3.0592
 5212SOL     OW27097   0.337   4.574   8.538 -0.1750  0.2526  0.0138
 5212SOL    HW127098   0.337   4.479   8.525 -0.4115  0.2995 -0.3220
 5212SOL    HW227099   0.244   4.586   8.557 -0.7177  1.1400 -3.2555
 5213SOL     OW27100   2.323   3.746   9.374  0.0774 -0.1281 -0.3086
 5213SOL    HW127101   2.245   3.693   9.359  0.6910 -1.1381  0.0753
 5213SOL    HW227102   2.295   3.823   9.424  0.1245 -0.5542  0.3750
 5214SOL     OW27103   1.168   3.065  12.594  0.8909 -0.3295  0.4462
 5214SOL    HW127104   1.222   3.060  12.515 -0.1097  2.0243 -0.3585
 5214SOL    HW227105   1.222   3.130  12.640 -0.0454 -1.0829  2.6559
 5215SOL     OW27106   1.883   2.355   3.307 -0.1249  0.1758 -0.1832
 5215SOL    HW127107   1.814   2.299   3.272 -0.3969  0.1171  0.4487
 5215SOL    HW227108   1.953   2.327   3.248 -2.4885 -2.2937 -1.8772
 5216SOL     OW27109   3.354   3.294  14.050  0.2999  0.1873  0.1703
 5216SOL    HW127110   3.344   3.385  14.078 -0.3741 -0.2869  1.4740
 5216SOL    HW227111   3.263   3.267  14.061  0.0689  0.5377 -0.8879
 5217SOL     OW27112   2.185   0.394   4.773  0.3323 -0.6006  0.2370
 5217SOL    HW127113   2.102   0.366   4.809 -1.0203  3.1562  0.0441
 5217SOL    HW227114   2.219   0.455   4.839 -1.8469 -0.1047  0.8808
 5218SOL     OW27115   2.058   3.555   8.034 -0.0851  0.2081 -0.1846
 5218SOL    HW127116   2.133   3.545   8.093  0.5475  1.3115 -0.8085
 5218SOL    HW227117   2.085   3.628   7.979  0.0372  0.1580 -0.1914
 5219SOL     OW27118   4.633   0.719  13.139  0.3288  0.4004  0.0586
 5219SOL    HW127119   4.676   0.689  13.220 -0.9631 -0.7141  0.3305
 5219SOL    HW227120   4.548   0.676  13.153 -0.0734  1.1212 -0.1866
 5220SOL     OW27121   1.589   2.150  15.402 -0.1334  0.2915  0.0753
 5220SOL    HW127122   1.497   2.174  15.401  0.5912  3.0828  0.0293
 5220SOL    HW227123   1.593   2.088  15.475  1.5205  1.9390  1.3681
 5221SOL     OW27124   1.328   2.235   6.161 -0.3262 -0.1767 -0.1542
 5221SOL    HW127125   1.413   2.195   6.145 -0.6429 -0.3019 -1.5156
 5221SOL    HW227126   1.336   2.313   6.106 -0.4513  0.6277  0.9626
 5222SOL     OW27127   1.930   2.640   3.937 -0.8444  0.0710  0.1480
 5222SOL    HW127128   1.848   2.599   3.964 -2.4825  1.4018 -2.8548
 5222SOL    HW227129   1.914   2.733   3.951 -0.3730  0.0297  0.9632
 5223SOL     OW27130   0.174   4.373   7.687 -0.0142 -0.6784 -0.0308
 5223SOL    HW127131   0.158   4.414   7.602  0.5973 -1.5288 -0.5523
 5223SOL    HW227132   0.097   4.316   7.691 -0.7293  0.3675  1.2121
 5224SOL     OW27133   0.199   3.611  11.757  0.5686 -0.2449 -0.0826
 5224SOL    HW127134   0.220   3.638  11.847 -0.0497 -0.4852  0.1374
 5224SOL    HW227135   0.212   3.697  11.719 -1.3037  0.0693 -0.0145
 5225SOL     OW27136   1.025   3.606   2.536  0.3181 -0.3406  0.0105
 5225SOL    HW127137   0.992   3.547   2.468  1.9534 -1.9619  0.6357
 5225SOL    HW227138   0.968   3.682   2.528  0.7405 -0.0003  0.2302
 5226SOL     OW27139   3.183   3.336   5.601 -0.4365  0.2766  0.4219
 5226SOL    HW127140   3.179   3.256   5.653  1.4979  0.7845  1.3506
 5226SOL    HW227141   3.228   3.300   5.525 -2.1564  1.1714 -1.0366
 5227SOL     OW27142   4.265   2.111   4.531 -0.3823 -0.4646 -0.1571
 5227SOL    HW127143   4.196   2.084   4.471 -1.9327 -0.0110  1.4386
 5227SOL    HW227144   4.342   2.131   4.478  1.4250 -1.8560  1.9372
 5228SOL     OW27145   2.733   4.474   3.267 -0.2730  0.3560 -0.1944
 5228SOL    HW127146   2.783   4.438   3.194 -1.3359  0.5405 -1.0058
 5228SOL    HW227147   2.651   4.489   3.221 -0.4115  0.8920  0.2376
 5229SOL     OW27148   2.216   2.277   9.778  0.6244 -0.1546  0.1863
 5229SOL    HW127149   2.295   2.243   9.736  0.4305 -1.3223  0.7748
 5229SOL    HW227150   2.158   2.227   9.720  0.2008  3.0010 -2.1070
 5230SOL     OW27151   1.773   1.670  17.333  0.1276 -0.0186 -0.0680
 5230SOL    HW127152   1.687   1.663  17.293 -0.1451  0.1016  0.5039
 5230SOL    HW227153   1.825   1.674  17.253 -0.9197 -1.6714 -0.8086
 5231SOL     OW27154   2.986   0.535   8.041  0.6999  0.5317  0.4808
 5231SOL    HW127155   3.029   0.618   8.020 -0.9398  0.6916 -2.2905
 5231SOL    HW227156   3.056   0.475   8.015  0.8456  0.5192  0.9026
 5232SOL     OW27157   2.926   1.135   7.313 -0.0504  0.1297  0.2849
 5232SOL    HW127158   2.920   1.043   7.340  1.6604  0.3271  1.3506
 5232SOL    HW227159   3.019   1.154   7.322 -0.1197 -0.3086  1.9210
 5233SOL     OW27160   1.179   3.475  15.563 -0.0825  0.0147 -0.1516
 5233SOL    HW127161   1.206   3.501  15.651  0.3485 -1.7824  0.2313
 5233SOL    HW227162   1.240   3.527  15.511 -1.1941 -0.5079 -1.9864
 5234SOL     OW27163   4.628   4.611   9.521  0.2314  0.4837 -0.1015
 5234SOL    HW127164   4.691   4.655   9.465  3.1659 -0.7334  2.2933
 5234SOL    HW227165   4.680   4.591   9.599  0.8013  1.2593 -0.2945
 5235SOL     OW27166   4.270   4.256   7.324 -0.6755  0.2137  0.0198
 5235SOL    HW127167   4.237   4.185   7.270 -1.2072  1.4535 -1.2927
 5235SOL    HW227168   4.363   4.240   7.337 -0.3229  1.5383 -0.8636
 5236SOL     OW27169   3.243   1.343  10.218  0.4761  0.0703 -0.7649
 5236SOL    HW127170   3.213   1.406  10.284 -0.2421  1.5452 -2.4948
 5236SOL    HW227171   3.289   1.388  10.147  1.2819  0.1745 -0.1787
 5237SOL     OW27172   2.462   2.258   4.597  0.0374  0.1253  0.0769
 5237SOL    HW127173   2.416   2.177   4.575 -2.1922  0.9949  1.5470
 5237SOL    HW227174   2.385   2.314   4.588 -1.0506 -1.4742 -0.7291
 5238SOL     OW27175   0.792   1.055   6.289  0.4979  0.4705  0.6194
 5238SOL    HW127176   0.885   1.073   6.274  0.6640 -0.1380  0.9096
 5238SOL    HW227177   0.796   1.031   6.382  0.1234  1.4983  0.9062
 5239SOL     OW27178   1.147   1.112   5.387  0.4683  0.3895  0.1921
 5239SOL    HW127179   1.163   1.193   5.338  1.2565 -1.0276 -1.8891
 5239SOL    HW227180   1.233   1.082   5.415  0.9616  0.4687 -1.2386
 5240SOL     OW27181   0.222   2.866   2.039 -0.0936 -0.1905  0.0072
 5240SOL    HW127182   0.301   2.896   1.994 -1.0204 -1.3608 -2.4266
 5240SOL    HW227183   0.261   2.810   2.105  1.8578 -0.0750 -1.0387
 5241SOL     OW27184   4.163   2.115   5.195 -0.4026  0.0798  0.0446
 5241SOL    HW127185   4.136   2.054   5.126  0.0352  0.7045 -0.6809
 5241SOL    HW227186   4.256   2.111   5.173 -0.1907 -0.0834  0.9777
 5242SOL     OW27187   2.256   3.947   3.512 -0.4547  0.0078 -0.4381
 5242SOL    HW127188   2.267   3.931   3.606  2.1529  1.5766 -0.4622
 5242SOL    HW227189   2.319   4.018   3.500  0.9964 -1.0446  0.8926
 5243SOL     OW27190   4.222   3.754   5.316  0.7788  0.0456  0.3818
 5243SOL    HW127191   4.161   3.771   5.244  2.8159  2.3960 -0.7935
 5243SOL    HW227192   4.203   3.828   5.374  0.9163 -0.0970  0.6072
 5244SOL     OW27193   2.669   4.288  10.163 -0.5700  1.0696  0.7495
 5244SOL    HW127194   2.692   4.372  10.124  0.4782 -0.5757 -2.1788
 5244SOL    HW227195   2.639   4.241  10.085  0.4939  2.2440 -0.3586
 5245SOL     OW27196   0.328   2.411   1.577  0.1463  0.0025 -0.3194
 5245SOL    HW127197   0.400   2.474   1.581  0.9127 -0.8667 -0.3737
 5245SOL    HW227198   0.332   2.363   1.494  0.1170 -0.2375 -0.1810
 5246SOL     OW27199   3.999   3.885   5.186  0.2912 -0.0354  0.4859
 5246SOL    HW127200   4.051   3.952   5.142  0.2867 -0.5996 -0.3889
 5246SOL    HW227201   3.937   3.939   5.234  0.5226  0.8750 -0.2369
 5247SOL     OW27202   4.535   0.417  14.489  0.1344 -0.1815  0.0406
 5247SOL    HW127203   4.471   0.349  14.510  1.5062 -1.2749  0.7112
 5247SOL    HW227204   4.566   0.454  14.572  0.2290 -0.5759  0.1798
 5248SOL     OW27205   1.269   1.390  12.476 -0.3511  0.0649 -0.0193
 5248SOL    HW127206   1.240   1.469  12.522 -0.3620  0.9166 -1.4776
 5248SOL    HW227207   1.359   1.378  12.506  0.1848  1.4932 -1.0325
 5249SOL     OW27208   3.545   0.526   1.613 -0.7458  0.3704 -0.2208
 5249SOL    HW127209   3.617   0.490   1.665  0.1271  1.5333 -0.6233
 5249SOL    HW227210   3.523   0.608   1.656 -1.7825  0.1907 -0.4046
 5250SOL     OW27211   4.127   3.973   0.782 -0.0316  0.6336 -0.1702
 5250SOL    HW127212   4.219   3.977   0.806  0.3639  0.5788 -1.6496
 5250SOL    HW227213   4.121   3.915   0.707 -2.0048 -1.3125  1.5096
 5251SOL     OW27214   4.091   4.246  11.238 -0.4132 -0.1830  0.5740
 5251SOL    HW127215   4.176   4.242  11.195 -1.4680  0.7411 -1.6182
 5251SOL    HW227216   4.066   4.338  11.238 -1.5871 -0.4962  1.3180
 5252SOL     OW27217   1.721   1.194   3.466  1.1232  0.2820 -0.4686
 5252SOL    HW127218   1.652   1.195   3.533  0.3539 -0.1246 -1.2508
 5252SOL    HW227219   1.686   1.240   3.390  0.8527  0.7565 -0.0593
 5253SOL     OW27220   1.407   1.970   0.372 -0.3013 -0.0685 -0.0493
 5253SOL    HW127221   1.418   1.960   0.467 -0.3456  1.0825  0.0801
 5253SOL    HW227222   1.374   1.882   0.351 -0.2128  0.0147 -0.5333
 5254SOL     OW27223   3.826   4.052   7.801  0.6201  0.6784  0.1928
 5254SOL    HW127224   3.876   3.971   7.814  1.7458  1.4015  0.4446
 5254SOL    HW227225   3.749   4.021   7.755  0.6481 -0.9064  1.2233
 5255SOL     OW27226   0.740   4.596   4.830  0.1681 -0.3497  0.3972
 5255SOL    HW127227   0.728   4.501   4.828  0.6395 -0.4372  1.9120
 5255SOL    HW227228   0.833   4.612   4.816  0.7588 -3.8405  0.3808
 5256SOL     OW27229   2.177   4.283  13.451 -0.1500 -0.3119 -0.3187
 5256SOL    HW127230   2.222   4.225  13.513  0.6219 -1.0991 -1.6095
 5256SOL    HW227231   2.095   4.308  13.492  1.8813  1.5511  2.5867
 5257SOL     OW27232   1.097   1.942   8.961  0.5587  0.2950 -0.1094
 5257SOL    HW127233   1.191   1.959   8.956  0.3047  1.2222 -1.7685
 5257SOL    HW227234   1.091   1.865   9.019 -1.8691  0.3816 -0.2459
 5258SOL     OW27235   3.716   4.392   5.413  0.5343  0.8398 -0.3864
 5258SOL    HW127236   3.715   4.338   5.492 -0.1218 -0.3006 -1.1713
 5258SOL    HW227237   3.778   4.460   5.441  0.4027  0.9607 -0.3890
 5259SOL     OW27238   2.399   4.258   3.878 -0.0985 -0.2825 -0.0163
 5259SOL    HW127239   2.356   4.242   3.963  1.0900  0.9144  0.8149
 5259SOL    HW227240   2.364   4.183   3.830 -2.1371 -0.1422  1.2460
 5260SOL     OW27241   1.234   3.849   4.216 -0.3269 -0.2227  0.6924
 5260SOL    HW127242   1.181   3.916   4.173 -1.3879 -2.5226 -1.5739
 5260SOL    HW227243   1.180   3.815   4.287 -0.8707  0.0214  0.3918
 5261SOL     OW27244   2.013   2.011   3.699  0.6186 -0.0273 -0.1528
 5261SOL    HW127245   2.004   2.054   3.614  0.0595 -1.8204 -0.9969
 5261SOL    HW227246   2.042   2.092   3.743 -1.7381  0.4474  0.5603
 5262SOL     OW27247   4.450   0.032   8.569  0.3742 -0.6085 -0.0118
 5262SOL    HW127248   4.446   0.107   8.509  0.7394 -0.9639 -0.4767
 5262SOL    HW227249   4.500   4.688   8.515  1.2417 -0.8616  1.0867
 5263SOL     OW27250   1.894   0.252   8.371  0.2151 -0.5707 -0.2852
 5263SOL    HW127251   1.944   0.260   8.290 -1.7329 -0.5543 -1.5045
 5263SOL    HW227252   1.854   0.339   8.380  0.1502 -0.7647  1.2416
 5264SOL     OW27253   0.111   3.197   3.653 -0.3485 -0.2862  0.5598
 5264SOL    HW127254   0.062   3.129   3.699  1.0877 -1.3652  0.4866
 5264SOL    HW227255   0.155   3.149   3.583 -2.2962  0.9520 -1.5209
 5265SOL     OW27256   0.263   1.652  16.495 -0.0237 -0.6100 -0.1183
 5265SOL    HW127257   0.285   1.684  16.408 -0.5283 -0.3289 -0.1415
 5265SOL    HW227258   0.174   1.619  16.482  0.0070  0.0291 -1.9324
 5266SOL     OW27259   0.373   0.266   1.651  0.0109 -0.0877  0.4735
 5266SOL    HW127260   0.331   0.304   1.574 -0.7725  0.7344  1.3038
 5266SOL    HW227261   0.441   0.216   1.606 -0.0992 -0.6318  0.9232
 5267SOL     OW27262   1.729   3.085   3.739  0.4154 -0.2062  0.6345
 5267SOL    HW127263   1.769   3.047   3.661  0.1542 -0.0769  0.4362
 5267SOL    HW227264   1.773   3.170   3.742 -1.9604  1.0543  0.1708
 5268SOL     OW27265   2.962   3.568   5.870  0.0994  0.2130 -0.0029
 5268SOL    HW127266   2.873   3.538   5.852  0.5554  0.0218 -1.9573
 5268SOL    HW227267   2.998   3.577   5.782  2.3543 -1.9778  0.7190
 5269SOL     OW27268   4.003   0.936   6.200 -0.2022 -0.1492  0.4446
 5269SOL    HW127269   4.037   0.961   6.114 -0.9385 -1.7306 -0.3149
 5269SOL    HW227270   3.921   0.888   6.188 -0.5380 -0.2427  3.2962
 5270SOL     OW27271   4.127   1.502   9.206 -0.4563 -0.0143  0.0260
 5270SOL    HW127272   4.187   1.491   9.279  1.2663  1.1110 -1.2104
 5270SOL    HW227273   4.063   1.567   9.236  1.2677  1.4243  0.5829
 5271SOL     OW27274   0.696   2.214   5.960 -0.0245 -0.0789 -0.3262
 5271SOL    HW127275   0.618   2.159   5.949 -0.3034  0.1093  0.6938
 5271SOL    HW227276   0.683   2.291   5.904  0.0538  0.6592  0.6607
 5272SOL     OW27277   4.100   0.367   3.976 -0.6208  0.4517 -0.0575
 5272SOL    HW127278   4.050   0.434   4.022 -1.2589  0.1466 -0.3090
 5272SOL    HW227279   4.094   0.416   3.894  1.5588 -0.8705 -1.0222
 5273SOL     OW27280   0.645   3.680  17.421 -0.6603 -0.0281 -0.0424
 5273SOL    HW127281   0.573   3.709  17.476 -1.2121  1.3192 -1.4642
 5273SOL    HW227282   0.672   3.764  17.384  0.7625 -0.3488  0.2598
 5274SOL     OW27283   3.128   2.775   0.052 -0.3271 -0.2256  0.1417
 5274SOL    HW127284   3.135   2.869   0.035  2.4317 -0.6276 -0.8361
 5274SOL    HW227285   3.037   2.754   0.028  0.7595 -2.1524 -2.2667
 5275SOL     OW27286   0.339   1.459   8.610  0.5107  0.2731  0.5759
 5275SOL    HW127287   0.254   1.442   8.650  0.2193  4.2224  1.6369
 5275SOL    HW227288   0.369   1.537   8.656  1.5403 -0.3720  0.9801
 5276SOL     OW27289   0.517   1.936   8.587 -0.3367  0.2077  0.1509
 5276SOL    HW127290   0.458   1.984   8.645  0.0798 -2.3023  2.6847
 5276SOL    HW227291   0.593   1.993   8.576 -0.6187  0.3324 -1.2251
 5277SOL     OW27292   0.463   0.100   3.900 -0.1262 -0.6112 -0.6589
 5277SOL    HW127293   0.462   0.146   3.983  0.5050  1.8551 -2.0179
 5277SOL    HW227294   0.439   0.012   3.928  0.3811 -0.4861  0.1685
 5278SOL     OW27295   4.179   3.932   4.128 -0.1979 -0.2944  0.2499
 5278SOL    HW127296   4.137   3.879   4.195 -0.1791  0.5260  0.9104
 5278SOL    HW227297   4.114   3.918   4.059  0.9561 -1.2990 -0.6287
 5279SOL     OW27298   2.371   4.358  10.161  0.0186  0.2659 -0.6130
 5279SOL    HW127299   2.354   4.314  10.244  0.5829  1.2979  0.0597
 5279SOL    HW227300   2.467   4.361  10.159  0.0491  0.4146  1.1593
 5280SOL     OW27301   1.101   0.116   5.243  0.2070 -0.3412 -0.0088
 5280SOL    HW127302   1.119   0.082   5.156 -1.5985 -0.4348 -0.3453
 5280SOL    HW227303   1.189   0.092   5.273  0.1280 -0.2556  0.3005
 5281SOL     OW27304   1.672   4.690   2.932 -0.4481  0.3392  0.2005
 5281SOL    HW127305   1.677   4.600   2.899 -2.8743  0.6166 -0.9497
 5281SOL    HW227306   1.696   0.019   2.852 -0.3762  0.1061  0.0860
 5282SOL     OW27307   4.628   1.974  14.682 -0.0312 -0.6312  0.1319
 5282SOL    HW127308   4.617   1.953  14.589 -0.7468  0.1181  0.0528
 5282SOL    HW227309   4.559   1.915  14.712  0.5773 -1.0393  0.7362
 5283SOL     OW27310   1.843   4.497   9.321  0.2160  0.0870 -0.3627
 5283SOL    HW127311   1.858   4.496   9.227 -1.0029 -0.6742 -0.5476
 5283SOL    HW227312   1.747   4.489   9.326  0.3114 -0.8389 -0.0274
 5284SOL     OW27313   2.381   4.390  14.498 -0.3403  0.1532 -0.4624
 5284SOL    HW127314   2.451   4.401  14.434  0.3830 -0.6828  0.1942
 5284SOL    HW227315   2.434   4.426  14.569 -0.2144 -1.1504  0.1080
 5285SOL     OW27316   2.026   1.238   6.816  0.2008  0.9325 -0.4926
 5285SOL    HW127317   2.034   1.175   6.889 -1.5930 -1.5256 -2.4328
 5285SOL    HW227318   1.971   1.305   6.857 -1.2260 -2.4712  3.2893
 5286SOL     OW27319   3.503   2.096   8.792  1.0212  0.1981  0.5224
 5286SOL    HW127320   3.530   2.008   8.818  2.5470  0.6597  0.5252
 5286SOL    HW227321   3.420   2.086   8.746  1.4654 -0.6859 -0.0736
 5287SOL     OW27322   3.625   0.618   3.953 -0.4977 -0.4270 -0.2666
 5287SOL    HW127323   3.640   0.595   3.861  0.0285  0.0637 -0.3044
 5287SOL    HW227324   3.579   0.537   3.972 -2.4817  0.9793  1.0125
 5288SOL     OW27325   0.161   4.688   2.735  0.1442  0.1813 -0.8673
 5288SOL    HW127326   0.186   4.617   2.675  0.9801 -0.3106  0.0614
 5288SOL    HW227327   0.212   4.671   2.815  1.6890  0.8413 -1.7110
 5289SOL     OW27328   2.705   3.516   4.313 -0.3621  0.1489 -0.1422
 5289SOL    HW127329   2.658   3.598   4.300 -2.2143 -1.2711 -2.4231
 5289SOL    HW227330   2.735   3.525   4.403  1.0129 -0.7489 -0.5063
 5290SOL     OW27331   2.451   4.087   8.104  0.1561  0.1026  0.6095
 5290SOL    HW127332   2.500   4.040   8.037 -1.6649  0.4843 -0.9754
 5290SOL    HW227333   2.510   4.162   8.116  1.1854 -0.2555 -2.2417
 5291SOL     OW27334   0.207   4.557  14.095  0.1077  0.0122 -0.3568
 5291SOL    HW127335   0.254   4.548  14.012  0.4554  0.5545 -0.2242
 5291SOL    HW227336   0.177   4.468  14.109  0.1452  0.1378  0.4870
 5292SOL     OW27337   0.456   0.066   6.905  0.1571 -0.0346  0.2101
 5292SOL    HW127338   0.432   4.716   6.841  0.3708  0.9904 -0.9611
 5292SOL    HW227339   0.551   0.049   6.902  0.2154  0.5600 -1.6392
 5293SOL     OW27340   0.956   0.521   0.260 -0.2453  0.1737  0.1033
 5293SOL    HW127341   0.968   0.521   0.165  2.1140  0.2610  0.4020
 5293SOL    HW227342   1.043   0.558   0.276 -0.2790 -0.3449  1.5258
 5294SOL     OW27343   0.430   1.722   9.663 -0.2419 -0.5271 -0.6240
 5294SOL    HW127344   0.343   1.762   9.670  1.0139  1.8407  1.5412
 5294SOL    HW227345   0.420   1.631   9.690 -2.3579 -0.3880 -0.9144
 5295SOL     OW27346   1.604   3.547   8.162 -0.3879 -0.1107 -0.1040
 5295SOL    HW127347   1.534   3.487   8.139  0.1660 -0.5756 -0.5701
 5295SOL    HW227348   1.671   3.524   8.097 -1.7541 -0.0485 -1.5033
 5296SOL     OW27349   4.208   1.287  17.434 -0.4435 -0.1880 -0.0686
 5296SOL    HW127350   4.279   1.232  17.401 -0.7749 -0.3356 -0.5300
 5296SOL    HW227351   4.169   1.307  17.350  2.0548 -1.5600 -1.5752
 5297SOL     OW27352   3.096   4.297   2.962  0.4774 -0.0890 -0.3245
 5297SOL    HW127353   3.186   4.327   2.948  0.4935  0.5212  1.1039
 5297SOL    HW227354   3.098   4.202   2.951 -0.7418 -0.1692  0.2081
 5298SOL     OW27355   3.091   1.729   8.465 -0.2207  0.1260  0.4806
 5298SOL    HW127356   3.090   1.638   8.496  0.2462 -0.1094 -0.1929
 5298SOL    HW227357   3.047   1.717   8.381 -1.5316  0.2891  1.1399
 5299SOL     OW27358   0.310   1.941   4.589 -0.2819 -0.2484 -0.3550
 5299SOL    HW127359   0.222   1.919   4.618 -0.0602 -1.7449 -0.8233
 5299SOL    HW227360   0.320   1.888   4.510 -1.7132  0.1559 -0.8074
 5300SOL     OW27361   0.314   2.346   1.994 -0.3520 -0.1128 -0.5499
 5300SOL    HW127362   0.275   2.368   1.909 -0.7318  1.1717 -0.0452
 5300SOL    HW227363   0.257   2.271   2.015 -1.4057  1.1869  1.1650
 5301SOL     OW27364   0.312   0.357  10.932  0.3910 -0.2373  0.4077
 5301SOL    HW127365   0.304   0.328  10.841  1.5418  1.6635 -0.2873
 5301SOL    HW227366   0.264   0.440  10.922  0.8848  0.1499  1.2681
 5302SOL     OW27367   0.783   4.237   0.071 -0.1646 -0.2223 -0.3338
 5302SOL    HW127368   0.699   4.283   0.078 -0.4220 -0.6389 -0.6827
 5302SOL    HW227369   0.814   4.284  17.667 -0.5551 -3.0062 -2.1799
 5303SOL     OW27370   0.554   4.167  16.734 -0.5684  0.1041  0.3176
 5303SOL    HW127371   0.616   4.099  16.709 -0.1383  0.4805  0.3392
 5303SOL    HW227372   0.556   4.163  16.830  1.7813  0.1655  0.2923
 5304SOL     OW27373   4.502   2.374  12.519  0.5378 -0.4367 -0.8291
 5304SOL    HW127374   4.550   2.303  12.562 -1.0375 -0.4758  0.8505
 5304SOL    HW227375   4.416   2.337  12.502  1.3489 -1.3175 -2.9288
 5305SOL     OW27376   3.548   0.803   7.059 -0.2112  0.1291  0.2712
 5305SOL    HW127377   3.586   0.783   7.144  1.2424  1.8814  0.0492
 5305SOL    HW227378   3.455   0.801   7.083 -0.2171 -1.6335  0.0573
 5306SOL     OW27379   1.456   1.719   3.803  0.5302  0.0618 -0.0899
 5306SOL    HW127380   1.542   1.728   3.762  0.6166 -1.6777 -0.3178
 5306SOL    HW227381   1.412   1.794   3.764  0.6046  0.4419  0.5525
 5307SOL     OW27382   4.477   2.976   5.537 -0.3567 -0.6088  0.2632
 5307SOL    HW127383   4.555   3.021   5.570 -1.5343  1.0818  0.7914
 5307SOL    HW227384   4.411   3.046   5.536  1.7172  1.4250  3.6445
 5308SOL     OW27385   2.468   4.596  10.431 -0.5991  1.4524 -0.2736
 5308SOL    HW127386   2.447   4.597  10.524 -0.0319 -1.0511 -0.1121
 5308SOL    HW227387   2.560   4.619  10.432 -0.3968  0.6882 -0.8252
 5309SOL     OW27388   4.419   3.962  17.498 -0.2207  0.8673 -0.5202
 5309SOL    HW127389   4.443   3.980  17.588 -0.1507 -1.4903 -0.0669
 5309SOL    HW227390   4.349   3.898  17.515  0.2036  0.5597  0.0488
 5310SOL     OW27391   2.480   4.451   7.341 -0.8178 -0.7634  0.2559
 5310SOL    HW127392   2.448   4.535   7.306 -0.4303 -0.3564  0.8772
 5310SOL    HW227393   2.575   4.457   7.352 -0.4333 -3.0752 -1.7718
 5311SOL     OW27394   2.765   1.115  13.356  0.3510  0.3064 -0.5955
 5311SOL    HW127395   2.688   1.170  13.372 -0.7465 -0.9543 -1.5989
 5311SOL    HW227396   2.756   1.033  13.404  2.5201 -0.8511 -2.1423
 5312SOL     OW27397   1.399   0.101   8.117  0.4817  0.4107  0.3427
 5312SOL    HW127398   1.387   0.185   8.161  0.5695  0.6526 -0.0900
 5312SOL    HW227399   1.477   0.128   8.069 -0.3145  3.1934  0.5964
 5313SOL     OW27400   0.685   3.235   3.285  0.5321  0.4759  0.0210
 5313SOL    HW127401   0.681   3.148   3.325  1.1396 -0.6175 -2.2482
 5313SOL    HW227402   0.631   3.216   3.208  0.0851  0.2588  0.3844
 5314SOL     OW27403   1.759   2.589   7.979 -0.0187 -0.3144 -0.0061
 5314SOL    HW127404   1.763   2.546   7.893 -0.5735 -0.3349 -0.0181
 5314SOL    HW227405   1.665   2.605   7.982 -0.0919 -0.5045 -1.4384
 5315SOL     OW27406   3.591   0.029   8.728  0.6305  0.1249  0.4326
 5315SOL    HW127407   3.568   0.034   8.636  1.4677  0.4040  0.2392
 5315SOL    HW227408   3.631   0.115   8.735 -1.0206  0.9641 -0.5764
 5316SOL     OW27409   2.427   1.234   8.605  0.2009 -0.2016  0.0791
 5316SOL    HW127410   2.390   1.309   8.558  1.8377  0.8910  0.5370
 5316SOL    HW227411   2.452   1.162   8.547  2.3274  0.8993 -0.3754
 5317SOL     OW27412   0.867   3.403   8.091 -0.1105 -0.1029 -0.8937
 5317SOL    HW127413   0.873   3.392   8.186  0.7033 -0.3554 -0.9780
 5317SOL    HW227414   0.946   3.453   8.071 -0.5648  0.4051 -1.4417
 5318SOL     OW27415   1.406   3.238   0.711  0.2253  0.0815  0.4004
 5318SOL    HW127416   1.493   3.207   0.738  0.3364  1.9252  2.1724
 5318SOL    HW227417   1.412   3.328   0.743 -0.0131  0.6997 -1.3057
 5319SOL     OW27418   2.440   1.928   7.963 -0.1885  0.0883  0.4239
 5319SOL    HW127419   2.381   1.997   7.992  0.6579  0.5733  1.0145
 5319SOL    HW227420   2.527   1.965   7.978 -0.5146  0.0721  2.3502
 5320SOL     OW27421   2.906   4.222   3.208 -0.2506  0.3736 -0.5647
 5320SOL    HW127422   2.932   4.145   3.157 -1.2365 -0.0060 -0.4969
 5320SOL    HW227423   2.906   4.285   3.136 -1.1423  0.8050 -0.1958
 5321SOL     OW27424   1.793   4.386   2.282  0.0674  0.4536 -0.1008
 5321SOL    HW127425   1.839   4.375   2.365  4.1058  0.6192 -2.2985
 5321SOL    HW227426   1.824   4.309   2.235  0.2834  0.2603  0.3545
 5322SOL     OW27427   2.409   3.540  16.673 -0.1776 -0.1590  0.1386
 5322SOL    HW127428   2.469   3.487  16.726  3.4818  2.2556 -1.5451
 5322SOL    HW227429   2.377   3.481  16.606  0.2837  0.9043 -1.0192
 5323SOL     OW27430   3.855   2.056   1.873 -0.1915  0.0910  0.3771
 5323SOL    HW127431   3.881   2.145   1.898  0.7724  0.4064 -1.7833
 5323SOL    HW227432   3.937   2.026   1.834 -0.2460 -0.6362  0.8123
 5324SOL     OW27433   1.018   4.599   0.872 -0.1302  0.3636  0.2629
 5324SOL    HW127434   1.011   4.505   0.886  0.0253  0.4329  0.7963
 5324SOL    HW227435   1.100   4.596   0.822 -0.6872 -1.0252 -0.5517
 5325SOL     OW27436   0.036   0.183   2.829 -0.3768  0.0855  0.0298
 5325SOL    HW127437   0.074   0.131   2.759  0.8178  0.3398  0.4975
 5325SOL    HW227438   4.707   0.241   2.769  2.8124  1.9542 -0.6300
 5326SOL     OW27439   2.374   2.178   8.267  0.3136  0.3599  0.1240
 5326SOL    HW127440   2.369   2.124   8.346 -0.5934 -1.2554 -1.0386
 5326SOL    HW227441   2.393   2.263   8.307 -2.2983  0.8445  0.3130
 5327SOL     OW27442   1.927   1.245  13.208 -0.4094  0.4174 -0.1491
 5327SOL    HW127443   2.021   1.258  13.196  0.0772 -2.1776  0.9409
 5327SOL    HW227444   1.898   1.335  13.224 -1.6951  0.1314 -0.8079
 5328SOL     OW27445   4.592   2.061   7.935  0.4204  0.3505  0.3275
 5328SOL    HW127446   4.607   1.969   7.955 -2.0348  0.2102  1.5029
 5328SOL    HW227447   4.558   2.094   8.018 -0.9119 -0.5704  0.1341
 5329SOL     OW27448   0.359   2.028   8.206 -0.1842 -0.4503  0.6497
 5329SOL    HW127449   0.270   1.994   8.211 -0.7676  1.0414  0.4084
 5329SOL    HW227450   0.407   1.963   8.258  0.6408 -1.4178 -1.3574
 5330SOL     OW27451   3.676   3.744  13.970 -0.2331  0.1280  0.9965
 5330SOL    HW127452   3.596   3.700  13.999  0.5275 -1.4930  0.6282
 5330SOL    HW227453   3.679   3.716  13.878 -0.7458 -2.1428  1.6574
 5331SOL     OW27454   0.616   4.359   6.542  0.2245  0.0951  0.1395
 5331SOL    HW127455   0.613   4.314   6.457  1.4081 -0.8476  0.5944
 5331SOL    HW227456   0.575   4.442   6.519 -1.6764 -0.8121  0.2267
 5332SOL     OW27457   0.096   4.213   2.214 -0.2038  0.9086  0.1443
 5332SOL    HW127458   0.111   4.196   2.307 -0.5631 -0.8051 -0.1198
 5332SOL    HW227459   0.001   4.198   2.218  0.0025 -0.6797 -0.8030
 5333SOL     OW27460   0.874   0.358   8.859 -0.3425  0.4225  0.0176
 5333SOL    HW127461   0.890   0.348   8.765 -3.0585 -0.4834 -0.3587
 5333SOL    HW227462   0.791   0.311   8.873 -2.1066  2.5649 -3.0837
 5334SOL     OW27463   0.039   1.206   4.365  0.7934 -0.1194 -0.2194
 5334SOL    HW127464   4.666   1.185   4.389  1.2773 -0.3750  1.4037
 5334SOL    HW227465   0.100   1.132   4.362 -0.3861 -1.0926 -0.2186
 5335SOL     OW27466   0.212   4.354   6.580 -0.4808  0.4665  0.2486
 5335SOL    HW127467   0.126   4.350   6.623 -1.0427  0.8325 -0.8353
 5335SOL    HW227468   0.241   4.444   6.565  0.2867  0.2645  0.5143
 5336SOL     OW27469   3.074   1.120  13.039 -0.4689  0.3500 -0.3556
 5336SOL    HW127470   3.069   1.091  12.947  0.6058  3.6351 -1.4424
 5336SOL    HW227471   3.152   1.175  13.040 -0.7533  0.7457 -0.1436
 5337SOL     OW27472   0.522   0.047   2.524  0.1576  0.2051 -0.5086
 5337SOL    HW127473   0.530   4.678   2.563 -1.3724  0.9460  1.4750
 5337SOL    HW227474   0.552   0.097   2.600 -1.2070 -2.5166  1.7881
 5338SOL     OW27475   2.030   2.470   7.991  0.1030  0.1671 -0.5244
 5338SOL    HW127476   2.037   2.412   8.067  1.1342  1.4632  0.3632
 5338SOL    HW227477   1.936   2.490   7.992 -0.0025 -0.2920 -1.9462
 5339SOL     OW27478   0.599   1.426   8.552  0.6814  0.4647 -0.1128
 5339SOL    HW127479   0.504   1.414   8.561  0.5262  1.0439 -0.9380
 5339SOL    HW227480   0.608   1.482   8.475  0.7167  0.1855 -0.3155
 5340SOL     OW27481   4.717   2.742   4.093  1.1644  0.1530 -0.0291
 5340SOL    HW127482   0.031   2.749   4.184 -0.1114  0.3905  0.3873
 5340SOL    HW227483   4.667   2.661   4.101  2.4830 -0.7254 -0.5656
 5341SOL     OW27484   2.650   3.630   3.874 -0.4265  0.2107  0.0036
 5341SOL    HW127485   2.563   3.611   3.908 -1.4221  0.2911 -2.5123
 5341SOL    HW227486   2.655   3.725   3.864 -0.0795  0.2491  0.5436
 5342SOL     OW27487   2.753   4.321  12.604  0.5298  0.4027  0.4425
 5342SOL    HW127488   2.746   4.276  12.520  0.8716  0.2403  0.5009
 5342SOL    HW227489   2.675   4.299  12.656 -1.0599  0.6295 -1.8581
 5343SOL     OW27490   1.810   4.188  17.313 -0.0088 -0.0323 -0.3724
 5343SOL    HW127491   1.729   4.240  17.306 -0.9265 -1.3892  0.0647
 5343SOL    HW227492   1.775   4.099  17.320 -0.5821  0.1484 -1.0012
 5344SOL     OW27493   3.548   4.079   8.960  0.2062 -0.1677 -0.2179
 5344SOL    HW127494   3.555   4.169   8.993 -2.6308 -0.4699  1.2447
 5344SOL    HW227495   3.599   4.085   8.879  0.5636  1.2845  0.1271
 5345SOL     OW27496   2.252   4.364   5.234 -0.3083  0.0523  0.4898
 5345SOL    HW127497   2.195   4.332   5.164 -0.3297 -1.6547  1.2645
 5345SOL    HW227498   2.198   4.401   5.304 -0.8857  0.7522 -0.3352
 5346SOL     OW27499   1.659   3.571  15.114 -0.0059  0.3215  0.4732
 5346SOL    HW127500   1.669   3.546  15.022  0.6259  1.1666  0.3104
 5346SOL    HW227501   1.660   3.484  15.155 -1.5185  1.4530  2.9530
 5347SOL     OW27502   0.144   2.583   9.219  0.2526 -0.1691  0.2287
 5347SOL    HW127503   0.112   2.586   9.309 -0.6688 -2.4773 -0.0098
 5347SOL    HW227504   0.093   2.508   9.188  2.1101 -0.9208 -1.0024
 5348SOL     OW27505   4.345   4.262   4.639 -0.3762 -0.1033 -0.5069
 5348SOL    HW127506   4.282   4.208   4.591  0.9296  2.3909 -5.0406
 5348SOL    HW227507   4.336   4.353   4.610 -0.4386  0.2099  0.5040
 5349SOL     OW27508   4.253   0.876  16.297  0.0099  0.1177  0.3662
 5349SOL    HW127509   4.331   0.930  16.307 -0.0012  0.5032 -1.6658
 5349SOL    HW227510   4.262   0.827  16.379  2.8646  0.2554  0.1303
 5350SOL     OW27511   3.628   4.140   6.877 -0.3943  0.4050  0.4137
 5350SOL    HW127512   3.665   4.202   6.939 -2.8822  1.7434  0.5107
 5350SOL    HW227513   3.586   4.073   6.931 -0.1033 -1.4692 -1.6432
 5351SOL     OW27514   2.092   4.605   2.075 -0.3883  0.1797 -0.6696
 5351SOL    HW127515   2.141   4.633   2.153 -1.1907 -0.6893  0.1469
 5351SOL    HW227516   2.004   4.629   2.105  0.2683  1.3985  0.3049
 5352SOL     OW27517   1.995   2.650  11.682  0.0713 -0.0606 -0.6495
 5352SOL    HW127518   1.977   2.573  11.736 -2.8304 -0.3822 -2.1280
 5352SOL    HW227519   1.992   2.717  11.751 -1.0596  0.2903 -1.0363
 5353SOL     OW27520   1.078   3.267   0.305 -0.2989  0.3461 -0.2043
 5353SOL    HW127521   1.074   3.184   0.256 -2.3204  0.3301 -0.0287
 5353SOL    HW227522   1.167   3.282   0.335  0.5858 -0.7147 -2.3153
 5354SOL     OW27523   1.035   2.626   7.726 -0.7862  0.0612  0.6021
 5354SOL    HW127524   1.036   2.701   7.786  0.7523 -0.0140  0.6652
 5354SOL    HW227525   0.979   2.663   7.657  0.3047 -1.3545 -1.0376
 5355SOL     OW27526   1.405   3.657   5.192  0.0102 -0.2205 -0.1099
 5355SOL    HW127527   1.435   3.628   5.278 -0.0001 -0.1766 -0.0912
 5355SOL    HW227528   1.372   3.581   5.145 -0.3582 -1.0850  1.5213
 5356SOL     OW27529   3.203   1.320   3.716  0.1212  0.7627 -0.4053
 5356SOL    HW127530   3.256   1.257   3.667 -0.9211  0.1054 -0.6957
 5356SOL    HW227531   3.218   1.402   3.668 -1.9987 -1.0316 -4.1443
 5357SOL     OW27532   1.285   0.223   6.277  0.4782  0.2850 -0.2662
 5357SOL    HW127533   1.242   0.309   6.274  0.2332  0.1408 -0.8065
 5357SOL    HW227534   1.233   0.160   6.327  2.0182  0.8508  2.0303
 5358SOL     OW27535   1.145   1.210   4.741  0.5976  0.2521 -0.4588
 5358SOL    HW127536   1.091   1.249   4.810  0.3720  1.7780 -1.4965
 5358SOL    HW227537   1.159   1.277   4.674  3.2065 -0.6695 -0.8377
 5359SOL     OW27538   2.457   1.810   6.636 -0.0333  0.2845 -0.3661
 5359SOL    HW127539   2.516   1.765   6.575  1.3814  0.6418  0.7453
 5359SOL    HW227540   2.401   1.736   6.658 -0.0939  0.5850  0.4892
 5360SOL     OW27541   1.625   0.721   2.610 -0.6716  0.2825  0.2260
 5360SOL    HW127542   1.710   0.685   2.586 -0.0612  1.0046  1.2929
 5360SOL    HW227543   1.610   0.670   2.689  1.7168  0.5352  0.8436
 5361SOL     OW27544   3.845   0.208   2.697  0.5358 -0.0046 -0.1087
 5361SOL    HW127545   3.791   0.130   2.711 -1.7137  2.1168  2.9393
 5361SOL    HW227546   3.787   0.274   2.736  2.5574  0.4692  2.0524
 5362SOL     OW27547   0.518   3.953   2.745  0.4902 -0.0862  0.0990
 5362SOL    HW127548   0.537   3.868   2.783  2.1556 -0.0702 -0.6878
 5362SOL    HW227549   0.461   3.929   2.672 -0.0269  0.2217  0.4003
 5363SOL     OW27550   0.675   0.161  14.034 -0.0684  0.0138 -0.4966
 5363SOL    HW127551   0.714   0.244  14.006 -0.2053 -0.2695 -1.5130
 5363SOL    HW227552   0.745   0.095  14.031  0.5004  0.5980 -0.0786
 5364SOL     OW27553   0.943   2.670  11.868  0.1603 -0.1006  0.1009
 5364SOL    HW127554   0.886   2.675  11.945  0.8191  1.0481  0.5174
 5364SOL    HW227555   0.904   2.743  11.820 -2.2386 -1.9840 -0.8208
 5365SOL     OW27556   3.083   0.210  11.960  0.4486  0.0038 -0.3524
 5365SOL    HW127557   3.142   0.171  12.025 -0.2772  0.1069  0.3837
 5365SOL    HW227558   3.002   0.207  12.012  0.7215  1.7168  0.1709
 5366SOL     OW27559   0.883   1.655  12.286 -0.0180  0.2439  0.1107
 5366SOL    HW127560   0.857   1.729  12.341 -0.4787 -1.1026  1.7283
 5366SOL    HW227561   0.881   1.589  12.355  1.6965  1.1650  1.0334
 5367SOL     OW27562   3.859   3.153   1.092 -0.3684  0.1350  0.3182
 5367SOL    HW127563   3.863   3.161   0.996  0.0965  1.6109  0.4647
 5367SOL    HW227564   3.764   3.155   1.097 -0.3350 -0.5398  1.2376
 5368SOL     OW27565   0.769   1.086   8.083 -0.0092 -0.4143 -0.0455
 5368SOL    HW127566   0.836   1.145   8.114 -0.3791 -0.5793  1.0539
 5368SOL    HW227567   0.828   1.013   8.063 -1.1619 -1.1625 -0.7766
 5369SOL     OW27568   3.479   2.014  11.904 -0.4488 -0.3648  0.3448
 5369SOL    HW127569   3.459   1.945  11.967 -0.5485 -0.9710 -0.3529
 5369SOL    HW227570   3.482   1.964  11.822  0.4799  2.1147 -1.1104
 5370SOL     OW27571   3.202   3.559   6.951  0.2030  0.1173 -0.1464
 5370SOL    HW127572   3.267   3.528   6.888  0.9969 -0.2406  0.8470
 5370SOL    HW227573   3.167   3.628   6.894  0.3797  2.3773  2.5128
 5371SOL     OW27574   1.568   2.691  11.271  0.4319 -0.4927 -0.1478
 5371SOL    HW127575   1.515   2.743  11.332  1.5143 -0.3775  0.7064
 5371SOL    HW227576   1.659   2.711  11.294  0.0454 -0.7344  1.6454
 5372SOL     OW27577   1.017   0.392   5.952  0.3039  0.3263  0.2764
 5372SOL    HW127578   1.090   0.449   5.975  0.5569  0.0714  0.1036
 5372SOL    HW227579   1.063   0.308   5.961  1.0092  0.3772 -2.9631
 5373SOL     OW27580   4.631   2.838   1.490  0.3503 -0.2816 -0.2100
 5373SOL    HW127581   4.695   2.823   1.560  0.9504 -0.3251 -0.7774
 5373SOL    HW227582   4.615   2.930   1.507  0.1992  0.1898 -2.9242
 5374SOL     OW27583   3.462   4.000   4.065  0.2091  0.2967 -0.4473
 5374SOL    HW127584   3.450   4.078   4.011  1.5040 -0.6973 -2.1229
 5374SOL    HW227585   3.490   3.943   3.994 -0.7332  0.1874 -0.7274
 5375SOL     OW27586   2.793   3.979   8.581 -0.2119 -0.1623  0.3711
 5375SOL    HW127587   2.713   3.956   8.628  0.7997 -0.3367  2.0269
 5375SOL    HW227588   2.860   3.970   8.649  0.7753  2.0781 -0.3031
 5376SOL     OW27589   3.780   1.399   7.285  0.3558  0.0462  0.0386
 5376SOL    HW127590   3.788   1.429   7.194  2.2077 -2.4714 -0.6438
 5376SOL    HW227591   3.812   1.309   7.285 -2.1490 -0.8455 -0.7300
 5377SOL     OW27592   3.075   2.839   2.792  0.8150  0.0458  0.4384
 5377SOL    HW127593   2.980   2.831   2.793  0.8000  0.1711  0.2489
 5377SOL    HW227594   3.093   2.860   2.883  2.7767 -0.4967  0.1725
 5378SOL     OW27595   2.585   1.493   0.211  0.3877  0.1987 -0.3037
 5378SOL    HW127596   2.505   1.546   0.216 -0.2695 -1.0741  2.0953
 5378SOL    HW227597   2.586   1.486   0.115  1.8711  1.4152 -0.3818
 5379SOL     OW27598   1.732   0.963  16.251 -0.4014  0.3314  0.2755
 5379SOL    HW127599   1.715   1.004  16.166 -1.4704 -0.9115 -0.1062
 5379SOL    HW227600   1.790   0.889  16.232  1.9544  2.3320 -0.3083
 5380SOL     OW27601   2.539   0.859   6.463  0.6773 -0.5133  0.6250
 5380SOL    HW127602   2.609   0.891   6.519  0.2404  0.3921  0.6522
 5380SOL    HW227603   2.557   0.904   6.381  0.0306  2.2242  2.0024
 5381SOL     OW27604   3.564   1.750   4.213 -0.2035 -0.3275 -0.5759
 5381SOL    HW127605   3.487   1.693   4.207  0.2173 -1.1733  1.9686
 5381SOL    HW227606   3.621   1.691   4.164 -0.0156 -1.9085  1.5418
 5382SOL     OW27607   4.668   1.284   3.239  0.2173  0.1397 -0.1898
 5382SOL    HW127608   4.610   1.286   3.315  0.0356 -3.6340 -0.2364
 5382SOL    HW227609   0.026   1.336   3.269 -2.3896  2.7062  1.8540
 5383SOL     OW27610   0.702   2.509   7.085 -0.2205 -0.3345 -0.2189
 5383SOL    HW127611   0.684   2.475   6.997  0.1203 -0.5525 -0.2037
 5383SOL    HW227612   0.744   2.431   7.121  0.4349 -0.3441 -1.0089
 5384SOL     OW27613   2.178   3.971   3.977  0.0335 -0.0217 -0.0442
 5384SOL    HW127614   2.254   3.942   4.027  0.4506  2.0015  0.5076
 5384SOL    HW227615   2.187   3.920   3.897 -1.3972 -0.2509 -0.0652
 5385SOL     OW27616   1.331   2.551   6.131  0.6825  0.2073 -0.0337
 5385SOL    HW127617   1.344   2.531   6.038 -0.5035  1.6973 -0.5179
 5385SOL    HW227618   1.291   2.638   6.128 -1.3271 -0.6964  1.3594
 5386SOL     OW27619   3.990   0.729   0.759 -0.4951  0.1470  0.1310
 5386SOL    HW127620   4.067   0.704   0.708 -0.7600  1.1679 -0.7727
 5386SOL    HW227621   4.022   0.714   0.848 -0.9682  1.1413  0.4618
 5387SOL     OW27622   2.302   3.518   4.622  0.0386  0.0658  0.0800
 5387SOL    HW127623   2.340   3.453   4.563  0.0625  0.6000 -0.4829
 5387SOL    HW227624   2.334   3.482   4.705 -0.9716  1.5686  1.1275
 5388SOL     OW27625   3.830   0.783   1.334 -0.2776  0.5588  0.3852
 5388SOL    HW127626   3.888   0.855   1.312  2.0569 -1.7285 -0.9359
 5388SOL    HW227627   3.754   0.825   1.375 -1.6584  0.8125 -2.3538
 5389SOL     OW27628   0.983   2.176  11.422 -0.5566  0.2745 -0.1217
 5389SOL    HW127629   0.974   2.242  11.354  1.7581  2.6156  1.8457
 5389SOL    HW227630   0.900   2.192  11.467  0.7021  1.4121  1.7862
 5390SOL     OW27631   1.316   3.109  12.376 -0.1951 -0.0202  0.0427
 5390SOL    HW127632   1.311   3.134  12.284 -3.2036  0.2861  0.2889
 5390SOL    HW227633   1.383   3.172  12.402  1.2029 -1.7444  0.6337
 5391SOL     OW27634   3.038   2.797  11.490  0.4910 -0.6140  1.0111
 5391SOL    HW127635   2.968   2.809  11.554 -0.3392 -0.9219  0.1578
 5391SOL    HW227636   3.005   2.764  11.407 -2.3616 -0.2096  1.9780
 5392SOL     OW27637   4.117   3.072   3.369  0.0287  0.6240 -0.1136
 5392SOL    HW127638   4.200   3.107   3.400 -0.0991  1.2964 -0.5257
 5392SOL    HW227639   4.060   3.080   3.446 -0.1816  2.2306 -0.4196
 5393SOL     OW27640   3.980   2.480   0.785  0.4290  0.2592  0.4575
 5393SOL    HW127641   4.072   2.477   0.811  0.1965 -0.1382  1.2386
 5393SOL    HW227642   3.952   2.567   0.814  0.4151  0.7780 -1.1577
 5394SOL     OW27643   0.098   3.866   6.138 -0.0222  0.0450 -0.2920
 5394SOL    HW127644   0.128   3.888   6.049 -0.2414 -1.2790 -0.7036
 5394SOL    HW227645   0.177   3.873   6.191 -0.2917  1.4315 -0.0810
 5395SOL     OW27646   1.586   1.616   6.001 -0.2108  0.6004  0.6778
 5395SOL    HW127647   1.551   1.584   6.083  1.5562  0.0503  1.2272
 5395SOL    HW227648   1.647   1.553   5.961 -0.0981  0.8604  0.4428
 5396SOL     OW27649   2.843   2.549  10.653  0.0066 -0.2420 -0.1025
 5396SOL    HW127650   2.895   2.469  10.660  1.6897  0.8437 -0.0423
 5396SOL    HW227651   2.900   2.611  10.698  0.2921 -0.9193  0.4626
 5397SOL     OW27652   2.650   4.610   7.748 -0.2169 -0.2414 -0.4387
 5397SOL    HW127653   2.649   4.695   7.792  1.6694 -0.3398 -0.1707
 5397SOL    HW227654   2.735   4.578   7.778 -1.1443 -1.3336  0.9424
 5398SOL     OW27655   1.781   3.391   6.638  1.0346  0.4234 -0.3185
 5398SOL    HW127656   1.820   3.473   6.608  1.3859  0.4071  0.0943
 5398SOL    HW227657   1.718   3.372   6.569 -0.2158  0.2752  0.8564
 5399SOL     OW27658   4.700   4.400   8.707  0.8068 -0.7339  0.1026
 5399SOL    HW127659   4.680   4.309   8.729  2.2398 -0.7401  1.3949
 5399SOL    HW227660   0.051   4.404   8.640  0.2113 -0.6639 -0.4979
 5400SOL     OW27661   0.448   2.170  17.355  0.2857  0.2498 -0.6773
 5400SOL    HW127662   0.447   2.074  17.352 -2.7590  0.2783 -0.6877
 5400SOL    HW227663   0.445   2.177  17.451  0.5160  0.4190 -0.6825
 5401SOL     OW27664   2.340   0.806   9.023 -0.4011 -0.2688 -0.0942
 5401SOL    HW127665   2.346   0.901   9.020 -2.1090 -0.1965 -0.8193
 5401SOL    HW227666   2.258   0.795   8.975  0.6248  1.3296 -2.2402
 5402SOL     OW27667   0.872   3.684   7.028  0.5424  0.0215 -0.5108
 5402SOL    HW127668   0.826   3.765   7.009 -1.5442 -0.4161  2.6332
 5402SOL    HW227669   0.953   3.682   6.977  0.3552  0.4470 -0.8259
 5403SOL     OW27670   0.689   4.275   6.969 -0.5762  0.5636  0.7564
 5403SOL    HW127671   0.654   4.202   6.919 -3.5178  0.5965  2.7308
 5403SOL    HW227672   0.607   4.321   6.988 -0.7093  1.1498 -1.2164
 5404SOL     OW27673   2.544   3.837   9.024  0.0684  0.3018 -0.2615
 5404SOL    HW127674   2.452   3.835   8.999  0.2574 -0.1366 -0.9086
 5404SOL    HW227675   2.554   3.754   9.071  1.8801 -0.0656 -1.2896
 5405SOL     OW27676   3.487   4.652   8.439  0.1368 -0.4659  0.0106
 5405SOL    HW127677   3.528   4.586   8.383  1.4283  0.6246 -0.3340
 5405SOL    HW227678   3.467   0.016   8.393 -1.4718 -1.2601 -0.6963
 5406SOL     OW27679   4.564   3.579   2.999  0.4022 -0.0034 -0.2986
 5406SOL    HW127680   4.570   3.652   3.062  0.5919 -1.2539  1.1260
 5406SOL    HW227681   4.596   3.515   3.063  1.3166 -0.1186 -0.8812
 5407SOL     OW27682   0.062   1.054   7.410 -0.0203 -0.0710 -0.0090
 5407SOL    HW127683   0.077   0.964   7.437 -2.2852 -1.0059 -1.7884
 5407SOL    HW227684   0.143   1.097   7.434 -0.3336  1.3871 -1.5328
 5408SOL     OW27685   2.933   2.916  13.921 -0.9649 -0.0391 -0.0086
 5408SOL    HW127686   2.867   2.851  13.900 -0.7226 -0.7081  1.2929
 5408SOL    HW227687   2.944   2.964  13.839  1.3551  1.8771  1.4010
 5409SOL     OW27688   4.174   2.909  14.364 -0.5539 -0.0252  0.3710
 5409SOL    HW127689   4.209   2.947  14.283 -4.0679 -1.3818 -1.7967
 5409SOL    HW227690   4.099   2.862  14.328 -1.0611  1.4313 -0.4538
 5410SOL     OW27691   1.821   0.989   9.062  0.3842 -0.3094  0.4035
 5410SOL    HW127692   1.904   1.027   9.091 -0.0184 -2.6562  4.6525
 5410SOL    HW227693   1.814   0.923   9.131  1.6618  0.8097  1.5849
 5411SOL     OW27694   2.603   3.726  16.033  0.0389 -0.3124  0.6217
 5411SOL    HW127695   2.536   3.659  16.045 -1.5792  1.0195 -1.0824
 5411SOL    HW227696   2.551   3.799  16.000  2.5833  1.2026 -0.0968
 5412SOL     OW27697   4.632   0.124   9.087 -0.2249  0.5605 -0.1737
 5412SOL    HW127698   4.628   0.060   9.017  0.7550  0.6024 -0.2748
 5412SOL    HW227699   4.592   0.071   9.156  0.0867  0.4423 -0.0844
 5413SOL     OW27700   4.415   1.500  11.196  0.0968  0.3579 -0.4259
 5413SOL    HW127701   4.402   1.523  11.288  2.6833 -1.5090  0.4096
 5413SOL    HW227702   4.492   1.444  11.190 -0.4997 -0.5475  0.4438
 5414SOL     OW27703   0.464   3.551   4.563 -0.1914 -0.4721  0.3213
 5414SOL    HW127704   0.457   3.647   4.559  1.5167 -0.3236  0.7398
 5414SOL    HW227705   0.438   3.527   4.474 -0.5972  0.2766  0.2332
 5415SOL     OW27706   3.318   1.155   3.482 -0.3429  0.6885  0.3264
 5415SOL    HW127707   3.292   1.229   3.428  0.7367 -0.0725 -1.2372
 5415SOL    HW227708   3.399   1.124   3.441 -1.6237  0.2795 -1.8829
 5416SOL     OW27709   4.057   2.579   3.353 -0.0119  0.6614  0.3838
 5416SOL    HW127710   3.964   2.603   3.355  0.0606  0.9092  0.6387
 5416SOL    HW227711   4.062   2.519   3.427 -1.1296 -1.5488 -1.2931
 5417SOL     OW27712   4.457   3.393  15.116 -0.1525 -0.4082 -0.3239
 5417SOL    HW127713   4.450   3.390  15.211 -2.7804  0.9958 -0.4753
 5417SOL    HW227714   4.467   3.299  15.102  0.2964 -0.3369 -0.4912
 5418SOL     OW27715   4.655   1.844   6.018 -0.0301 -0.1274  0.0713
 5418SOL    HW127716   4.638   1.929   5.977 -0.0807 -1.0582 -1.8629
 5418SOL    HW227717   4.593   1.850   6.090 -0.4053 -0.6694 -0.2033
 5419SOL     OW27718   2.406   0.147  17.387 -0.2272 -0.4216  0.0660
 5419SOL    HW127719   2.398   0.078  17.322 -0.8509 -0.0212 -0.2847
 5419SOL    HW227720   2.377   0.105  17.468 -0.0153 -4.3297 -1.9090
 5420SOL     OW27721   1.084   2.942  16.079 -0.7233 -0.3851 -0.6217
 5420SOL    HW127722   1.034   3.015  16.045  0.8602  1.0080  0.0590
 5420SOL    HW227723   1.022   2.883  16.123  0.3354 -0.0447  1.3067
 5421SOL     OW27724   2.636   2.267   5.518 -0.2443  0.2710 -0.2743
 5421SOL    HW127725   2.568   2.330   5.539  0.0533  0.7090 -0.6351
 5421SOL    HW227726   2.681   2.322   5.454 -0.8723 -0.8929 -1.7210
 5422SOL     OW27727   0.061   4.072  15.393 -0.4750 -0.2968  0.3042
 5422SOL    HW127728   0.144   4.119  15.390 -0.1350 -1.1044 -3.4242
 5422SOL    HW227729   0.056   4.051  15.486 -1.6124 -1.8904 -0.1192
 5423SOL     OW27730   4.499   1.178   4.422 -0.1610 -0.1415  0.4013
 5423SOL    HW127731   4.419   1.230   4.429  1.4847  2.5365 -0.7267
 5423SOL    HW227732   4.515   1.158   4.514 -0.1160  2.0527  0.8817
 5424SOL     OW27733   0.848   0.331   4.450 -0.0844  0.3733 -0.6760
 5424SOL    HW127734   0.855   0.275   4.527  1.1188  0.8733 -0.4232
 5424SOL    HW227735   0.921   0.293   4.401  0.2702  0.0169  0.1482
 5425SOL     OW27736   2.615   4.021   5.949 -0.5435 -0.4154 -0.0680
 5425SOL    HW127737   2.581   4.100   5.990  1.0423  0.4143 -0.3352
 5425SOL    HW227738   2.563   3.966   6.008  0.3580  0.4734  1.5869
 5426SOL     OW27739   4.661   4.443   2.099 -0.4128  0.1829 -0.1171
 5426SOL    HW127740   4.664   4.445   2.195 -1.3501  4.0766 -0.1456
 5426SOL    HW227741   0.022   4.393   2.079 -0.6152  0.1546 -0.8450
 5427SOL     OW27742   1.801   0.506  17.170  0.4082  0.2283  0.1805
 5427SOL    HW127743   1.835   0.551  17.247  0.4165  1.1862 -0.3819
 5427SOL    HW227744   1.883   0.488  17.124 -0.6259 -1.6033 -0.9211
 5428SOL     OW27745   2.947   0.319   2.826 -0.1689  0.1026 -0.1237
 5428SOL    HW127746   2.989   0.382   2.885  1.7943 -0.7420 -0.6274
 5428SOL    HW227747   3.008   0.249   2.848  0.8445  0.8166 -0.6847
 5429SOL     OW27748   1.053   2.495  16.114  0.4924  0.5730  0.3383
 5429SOL    HW127749   1.115   2.530  16.179 -0.5961 -0.2930  1.8470
 5429SOL    HW227750   1.072   2.548  16.037  1.0428  1.0133  0.7645
 5430SOL     OW27751   2.508   3.657   5.249  0.6611  0.5318  0.5944
 5430SOL    HW127752   2.490   3.604   5.171  0.7733  1.4015 -0.0266
 5430SOL    HW227753   2.439   3.626   5.307 -0.9654  0.0426 -1.6036
 5431SOL     OW27754   3.786   4.667   9.140  0.1164  0.1305 -0.1847
 5431SOL    HW127755   3.867   4.656   9.090 -1.4574 -1.8140 -2.3097
 5431SOL    HW227756   3.717   4.624   9.088 -0.3783 -0.6144  1.0917
 5432SOL     OW27757   0.364   1.131   3.306  0.6827 -0.0734 -0.1380
 5432SOL    HW127758   0.339   1.177   3.226 -2.9683  0.5362  1.3286
 5432SOL    HW227759   0.379   1.044   3.269 -0.2708 -1.2322  2.1963
 5433SOL     OW27760   1.684   1.048   7.446  0.7806  0.0997  0.0222
 5433SOL    HW127761   1.657   1.059   7.538 -2.2363 -0.4555 -0.8023
 5433SOL    HW227762   1.694   0.953   7.448 -2.0012 -0.2230 -1.0206
 5434SOL     OW27763   0.754   0.199   1.835 -0.5068  0.2183 -0.2450
 5434SOL    HW127764   0.841   0.207   1.796 -1.2245  0.9478 -1.6718
 5434SOL    HW227765   0.764   0.252   1.914 -1.2712  0.5599 -0.3798
 5435SOL     OW27766   0.544   2.622   4.323  0.3768  0.3975  0.1458
 5435SOL    HW127767   0.527   2.530   4.344  1.1637  0.6884  2.0774
 5435SOL    HW227768   0.464   2.647   4.277 -1.6732 -1.8262  2.4822
 5436SOL     OW27769   1.797   2.153   4.450 -0.2963  0.0138  0.2717
 5436SOL    HW127770   1.753   2.200   4.520  0.1225  0.8996 -0.0527
 5436SOL    HW227771   1.723   2.134   4.392 -0.5490 -1.3414  1.0518
 5437SOL     OW27772   3.492   2.625   5.714  0.0779 -0.2514 -0.3734
 5437SOL    HW127773   3.398   2.645   5.704  0.1984  1.7023  2.4806
 5437SOL    HW227774   3.503   2.533   5.690 -0.1551 -0.3523 -0.0887
 5438SOL     OW27775   3.268   4.166   7.695  0.2459  0.3851  0.8149
 5438SOL    HW127776   3.285   4.175   7.601 -0.1246 -1.6441  0.5594
 5438SOL    HW227777   3.311   4.249   7.718 -1.0395  1.3996 -0.4263
 5439SOL     OW27778   0.651   2.493   8.219 -0.0328  0.0354  0.2581
 5439SOL    HW127779   0.605   2.540   8.288 -1.3277  0.0245 -0.5931
 5439SOL    HW227780   0.583   2.440   8.177 -1.8091  0.3745  2.7537
 5440SOL     OW27781   3.994   1.587   8.662 -0.0715 -0.3997 -0.0160
 5440SOL    HW127782   4.085   1.559   8.669  0.2050  0.4653 -0.1821
 5440SOL    HW227783   3.970   1.504   8.621 -0.3811 -0.8690  1.1098
 5441SOL     OW27784   3.586   0.994   6.587  0.0294 -0.2152  0.0564
 5441SOL    HW127785   3.508   1.049   6.595  1.7016  1.9527  1.4148
 5441SOL    HW227786   3.612   0.976   6.678 -1.0045 -1.4982  0.0985
 5442SOL     OW27787   0.922   2.237   3.724  0.4027  0.3582  0.5098
 5442SOL    HW127788   0.936   2.249   3.818  3.5736 -2.3990  0.3959
 5442SOL    HW227789   0.976   2.309   3.692  0.0188  0.7581  0.7608
 5443SOL     OW27790   2.367   4.216  14.887  0.7042 -0.1982 -0.6930
 5443SOL    HW127791   2.321   4.215  14.971  1.6517  1.2500 -0.1546
 5443SOL    HW227792   2.287   4.201  14.837  0.3162  2.3473 -0.8260
 5444SOL     OW27793   2.435   1.922   3.294  0.2052 -0.1988 -0.3905
 5444SOL    HW127794   2.524   1.956   3.292 -0.2996  1.0879 -1.1818
 5444SOL    HW227795   2.388   2.001   3.266 -2.4723 -1.6842 -0.0849
 5445SOL     OW27796   4.454   3.549   3.331  0.2509  0.1077 -0.4302
 5445SOL    HW127797   4.422   3.474   3.280  1.9631 -0.3224 -0.8919
 5445SOL    HW227798   4.521   3.506   3.385 -0.8833 -0.2245  0.7302
 5446SOL     OW27799   4.077   2.871  17.339 -0.1010 -0.2930 -0.3955
 5446SOL    HW127800   4.113   2.848  17.424 -1.5130 -1.5745 -0.1377
 5446SOL    HW227801   3.986   2.896  17.355  0.0209 -1.5305  2.1532
 5447SOL     OW27802   3.029   3.235  12.719 -0.5680  0.1430  0.5689
 5447SOL    HW127803   2.992   3.174  12.783  4.5901 -2.2445  1.2721
 5447SOL    HW227804   2.985   3.317  12.741 -1.1777 -0.7720  2.8375
 5448SOL     OW27805   0.643   0.069   7.177  0.1897  0.1145 -0.3876
 5448SOL    HW127806   0.679   0.060   7.089  0.8549 -1.5771  0.0540
 5448SOL    HW227807   0.637   4.693   7.197  1.2908  0.4102  1.2928
 5449SOL     OW27808   0.763   3.565   1.295  0.0155  0.4078 -0.3440
 5449SOL    HW127809   0.679   3.559   1.341 -0.0827 -1.0727 -0.7188
 5449SOL    HW227810   0.746   3.524   1.210 -3.0125  0.8131  0.0597
 5450SOL     OW27811   0.549   2.571   4.911 -0.2485 -0.0355 -0.1977
 5450SOL    HW127812   0.618   2.568   4.978 -0.4882 -0.6167  0.0213
 5450SOL    HW227813   0.597   2.594   4.832 -0.6751 -0.9884 -0.7362
 5451SOL     OW27814   2.924   1.805   5.775 -0.2921  0.0308  0.3009
 5451SOL    HW127815   2.835   1.777   5.798 -0.0609 -0.3575  0.7281
 5451SOL    HW227816   2.972   1.756   5.842 -0.4682  0.7976  0.9855
 5452SOL     OW27817   2.953   1.215   6.162  0.3721  0.9539  0.3087
 5452SOL    HW127818   2.861   1.238   6.150  0.0542  0.1932  1.2920
 5452SOL    HW227819   2.946   1.179   6.250  1.8947 -0.0898  0.0198
 5453SOL     OW27820   2.947   2.585   9.447  0.1692 -0.5986 -0.0121
 5453SOL    HW127821   2.947   2.663   9.501  0.8436  0.1443 -1.0805
 5453SOL    HW227822   3.019   2.532   9.480 -0.6646 -0.6575  1.7327
 5454SOL     OW27823   3.473   2.204   6.958 -0.0962  0.1677 -0.3512
 5454SOL    HW127824   3.497   2.290   6.924 -0.4404  1.1607  1.9293
 5454SOL    HW227825   3.549   2.200   7.016 -1.9312 -1.9603  1.8413
 5455SOL     OW27826   4.561   1.742   5.181 -0.1109  0.0781 -0.2594
 5455SOL    HW127827   4.494   1.686   5.220 -1.5473  1.6282 -0.4782
 5455SOL    HW227828   4.514   1.760   5.099  2.6486  0.2206 -1.7940
 5456SOL     OW27829   3.584   1.429   5.115  0.2386 -0.4942 -0.1285
 5456SOL    HW127830   3.521   1.427   5.042  0.3854 -1.0062 -0.2439
 5456SOL    HW227831   3.606   1.522   5.115 -3.5735  0.4554 -1.5423
 5457SOL     OW27832   3.961   3.101   9.610 -0.4630  0.8368 -0.4580
 5457SOL    HW127833   3.988   3.067   9.525  3.8340  1.0588  0.8049
 5457SOL    HW227834   3.881   3.144   9.581 -0.7115  1.0618  0.5360
 5458SOL     OW27835   1.265   0.938   5.067  0.7799  0.4463  0.4059
 5458SOL    HW127836   1.263   0.870   5.134  1.4670  0.6133  0.6071
 5458SOL    HW227837   1.346   0.927   5.016 -0.3145 -2.1364 -0.7541
 5459SOL     OW27838   1.453   0.577   4.328 -0.0335 -0.0171  0.2145
 5459SOL    HW127839   1.374   0.523   4.324  0.0502 -0.1630  0.5444
 5459SOL    HW227840   1.520   0.516   4.297 -0.7114  0.1982 -1.6885
 5460SOL     OW27841   4.094   3.345   7.557 -0.2791 -0.5410  0.1974
 5460SOL    HW127842   4.125   3.285   7.490 -1.9580 -0.2392 -0.8738
 5460SOL    HW227843   4.173   3.397   7.572 -1.1799  0.6077  1.0149
 5461SOL     OW27844   1.582   3.275  11.784  0.2925 -0.2724  0.0604
 5461SOL    HW127845   1.613   3.331  11.854 -1.8484  1.8524 -0.7000
 5461SOL    HW227846   1.663   3.228  11.762  0.5636  0.8493 -1.3198
 5462SOL     OW27847   4.627   3.498   4.950  0.0192 -0.1240 -0.0317
 5462SOL    HW127848   4.587   3.470   4.868  1.8463 -1.0847 -0.6011
 5462SOL    HW227849   4.609   3.592   4.951  1.7650  0.1946  0.8863
 5463SOL     OW27850   2.668   1.245   4.881  1.0328 -0.1086  0.0194
 5463SOL    HW127851   2.589   1.241   4.934  1.0295 -0.6902 -0.0231
 5463SOL    HW227852   2.640   1.261   4.791  1.2093  1.8407  0.3133
 5464SOL     OW27853   4.673   3.843   6.908 -0.4302  0.2493  0.4084
 5464SOL    HW127854   4.578   3.833   6.911 -0.2633 -2.0024 -1.6289
 5464SOL    HW227855   4.703   3.792   6.984  0.7539  1.0886  0.4968
 5465SOL     OW27856   4.644   0.894  12.927 -0.2755  0.0165 -0.5795
 5465SOL    HW127857   4.640   0.839  13.006  0.4048 -0.9599 -1.2322
 5465SOL    HW227858   4.622   0.981  12.960 -1.2971 -0.3688 -0.2329
 5466SOL     OW27859   2.842   0.011   0.004 -0.4286 -0.0362  0.1670
 5466SOL    HW127860   2.785   0.069   0.056  1.4746  0.0527  2.1431
 5466SOL    HW227861   2.776   4.679  17.628 -1.1216 -1.2886  2.3575
 5467SOL     OW27862   3.963   1.127   3.952  0.1586  0.5130 -0.2228
 5467SOL    HW127863   3.926   1.185   3.886 -1.9874 -0.7876 -0.1690
 5467SOL    HW227864   3.905   1.143   4.026 -0.1555 -0.0401 -0.3477
 5468SOL     OW27865   2.166   2.337  11.197  0.2821 -0.2848 -0.0461
 5468SOL    HW127866   2.106   2.370  11.130  2.8014  1.3362 -1.5031
 5468SOL    HW227867   2.175   2.243  11.184 -0.4602 -0.6473  2.0150
 5469SOL     OW27868   0.429   1.102   2.417 -0.3664  0.0845 -0.1185
 5469SOL    HW127869   0.483   1.162   2.468 -2.0488  1.0452  0.5443
 5469SOL    HW227870   0.346   1.124   2.459  0.3597  0.0576  1.3285
 5470SOL     OW27871   2.718   4.267   6.361 -0.5218 -0.2387 -0.1295
 5470SOL    HW127872   2.797   4.276   6.308 -1.0164 -1.8548 -1.1706
 5470SOL    HW227873   2.704   4.348   6.409 -0.5004 -0.5837  0.4633
 5471SOL     OW27874   3.446   3.903   8.616 -0.4647 -0.4307  0.7215
 5471SOL    HW127875   3.395   3.877   8.692  1.2392  1.5363  2.5254
 5471SOL    HW227876   3.480   3.985   8.651 -1.1469  0.2166 -0.1109
 5472SOL     OW27877   3.722   0.577   6.966 -0.0682  0.0820  0.1424
 5472SOL    HW127878   3.691   0.643   7.028 -1.0607  0.1494 -0.4147
 5472SOL    HW227879   3.814   0.571   6.993 -0.2839  2.1963  1.3042
 5473SOL     OW27880   1.699   0.648   8.612 -0.6368  0.4662  0.3256
 5473SOL    HW127881   1.660   0.682   8.531  0.8022 -2.4429 -1.5754
 5473SOL    HW227882   1.675   0.712   8.679 -0.0528  0.4357  0.5632
 5474SOL     OW27883   0.603   4.543  14.888 -0.1341 -0.2242 -0.1939
 5474SOL    HW127884   0.555   4.591  14.820  1.7342  3.3446  0.9530
 5474SOL    HW227885   0.594   4.609  14.957 -1.6969 -1.4814  0.8038
 5475SOL     OW27886   4.111   3.697   1.227  0.5838  0.2187  0.0302
 5475SOL    HW127887   4.059   3.691   1.308 -1.5877  0.1483 -1.3645
 5475SOL    HW227888   4.088   3.615   1.183 -0.1380  1.6099 -2.1933
 5476SOL     OW27889   3.269   1.897  10.597 -0.8012  0.3497  0.2839
 5476SOL    HW127890   3.310   1.865  10.516 -1.4398 -1.7994  0.8140
 5476SOL    HW227891   3.341   1.882  10.658 -1.0362  1.2950  0.7998
 5477SOL     OW27892   3.675   2.426   5.101  0.0678  0.0207 -0.2102
 5477SOL    HW127893   3.765   2.394   5.105  0.7282  2.0809  0.9159
 5477SOL    HW227894   3.630   2.370   5.037 -0.2564 -1.8051  1.5900
 5478SOL     OW27895   0.812   1.536  11.611 -0.0043 -0.0175 -0.1692
 5478SOL    HW127896   0.894   1.543  11.659 -0.0719 -1.0296  0.0925
 5478SOL    HW227897   0.762   1.606  11.653  1.1093  1.0962 -0.7299
 5479SOL     OW27898   0.051   1.564  13.340  0.2520  0.5770 -0.2601
 5479SOL    HW127899   0.039   1.475  13.374 -1.7942  0.5414 -1.0960
 5479SOL    HW227900   0.143   1.559  13.314  0.6814 -0.2103  1.3919
 5480SOL     OW27901   3.875   3.759  17.575 -0.6982  0.1729 -0.0997
 5480SOL    HW127902   3.915   3.681  17.613 -1.0756  0.4750  0.9214
 5480SOL    HW227903   3.782   3.739  17.585 -0.4321  0.1329  2.4140
 5481SOL     OW27904   0.207   2.622   3.541 -0.7081  0.5007  1.2539
 5481SOL    HW127905   0.275   2.588   3.600 -0.6034 -0.3546  0.6342
 5481SOL    HW227906   0.133   2.642   3.599 -1.0838  0.8650  0.6406
 5482SOL     OW27907   0.032   1.310  16.679 -0.2769  0.2612  0.3127
 5482SOL    HW127908   0.083   1.328  16.758  0.3747  3.2281 -0.7827
 5482SOL    HW227909   4.712   1.224  16.698 -0.7212  0.3310 -0.2224
 5483SOL     OW27910   0.870   2.509  10.560  0.2514  0.1040  0.0214
 5483SOL    HW127911   0.786   2.503  10.606  0.8684  1.3580  1.3208
 5483SOL    HW227912   0.933   2.480  10.626 -0.3535 -0.1729  0.4815
 5484SOL     OW27913   0.748   3.234   6.848  0.4862  0.3074  0.1089
 5484SOL    HW127914   0.741   3.182   6.767  0.9027  1.3473 -0.5992
 5484SOL    HW227915   0.841   3.237   6.869  0.1394  2.8858  1.2852
 5485SOL     OW27916   3.685   1.931   6.827 -0.4570  0.1328 -0.1027
 5485SOL    HW127917   3.667   1.837   6.820 -0.3083  0.0878  0.1233
 5485SOL    HW227918   3.630   1.953   6.903  1.9491 -2.1185  2.2877
 5486SOL     OW27919   1.562   2.239   9.182 -0.1321 -0.2740 -0.0275
 5486SOL    HW127920   1.625   2.192   9.127 -0.7326 -0.6717 -0.3787
 5486SOL    HW227921   1.479   2.199   9.155  0.7085 -2.5688  0.7378
 5487SOL     OW27922   2.287   1.240   8.190  0.3708 -0.5141  0.4275
 5487SOL    HW127923   2.356   1.279   8.243  1.7798 -2.2254 -0.1552
 5487SOL    HW227924   2.206   1.273   8.227  0.9309  0.6139  0.6553
 5488SOL     OW27925   1.106   3.684   6.905  0.2421 -0.9572  0.3209
 5488SOL    HW127926   1.174   3.709   6.843 -1.1130 -0.0725 -0.7953
 5488SOL    HW227927   1.083   3.600   6.865  0.4823 -0.2925 -1.2137
 5489SOL     OW27928   2.538   2.608  14.167  0.0068 -0.1091  0.8568
 5489SOL    HW127929   2.520   2.591  14.074 -0.0884 -2.9344  1.4091
 5489SOL    HW227930   2.541   2.704  14.166 -1.4745 -0.0413  2.3953
 5490SOL     OW27931   2.390   0.380   6.614 -0.3096  0.3083  0.2803
 5490SOL    HW127932   2.375   0.475   6.621 -0.7410  0.2516  0.1568
 5490SOL    HW227933   2.369   0.352   6.525  2.9276 -2.0199  0.2800
 5491SOL     OW27934   2.220   0.104   5.456 -0.2325 -0.0526 -0.0720
 5491SOL    HW127935   2.156   0.054   5.507 -0.3118  0.1372  0.0146
 5491SOL    HW227936   2.298   0.104   5.512 -0.2627 -2.2881 -0.0038
 5492SOL     OW27937   0.856   1.123   4.388  0.1575  0.1197  0.0289
 5492SOL    HW127938   0.877   1.181   4.315  0.0202  0.5244  0.3061
 5492SOL    HW227939   0.826   1.185   4.455 -0.1357  0.1495 -0.1328
 5493SOL     OW27940   3.968   4.599   0.192 -0.0266 -0.1189  0.3140
 5493SOL    HW127941   4.001   4.596   0.282  1.2641  0.4940 -0.1329
 5493SOL    HW227942   4.046   4.600   0.137 -1.7728 -1.7738 -2.1572
 5494SOL     OW27943   3.174   0.242   2.962  0.0675 -0.1248  0.2383
 5494SOL    HW127944   3.154   0.150   2.944  1.6946 -0.4393  0.0852
 5494SOL    HW227945   3.264   0.261   2.938 -0.0902  1.1292  0.6252
 5495SOL     OW27946   0.251   4.539  11.712 -0.2990  0.2557  0.2153
 5495SOL    HW127947   0.194   4.601  11.757 -1.2072  1.4904 -2.6104
 5495SOL    HW227948   0.195   4.509  11.640 -0.7295 -1.0956  1.1101
 5496SOL     OW27949   2.610   0.341   1.975 -0.3188  0.1950 -0.3205
 5496SOL    HW127950   2.634   0.282   2.046 -1.5001  1.3139  1.0066
 5496SOL    HW227951   2.580   0.414   2.029 -0.4109 -0.3315  0.3451
 5497SOL     OW27952   2.310   1.549   6.665  0.2296  0.1224 -0.2195
 5497SOL    HW127953   2.269   1.480   6.613 -1.5627  0.3571  0.8980
 5497SOL    HW227954   2.353   1.514   6.743  0.1556 -0.5022 -0.4581
 5498SOL     OW27955   3.594   1.234   4.050  0.1635  0.3185 -0.7484
 5498SOL    HW127956   3.603   1.249   3.956  0.0157  0.0032 -0.8139
 5498SOL    HW227957   3.669   1.282   4.084 -0.4786 -1.3681  3.1042
 5499SOL     OW27958   2.953   3.033  11.206  0.2198 -0.1589 -0.2185
 5499SOL    HW127959   2.914   3.046  11.293  0.2764 -1.1099 -0.0584
 5499SOL    HW227960   2.896   2.966  11.169 -0.4433  0.9712 -1.2510
 5500SOL     OW27961   3.409   1.157   2.794 -0.2588 -0.2131  0.3178
 5500SOL    HW127962   3.380   1.221   2.729 -1.0943  0.4755  1.3529
 5500SOL    HW227963   3.482   1.210   2.825  0.2259 -0.4911 -0.3542
 5501SOL     OW27964   2.763   3.038   5.954 -0.2601  0.3055  0.2428
 5501SOL    HW127965   2.710   3.116   5.975 -0.3074  0.3493 -0.0416
 5501SOL    HW227966   2.816   3.040   6.033 -0.4141 -0.0186  0.3552
 5502SOL     OW27967   1.595   3.180   3.975 -0.0927 -0.2224 -0.3133
 5502SOL    HW127968   1.612   3.119   4.046 -1.4815 -0.0960  0.1294
 5502SOL    HW227969   1.665   3.168   3.911  0.8587 -1.6605  1.0133
 5503SOL     OW27970   2.460   0.122   3.526 -0.1012 -0.1414  0.6438
 5503SOL    HW127971   2.491   0.104   3.615 -0.5497 -2.2753  0.3604
 5503SOL    HW227972   2.453   0.218   3.527 -2.0744 -0.3014  1.7881
 5504SOL     OW27973   4.583   1.348   2.568 -0.2259  0.0012 -0.0584
 5504SOL    HW127974   4.624   1.431   2.592 -1.2206  1.0280 -1.8751
 5504SOL    HW227975   4.508   1.352   2.627  0.0160  1.4094  0.1489
 5505SOL     OW27976   1.392   0.055   5.903  0.0804 -0.2731 -0.2645
 5505SOL    HW127977   1.424   0.063   5.993  1.0993  1.9675 -0.8333
 5505SOL    HW227978   1.437   4.698   5.864  1.5255  0.2169  0.4768
 5506SOL     OW27979   3.802   0.376   6.486  0.0915  1.0233  0.0392
 5506SOL    HW127980   3.826   0.429   6.410 -1.1325 -2.4361 -2.7248
 5506SOL    HW227981   3.749   0.306   6.448 -1.0910  1.4198  0.9682
 5507SOL     OW27982   1.885   3.319   2.894 -0.1430  0.4156 -0.3609
 5507SOL    HW127983   1.814   3.374   2.862  1.6163  2.4626 -0.7369
 5507SOL    HW227984   1.868   3.342   2.985 -0.1571  0.2887 -0.3310
 5508SOL     OW27985   1.186   2.908  10.632  0.0765  0.2488  0.2104
 5508SOL    HW127986   1.113   2.848  10.615  0.1285  0.1593  0.3044
 5508SOL    HW227987   1.227   2.872  10.711  3.1930 -1.4492 -2.1943
 5509SOL     OW27988   3.066   4.401  14.484 -0.1528  0.0709  0.5034
 5509SOL    HW127989   3.084   4.336  14.551  0.6420  0.5536  0.7713
 5509SOL    HW227990   3.061   4.480  14.539  3.3820  0.4291  0.3587
 5510SOL     OW27991   3.759   0.939   2.425 -0.4573  0.7462  0.7528
 5510SOL    HW127992   3.739   1.017   2.373 -1.9917 -1.1295 -1.4630
 5510SOL    HW227993   3.843   0.966   2.461 -0.1570  2.3450 -1.1546
 5511SOL     OW27994   1.749   2.767   6.149  0.3213  0.7039  0.3566
 5511SOL    HW127995   1.829   2.785   6.100  0.5981  1.2121  0.9885
 5511SOL    HW227996   1.752   2.672   6.161 -0.4709  0.7265  0.7640
 5512SOL     OW27997   1.475   1.901  14.131  0.1865 -0.5971  0.0943
 5512SOL    HW127998   1.463   1.976  14.072  1.4106  0.6291  1.4014
 5512SOL    HW227999   1.546   1.936  14.184  3.0442 -2.7595 -2.3240
 5513SOL     OW28000   3.292   0.729   3.582 -0.2207  0.2054  0.0063
 5513SOL    HW128001   3.338   0.731   3.498  0.3267  1.2383  0.3333
 5513SOL    HW228002   3.260   0.639   3.585  1.2589 -0.3030  0.6517
 5514SOL     OW28003   4.420   2.219  11.084  0.2023  0.1029  0.1427
 5514SOL    HW128004   4.382   2.285  11.142  0.3916  0.9235 -0.6667
 5514SOL    HW228005   4.422   2.141  11.138  0.0070 -0.4368 -0.6277
 5515SOL     OW28006   2.357   2.638   7.575 -0.0707  0.1321  1.0605
 5515SOL    HW128007   2.390   2.724   7.601  2.1889 -0.7201  1.0248
 5515SOL    HW228008   2.434   2.607   7.527 -0.8016 -0.9473  0.5806
 5516SOL     OW28009   0.934   1.573   6.058 -0.3773 -0.1632  0.2283
 5516SOL    HW128010   1.013   1.551   6.010 -0.2135 -4.4523  2.4388
 5516SOL    HW228011   0.883   1.611   5.987 -2.3761 -2.8873  0.2121
 5517SOL     OW28012   0.302   2.822  15.381  0.3858  0.0366 -0.1674
 5517SOL    HW128013   0.258   2.744  15.346 -0.2227  0.3024 -0.0022
 5517SOL    HW228014   0.228   2.883  15.391  0.4270 -0.1116  1.1196
 5518SOL     OW28015   2.232   0.187   6.711  0.2703  0.4277 -0.4930
 5518SOL    HW128016   2.302   0.251   6.709  0.2898  0.3328 -3.2734
 5518SOL    HW228017   2.270   0.124   6.649  1.6374  2.2148 -1.4565
 5519SOL     OW28018   2.441   0.746   5.273 -0.4047 -0.2968 -0.0251
 5519SOL    HW128019   2.487   0.828   5.255  1.7629 -1.3563  0.6795
 5519SOL    HW228020   2.488   0.676   5.227  2.3018  0.0908  2.1202
 5520SOL     OW28021   2.634   3.161  14.800  0.0138  0.5526 -0.1269
 5520SOL    HW128022   2.652   3.152  14.894 -2.8533 -0.5701  0.3002
 5520SOL    HW228023   2.685   3.242  14.791  1.1856 -0.0522  1.0524
 5521SOL     OW28024   0.256   2.995   5.533 -0.0965  0.3104 -0.9234
 5521SOL    HW128025   0.314   3.056   5.487 -0.2981  0.4872 -0.9361
 5521SOL    HW228026   0.314   2.923   5.506  1.3254  1.4288 -0.8820
 5522SOL     OW28027   0.778   0.087  16.853 -0.0942  0.6237 -0.1954
 5522SOL    HW128028   0.742   0.040  16.928  0.7708 -0.5804 -0.5312
 5522SOL    HW228029   0.861   0.111  16.893 -1.3172  2.7221  1.0733
 5523SOL     OW28030   4.095   4.023  12.016 -0.2229 -0.5744  0.1179
 5523SOL    HW128031   4.103   4.031  12.111 -0.6679  0.2489  0.0896
 5523SOL    HW228032   4.098   4.116  11.991 -0.6335 -0.5429  0.1869
 5524SOL     OW28033   1.793   2.169   5.237 -0.0820 -0.3050  0.1533
 5524SOL    HW128034   1.745   2.223   5.299  1.3698 -0.7102  1.6330
 5524SOL    HW228035   1.883   2.193   5.260  0.4557 -1.8319 -0.3923
 5525SOL     OW28036   0.948   1.781   9.771 -0.2834 -0.3732 -0.0268
 5525SOL    HW128037   0.884   1.803   9.704 -0.4012  0.2404  0.2840
 5525SOL    HW228038   0.899   1.720   9.827 -0.9602  1.0444  0.9384
 5526SOL     OW28039   0.007   4.593   0.884  0.0822  0.2936 -0.0460
 5526SOL    HW128040   0.069   4.571   0.815  0.3005 -1.6957  0.7886
 5526SOL    HW228041   4.639   4.579   0.843  0.2136 -1.4107  0.2847
 5527SOL     OW28042   3.283   3.052   3.146 -0.4135 -0.0918 -0.0217
 5527SOL    HW128043   3.253   3.121   3.205 -0.3256 -0.3843  0.3650
 5527SOL    HW228044   3.377   3.066   3.137 -0.6492  1.5633  0.1657
 5528SOL     OW28045   0.004   2.565   5.893 -0.1973  0.4781  0.2355
 5528SOL    HW128046   0.008   2.589   5.986  0.0569  0.0011  0.3468
 5528SOL    HW228047   4.648   2.620   5.867  0.4974  1.5233  0.4840
 5529SOL     OW28048   2.370   0.617   1.708  0.4978  0.4516  0.1910
 5529SOL    HW128049   2.374   0.713   1.708  1.2538  0.4344 -2.4524
 5529SOL    HW228050   2.292   0.596   1.657  0.9308  1.4363 -0.8882
 5530SOL     OW28051   1.647   3.626   4.111  0.3114  0.2493 -0.3883
 5530SOL    HW128052   1.563   3.657   4.077  0.1926  1.8594  1.3941
 5530SOL    HW228053   1.665   3.675   4.191 -2.3737  1.0775 -0.2850
 5531SOL     OW28054   2.720   0.923   7.952 -0.4294 -0.2030  0.4350
 5531SOL    HW128055   2.729   0.842   8.002  0.7360 -1.3262 -1.5724
 5531SOL    HW228056   2.737   0.895   7.862  0.3493  0.3720  0.4034
 5532SOL     OW28057   4.235   1.195   5.128  0.3027  0.4211  0.1595
 5532SOL    HW128058   4.261   1.107   5.153  2.4915  1.1164  0.3024
 5532SOL    HW228059   4.243   1.245   5.209  2.0963 -1.5331  1.1794
 5533SOL     OW28060   2.875   2.038  17.524  0.1025  0.5145 -0.5675
 5533SOL    HW128061   2.872   2.129  17.492  1.4985  0.3816 -1.0832
 5533SOL    HW228062   2.872   2.055  17.618 -0.2596  0.3574 -0.5517
 5534SOL     OW28063   0.690   3.432  10.518  0.6811 -0.1417  0.4443
 5534SOL    HW128064   0.675   3.364  10.583  1.3400  0.8503  1.6248
 5534SOL    HW228065   0.768   3.397  10.474  1.9675  2.0142  1.0262
 5535SOL     OW28066   3.587   1.485   7.467  0.1462 -0.0336 -0.6193
 5535SOL    HW128067   3.658   1.446   7.417 -0.6953  0.2942 -2.0567
 5535SOL    HW228068   3.573   1.411   7.526 -1.1733  0.5086 -0.2450
 5536SOL     OW28069   2.352   3.668   8.347 -0.2324 -0.3715 -0.2670
 5536SOL    HW128070   2.343   3.709   8.433  2.0317  0.4057 -0.3981
 5536SOL    HW228071   2.338   3.740   8.285  0.4985  0.1648  0.1944
 5537SOL     OW28072   3.189   0.349  14.008  0.3315  0.3624  0.4272
 5537SOL    HW128073   3.271   0.315  14.043  0.7669 -0.5964 -1.5342
 5537SOL    HW228074   3.199   0.443  14.021  2.1553  0.1386  0.6493
 5538SOL     OW28075   1.532   0.801   5.405 -0.2023 -0.4859 -0.0055
 5538SOL    HW128076   1.565   0.828   5.320  2.8626 -1.5502  0.8038
 5538SOL    HW228077   1.618   0.774   5.438 -0.8865 -0.0951  2.1219
 5539SOL     OW28078   0.691   1.106   5.512 -0.0344 -0.7887 -1.1602
 5539SOL    HW128079   0.676   1.116   5.606 -1.4020 -1.1192 -1.3391
 5539SOL    HW228080   0.732   1.190   5.493  1.7756 -1.6658 -1.1073
 5540SOL     OW28081   3.956   0.865   7.266  0.1899 -0.0559 -0.3536
 5540SOL    HW128082   3.914   0.858   7.180 -0.6440  3.8152 -0.2344
 5540SOL    HW228083   4.049   0.849   7.249 -0.0808 -1.1690 -0.7974
 5541SOL     OW28084   3.312   3.559   4.542  0.0907  0.4268 -0.0758
 5541SOL    HW128085   3.235   3.586   4.592  1.4284 -0.5626  2.5566
 5541SOL    HW228086   3.385   3.608   4.579  0.4162 -0.9548  1.1275
 5542SOL     OW28087   1.025   2.037  12.823  0.3075 -0.4361  0.4695
 5542SOL    HW128088   0.990   2.025  12.911  1.3672 -2.2512  0.6498
 5542SOL    HW228089   1.013   2.130  12.807  1.1182 -0.1393  1.5721
 5543SOL     OW28090   2.824   0.667   2.120 -0.2142 -0.4306 -0.2297
 5543SOL    HW128091   2.802   0.724   2.047 -0.7757  1.2724  1.2906
 5543SOL    HW228092   2.870   0.729   2.176 -2.6891  0.5790  0.6765
 5544SOL     OW28093   1.343   0.311   2.224 -0.3486  0.4470 -0.0804
 5544SOL    HW128094   1.356   0.224   2.187  1.1073  0.8968 -0.5820
 5544SOL    HW228095   1.248   0.326   2.220 -0.3504  0.0984 -1.2063
 5545SOL     OW28096   1.954   1.164  15.017  0.6797  0.0014  0.1080
 5545SOL    HW128097   1.889   1.186  14.950  0.2186  2.4755  1.3872
 5545SOL    HW228098   1.906   1.168  15.099 -2.9639  1.8777 -2.1001
 5546SOL     OW28099   1.471   0.563   6.011  0.2246 -0.3370  0.0980
 5546SOL    HW128100   1.515   0.478   6.016 -0.6639 -0.8340 -0.3759
 5546SOL    HW228101   1.463   0.594   6.101 -1.7680 -2.1930  0.5679
 5547SOL     OW28102   2.264   0.461   1.918  0.4088 -0.3113 -0.1448
 5547SOL    HW128103   2.172   0.468   1.893  0.5057  0.4319 -0.3211
 5547SOL    HW228104   2.305   0.526   1.860  2.5496 -0.3012  1.3875
 5548SOL     OW28105   2.435   0.660   1.194  0.2844  0.4489  0.8417
 5548SOL    HW128106   2.439   0.596   1.265  0.1240 -0.6214 -0.1201
 5548SOL    HW228107   2.434   0.740   1.246  2.3348  2.2144 -1.8479
 5549SOL     OW28108   1.377   3.914   5.271  0.2989 -0.1010  0.0845
 5549SOL    HW128109   1.469   3.941   5.263  0.5318 -0.1721  2.6605
 5549SOL    HW228110   1.382   3.833   5.220 -2.3946  0.3726 -0.9438
 5550SOL     OW28111   0.212   0.703   4.659 -0.0604 -0.1120 -0.0034
 5550SOL    HW128112   0.279   0.671   4.599  0.2883 -0.2171  0.4383
 5550SOL    HW228113   0.258   0.698   4.743  0.6922  0.3900 -0.3807
 5551SOL     OW28114   2.649   3.061  15.326 -0.1316 -0.0233 -0.1021
 5551SOL    HW128115   2.723   3.082  15.269 -2.2880 -0.9106 -3.1961
 5551SOL    HW228116   2.621   2.976  15.292 -2.5460  0.4831  0.6090
 5552SOL     OW28117   3.835   4.619  11.917 -0.8232  0.0007  0.3935
 5552SOL    HW128118   3.792   4.546  11.961  0.5268 -1.4611 -0.7039
 5552SOL    HW228119   3.817   4.695  11.973 -1.8940  0.7850 -1.0237
 5553SOL     OW28120   0.884   4.019   5.106 -0.2805  0.1426 -0.3441
 5553SOL    HW128121   0.819   4.031   5.037 -2.0578  1.4743  1.5477
 5553SOL    HW228122   0.952   4.076   5.072 -1.1164  3.3141  3.2524
 5554SOL     OW28123   3.391   2.777   3.265 -0.1237 -0.5562  0.1951
 5554SOL    HW128124   3.379   2.705   3.326 -0.3272 -1.4227 -0.8745
 5554SOL    HW228125   3.376   2.853   3.321 -2.0017 -0.7422 -0.0739
 5555SOL     OW28126   1.696   2.898   9.453  0.4002 -0.3312 -0.3489
 5555SOL    HW128127   1.697   2.953   9.375 -1.1563  1.5095  0.9327
 5555SOL    HW228128   1.766   2.944   9.497  2.2160 -1.8992 -1.5760
 5556SOL     OW28129   2.251   3.869   5.416 -0.4064  0.3901 -0.3761
 5556SOL    HW128130   2.269   3.945   5.473 -2.7775  1.0325 -0.4769
 5556SOL    HW228131   2.171   3.889   5.367  0.3540  0.0558 -1.7421
 5557SOL     OW28132   1.454   3.350   3.389 -0.5830  0.1619 -0.7617
 5557SOL    HW128133   1.436   3.266   3.346  0.1281 -1.3918  1.9877
 5557SOL    HW228134   1.545   3.356   3.359 -0.3799  0.1281 -0.1491
 5558SOL     OW28135   0.096   0.116   4.114  0.5748 -0.2880  0.3027
 5558SOL    HW128136   0.154   0.108   4.190 -0.6888 -1.8118  1.1104
 5558SOL    HW228137   0.017   0.157   4.150  1.2997  0.9920  0.3879
 5559SOL     OW28138   1.956   0.503   3.123  1.0622 -0.4321  0.2242
 5559SOL    HW128139   1.971   0.472   3.212 -0.8536 -0.7507  0.4338
 5559SOL    HW228140   2.048   0.498   3.097  0.9050 -0.0662 -0.4040
 5560SOL     OW28141   0.556   2.762   6.413 -0.4234  0.4493  0.0546
 5560SOL    HW128142   0.642   2.754   6.372 -0.6770  1.7331 -0.7274
 5560SOL    HW228143   0.586   2.791   6.499 -1.9133  0.5588  0.5271
 5561SOL     OW28144   2.345   4.008  10.593 -0.1134  0.2151 -0.0663
 5561SOL    HW128145   2.378   4.015  10.503 -1.4709 -1.6537 -0.7199
 5561SOL    HW228146   2.362   3.917  10.615 -3.8174 -0.7304 -1.1255
 5562SOL     OW28147   3.036   3.490  17.333 -0.2386 -0.2033 -0.0515
 5562SOL    HW128148   3.122   3.490  17.290 -0.8406  1.0767 -1.2467
 5562SOL    HW228149   2.985   3.534  17.265  1.8637  0.1683 -1.4050
 5563SOL     OW28150   0.064   3.411   3.137 -0.3214  0.1624  0.1903
 5563SOL    HW128151   0.130   3.400   3.069  0.3624 -1.8341  1.1816
 5563SOL    HW228152   0.122   3.417   3.214  1.8981 -3.4458 -1.1858
 5564SOL     OW28153   1.071   0.783   6.797  0.1223 -0.5496  0.1234
 5564SOL    HW128154   1.107   0.706   6.753  0.1610 -0.9500  0.8668
 5564SOL    HW228155   1.119   0.780   6.879 -0.2124 -0.7185  0.3168
 5565SOL     OW28156   0.259   2.052  10.787  0.3376  0.1144 -0.0397
 5565SOL    HW128157   0.243   1.958  10.779 -1.3284  0.3381  0.7468
 5565SOL    HW228158   0.302   2.034  10.871  1.7732  0.6128 -0.6578
 5566SOL     OW28159   0.085   1.333   9.932  0.6219  0.0663 -0.1172
 5566SOL    HW128160   0.080   1.407   9.993  0.4492  0.0637 -0.1272
 5566SOL    HW228161   0.067   1.382   9.852 -1.7055 -0.3193  0.1586
 5567SOL     OW28162   0.877   1.598   8.235 -0.0678  0.3590  0.6447
 5567SOL    HW128163   0.934   1.642   8.172 -0.5888 -1.7545 -1.3218
 5567SOL    HW228164   0.921   1.520   8.269 -1.3327 -0.4077  0.5540
 5568SOL     OW28165   1.259   2.498   5.570 -0.2028 -0.2248  0.0717
 5568SOL    HW128166   1.234   2.488   5.662  0.6709 -1.9670  0.1291
 5568SOL    HW228167   1.221   2.416   5.538 -0.6062 -0.0048 -0.0042
 5569SOL     OW28168   4.552   4.492   0.678  0.4251  0.1757  0.0564
 5569SOL    HW128169   4.610   4.418   0.693 -0.6252 -1.0451 -1.9198
 5569SOL    HW228170   4.493   4.461   0.609 -1.6731 -0.4205  2.1127
 5570SOL     OW28171   4.224   2.590   1.637  0.2097 -0.4854 -0.0545
 5570SOL    HW128172   4.310   2.631   1.651  0.4619 -0.6839 -0.9811
 5570SOL    HW228173   4.175   2.654   1.688 -1.1171 -0.6890 -1.0659
 5571SOL     OW28174   1.307   2.084   9.116 -1.0224  0.3045  0.1376
 5571SOL    HW128175   1.261   2.166   9.132 -1.4174  0.0912  0.0928
 5571SOL    HW228176   1.261   2.029   9.180 -0.2479  1.4980  1.7401
 5572SOL     OW28177   1.598   2.071   1.757  0.1245 -0.1564  0.0905
 5572SOL    HW128178   1.651   1.992   1.770  0.3409 -0.1083 -0.4876
 5572SOL    HW228179   1.550   2.081   1.839  1.1274  0.1490  0.6394
 5573SOL     OW28180   4.291   1.268   1.626 -0.1119 -0.0409 -0.7681
 5573SOL    HW128181   4.275   1.217   1.546  2.1241  0.3084 -1.4443
 5573SOL    HW228182   4.298   1.357   1.589  0.0344  0.2133 -0.1228
 5574SOL     OW28183   0.515   0.360  13.268  0.1819  0.1314  0.2565
 5574SOL    HW128184   0.558   0.276  13.252  2.8078  1.2293  1.5749
 5574SOL    HW228185   0.568   0.390  13.342 -0.4022  1.1072  0.2681
 5575SOL     OW28186   0.728   1.519  10.427  0.1644  0.4399 -0.5933
 5575SOL    HW128187   0.715   1.599  10.477 -1.1344  1.2534 -2.2131
 5575SOL    HW228188   0.819   1.540  10.409 -0.0343  1.8095 -0.0357
 5576SOL     OW28189   1.996   2.795   5.083  0.3355 -0.1559 -0.1158
 5576SOL    HW128190   2.073   2.801   5.140  0.3148  1.4111 -0.2483
 5576SOL    HW228191   2.040   2.809   4.999  0.6290  0.1512  0.0905
 5577SOL     OW28192   1.110   0.772  16.385 -0.0046  0.1215  0.3569
 5577SOL    HW128193   1.165   0.748  16.459  1.5777  1.3638 -0.4117
 5577SOL    HW228194   1.027   0.753  16.429  1.0531 -0.7994  1.9492
 5578SOL     OW28195   4.563   0.714   2.892 -0.0383  0.1337 -0.1568
 5578SOL    HW128196   4.545   0.791   2.946  0.0176  0.3830 -0.4933
 5578SOL    HW228197   4.519   0.735   2.810  4.1614  1.0100 -2.2014
 5579SOL     OW28198   2.607   2.756   2.327  0.7568 -0.4506 -0.5201
 5579SOL    HW128199   2.686   2.714   2.295  0.6761 -0.5983 -0.5249
 5579SOL    HW228200   2.649   2.822   2.383  1.2730 -0.9827 -0.2852
 5580SOL     OW28201   2.352   1.854  14.071  0.0787  0.6627  0.5666
 5580SOL    HW128202   2.439   1.887  14.092  0.8975 -1.2895  0.2152
 5580SOL    HW228203   2.345   1.895  13.985  0.2653  1.3722  0.8897
 5581SOL     OW28204   4.426   0.174   6.390 -0.0854  0.3312  0.5514
 5581SOL    HW128205   4.399   0.110   6.456  5.3191  0.1445  2.5542
 5581SOL    HW228206   4.442   0.132   6.305  2.2877  0.5344  0.9059
 5582SOL     OW28207   4.341   3.997   5.700 -0.2216  0.2861  0.3354
 5582SOL    HW128208   4.286   3.961   5.631  2.4845 -0.6297 -1.3425
 5582SOL    HW228209   4.318   4.090   5.694  3.1266  1.1322  0.4516
 5583SOL     OW28210   1.118   1.763  13.597 -0.0021  0.3041  0.6213
 5583SOL    HW128211   1.081   1.790  13.682  1.5765  0.9692  1.0888
 5583SOL    HW228212   1.203   1.806  13.594  0.6087 -1.0039 -0.3274
 5584SOL     OW28213   1.636   0.151  12.668  0.0944 -0.6632 -0.0316
 5584SOL    HW128214   1.643   0.229  12.722 -1.4688 -0.4583 -0.1134
 5584SOL    HW228215   1.542   0.133  12.663  0.1631 -1.0668  0.1598
 5585SOL     OW28216   1.482   4.254   1.736 -0.0584  0.3489  0.5308
 5585SOL    HW128217   1.404   4.297   1.770 -1.4526 -1.7003 -0.0808
 5585SOL    HW228218   1.541   4.271   1.809 -1.6608 -0.3037  1.9816
 5586SOL     OW28219   3.149   2.909  15.694 -0.0685  0.3908 -0.1299
 5586SOL    HW128220   3.129   2.964  15.770 -0.2778 -1.7542  1.3466
 5586SOL    HW228221   3.240   2.892  15.716 -0.7234 -3.6930 -0.6596
 5587SOL     OW28222   0.480   1.851  13.310  0.5803  0.3474  0.0945
 5587SOL    HW128223   0.446   1.823  13.225 -0.4627 -0.6654  0.8613
 5587SOL    HW228224   0.563   1.804  13.308  0.8725  0.8639 -0.0839
 5588SOL     OW28225   4.270   1.964  10.003  0.1016 -0.1364 -0.5919
 5588SOL    HW128226   4.240   2.010  10.082  1.4350  0.3702 -0.3855
 5588SOL    HW228227   4.292   1.875  10.030  0.6560  0.2806  0.3379
 5589SOL     OW28228   3.444   3.931   1.358 -0.6330 -0.0860 -0.6434
 5589SOL    HW128229   3.442   4.016   1.401 -2.5431 -0.1271 -0.6527
 5589SOL    HW228230   3.498   3.878   1.417 -1.7011  1.3884  1.6407
 5590SOL     OW28231   1.715   0.547   2.100  0.2168 -0.1449 -0.8511
 5590SOL    HW128232   1.723   0.632   2.057 -0.7830  0.6113  0.4580
 5590SOL    HW228233   1.633   0.564   2.148  0.4832 -1.1595 -0.0411
 5591SOL     OW28234   0.135   3.288  17.020 -0.7974 -0.2451 -0.9751
 5591SOL    HW128235   0.078   3.280  17.096  1.3251 -0.1126  0.6053
 5591SOL    HW228236   0.072   3.245  16.961 -2.9168 -1.7559  2.4048
 5592SOL     OW28237   1.130   3.070   8.374  0.5059 -0.0091 -0.1712
 5592SOL    HW128238   1.061   3.052   8.438 -0.1341  0.3511 -0.7621
 5592SOL    HW228239   1.155   3.161   8.394 -1.9220  0.5649  0.1773
 5593SOL     OW28240   0.563   4.690  11.622  0.3873 -0.2688  0.3406
 5593SOL    HW128241   0.599   4.617  11.571 -2.0366 -0.1026 -1.5993
 5593SOL    HW228242   0.574   4.655  11.711 -1.5715 -1.6196  0.0692
 5594SOL     OW28243   3.618   4.488  16.232  0.6179  0.3051  0.0047
 5594SOL    HW128244   3.558   4.413  16.231 -0.5119  1.1952  1.0058
 5594SOL    HW228245   3.596   4.532  16.150  1.6181 -0.6632 -0.7780
 5595SOL     OW28246   4.210   3.030   1.628  0.2799 -0.2631 -0.6620
 5595SOL    HW128247   4.205   3.032   1.724 -3.0285  2.5885 -0.8675
 5595SOL    HW228248   4.121   3.046   1.594  0.3236  2.4682  0.5011
 5596SOL     OW28249   1.259   2.982  10.935  0.0483 -0.1712  0.7276
 5596SOL    HW128250   1.338   3.035  10.947  0.5050 -0.8505  0.7048
 5596SOL    HW228251   1.257   2.941  11.022  0.2547 -0.2122  0.7139
 5597SOL     OW28252   0.248   2.124   0.640 -0.7219  0.1388 -0.1458
 5597SOL    HW128253   0.192   2.191   0.600  1.2482  1.8239 -0.0684
 5597SOL    HW228254   0.334   2.164   0.653 -0.8553  0.3209  0.1482
 5598SOL     OW28255   2.525   0.693   7.420  0.2909 -0.5310  0.6197
 5598SOL    HW128256   2.475   0.727   7.494 -0.9264 -0.2400 -0.3360
 5598SOL    HW228257   2.462   0.633   7.379 -1.9158  0.3105  2.7521
 5599SOL     OW28258   2.450   4.693   1.032 -0.3613  0.3838  0.5293
 5599SOL    HW128259   2.407   4.612   1.005 -1.5516  1.0828  0.2807
 5599SOL    HW228260   2.379   0.012   1.086  0.2194  0.3896  1.2844
 5600SOL     OW28261   3.862   4.513   2.395  0.1852 -0.3756 -0.2269
 5600SOL    HW128262   3.911   4.468   2.326  0.6024 -1.0428  0.5067
 5600SOL    HW228263   3.809   4.579   2.351  2.7859  1.2487 -0.9243
 5601SOL     OW28264   1.906   4.658   3.746  0.2339  0.4359 -0.1844
 5601SOL    HW128265   1.833   4.671   3.685 -0.6710 -2.5954  0.2613
 5601SOL    HW228266   1.943   4.584   3.698 -3.1491 -0.6401 -1.0728
 5602SOL     OW28267   0.279   1.203   6.967  0.4972 -0.1572 -0.3045
 5602SOL    HW128268   0.228   1.123   6.976  1.2161 -0.5399  0.3953
 5602SOL    HW228269   0.225   1.263   7.017  0.3278 -1.3248  0.9262
 5603SOL     OW28270   4.496   0.347  17.571  1.0022  0.0607 -0.1811
 5603SOL    HW128271   4.559   0.382  17.508  0.1959 -2.2766 -2.2574
 5603SOL    HW228272   4.490   0.253  17.555 -2.4981  0.2255  0.1203
 5604SOL     OW28273   3.055   4.390   9.542 -0.1857 -0.2352 -0.3240
 5604SOL    HW128274   3.090   4.336   9.613  0.8790 -0.2234 -0.8391
 5604SOL    HW228275   3.117   4.462   9.533  0.6569 -1.1377 -1.8318
 5605SOL     OW28276   0.137   0.833  11.994  0.8342 -0.1366 -0.1306
 5605SOL    HW128277   0.047   0.837  11.961  0.8203  1.6306  0.0955
 5605SOL    HW228278   0.187   0.854  11.916 -0.0582 -1.1878 -0.9936
 5606SOL     OW28279   4.636   3.936   1.809 -0.3664 -0.1808 -0.4821
 5606SOL    HW128280   4.679   3.916   1.893 -1.5384 -1.3913 -0.1841
 5606SOL    HW228281   4.578   3.861   1.802 -0.7268  0.0602 -0.1284
 5607SOL     OW28282   2.707   2.157  10.445  0.3428 -0.0849  0.0137
 5607SOL    HW128283   2.749   2.076  10.475 -1.3866 -1.9769 -2.6747
 5607SOL    HW228284   2.750   2.159  10.359 -0.8335 -1.1538 -0.6003
 5608SOL     OW28285   4.220   1.668   3.129 -0.1436 -0.4008 -0.2018
 5608SOL    HW128286   4.264   1.671   3.044 -0.0187  1.6898 -0.0664
 5608SOL    HW228287   4.225   1.574   3.145 -0.2436 -0.2811  0.5398
 5609SOL     OW28288   1.885   2.163  15.818  0.2062 -0.0318 -0.2777
 5609SOL    HW128289   1.796   2.163  15.851  0.4977 -2.4454  0.5155
 5609SOL    HW228290   1.920   2.240  15.861 -1.3006 -1.4467  3.4359
 5610SOL     OW28291   3.879   4.155   9.708 -0.1564  0.0287 -0.0238
 5610SOL    HW128292   3.844   4.075   9.745 -1.7142  0.3598 -0.7725
 5610SOL    HW228293   3.946   4.111   9.655 -0.2221 -2.0595  1.6454
 5611SOL     OW28294   4.144   1.925   7.521 -0.2776  0.9099 -0.3650
 5611SOL    HW128295   4.188   1.846   7.554  0.8914  2.4243  1.6930
 5611SOL    HW228296   4.207   1.968   7.463 -0.1757  1.7268  0.3491
 5612SOL     OW28297   1.453   0.553   2.216  0.6201  0.0260  0.2455
 5612SOL    HW128298   1.398   0.598   2.152  0.8891 -1.2998 -0.9290
 5612SOL    HW228299   1.414   0.466   2.208  0.0512  0.3018  0.0125
 5613SOL     OW28300   2.173   3.908   4.674 -0.1336 -0.3287 -0.3885
 5613SOL    HW128301   2.258   3.936   4.708 -0.8985  2.3642 -0.7177
 5613SOL    HW228302   2.132   3.993   4.685 -4.3470 -2.2875 -0.9961
 5614SOL     OW28303   3.762   3.110  12.295  0.3315  0.1952  0.1080
 5614SOL    HW128304   3.741   3.018  12.315  2.0530 -0.4859 -1.1608
 5614SOL    HW228305   3.836   3.126  12.355  1.5327  1.5334 -1.7552
 5615SOL     OW28306   3.857   1.162  11.149 -0.0511 -0.0711 -0.3395
 5615SOL    HW128307   3.827   1.240  11.195  1.0230 -0.1368  0.4849
 5615SOL    HW228308   3.782   1.105  11.166 -0.7691  0.2957 -2.3745
 5616SOL     OW28309   2.432   4.262   7.122 -0.3330 -0.7374 -0.4636
 5616SOL    HW128310   2.376   4.319   7.069  0.0756 -1.2116 -1.4101
 5616SOL    HW228311   2.458   4.314   7.197 -0.7438 -0.2161 -0.6809
 5617SOL     OW28312   4.304   2.737  14.031  0.1510 -0.0616 -0.0860
 5617SOL    HW128313   4.337   2.667  14.088 -1.2682 -0.2772  0.4625
 5617SOL    HW228314   4.212   2.714  14.019 -0.2137  1.6513 -0.6557
 5618SOL     OW28315   0.229   4.557   2.521  0.0519  0.2094  0.8297
 5618SOL    HW128316   0.317   4.562   2.485 -0.0045 -0.7753  0.5744
 5618SOL    HW228317   0.178   4.626   2.479 -2.3327 -1.6061  0.7209
 5619SOL     OW28318   0.893   4.596   5.648  0.3344  0.2280 -0.2549
 5619SOL    HW128319   0.818   4.632   5.696 -0.1329  0.7700 -1.3881
 5619SOL    HW228320   0.875   4.504   5.666  1.6394 -0.0188 -0.2263
 5620SOL     OW28321   2.562   1.397  17.645 -0.2797 -0.4038  0.6582
 5620SOL    HW128322   2.493   1.365  17.587  0.3259 -0.3219 -0.1108
 5620SOL    HW228323   2.635   1.352  17.602 -0.1892 -1.5402  1.9736
 5621SOL     OW28324   0.037   4.123  15.078 -0.0527 -0.2590 -0.5500
 5621SOL    HW128325   0.123   4.165  15.089 -0.3115 -0.0260  0.5936
 5621SOL    HW228326   0.050   4.077  14.995 -2.3800 -0.2883 -0.8856
 5622SOL     OW28327   1.191   1.278  13.032 -0.1365  0.1898  0.0435
 5622SOL    HW128328   1.211   1.339  12.961  0.2328 -1.1614 -1.0161
 5622SOL    HW228329   1.116   1.239  12.987 -0.4098  1.7050 -0.8198
 5623SOL     OW28330   3.661   3.577   0.134 -0.3653 -0.2730 -0.0384
 5623SOL    HW128331   3.653   3.483   0.151  1.8580 -0.7125 -1.3827
 5623SOL    HW228332   3.582   3.595   0.083 -1.6435 -0.0921  2.0022
 5624SOL     OW28333   2.841   2.794  15.318  0.1019  0.1939 -0.0814
 5624SOL    HW128334   2.913   2.834  15.368  0.0177  0.4902 -0.2003
 5624SOL    HW228335   2.857   2.832  15.232 -0.0913  0.3037 -0.0671
 5625SOL     OW28336   2.342   0.588  13.776  0.1226  0.0421 -0.1855
 5625SOL    HW128337   2.327   0.553  13.864 -0.6022  0.6603 -0.0609
 5625SOL    HW228338   2.252   0.620  13.763 -0.8461 -2.5319  0.1894
 5626SOL     OW28339   3.849   4.412   7.890 -0.0196 -0.5755 -0.3208
 5626SOL    HW128340   3.799   4.416   7.971  1.9459 -0.7911  0.9196
 5626SOL    HW228341   3.889   4.326   7.907 -1.9447 -0.9841  2.0871
 5627SOL     OW28342   3.530   0.460   6.584  0.4285 -0.4214 -0.2215
 5627SOL    HW128343   3.620   0.460   6.550  0.0312  3.0760 -1.2185
 5627SOL    HW228344   3.520   0.531   6.647  0.3895 -0.0243 -0.6721
 5628SOL     OW28345   2.208   1.694   5.511  0.1320  0.4725  0.1427
 5628SOL    HW128346   2.125   1.685   5.465  0.7980  1.0065 -1.1682
 5628SOL    HW228347   2.187   1.689   5.604 -1.0979 -0.6818 -0.1954
 5629SOL     OW28348   2.373   3.988  13.976  0.2380  0.4105  0.0000
 5629SOL    HW128349   2.454   4.038  13.968  1.1371 -1.1590 -0.6761
 5629SOL    HW228350   2.316   4.053  14.017 -0.5410  0.0008 -0.4330
 5630SOL     OW28351   4.461   3.049   7.341  0.2239 -0.0522  0.0456
 5630SOL    HW128352   4.541   3.030   7.391  0.1678 -0.6279 -0.0769
 5630SOL    HW228353   4.475   3.022   7.250  0.1736  2.3860 -0.6762
 5631SOL     OW28354   4.208   3.680  13.512 -0.3956 -0.4862  0.1155
 5631SOL    HW128355   4.234   3.605  13.459 -0.3764 -0.5084  0.1566
 5631SOL    HW228356   4.232   3.652  13.600  1.5180  0.1295 -0.2025
 5632SOL     OW28357   0.242   2.090   2.870 -0.3355  0.2496  0.5532
 5632SOL    HW128358   0.334   2.065   2.858 -0.9974 -1.8699 -0.0400
 5632SOL    HW228359   0.254   2.184   2.884 -3.1281  0.7015 -0.2056
 5633SOL     OW28360   4.147   3.392   4.631  0.1239  0.1695 -0.6131
 5633SOL    HW128361   4.069   3.338   4.641  0.3293 -0.0982 -0.4434
 5633SOL    HW228362   4.139   3.450   4.707 -2.4352  0.7196 -1.3294
 5634SOL     OW28363   0.757   1.317   7.862  0.3901  0.0642 -0.9227
 5634SOL    HW128364   0.823   1.347   7.925 -1.9062  1.6855  0.7117
 5634SOL    HW228365   0.689   1.280   7.918  1.2443 -0.5931 -0.2947
 5635SOL     OW28366   0.842   0.106   9.108 -0.3241 -0.0953  0.2457
 5635SOL    HW128367   0.797   0.104   9.023 -0.5282  0.3094  0.3460
 5635SOL    HW228368   0.794   0.180   9.145 -1.6712 -0.0773 -1.4887
 5636SOL     OW28369   1.390   3.192   4.989 -0.2515  0.1456  0.3882
 5636SOL    HW128370   1.453   3.127   5.020 -2.8332 -1.7865  1.6125
 5636SOL    HW228371   1.304   3.150   4.995 -0.0393 -0.0503  2.0406
 5637SOL     OW28372   4.301   1.496   9.405 -0.5083 -0.5035  0.1007
 5637SOL    HW128373   4.386   1.459   9.380  0.0655  0.5457  0.4704
 5637SOL    HW228374   4.267   1.422   9.454 -1.5316  1.0491  1.7436
 5638SOL     OW28375   0.431   4.601   2.055  0.0108  0.5552  0.5352
 5638SOL    HW128376   0.425   4.597   1.960  0.0051 -1.6674  0.6490
 5638SOL    HW228377   0.366   4.533   2.071  0.5162  0.0979  0.6267
 5639SOL     OW28378   0.587   3.200  11.551 -0.1570  0.3703 -0.4753
 5639SOL    HW128379   0.604   3.199  11.457 -0.4469  2.4608 -0.5662
 5639SOL    HW228380   0.597   3.108  11.574 -0.9615 -0.0087 -1.6604
 5640SOL     OW28381   3.237   3.566  15.933  0.4069  0.3640  0.4372
 5640SOL    HW128382   3.217   3.600  15.846 -1.4249 -0.7187  0.4193
 5640SOL    HW228383   3.150   3.563  15.973  0.7675 -0.8739  1.1176
 5641SOL     OW28384   4.412   2.515   5.224  0.0359  0.3097  0.2303
 5641SOL    HW128385   4.449   2.596   5.259 -1.8226  1.2916 -0.0867
 5641SOL    HW228386   4.388   2.551   5.139  0.1722  0.2164  0.1532
 5642SOL     OW28387   1.783   3.477  13.782 -0.4507  0.5185  0.1986
 5642SOL    HW128388   1.759   3.455  13.692  0.0032 -0.2913  0.2777
 5642SOL    HW228389   1.817   3.392  13.808 -2.0788  0.5701  2.4891
 5643SOL     OW28390   0.542   0.602  13.441  0.1726  0.0950 -0.1597
 5643SOL    HW128391   0.553   0.623  13.534  0.8381  2.8674 -0.8602
 5643SOL    HW228392   0.609   0.659  13.404 -0.6753  1.2590  0.0967
 5644SOL     OW28393   3.976   2.728  14.263 -0.3294  0.1178  0.2230
 5644SOL    HW128394   3.898   2.769  14.225  0.6606  0.8593 -1.0034
 5644SOL    HW228395   3.967   2.634  14.246 -1.4425 -0.1563  2.3121
 5645SOL     OW28396   3.131   3.339   5.278 -0.6419 -0.2029  0.2968
 5645SOL    HW128397   3.145   3.340   5.184 -0.3831 -1.1195  0.3246
 5645SOL    HW228398   3.134   3.244   5.289 -0.7130 -0.2614 -0.2288
 5646SOL     OW28399   0.438   3.810  11.858 -0.4131  0.2279  0.1125
 5646SOL    HW128400   0.408   3.891  11.900 -0.0989  0.7889 -0.7467
 5646SOL    HW228401   0.399   3.817  11.772 -0.5196  0.8725  0.2127
 5647SOL     OW28402   0.850   4.160   6.280  0.1704  0.1194  0.2558
 5647SOL    HW128403   0.792   4.122   6.214  2.0000 -0.8109 -0.8116
 5647SOL    HW228404   0.864   4.246   6.241  0.4381  0.7243  1.6930
 5648SOL     OW28405   0.015   3.618   9.019 -0.4340  0.1178  0.0715
 5648SOL    HW128406   4.666   3.635   8.953  0.1206  4.2089  0.5313
 5648SOL    HW228407   0.090   3.668   8.986  0.9487 -1.3423  0.9739
 5649SOL     OW28408   4.132   0.457   6.410  0.0258 -0.0141  0.6408
 5649SOL    HW128409   4.077   0.511   6.353 -0.7730  0.0078  1.4381
 5649SOL    HW228410   4.076   0.442   6.486 -0.4705 -1.2256  0.0479
 5650SOL     OW28411   2.912   2.108  11.803 -0.0064  0.4112  0.4332
 5650SOL    HW128412   3.007   2.096  11.798  0.2343  1.3871  2.4231
 5650SOL    HW228413   2.901   2.187  11.856 -1.2525 -0.1962  1.0670
 5651SOL     OW28414   4.529   2.388  10.355 -0.5893  0.9126 -0.1951
 5651SOL    HW128415   4.622   2.374  10.377 -0.2838  1.6183 -1.0582
 5651SOL    HW228416   4.491   2.395  10.443  0.0169  0.4748  0.1055
 5652SOL     OW28417   3.909   3.069   0.032  0.0318  0.2489  0.4266
 5652SOL    HW128418   3.991   3.023   0.048  0.1326  0.4867  0.5866
 5652SOL    HW228419   3.871   3.033  17.625  1.6011  1.0014 -0.6423
 5653SOL     OW28420   3.360   1.998   7.321 -0.0933  0.4482  0.0684
 5653SOL    HW128421   3.404   2.040   7.394 -1.7257 -1.9546  2.4205
 5653SOL    HW228422   3.378   1.905   7.334 -0.4680  0.4662  0.7007
 5654SOL     OW28423   1.723   2.969   5.453  0.3361 -0.5358  0.5534
 5654SOL    HW128424   1.658   2.950   5.385 -0.4251  0.6096  0.9702
 5654SOL    HW228425   1.677   3.015   5.524  0.9207  0.3171  0.3751
 5655SOL     OW28426   0.052   1.051  10.039  0.6491 -0.6611 -0.7998
 5655SOL    HW128427   0.027   1.137  10.006 -0.7307 -1.1340 -0.9860
 5655SOL    HW228428   0.109   1.065  10.114 -0.0732 -0.4036 -0.2983
 5656SOL     OW28429   0.838   3.119   4.020 -0.3819  0.1351  0.1959
 5656SOL    HW128430   0.912   3.060   4.008 -1.2079 -0.9476  0.3670
 5656SOL    HW228431   0.847   3.184   3.950  0.9192 -0.3443 -0.0701
 5657SOL     OW28432   4.337   0.966   1.928 -0.3657 -0.6968  0.3143
 5657SOL    HW128433   4.416   1.020   1.926 -1.8016  1.4240  0.4378
 5657SOL    HW228434   4.377   0.887   1.964 -0.3986 -2.1000 -2.7271
 5658SOL     OW28435   2.464   3.201  16.480 -0.2870  0.4849  0.6869
 5658SOL    HW128436   2.513   3.248  16.413  1.2054  0.2751  1.6127
 5658SOL    HW228437   2.538   3.167  16.531  0.2395 -1.3120 -1.3037
 5659SOL     OW28438   1.233   2.300   4.265 -0.2717  0.0175  0.5486
 5659SOL    HW128439   1.215   2.206   4.267 -3.1263  0.5568  0.8333
 5659SOL    HW228440   1.322   2.309   4.231 -1.0589 -2.1801 -2.1651
 5660SOL     OW28441   3.708   0.760  10.278 -0.0151 -0.3345  0.4919
 5660SOL    HW128442   3.763   0.765  10.356  0.8070  0.7471 -0.1678
 5660SOL    HW228443   3.764   0.699  10.231  1.0757  1.3627 -0.4070
 5661SOL     OW28444   4.437   2.744  16.596 -0.0769  0.6133 -0.1733
 5661SOL    HW128445   4.475   2.731  16.509  1.8155  0.1419  0.7051
 5661SOL    HW228446   4.362   2.797  16.571  1.3648  3.4000  1.4549
 5662SOL     OW28447   4.485   1.562   2.288 -0.0308 -0.0608  0.0806
 5662SOL    HW128448   4.577   1.589   2.288 -0.2578  0.7175 -0.0559
 5662SOL    HW228449   4.496   1.467   2.290  0.7164 -0.0116 -2.7138
 5663SOL     OW28450   2.567   2.998   3.127 -0.0080 -0.2813 -0.0836
 5663SOL    HW128451   2.656   2.967   3.108  0.6302  0.1197  2.3162
 5663SOL    HW228452   2.529   3.018   3.041 -2.2605  2.1571  1.4655
 5664SOL     OW28453   2.052   0.539   7.563  0.3887  0.3104 -0.0534
 5664SOL    HW128454   2.037   0.633   7.569  0.1641  0.2106  0.8120
 5664SOL    HW228455   2.111   0.527   7.638 -0.9848  0.7158  1.0741
 5665SOL     OW28456   1.792   3.559  12.428  0.0636 -0.1809  0.0269
 5665SOL    HW128457   1.697   3.548  12.419 -0.0081 -0.8526  1.4696
 5665SOL    HW228458   1.803   3.573  12.522 -2.0605 -2.0385  0.5491
 5666SOL     OW28459   3.079   1.720  12.215 -0.2875  0.4115 -0.2032
 5666SOL    HW128460   3.058   1.807  12.250 -0.2110  0.1569  0.4631
 5666SOL    HW228461   3.166   1.707  12.251 -0.6767  2.3741  1.4357
 5667SOL     OW28462   2.562   0.838  13.688  0.3638 -0.0481  0.0956
 5667SOL    HW128463   2.545   0.930  13.711  1.0222  0.3600 -1.0654
 5667SOL    HW228464   2.529   0.797  13.768  2.3215  1.4446  1.6891
 5668SOL     OW28465   0.740   3.671   2.772  0.1602  0.0235 -1.0892
 5668SOL    HW128466   0.749   3.751   2.824 -1.7043 -0.0645 -0.6010
 5668SOL    HW228467   0.820   3.622   2.788  0.8969  1.3537 -0.6803
 5669SOL     OW28468   0.616   1.090  11.079  0.1404  0.4153 -0.7102
 5669SOL    HW128469   0.630   1.156  11.147 -1.3580 -0.6730  0.6662
 5669SOL    HW228470   0.706   1.061  11.064  0.7459  2.2000 -0.5587
 5670SOL     OW28471   1.827   2.667  14.491  0.1345 -0.5176 -0.2939
 5670SOL    HW128472   1.752   2.614  14.516 -0.6460  0.2312 -1.0536
 5670SOL    HW228473   1.787   2.747  14.455 -0.4317  0.1554  1.7983
 5671SOL     OW28474   1.888   1.142   2.322  0.0752 -0.2123 -0.2479
 5671SOL    HW128475   1.922   1.216   2.373 -2.0759  0.1153  0.7320
 5671SOL    HW228476   1.912   1.067   2.376 -2.4767  0.4052  1.7568
 5672SOL     OW28477   0.324   0.950   5.154  0.7506  0.0244 -0.1012
 5672SOL    HW128478   0.406   0.984   5.190  0.1823  1.2359  0.0523
 5672SOL    HW228479   0.269   0.964   5.231  0.9067  0.9237 -0.1510
 5673SOL     OW28480   0.695   3.271   2.850  0.0875  0.0428  0.1132
 5673SOL    HW128481   0.675   3.219   2.772 -2.2162 -0.4246  1.0096
 5673SOL    HW228482   0.789   3.256   2.858  0.2516  2.1140  1.9494
 5674SOL     OW28483   3.610   4.498   3.091 -0.2395  0.7316  0.0966
 5674SOL    HW128484   3.620   4.434   3.162  0.6236  0.0023 -0.6892
 5674SOL    HW228485   3.692   4.547   3.097 -0.8972  1.8422  0.1014
 5675SOL     OW28486   4.430   1.390  16.212  0.6363 -0.1913  0.0331
 5675SOL    HW128487   4.488   1.462  16.237  0.0390 -0.1393  1.2824
 5675SOL    HW228488   4.397   1.422  16.129 -2.9700 -0.0321  1.5417
 5676SOL     OW28489   3.846   3.188   0.664  0.0302  0.1904 -0.1351
 5676SOL    HW128490   3.891   3.128   0.722 -1.2478 -0.9958 -0.3784
 5676SOL    HW228491   3.777   3.215   0.724 -2.1085  1.3385 -3.0933
 5677SOL     OW28492   1.894   1.798   6.566 -0.7670 -0.2717  0.1581
 5677SOL    HW128493   1.822   1.861   6.555  0.5150  1.2345  0.3460
 5677SOL    HW228494   1.861   1.738   6.632  1.7665 -0.9926  0.7585
 5678SOL     OW28495   4.155   0.055  10.738 -0.2372 -0.2095  0.1356
 5678SOL    HW128496   4.070   0.044  10.697 -1.4631 -0.2724  2.6962
 5678SOL    HW228497   4.205   4.715  10.679 -0.5412 -2.1162  1.7493
 5679SOL     OW28498   0.741   3.374   5.090 -0.4252 -0.1404 -0.4508
 5679SOL    HW128499   0.734   3.366   5.185  1.8272 -1.3650 -0.3922
 5679SOL    HW228500   0.745   3.468   5.074 -1.1610 -0.1198 -0.5295
 5680SOL     OW28501   3.405   4.352   1.413  0.2241  0.5067  0.2421
 5680SOL    HW128502   3.451   4.275   1.445  0.1649  1.0277  1.6060
 5680SOL    HW228503   3.321   4.311   1.393  0.1123  1.1026 -0.4823
 5681SOL     OW28504   3.977   3.184  10.041  0.0851  0.5443  0.4022
 5681SOL    HW128505   3.962   3.259   9.984 -0.3953  0.0518 -0.1111
 5681SOL    HW228506   3.998   3.111   9.982  0.0296  1.4742 -0.7659
 5682SOL     OW28507   2.530   4.668   9.875  0.2764  0.1583 -0.4092
 5682SOL    HW128508   2.436   4.674   9.892  0.2501 -0.0682 -0.4764
 5682SOL    HW228509   2.560   4.612   9.947  0.6946 -1.0851 -1.5408
 5683SOL     OW28510   0.681   4.222   6.060 -0.2130  0.2800 -0.3891
 5683SOL    HW128511   0.665   4.167   5.983  0.0903  1.7471 -1.4809
 5683SOL    HW228512   0.722   4.299   6.023  1.4206 -1.0776 -1.3963
 5684SOL     OW28513   1.409   4.154  10.793 -0.0212  0.4179  0.1722
 5684SOL    HW128514   1.334   4.210  10.816  0.0344  0.4594  0.2527
 5684SOL    HW228515   1.467   4.230  10.785  1.2047 -0.4491  0.8666
 5685SOL     OW28516   0.779   2.328   5.329  0.7215  0.2503  0.9971
 5685SOL    HW128517   0.840   2.317   5.255 -0.8208 -0.3397 -0.1806
 5685SOL    HW228518   0.760   2.236   5.344  0.4322  0.4802  2.0527
 5686SOL     OW28519   3.630   3.048   4.217  0.6442 -0.1019  0.2025
 5686SOL    HW128520   3.600   2.964   4.181 -1.9091  0.2290  1.5742
 5686SOL    HW228521   3.671   3.033   4.302  2.1443  2.2358 -0.1175
 5687SOL     OW28522   0.658   3.488   5.590 -0.4139  0.7099  0.3137
 5687SOL    HW128523   0.585   3.449   5.639  0.3339 -0.8129  0.2169
 5687SOL    HW228524   0.657   3.579   5.619  0.7196  0.6294  0.6027
 5688SOL     OW28525   2.695   1.666  13.400  0.5312  0.0285 -0.1900
 5688SOL    HW128526   2.678   1.655  13.493 -0.7813  2.1756 -0.1870
 5688SOL    HW228527   2.755   1.740  13.400 -0.4997  0.8524  0.0929
 5689SOL     OW28528   0.963   4.415   9.444 -0.4386  0.2133  0.7249
 5689SOL    HW128529   0.943   4.366   9.523 -2.8616  0.2855  0.1361
 5689SOL    HW228530   0.983   4.343   9.384 -0.1775  1.0303 -0.1610
 5690SOL     OW28531   4.036   1.150   2.279 -0.5088  0.2071  0.1941
 5690SOL    HW128532   4.018   1.239   2.249 -3.1968 -0.3031  0.2799
 5690SOL    HW228533   4.129   1.145   2.256 -0.4644  0.9122  0.2339
 5691SOL     OW28534   3.631   0.766   2.769  0.1124 -0.0786  0.3528
 5691SOL    HW128535   3.547   0.778   2.725 -0.2932 -2.9556  0.3460
 5691SOL    HW228536   3.673   0.850   2.749 -1.8179  1.4808  2.7974
 5692SOL     OW28537   2.916   2.980   5.749  0.5013  0.2069 -0.0055
 5692SOL    HW128538   2.859   2.984   5.826 -1.4150  0.8750 -1.4474
 5692SOL    HW228539   2.999   2.952   5.787  0.9112  0.4415 -0.7344
 5693SOL     OW28540   3.813   3.440  17.539 -0.1803 -0.0986 -0.2702
 5693SOL    HW128541   3.741   3.491  17.502 -2.3532 -2.1532  1.1070
 5693SOL    HW228542   3.843   3.377  17.474 -1.1372 -0.9855  0.1558
 5694SOL     OW28543   4.505   2.655   1.755 -0.1882 -0.0123  0.2081
 5694SOL    HW128544   4.595   2.681   1.778  0.6505 -1.1642 -1.7682
 5694SOL    HW228545   4.516   2.565   1.724 -1.1114  1.2464 -3.7518
 5695SOL     OW28546   3.661   2.930   5.377  0.6818 -0.2524  0.3443
 5695SOL    HW128547   3.593   2.970   5.431  0.2181 -0.8681  0.2169
 5695SOL    HW228548   3.655   2.841   5.411 -0.1287 -0.5163 -0.4814
 5696SOL     OW28549   4.210   0.250   4.452 -0.8624  0.3997 -0.5151
 5696SOL    HW128550   4.146   0.316   4.427  0.1281  1.1663 -1.0135
 5696SOL    HW228551   4.264   0.241   4.373  1.8492 -0.7339  1.4716
 5697SOL     OW28552   0.915   1.243   2.600  0.4142  0.4944 -0.3008
 5697SOL    HW128553   1.003   1.274   2.618  0.4965  1.3592 -2.1929
 5697SOL    HW228554   0.874   1.258   2.685  0.5750  0.4924 -0.2242
 5698SOL     OW28555   1.058   1.583  12.651 -0.0261  0.1971 -0.4235
 5698SOL    HW128556   1.013   1.551  12.572 -1.6824  0.1692  0.5284
 5698SOL    HW228557   1.040   1.676  12.639 -2.4897 -0.5267 -2.5302
 5699SOL     OW28558   3.252   4.156   5.755 -0.1571  0.1947 -0.2199
 5699SOL    HW128559   3.291   4.231   5.798 -1.2221  1.1568 -0.9260
 5699SOL    HW228560   3.162   4.185   5.739 -0.2023 -0.2383 -0.7906
 5700SOL     OW28561   0.430   2.554   7.930 -0.1446  0.2767 -0.1983
 5700SOL    HW128562   0.525   2.553   7.942  0.0216 -1.0766 -1.7007
 5700SOL    HW228563   0.391   2.571   8.016 -0.5822  0.3041 -0.4001
 5701SOL     OW28564   3.029   2.935  16.519 -0.3288  0.1439  0.7588
 5701SOL    HW128565   3.054   3.025  16.498  3.7184 -1.2250 -0.3746
 5701SOL    HW228566   3.045   2.893  16.434 -0.2329  1.2095  0.2589
 5702SOL     OW28567   3.863   0.509  12.104 -0.1305  0.7590 -0.2348
 5702SOL    HW128568   3.822   0.591  12.075 -2.8212 -0.4267  0.2515
 5702SOL    HW228569   3.819   0.445  12.048  1.9637 -1.0108  0.1359
 5703SOL     OW28570   0.958   0.543   5.438 -0.1960  0.0414  0.0908
 5703SOL    HW128571   0.927   0.456   5.464 -1.5416  0.7593  0.9140
 5703SOL    HW228572   1.007   0.574   5.515  0.3649  1.5665 -0.8947
 5704SOL     OW28573   0.009   0.195  14.726  0.2293  0.1656 -0.3076
 5704SOL    HW128574   0.017   0.109  14.767  2.4262  0.8624  0.6506
 5704SOL    HW228575   4.634   0.219  14.736  0.4745  1.3497 -0.9074
 5705SOL     OW28576   4.456   0.117  12.774  0.8160  0.0299 -0.5626
 5705SOL    HW128577   4.518   0.177  12.734 -2.2946  3.4234 -0.3453
 5705SOL    HW228578   4.463   0.051  12.706 -0.3370 -0.5243 -0.1512
 5706SOL     OW28579   0.713   2.566  11.236  0.1481  0.1408 -0.1679
 5706SOL    HW128580   0.676   2.535  11.319  1.6891 -1.6980 -0.1667
 5706SOL    HW228581   0.711   2.661  11.242 -0.0498  0.1517 -0.3926
 5707SOL     OW28582   2.584   1.470  14.825 -0.2181  0.1250 -0.4978
 5707SOL    HW128583   2.570   1.488  14.732 -1.4872 -0.3756 -0.4032
 5707SOL    HW228584   2.547   1.383  14.841 -1.9675  0.5978 -1.9127
 5708SOL     OW28585   3.194   3.958   9.625 -0.3226  0.4974  0.2354
 5708SOL    HW128586   3.115   3.907   9.645  0.4290  0.1204  2.1743
 5708SOL    HW228587   3.256   3.892   9.595 -1.7703  0.2827 -2.3481
 5709SOL     OW28588   0.167   3.337   6.066  0.2139  0.1145  0.0949
 5709SOL    HW128589   0.130   3.403   6.125  0.2900 -0.5533  0.8913
 5709SOL    HW228590   0.116   3.347   5.986  0.9723 -0.5257 -0.4641
 5710SOL     OW28591   3.057   0.946   7.093  0.0310  0.3725 -0.0861
 5710SOL    HW128592   3.062   0.886   7.019  0.2717  0.5108 -0.1827
 5710SOL    HW228593   2.968   0.947   7.128 -0.1512  0.3863 -0.5532
 5711SOL     OW28594   0.934   1.255   6.975  0.6364  0.7578 -0.6489
 5711SOL    HW128595   0.856   1.226   7.022  1.5407  0.5177  0.6959
 5711SOL    HW228596   0.897   1.317   6.912 -0.2336  0.7316 -0.1605
 5712SOL     OW28597   0.176   1.606   3.830 -0.2927 -0.5067 -0.4511
 5712SOL    HW128598   0.108   1.541   3.850 -0.3859 -0.5941 -1.0508
 5712SOL    HW228599   0.123   1.684   3.843  1.4346  0.5886 -0.0313
 5713SOL     OW28600   4.324   4.208   2.112  0.0467 -0.1154  0.0255
 5713SOL    HW128601   4.270   4.278   2.075  2.5993  2.0823  0.4931
 5713SOL    HW228602   4.315   4.135   2.050  2.5788  0.5584 -1.1167
 5714SOL     OW28603   2.548   3.736   4.331 -0.2517  0.1621 -0.1801
 5714SOL    HW128604   2.564   3.830   4.327  0.0464  0.1274  0.1541
 5714SOL    HW228605   2.511   3.738   4.419  1.3841 -0.4273  0.5270
 5715SOL     OW28606   4.420   1.115  16.263 -0.1469 -0.1340 -0.0722
 5715SOL    HW128607   4.352   1.093  16.199 -0.9888  0.4531  0.6302
 5715SOL    HW228608   4.443   1.205  16.242  3.0338 -0.6439  1.0935
 5716SOL     OW28609   0.752   4.126  14.503  0.5137 -0.1080 -0.2869
 5716SOL    HW128610   0.662   4.147  14.528  0.1511 -0.1040 -1.5842
 5716SOL    HW228611   0.804   4.158  14.576 -0.6328  2.2893 -0.5499
 5717SOL     OW28612   4.418   0.440   6.421  0.3090 -0.1746  0.0483
 5717SOL    HW128613   4.323   0.454   6.418  0.6207  1.8664 -0.2834
 5717SOL    HW228614   4.421   0.347   6.402 -0.8035 -0.6489  2.2439
 5718SOL     OW28615   2.881   4.118  15.089 -0.5586 -0.6234 -0.3257
 5718SOL    HW128616   2.972   4.125  15.118 -0.3966  1.0722 -1.2500
 5718SOL    HW228617   2.859   4.210  15.077 -1.1412 -0.7400 -0.1380
 5719SOL     OW28618   1.688   3.943   3.373  0.0458 -0.2309  0.0995
 5719SOL    HW128619   1.720   3.960   3.461  1.6606 -2.4495 -0.0712
 5719SOL    HW228620   1.729   4.012   3.321 -2.5946  0.6893 -0.7712
 5720SOL     OW28621   3.749   0.879   3.012  0.0538 -0.1097 -0.3531
 5720SOL    HW128622   3.789   0.803   2.971  1.3999  0.9114 -0.9299
 5720SOL    HW228623   3.755   0.933   2.934  2.5593  0.4494  0.2196
 5721SOL     OW28624   2.923   0.284  16.310  0.4587 -0.4838  0.1758
 5721SOL    HW128625   2.907   0.377  16.291 -1.7423 -0.9958 -0.4423
 5721SOL    HW228626   2.883   0.268  16.396 -1.8147  0.8724 -0.6373
 5722SOL     OW28627   4.535   1.771   9.681 -0.0206 -0.0749  0.2698
 5722SOL    HW128628   4.512   1.843   9.739 -1.2101 -0.3283  0.1315
 5722SOL    HW228629   4.501   1.793   9.594 -0.9756 -1.0517  0.3859
 5723SOL     OW28630   0.457   2.548   5.661 -0.2341  0.0099 -0.5822
 5723SOL    HW128631   0.385   2.531   5.722 -2.8851  1.5070 -3.2355
 5723SOL    HW228632   0.413   2.578   5.581 -0.4248  0.0140 -0.4772
 5724SOL     OW28633   3.510   0.316  10.905 -0.6820 -0.1243  0.1456
 5724SOL    HW128634   3.482   0.276  10.987 -3.0727 -0.1150 -0.6505
 5724SOL    HW228635   3.453   0.275  10.839 -0.1570 -1.6451  0.6555
 5725SOL     OW28636   1.883   2.823  11.269 -0.1023 -0.0205 -0.6340
 5725SOL    HW128637   1.893   2.789  11.357 -1.5711  0.7288 -0.1890
 5725SOL    HW228638   1.881   2.742  11.218 -1.6591  1.1665 -2.4739
 5726SOL     OW28639   3.732   1.693   8.196  0.0331  0.2741  0.3226
 5726SOL    HW128640   3.716   1.609   8.154 -0.6101  0.6536 -0.1847
 5726SOL    HW228641   3.665   1.698   8.264  1.2941  0.1212  1.5982
 5727SOL     OW28642   0.945   2.642   1.066 -0.3331 -0.3673 -0.0380
 5727SOL    HW128643   0.870   2.590   1.093  0.9252 -1.4690  1.3203
 5727SOL    HW228644   0.907   2.668   0.982 -1.4005  1.1156  0.9071
 5728SOL     OW28645   1.277   0.646   7.734  0.1018 -0.0782 -0.4642
 5728SOL    HW128646   1.307   0.564   7.695 -0.9668 -0.7531  0.1551
 5728SOL    HW228647   1.206   0.674   7.677 -0.2969  3.2997  1.7156
 5729SOL     OW28648   4.418   3.382   7.349 -0.1014 -0.1014 -0.0604
 5729SOL    HW128649   4.459   3.371   7.435 -0.9712 -0.6067  0.2953
 5729SOL    HW228650   4.417   3.477   7.360 -1.2302 -0.2389  1.0605
 5730SOL     OW28651   2.882   2.763   2.580  0.7415  0.3441 -0.0843
 5730SOL    HW128652   2.839   2.817   2.647  1.0548  0.0973  0.3159
 5730SOL    HW228653   2.944   2.824   2.539  0.7180 -0.4767 -1.3457
 5731SOL     OW28654   1.288   3.416  12.243  0.1945 -0.0614  0.1357
 5731SOL    HW128655   1.261   3.328  12.216  0.0919 -0.6418  2.1131
 5731SOL    HW228656   1.226   3.475  12.199 -0.2608 -0.4371  0.2793
 5732SOL     OW28657   0.400   3.241   0.831  0.0483 -0.3412  0.3255
 5732SOL    HW128658   0.369   3.153   0.813 -0.9010 -0.1972  1.2720
 5732SOL    HW228659   0.479   3.229   0.884  0.9297  0.3142 -0.8283
 5733SOL     OW28660   3.468   1.684   7.963  0.2926 -0.4251 -0.1337
 5733SOL    HW128661   3.416   1.624   7.909  0.4268  0.0886 -0.8277
 5733SOL    HW228662   3.406   1.706   8.032  0.8112 -0.0723  0.2222
 5734SOL     OW28663   2.207   3.887  12.188  0.0427  0.3036 -0.1355
 5734SOL    HW128664   2.141   3.956  12.180 -0.0716  0.6107  3.5675
 5734SOL    HW228665   2.173   3.835  12.260 -0.7640  0.1574 -0.6201
 5735SOL     OW28666   3.847   0.779   6.728  0.5611 -0.2243  0.4394
 5735SOL    HW128667   3.784   0.707   6.729  2.5773 -1.9611  0.2851
 5735SOL    HW228668   3.813   0.833   6.656 -3.4131 -1.7821  1.1200
 5736SOL     OW28669   3.941   2.892   2.274 -0.4932  0.4598 -0.2775
 5736SOL    HW128670   3.986   2.859   2.351 -2.1080  0.3176  0.6042
 5736SOL    HW228671   4.011   2.955   2.254  0.1071 -0.2733 -0.4960
 5737SOL     OW28672   2.689   0.857  15.365  0.4684 -0.9263  0.1697
 5737SOL    HW128673   2.774   0.849  15.323  1.2919 -1.4752  1.9424
 5737SOL    HW228674   2.667   0.765  15.351 -0.7017 -0.5031 -0.7893
 5738SOL     OW28675   3.793   4.101   8.246 -0.3590  0.0292  0.2688
 5738SOL    HW128676   3.832   4.013   8.247 -0.9135 -0.2311 -1.1347
 5738SOL    HW228677   3.701   4.079   8.258 -0.4647  0.6534  0.5882
 5739SOL     OW28678   3.512   3.221   8.120 -0.5768  0.1057 -0.1657
 5739SOL    HW128679   3.520   3.247   8.212  1.8740  1.1510 -0.6718
 5739SOL    HW228680   3.569   3.144   8.114 -0.8701 -0.1639  0.4466
 5740SOL     OW28681   0.875   4.609   3.564 -0.2434  0.2886 -0.5313
 5740SOL    HW128682   0.807   4.654   3.515  0.7609  0.9930 -1.2835
 5740SOL    HW228683   0.943   4.603   3.496  1.0235 -0.2865  0.7953
 5741SOL     OW28684   3.544   2.366   6.715  0.2759  0.0895 -0.2534
 5741SOL    HW128685   3.552   2.324   6.629 -4.6129  1.2936 -1.2755
 5741SOL    HW228686   3.450   2.381   6.721  0.3081 -0.2305  1.1561
 5742SOL     OW28687   3.653   2.643  11.021 -0.4024  0.6977 -0.2282
 5742SOL    HW128688   3.748   2.646  11.025 -0.2800 -1.2803 -1.6137
 5742SOL    HW228689   3.625   2.710  11.084 -1.9310 -0.3269  0.2026
 5743SOL     OW28690   4.159   2.499   4.142 -0.2043 -0.9643  0.0703
 5743SOL    HW128691   4.210   2.480   4.221  1.1038  2.4928  0.0721
 5743SOL    HW228692   4.097   2.563   4.176  1.4146  1.3034 -1.1924
 5744SOL     OW28693   3.843   2.580   1.693  0.3923  0.8360  0.0223
 5744SOL    HW128694   3.898   2.502   1.681  0.0178  0.7838 -1.3590
 5744SOL    HW228695   3.892   2.638   1.751 -1.0652 -0.0240  2.0858
 5745SOL     OW28696   2.238   0.212   3.113  0.1689  0.0478  0.3453
 5745SOL    HW128697   2.246   0.306   3.096 -1.2979  0.2710  0.8743
 5745SOL    HW228698   2.160   0.221   3.168  0.9232  1.1438  1.2152
 5746SOL     OW28699   3.167   2.409   7.989  0.0097  0.1575 -0.2194
 5746SOL    HW128700   3.114   2.352   8.045 -1.3602  1.2085 -0.4574
 5746SOL    HW228701   3.242   2.439   8.040  1.0237 -2.9770  0.1822
 5747SOL     OW28702   0.541   3.826  15.984 -0.1537  0.7488  0.4886
 5747SOL    HW128703   0.480   3.755  16.005  2.2574 -1.6188 -0.4827
 5747SOL    HW228704   0.591   3.776  15.919 -2.5083  0.3234 -1.0289
 5748SOL     OW28705   0.021   4.703   7.672 -0.5199  0.4944  0.0281
 5748SOL    HW128706   4.660   0.000   7.725 -0.7261 -2.9655  0.7247
 5748SOL    HW228707   0.073   0.060   7.702 -0.6882  0.4025  0.5607
 5749SOL     OW28708   1.679   3.745   5.384 -0.3461  0.1235  0.7003
 5749SOL    HW128709   1.697   3.710   5.296  1.2673 -0.3775  1.2298
 5749SOL    HW228710   1.737   3.821   5.384 -2.1463  1.5030 -0.9372
 5750SOL     OW28711   3.535   4.186   3.868  0.4712  0.1056 -0.2593
 5750SOL    HW128712   3.446   4.202   3.837  0.6545  0.0660 -0.8050
 5750SOL    HW228713   3.556   4.278   3.853 -1.8682  0.7986  0.6695
 5751SOL     OW28714   2.421   2.194   4.994 -0.4178  0.6781 -0.1165
 5751SOL    HW128715   2.368   2.262   4.953  1.8784  1.5589 -1.5771
 5751SOL    HW228716   2.399   2.200   5.088 -0.5178  1.6650 -0.2122
 5752SOL     OW28717   3.234   3.746  11.289 -0.1100 -0.1602  0.3064
 5752SOL    HW128718   3.279   3.664  11.310 -0.8917  0.2265  3.5045
 5752SOL    HW228719   3.180   3.773  11.364 -0.1673  1.1834 -0.2192
 5753SOL     OW28720   2.809   3.467  17.617 -0.4786 -0.3399 -0.1847
 5753SOL    HW128721   2.820   3.456   0.038  0.2162 -1.7684 -0.4310
 5753SOL    HW228722   2.828   3.561  17.612 -0.1033 -0.2210  3.6438
 5754SOL     OW28723   1.932   2.500   5.021  0.3007 -0.1899 -0.4578
 5754SOL    HW128724   1.999   2.453   4.971 -0.4152 -1.3979 -0.2950
 5754SOL    HW228725   1.974   2.585   5.028  0.0213 -0.1474  0.7388
 5755SOL     OW28726   1.174   3.193   3.198  0.2874  0.2695 -0.2637
 5755SOL    HW128727   1.263   3.168   3.174  0.0772 -1.5372  0.8120
 5755SOL    HW228728   1.136   3.121   3.248  2.0724  0.1744  0.9373
 5756SOL     OW28729   2.329   1.509   9.983  0.1852 -0.0382  0.1325
 5756SOL    HW128730   2.235   1.519   9.998  0.3001  1.5502 -0.1947
 5756SOL    HW228731   2.367   1.558  10.055  0.7572  1.4650 -1.1871
 5757SOL     OW28732   0.042   0.241   0.574  0.6460  0.6079 -0.1756
 5757SOL    HW128733   0.036   0.234   0.479  0.8914 -1.6890 -0.0066
 5757SOL    HW228734   4.669   0.242   0.606  0.4917 -0.7594 -0.5952
 5758SOL     OW28735   1.932   2.020  11.190  0.2586 -0.1243  0.3599
 5758SOL    HW128736   1.880   1.980  11.120  0.2389  1.1942 -0.3832
 5758SOL    HW228737   2.016   2.040  11.149  0.3038  1.7477  1.3553
 5759SOL     OW28738   3.963   0.035   1.525 -0.6029 -0.3990 -0.4710
 5759SOL    HW128739   3.879   0.069   1.554 -0.6146 -2.8809  2.4775
 5759SOL    HW228740   3.985   0.096   1.455  3.0297 -0.3297  0.7315
 5760SOL     OW28741   0.199   2.014   0.880 -0.2810 -0.3935 -0.7530
 5760SOL    HW128742   0.126   2.064   0.915  0.8467  0.8937 -0.1973
 5760SOL    HW228743   0.215   2.062   0.799 -0.4471  0.2516 -0.4087
 5761SOL     OW28744   3.678   3.066   1.352 -0.5539  0.0535 -0.2892
 5761SOL    HW128745   3.700   2.973   1.353 -1.0258 -0.0432  1.0812
 5761SOL    HW228746   3.645   3.076   1.441 -0.7802 -1.1716 -0.2329
 5762SOL     OW28747   1.349   0.494   7.043 -0.1135  0.0501 -0.4136
 5762SOL    HW128748   1.358   0.491   7.138 -2.5505  1.7445 -0.1365
 5762SOL    HW228749   1.365   0.587   7.025 -0.9247 -0.0941 -1.8828
 5763SOL     OW28750   3.599   4.104  16.420 -0.1049  0.3556  0.4674
 5763SOL    HW128751   3.635   4.055  16.493  0.8582  2.2854  1.3061
 5763SOL    HW228752   3.552   4.170  16.471 -2.0085 -0.5367 -0.1555
 5764SOL     OW28753   3.443   3.365   2.480 -0.6696  0.1321  0.3212
 5764SOL    HW128754   3.475   3.454   2.495  0.1965 -0.0051 -0.6394
 5764SOL    HW228755   3.350   3.371   2.461 -0.4578 -1.9684 -1.3265
 5765SOL     OW28756   3.820   3.864   1.274 -0.0499 -0.2873 -0.7593
 5765SOL    HW128757   3.786   3.774   1.276  1.6733 -0.9715 -2.2094
 5765SOL    HW228758   3.863   3.871   1.189  3.2204 -0.9887  0.8738
 5766SOL     OW28759   3.412   3.318   1.747 -0.3099  0.0658 -0.3914
 5766SOL    HW128760   3.371   3.261   1.812  0.3277 -0.2582 -0.2670
 5766SOL    HW228761   3.417   3.404   1.790 -0.9548  0.1071 -0.4040
 5767SOL     OW28762   1.352   2.468   5.873  0.7036  0.4333  0.1544
 5767SOL    HW128763   1.370   2.551   5.829  1.1495  1.1362  1.6483
 5767SOL    HW228764   1.349   2.409   5.797  1.8301  1.9586 -1.0650
 5768SOL     OW28765   0.898   0.587   4.162  0.1181 -0.9770  0.1905
 5768SOL    HW128766   0.818   0.551   4.201 -1.1352  0.9374 -0.5996
 5768SOL    HW228767   0.900   0.531   4.084 -1.6809 -0.8653  0.0705
 5769SOL     OW28768   2.310   2.302   6.376  0.2107  0.1482 -0.1790
 5769SOL    HW128769   2.267   2.234   6.324 -0.7488  1.9942 -1.8089
 5769SOL    HW228770   2.260   2.279   6.455 -1.0534  0.1581 -0.9840
 5770SOL     OW28771   4.493   3.091   6.630 -0.5412 -0.5050 -0.3193
 5770SOL    HW128772   4.473   3.107   6.537  1.9646 -2.4115 -1.1863
 5770SOL    HW228773   4.470   3.172   6.675  3.4972  1.2442 -1.4763
 5771SOL     OW28774   2.429   1.498   5.293  0.6162  0.0381  0.2613
 5771SOL    HW128775   2.426   1.484   5.387 -0.9809  0.3714  0.2604
 5771SOL    HW228776   2.522   1.509   5.272  0.2318  0.5988 -1.1605
 5772SOL     OW28777   1.310   2.117  16.908  0.3936 -0.4307  0.2114
 5772SOL    HW128778   1.325   2.090  16.817 -2.1083 -0.5960 -0.1410
 5772SOL    HW228779   1.215   2.128  16.905  0.3569 -0.7248  0.2542
 5773SOL     OW28780   3.567   0.494   7.808 -0.0712 -0.0112  0.0153
 5773SOL    HW128781   3.620   0.503   7.888  0.4702 -2.2222 -0.0989
 5773SOL    HW228782   3.625   0.446   7.750  0.8817 -1.6386  2.3120
 5774SOL     OW28783   2.585   2.571  13.844 -0.2063  0.3074 -0.2964
 5774SOL    HW128784   2.616   2.487  13.810 -2.5935 -0.6327 -0.1824
 5774SOL    HW228785   2.491   2.580  13.828 -0.5867  0.5898  2.2116
 5775SOL     OW28786   0.313   0.812  11.709  0.3622 -0.1606 -0.1879
 5775SOL    HW128787   0.402   0.819  11.672  1.9342 -1.6837  3.3483
 5775SOL    HW228788   0.300   0.719  11.727  0.4783 -0.6846 -2.7671
 5776SOL     OW28789   1.506   4.434   4.418  0.2602 -0.2765 -0.0005
 5776SOL    HW128790   1.547   4.448   4.332 -0.2253  3.2156  0.3572
 5776SOL    HW228791   1.526   4.342   4.434  1.7389  0.0316 -0.0427
 5777SOL     OW28792   1.016   3.597  11.883 -0.4090  0.3573  0.3454
 5777SOL    HW128793   1.040   3.673  11.831  1.7012 -0.6581 -0.1631
 5777SOL    HW228794   1.070   3.528  11.844 -2.1125 -0.9457  0.2355
 5778SOL     OW28795   1.541   2.933   6.171  0.3092 -0.0529  0.0462
 5778SOL    HW128796   1.528   2.940   6.266 -0.0788 -0.7024  0.0436
 5778SOL    HW228797   1.623   2.884   6.176  1.7729  2.1159 -2.6232
 5779SOL     OW28798   1.286   4.067   7.079 -0.0682 -0.2653 -0.0851
 5779SOL    HW128799   1.223   3.997   7.094  1.4344 -1.3506  1.0001
 5779SOL    HW228800   1.365   4.021   7.051  0.3274 -0.1296  0.8281
 5780SOL     OW28801   0.181   1.086   8.352  0.1641  0.0721 -0.1261
 5780SOL    HW128802   0.144   1.075   8.439  1.1454  0.0405  0.2855
 5780SOL    HW228803   0.101   1.082   8.300 -0.4271 -0.0544  0.7938
 5781SOL     OW28804   1.126   3.376   1.696 -0.3207  0.4255  0.3510
 5781SOL    HW128805   1.038   3.381   1.659 -0.2205 -0.1101  0.0430
 5781SOL    HW228806   1.181   3.436   1.645 -1.4681 -0.1283 -1.4927
 5782SOL     OW28807   4.619   2.366   1.772 -0.0978  0.6477 -0.5127
 5782SOL    HW128808   4.672   2.301   1.726 -1.8494  0.7988 -2.7390
 5782SOL    HW228809   4.564   2.316   1.832  2.7061  0.6816  2.0496
 5783SOL     OW28810   0.176   2.837   0.902 -0.2727 -0.7810  0.6578
 5783SOL    HW128811   0.202   2.838   0.994  0.0007  1.2266  0.5598
 5783SOL    HW228812   0.096   2.784   0.903 -0.6904 -0.1865 -1.8159
 5784SOL     OW28813   4.038   2.252   4.116  0.2385  0.1018  0.3203
 5784SOL    HW128814   4.061   2.345   4.110 -0.2736  0.0554 -2.4210
 5784SOL    HW228815   4.121   2.205   4.125 -0.0351 -0.6069 -0.7670
 5785SOL     OW28816   0.963   0.528   9.260 -0.4865  0.0673 -0.0646
 5785SOL    HW128817   1.023   0.461   9.293  0.4721  1.4310  0.9791
 5785SOL    HW228818   1.015   0.608   9.255  0.0180 -0.2604 -0.0496
 5786SOL     OW28819   0.636   1.263   2.523  0.5352  0.0686 -0.2456
 5786SOL    HW128820   0.629   1.244   2.617 -0.0692  0.1425 -0.2758
 5786SOL    HW228821   0.732   1.263   2.516  0.5395 -1.2538 -0.1729
 5787SOL     OW28822   1.730   3.672   9.041  0.2512 -0.3735  0.3406
 5787SOL    HW128823   1.714   3.732   8.968 -0.5609 -0.7826  0.1860
 5787SOL    HW228824   1.670   3.600   9.023  0.3645 -0.4582  0.3047
 5788SOL     OW28825   4.461   1.966  15.621  0.0317 -0.7471  0.1900
 5788SOL    HW128826   4.369   1.964  15.646 -0.6094  0.9497 -2.0436
 5788SOL    HW228827   4.463   1.964  15.525  1.6701  2.2825  0.1764
 5789SOL     OW28828   0.905   2.730   5.999  1.3752 -0.5422  0.0463
 5789SOL    HW128829   0.822   2.776   5.986  1.7645 -0.0692 -0.7506
 5789SOL    HW228830   0.920   2.683   5.917  3.3653  0.6906 -0.2996
 5790SOL     OW28831   0.082   1.010  15.339  0.5626  0.4446 -0.5010
 5790SOL    HW128832   0.161   0.982  15.385  0.0639  1.8946  1.2593
 5790SOL    HW228833   0.125   1.060  15.270  0.8631  1.0671  0.1417
 5791SOL     OW28834   2.753   0.610   9.171  0.0074 -0.1726  0.5024
 5791SOL    HW128835   2.691   0.673   9.207  0.8954  0.9040  0.1537
 5791SOL    HW228836   2.712   0.533   9.211 -1.5796  0.5633  0.2598
 5792SOL     OW28837   4.508   3.221   7.862 -0.2121  0.0376  0.4046
 5792SOL    HW128838   4.419   3.186   7.858 -0.1791 -0.0309  0.2484
 5792SOL    HW228839   4.550   3.134   7.863  0.9102  0.5811  0.8091
 5793SOL     OW28840   1.455   2.850   8.864 -0.2058  0.4259  0.4611
 5793SOL    HW128841   1.472   2.884   8.776 -2.0106  0.8665  0.2909
 5793SOL    HW228842   1.494   2.915   8.922 -0.9580 -0.8921  2.4370
 5794SOL     OW28843   3.343   4.275   5.204 -0.2030  0.3534  0.2047
 5794SOL    HW128844   3.328   4.369   5.198 -2.1861  0.0167  0.1898
 5794SOL    HW228845   3.437   4.268   5.183 -0.3414  1.6635 -0.8161
 5795SOL     OW28846   3.474   2.302   6.041  0.4701  0.3281 -0.3184
 5795SOL    HW128847   3.507   2.367   6.103  1.6699 -0.0972 -0.5149
 5795SOL    HW228848   3.559   2.285   6.002  0.9442 -1.0506  1.2966
 5796SOL     OW28849   4.348   4.653   2.933  0.1538  0.0381  0.2015
 5796SOL    HW128850   4.402   4.613   2.865  1.5362  2.1843  0.0461
 5796SOL    HW228851   4.421   4.706   2.964 -0.4759  1.4207 -0.6510
 5797SOL     OW28852   0.053   0.608  13.373 -0.6063  0.1487  0.2695
 5797SOL    HW128853   0.059   0.600  13.468  1.7831 -1.2726 -0.0120
 5797SOL    HW228854   0.143   0.585  13.350 -0.0897  1.2440  1.2139
 5798SOL     OW28855   3.380   4.241  14.119 -0.3786  0.1731 -0.2721
 5798SOL    HW128856   3.300   4.271  14.162  0.1736  0.4511  0.5555
 5798SOL    HW228857   3.344   4.191  14.046 -2.4126  1.1300  0.0690
 5799SOL     OW28858   1.170   1.993   5.330  0.4621 -0.0995 -0.4428
 5799SOL    HW128859   1.170   1.996   5.235  0.3719 -0.7246 -0.4610
 5799SOL    HW228860   1.125   1.910   5.345 -1.1406  0.8321 -0.1017
 5800SOL     OW28861   2.588   1.976  12.266  0.2097  0.5446 -0.0719
 5800SOL    HW128862   2.520   2.043  12.256  0.0955  0.4627  0.1714
 5800SOL    HW228863   2.582   1.949  12.357 -0.7360  0.3737 -0.1929
 5801SOL     OW28864   0.185   3.257   4.566  0.2185 -0.1584 -0.1838
 5801SOL    HW128865   0.262   3.228   4.614  0.6949  0.0663 -0.8114
 5801SOL    HW228866   0.187   3.344   4.605  0.3423 -1.1532  2.0174
 5802SOL     OW28867   0.948   3.354  12.191  0.6252 -0.3766 -0.0948
 5802SOL    HW128868   1.002   3.433  12.184  1.9896 -1.0802  2.8309
 5802SOL    HW228869   0.987   3.312  12.267 -0.9288  1.4420  1.7147
 5803SOL     OW28870   2.922   3.132   2.242 -0.3076 -0.3980  0.2198
 5803SOL    HW128871   2.967   3.120   2.326 -0.8863 -0.5225  0.5082
 5803SOL    HW228872   2.840   3.177   2.262 -1.5979 -1.5510 -2.5225
 5804SOL     OW28873   1.057   4.162   3.548 -0.0067  0.6461 -0.2646
 5804SOL    HW128874   1.130   4.160   3.486 -1.0576  1.1048 -1.5226
 5804SOL    HW228875   1.016   4.075   3.542 -1.8323  1.2802  2.9246
 5805SOL     OW28876   2.566   3.082   2.870 -0.1730  0.0617  0.0015
 5805SOL    HW128877   2.508   3.067   2.795  0.5251 -1.3142 -0.2504
 5805SOL    HW228878   2.532   3.169   2.893 -0.4159 -0.4968  1.7112
 5806SOL     OW28879   1.254   0.997   2.478 -0.0404  0.1728 -0.1393
 5806SOL    HW128880   1.276   1.074   2.426  3.2364 -0.5137  0.2417
 5806SOL    HW228881   1.331   0.947   2.454  0.6271  1.0987  0.0747
 5807SOL     OW28882   2.022   2.169   0.059  0.4664 -0.4965 -0.5364
 5807SOL    HW128883   1.980   2.170  17.646 -0.1487  2.4298 -0.1728
 5807SOL    HW228884   1.971   2.100   0.101  1.3450  0.0135  1.3429
 5808SOL     OW28885   0.302   0.329   9.655  0.1464  0.2217  0.1098
 5808SOL    HW128886   0.386   0.283   9.644 -1.2836 -2.1590 -0.8309
 5808SOL    HW228887   0.258   0.321   9.571  0.5663  0.1759 -0.1030
 5809SOL     OW28888   3.659   4.196   4.207  0.0656  0.3561  0.2011
 5809SOL    HW128889   3.666   4.247   4.126 -2.5010  0.4596  0.0273
 5809SOL    HW228890   3.713   4.121   4.183 -0.4224  0.6763 -1.8958
 5810SOL     OW28891   2.813   2.518  16.817  0.0410  0.7281 -0.3636
 5810SOL    HW128892   2.739   2.577  16.807 -0.4217  0.0322 -1.0071
 5810SOL    HW228893   2.879   2.584  16.841  1.0356 -0.8163  1.1694
 5811SOL     OW28894   3.664   1.940   4.467  0.0974 -0.4550  0.2868
 5811SOL    HW128895   3.600   1.952   4.537 -0.3339  0.4453 -0.2685
 5811SOL    HW228896   3.607   1.892   4.408  0.1583 -0.1850  0.0145
 5812SOL     OW28897   3.544   3.121  14.132 -0.3406 -0.2704 -0.2493
 5812SOL    HW128898   3.469   3.175  14.107  0.2612  1.0912  0.8767
 5812SOL    HW228899   3.495   3.048  14.170 -0.3926  0.6303  1.4132
 5813SOL     OW28900   1.922   0.727   7.261 -0.4961 -0.0722  0.0245
 5813SOL    HW128901   2.003   0.729   7.210  0.0922 -0.1401  0.9511
 5813SOL    HW228902   1.914   0.631   7.263 -1.9495  0.0552  0.0707
 5814SOL     OW28903   4.446   0.624   1.714 -0.2846 -0.4312 -0.7179
 5814SOL    HW128904   4.491   0.611   1.630 -1.3661  0.8508 -1.4965
 5814SOL    HW228905   4.431   0.530   1.728 -1.0807 -0.0443  0.9476
 5815SOL     OW28906   1.028   1.622  13.058  0.4718 -0.1028  0.3312
 5815SOL    HW128907   1.061   1.600  13.145  0.3302 -0.1372  0.3747
 5815SOL    HW228908   1.003   1.713  13.071  0.8013 -0.0156  0.3741
 5816SOL     OW28909   4.052   2.940   0.521 -0.4836 -0.3639 -0.2386
 5816SOL    HW128910   4.012   2.951   0.607  2.5070  1.0448  0.9597
 5816SOL    HW228911   4.029   3.028   0.490 -2.1219 -1.4958 -2.2143
 5817SOL     OW28912   0.974   0.300   8.164  0.5413  0.4217 -0.2633
 5817SOL    HW128913   0.986   0.251   8.083 -0.3552 -0.5585  0.1914
 5817SOL    HW228914   0.952   0.226   8.221  0.4016 -1.4023 -2.6580
 5818SOL     OW28915   3.004   4.220   7.808  0.1527 -0.7508  0.3288
 5818SOL    HW128916   2.977   4.136   7.771 -0.4857 -0.9951  1.3483
 5818SOL    HW228917   3.096   4.215   7.780  0.5022  2.0440  0.9404
 5819SOL     OW28918   0.295   1.480  13.262  0.2191  0.0951 -0.3603
 5819SOL    HW128919   0.318   1.559  13.213  1.7595  1.0132  1.8760
 5819SOL    HW228920   0.372   1.458  13.314  1.7152 -1.3986 -3.1948
 5820SOL     OW28921   4.264   2.094   6.260  0.0874  0.4322 -0.0102
 5820SOL    HW128922   4.179   2.051   6.249  0.0726  0.2592  0.8185
 5820SOL    HW228923   4.314   2.034   6.314  1.4970  0.6713 -1.0526
 5821SOL     OW28924   3.232   2.103   4.737 -0.2743 -0.2412 -0.3439
 5821SOL    HW128925   3.189   2.178   4.777  2.2630  0.7099  0.6130
 5821SOL    HW228926   3.218   2.038   4.806 -1.3059  1.4769  1.0493
 5822SOL     OW28927   0.278   0.578   7.256 -0.6838  0.0118 -0.3255
 5822SOL    HW128928   0.319   0.571   7.342  0.7124 -1.0049 -1.0769
 5822SOL    HW228929   0.185   0.557   7.266 -0.5177 -1.0791 -1.1396
 5823SOL     OW28930   4.643   2.933   1.997  0.0009 -0.1600 -0.0967
 5823SOL    HW128931   0.010   2.899   1.970 -0.4252 -0.3790 -1.1354
 5823SOL    HW228932   4.618   2.990   1.924  1.2512  2.2771  1.3842
 5824SOL     OW28933   4.176   0.025   6.476  0.0757 -0.9338  0.0093
 5824SOL    HW128934   4.112   0.090   6.505 -0.1565 -0.4638 -1.5127
 5824SOL    HW228935   4.231   0.019   6.553 -0.6390  1.6727  0.7392
 5825SOL     OW28936   3.923   0.240   4.307 -0.4806 -0.0331 -0.0987
 5825SOL    HW128937   3.829   0.246   4.293 -0.5936  0.5775  0.9121
 5825SOL    HW228938   3.922   0.173   4.375 -4.0978 -2.4138 -2.5122
 5826SOL     OW28939   1.037   1.834   4.029 -0.2537  0.1894  0.0951
 5826SOL    HW128940   1.036   1.827   3.933 -0.3458 -0.7498  0.1616
 5826SOL    HW228941   1.078   1.752   4.058 -0.9186  0.0787  0.7178
 5827SOL     OW28942   3.141   1.999   5.486 -0.3289 -0.3636 -0.7417
 5827SOL    HW128943   3.120   2.072   5.428  0.0317  0.4533  0.1461
 5827SOL    HW228944   3.145   2.041   5.573 -0.3996 -1.1488 -0.3607
 5828SOL     OW28945   1.681   2.190   3.220 -0.3549 -0.5623  0.1214
 5828SOL    HW128946   1.706   2.149   3.138 -0.3737  1.1762 -0.7444
 5828SOL    HW228947   1.609   2.251   3.202 -1.4918 -1.8557  0.2854
 5829SOL     OW28948   3.797   2.517   2.395  0.4691 -0.2759  0.7625
 5829SOL    HW128949   3.732   2.448   2.385  1.6723 -1.2717 -0.2228
 5829SOL    HW228950   3.822   2.519   2.487  1.1724 -0.0729  0.5711
 5830SOL     OW28951   0.031   0.486   6.513  0.1674  0.0438 -0.2465
 5830SOL    HW128952   0.120   0.492   6.549 -0.3488  0.5327  0.9560
 5830SOL    HW228953   0.015   0.392   6.516  0.0088  0.0564 -0.7324
 5831SOL     OW28954   0.877   3.045  13.396 -0.6437  0.6096  0.1277
 5831SOL    HW128955   0.908   3.004  13.477 -0.0197 -1.8835 -1.3583
 5831SOL    HW228956   0.919   3.131  13.385 -1.5218  0.9029 -0.8986
 5832SOL     OW28957   1.551   0.539   9.640  0.3207 -0.0615 -0.0410
 5832SOL    HW128958   1.587   0.514   9.724 -1.0029  0.9399  0.8301
 5832SOL    HW228959   1.512   0.456   9.611 -0.5688  0.2581  0.2297
 5833SOL     OW28960   0.978   0.810   6.509 -0.0714  0.0582 -0.5175
 5833SOL    HW128961   0.908   0.872   6.530 -0.0278 -0.0254 -0.1419
 5833SOL    HW228962   0.992   0.784   6.600 -1.1803 -1.3770 -0.7588
 5834SOL     OW28963   0.332   4.133   6.691 -0.0162 -0.1659 -0.3804
 5834SOL    HW128964   0.275   4.101   6.760 -2.0365  2.4480 -0.8103
 5834SOL    HW228965   0.281   4.204   6.651 -2.1676 -1.1173  0.6749
 5835SOL     OW28966   2.824   1.632   0.782 -0.1178  0.4316 -0.1246
 5835SOL    HW128967   2.869   1.548   0.790  0.4887  0.6245 -1.5532
 5835SOL    HW228968   2.776   1.612   0.701 -0.3566 -1.1899  0.4185
 5836SOL     OW28969   0.157   1.322   2.557  0.2017  0.0714  0.0356
 5836SOL    HW128970   0.074   1.330   2.603 -0.0537 -1.3678 -0.1908
 5836SOL    HW228971   0.132   1.257   2.491 -0.5287 -1.3951  1.7806
 5837SOL     OW28972   0.449   3.467  11.799  0.1928 -0.2316 -0.3733
 5837SOL    HW128973   0.480   3.472  11.890  0.4943 -1.8013 -0.3905
 5837SOL    HW228974   0.354   3.476  11.807 -0.0681 -1.6435 -1.8663
 5838SOL     OW28975   3.870   2.816   8.338  0.4324 -0.8017  0.6263
 5838SOL    HW128976   3.954   2.782   8.308  0.4508 -0.0334 -0.1698
 5838SOL    HW228977   3.831   2.740   8.381  2.0833 -1.6195  0.6804
 5839SOL     OW28978   3.870   0.943   5.665  0.0123  0.2118  0.1410
 5839SOL    HW128979   3.916   0.932   5.582  2.1886  4.0374  0.8120
 5839SOL    HW228980   3.948   0.947   5.721 -1.0726 -0.2568  1.6922
 5840SOL     OW28981   1.411   4.028  16.505 -0.3278  0.2850  0.2059
 5840SOL    HW128982   1.376   3.994  16.587 -1.1227  0.2635 -0.1362
 5840SOL    HW228983   1.398   4.121  16.524  1.2557  0.8459 -1.4888
 5841SOL     OW28984   2.793   0.652  12.076 -0.3504  0.1421  0.4222
 5841SOL    HW128985   2.756   0.734  12.042  0.2018 -0.7734 -2.3468
 5841SOL    HW228986   2.711   0.631  12.121  0.1322 -1.8914  0.3213
 5842SOL     OW28987   4.664   0.299   9.362 -0.3665  0.3238 -0.3526
 5842SOL    HW128988   4.608   0.341   9.296  1.3037 -0.8501 -2.5402
 5842SOL    HW228989   4.609   0.290   9.439  2.0601 -1.7620  1.1055
 5843SOL     OW28990   3.526   0.950   7.773  0.3533  0.4429  0.2012
 5843SOL    HW128991   3.569   1.004   7.839  0.7629  0.3048  0.0489
 5843SOL    HW228992   3.541   0.870   7.822  0.9463 -0.7532 -1.9393
 5844SOL     OW28993   3.302   0.494   2.079  0.9902 -0.4109  0.7066
 5844SOL    HW128994   3.256   0.541   2.010  0.5421  1.8354  2.5261
 5844SOL    HW228995   3.237   0.446   2.130 -0.7384  1.0802 -0.0786
 5845SOL     OW28996   3.192   3.120  10.217  0.5240 -0.3496 -0.1646
 5845SOL    HW128997   3.251   3.175  10.167  0.3330 -2.5981 -2.8627
 5845SOL    HW228998   3.125   3.092  10.155 -2.4890  1.8502  2.1091
 5846SOL     OW28999   4.606   2.998   3.670 -0.3745 -0.0987  0.6273
 5846SOL    HW129000   4.587   2.938   3.742 -3.5159  0.8235  0.5932
 5846SOL    HW229001   4.604   2.945   3.590 -0.9888  2.6448 -1.1958
 5847SOL     OW29002   1.506   0.385   1.238  0.1723  0.2681 -0.4057
 5847SOL    HW129003   1.482   0.401   1.147 -0.4447  1.4032 -0.0342
 5847SOL    HW229004   1.425   0.362   1.284 -0.4269  1.1742 -1.0116
 5848SOL     OW29005   1.558   1.302   8.210 -0.4114  0.3737 -0.5257
 5848SOL    HW129006   1.557   1.397   8.203  2.6702  0.5397  1.2203
 5848SOL    HW229007   1.472   1.293   8.251 -0.3065 -0.9717 -0.6080
 5849SOL     OW29008   2.909   2.422   3.805  0.1635  0.2465 -0.4312
 5849SOL    HW129009   2.905   2.367   3.883  0.7746 -0.0145 -0.5844
 5849SOL    HW229010   2.934   2.508   3.841  0.1213  0.1537 -0.1768
 5850SOL     OW29011   1.522   0.959   5.748  0.4836  0.2748 -0.1127
 5850SOL    HW129012   1.500   0.877   5.791  0.3571  1.2366  1.6649
 5850SOL    HW229013   1.611   0.941   5.720  0.9183  0.6635  1.0135
 5851SOL     OW29014   2.510   0.724   4.061  0.1484  0.1919 -0.1608
 5851SOL    HW129015   2.583   0.681   4.016 -1.2106 -2.7987  0.5121
 5851SOL    HW229016   2.463   0.762   3.987  2.1020  0.6031 -1.1744
 5852SOL     OW29017   0.963   3.109  16.970 -0.4808  0.5623  0.5034
 5852SOL    HW129018   0.918   3.186  17.002  0.9126  2.0138 -1.0087
 5852SOL    HW229019   1.035   3.163  16.937  2.1025 -1.3199  3.0346
 5853SOL     OW29020   2.244   4.533  16.587 -0.5327 -0.4248 -0.2779
 5853SOL    HW129021   2.303   4.458  16.600  0.6595  0.7186  0.8872
 5853SOL    HW229022   2.177   4.501  16.647 -0.3158  0.6490  0.5227
 5854SOL     OW29023   2.267   1.806  16.965  0.0990 -0.7640  0.3046
 5854SOL    HW129024   2.243   1.812  17.058 -0.2893 -1.1853  0.2255
 5854SOL    HW229025   2.306   1.893  16.952 -1.0309 -0.1864  0.7609
 5855SOL     OW29026   4.227   3.289   8.477  0.6476  0.0663  0.6558
 5855SOL    HW129027   4.175   3.369   8.484  0.6763  0.0156  1.3862
 5855SOL    HW229028   4.233   3.266   8.570 -1.2276 -1.1541  0.4722
 5856SOL     OW29029   0.017   2.316   1.365  0.3449  0.5591  0.5475
 5856SOL    HW129030   0.014   2.277   1.452 -1.7078  0.4752  0.4264
 5856SOL    HW229031   0.090   2.269   1.323 -0.4358  0.2753 -0.4949
 5857SOL     OW29032   4.371   2.572  14.842  0.0830 -0.1422  0.0478
 5857SOL    HW129033   4.426   2.623  14.784  1.1315 -0.9986  0.2891
 5857SOL    HW229034   4.290   2.581  14.792 -1.0182  1.3924  2.0583
 5858SOL     OW29035   4.466   4.673  14.790  0.0089  0.3064  0.3816
 5858SOL    HW129036   4.551   4.635  14.809 -0.2477 -1.6927 -2.5829
 5858SOL    HW229037   4.457   4.633  14.704 -0.3490  2.1238 -0.4359
 5859SOL     OW29038   3.103   3.666  14.764 -0.0951  0.0147 -0.0371
 5859SOL    HW129039   3.037   3.626  14.821 -0.7466  4.3530  2.3029
 5859SOL    HW229040   3.185   3.619  14.781  0.4342  0.6654 -0.8049
 5860SOL     OW29041   2.899   0.962   9.857 -0.7143  0.1692  0.7150
 5860SOL    HW129042   2.910   0.892   9.793  1.5716  0.1416  1.1231
 5860SOL    HW229043   2.986   1.003   9.851 -1.3759  1.3042 -1.1519
 5861SOL     OW29044   3.047   4.354   9.990 -0.0262  0.5409 -0.1167
 5861SOL    HW129045   2.971   4.369   9.933 -0.3253  3.0145  0.8938
 5861SOL    HW229046   3.104   4.431   9.984 -0.4589  0.8679 -0.0546
 5862SOL     OW29047   0.838   3.474   7.191 -0.2418 -0.3221 -0.0500
 5862SOL    HW129048   0.851   3.530   7.267  4.0480 -1.4650  0.0611
 5862SOL    HW229049   0.849   3.541   7.123 -1.1986  0.7086  0.8209
 5863SOL     OW29050   1.786   4.155   1.138 -0.4429  0.5948  0.2906
 5863SOL    HW129051   1.775   4.164   1.232 -0.9118  0.5029  0.2454
 5863SOL    HW229052   1.724   4.082   1.132 -0.8494  0.8915  0.9378
 5864SOL     OW29053   1.449   0.206   5.523  0.2155  0.0780 -0.6546
 5864SOL    HW129054   1.537   0.182   5.552  0.4329  0.5615 -0.9233
 5864SOL    HW229055   1.459   0.300   5.511  1.8725  0.2111  1.8276
 5865SOL     OW29056   0.315   0.096  14.492 -0.3587  1.2563 -0.3667
 5865SOL    HW129057   0.353   0.149  14.562  0.4706 -1.8261  1.4791
 5865SOL    HW229058   0.291   0.167  14.432 -3.3171 -0.1908 -0.8875
 5866SOL     OW29059   3.950   0.382  11.267  0.0556 -0.0929 -0.0483
 5866SOL    HW129060   3.960   0.309  11.328 -1.5867 -0.8281 -0.6628
 5866SOL    HW229061   3.863   0.415  11.290  0.8868  1.4749  0.8404
 5867SOL     OW29062   3.378   4.447  10.838 -0.1252  0.5567  0.0293
 5867SOL    HW129063   3.314   4.441  10.767  0.6117  1.2077 -0.6853
 5867SOL    HW229064   3.431   4.517  10.801 -1.5218  1.6345  0.0783
 5868SOL     OW29065   2.848   2.714   4.322 -0.1095  0.4968 -0.2655
 5868SOL    HW129066   2.848   2.697   4.416 -1.1844 -0.1735 -0.4011
 5868SOL    HW229067   2.800   2.645   4.276  0.1257 -0.4338  0.9024
 5869SOL     OW29068   1.484   0.019  14.864  0.6065  0.2887  0.4247
 5869SOL    HW129069   1.434   4.691  14.932 -1.3526  0.8694 -0.6367
 5869SOL    HW229070   1.454   4.689  14.787  0.2372  1.6408 -0.2668
 5870SOL     OW29071   4.438   4.638   4.506 -0.2459  0.0346 -0.1589
 5870SOL    HW129072   4.478   0.006   4.522 -0.6984  0.3477 -0.6828
 5870SOL    HW229073   4.451   4.623   4.412  0.1662 -2.1207  0.2354
 5871SOL     OW29074   1.555   1.274  16.333  0.6889 -0.7053 -0.0801
 5871SOL    HW129075   1.570   1.231  16.249 -2.0669  0.4970 -1.1835
 5871SOL    HW229076   1.480   1.329  16.312  2.3809  1.6958  0.1285
 5872SOL     OW29077   4.066   0.445   5.049  0.2246  0.9242  0.7586
 5872SOL    HW129078   3.982   0.464   5.008 -0.9162 -0.8618  2.2688
 5872SOL    HW229079   4.122   0.437   4.972  1.6751 -0.4515  1.9731
 5873SOL     OW29080   1.515   3.561   3.847 -0.2417 -0.6934 -0.2557
 5873SOL    HW129081   1.439   3.520   3.806  0.7574 -1.9243 -0.9010
 5873SOL    HW229082   1.473   3.618   3.911  1.1652  1.4935 -1.2950
 5874SOL     OW29083   2.602   1.312   2.213  0.4436  0.4789 -0.0647
 5874SOL    HW129084   2.533   1.268   2.163 -0.2034  1.2650  0.1340
 5874SOL    HW229085   2.646   1.348   2.136  2.1487 -0.9204  0.2673
 5875SOL     OW29086   0.367   1.161   5.459  0.0698  0.2625 -0.2152
 5875SOL    HW129087   0.440   1.216   5.489  0.5779  1.3661 -3.4101
 5875SOL    HW229088   0.306   1.146   5.531  1.0652 -0.8626  0.3910
 5876SOL     OW29089   2.485   3.742   4.821 -0.6157 -0.8068  0.0306
 5876SOL    HW129090   2.450   3.685   4.889 -0.7114 -0.9152 -0.1097
 5876SOL    HW229091   2.562   3.702   4.782  0.7121  0.2374  1.5765
 5877SOL     OW29092   3.418   4.071   2.939  0.4521  0.3551 -0.0729
 5877SOL    HW129093   3.511   4.064   2.961 -0.1635 -1.9878  1.7191
 5877SOL    HW229094   3.434   4.119   2.858 -0.4554 -1.8315 -1.5379
 5878SOL     OW29095   2.131   2.178   4.883  0.1494  0.3302  0.3411
 5878SOL    HW129096   2.178   2.260   4.900 -0.2120  1.3968 -3.8554
 5878SOL    HW229097   2.060   2.206   4.826  1.2577  2.7368  0.1248
 5879SOL     OW29098   0.952   3.826   3.074 -0.2317 -0.2905 -0.0445
 5879SOL    HW129099   0.984   3.843   2.985  0.9259 -0.5139  0.3242
 5879SOL    HW229100   1.022   3.768   3.103 -1.5608 -1.4494  0.8445
 5880SOL     OW29101   2.342   3.713   2.587 -0.2442  0.6099  0.1000
 5880SOL    HW129102   2.270   3.759   2.543 -1.7648 -2.0752 -0.2115
 5880SOL    HW229103   2.391   3.791   2.613 -1.0993  1.3392 -0.4278
 5881SOL     OW29104   1.005   3.147   6.840 -0.4042 -0.4283  0.2203
 5881SOL    HW129105   1.063   3.077   6.870  0.6683  0.1863 -0.4201
 5881SOL    HW229106   0.963   3.107   6.764  0.4489  0.3654 -0.6708
 5882SOL     OW29107   1.494   4.412   7.921 -0.2539 -0.3453  0.5052
 5882SOL    HW129108   1.407   4.441   7.949  0.4393  1.5534  0.6763
 5882SOL    HW229109   1.482   4.318   7.938 -0.8513 -0.7924 -2.3220
 5883SOL     OW29110   0.910   3.717   8.168 -0.0925 -0.2404  0.7307
 5883SOL    HW129111   0.852   3.768   8.111  0.1815 -1.1706 -0.3747
 5883SOL    HW229112   0.852   3.659   8.218 -1.1061  0.0443 -0.1000
 5884SOL     OW29113   0.672   1.438  16.738  0.1807 -0.1317  0.1811
 5884SOL    HW129114   0.722   1.371  16.691  1.2079  0.0007  1.0828
 5884SOL    HW229115   0.597   1.457  16.682 -0.6905  0.3529  1.5035
 5885SOL     OW29116   2.082   3.798  12.727  0.4930  0.0633  0.0405
 5885SOL    HW129117   2.062   3.827  12.816  3.2593  1.1916  0.3008
 5885SOL    HW229118   2.126   3.716  12.749 -1.0196 -0.5924  0.6182
 5886SOL     OW29119   2.592   3.209  10.700 -0.6165  0.0468  0.0231
 5886SOL    HW129120   2.640   3.199  10.618 -0.7985 -0.2348 -0.0459
 5886SOL    HW229121   2.624   3.141  10.759 -3.2825 -2.3424 -1.3327
 5887SOL     OW29122   3.556   0.924   3.790 -0.3773  0.1259 -0.7546
 5887SOL    HW129123   3.597   0.866   3.726  0.5286 -0.4203  0.3083
 5887SOL    HW229124   3.466   0.899   3.769 -1.2245 -0.0574  2.9900
 5888SOL     OW29125   3.699   1.130   1.396  0.1275 -0.4205 -0.2875
 5888SOL    HW129126   3.615   1.093   1.424 -0.4217  0.3114 -0.9677
 5888SOL    HW229127   3.699   1.142   1.301 -0.4540 -0.8006 -0.3381
 5889SOL     OW29128   0.666   3.829  13.942 -0.1223  0.0144  0.5035
 5889SOL    HW129129   0.685   3.742  13.978  2.1584  0.8875  1.3900
 5889SOL    HW229130   0.663   3.889  14.016  1.8552  0.9059 -0.1569
 5890SOL     OW29131   2.594   1.274   8.140  0.1901  0.6556 -0.1386
 5890SOL    HW129132   2.616   1.293   8.048 -0.7815  1.3963 -0.2286
 5890SOL    HW229133   2.680   1.297   8.175  0.2630  0.0019  0.1032
 5891SOL     OW29134   4.236   0.955   5.266 -0.0108  0.0319  0.3436
 5891SOL    HW129135   4.144   0.973   5.285 -1.0942 -0.8533 -4.1557
 5891SOL    HW229136   4.232   0.873   5.217  1.1597 -0.0933  0.4669
 5892SOL     OW29137   3.226   0.660   6.049  0.4034 -0.2298  0.2641
 5892SOL    HW129138   3.292   0.653   6.118 -1.1164  0.6943  1.7948
 5892SOL    HW229139   3.214   0.567   6.033  1.1863 -0.6266  1.9431
 5893SOL     OW29140   4.056   2.240   1.074 -0.0757  0.0863 -0.3030
 5893SOL    HW129141   4.098   2.155   1.085 -0.5143 -0.0064  0.6772
 5893SOL    HW229142   4.125   2.297   1.041 -0.1156  1.3694  1.8001
 5894SOL     OW29143   2.062   2.124  12.993  0.2172  0.3348  0.1928
 5894SOL    HW129144   2.074   2.046  13.048  1.1855  0.4475  0.1410
 5894SOL    HW229145   2.075   2.194  13.056 -0.0126  0.6516 -0.1092
 5895SOL     OW29146   3.867   3.104   9.267 -0.2885  0.3559  0.0695
 5895SOL    HW129147   3.852   3.184   9.318  3.6162 -0.0960  1.9084
 5895SOL    HW229148   3.962   3.099   9.266 -0.3354 -1.8980  3.9291
 5896SOL     OW29149   0.779   2.527   6.540 -0.2168 -0.1427 -0.5672
 5896SOL    HW129150   0.685   2.540   6.537  0.0776  1.2421 -3.7800
 5896SOL    HW229151   0.806   2.618   6.553 -1.2506  0.1412 -0.4307
 5897SOL     OW29152   3.254   2.695   4.704 -0.3423  0.2673 -0.0939
 5897SOL    HW129153   3.301   2.763   4.656 -2.1418 -0.4169 -2.8076
 5897SOL    HW229154   3.327   2.649   4.746 -0.4500  0.4002  0.2421
 5898SOL     OW29155   1.642   1.398   3.259 -0.0909 -0.9315  0.6724
 5898SOL    HW129156   1.549   1.383   3.274 -0.5030  1.1557  0.2190
 5898SOL    HW229157   1.640   1.458   3.184  1.7228  0.1228  1.4798
 5899SOL     OW29158   0.811   1.254   8.539  0.5129  0.3562  0.3722
 5899SOL    HW129159   0.783   1.241   8.448  2.3984 -0.1948 -0.1375
 5899SOL    HW229160   0.746   1.320   8.564 -0.4128 -0.1263 -0.7443
 5900SOL     OW29161   3.286   4.120   5.431  0.4340  0.2612  0.0056
 5900SOL    HW129162   3.200   4.081   5.415 -0.0682  0.8907  1.1595
 5900SOL    HW229163   3.293   4.175   5.353  1.8256 -1.8982 -1.4067
 5901SOL     OW29164   3.545   1.472   6.200  0.0012  0.3733  0.2538
 5901SOL    HW129165   3.560   1.452   6.292 -2.2468 -0.7155  0.3831
 5901SOL    HW229166   3.576   1.392   6.158  1.5637  0.5262  1.1120
 5902SOL     OW29167   1.525   1.450   3.558  0.3662 -0.1802 -0.3481
 5902SOL    HW129168   1.563   1.531   3.523  1.0683 -0.1303  0.5264
 5902SOL    HW229169   1.449   1.437   3.502 -1.7264 -1.3832  2.7833
 5903SOL     OW29170   3.935   0.739   7.516 -0.5403  0.4025  0.0459
 5903SOL    HW129171   3.956   0.805   7.582 -1.4477 -0.7766  1.5042
 5903SOL    HW229172   3.932   0.785   7.432  3.3230  2.1510  0.8726
 5904SOL     OW29173   0.699   1.874   0.693  0.3374 -0.2229 -0.2615
 5904SOL    HW129174   0.699   1.888   0.788 -0.2933  1.4006 -0.4959
 5904SOL    HW229175   0.672   1.782   0.685  0.5026 -0.1772 -1.2991
 5905SOL     OW29176   2.576   3.881  11.536 -0.7923 -0.2215 -0.6307
 5905SOL    HW129177   2.650   3.931  11.503  0.8179 -0.6509  2.3368
 5905SOL    HW229178   2.618   3.825  11.601  3.2735  1.4739 -1.8444
 5906SOL     OW29179   1.800   4.090   6.744  0.5119 -0.6663 -0.2360
 5906SOL    HW129180   1.873   4.045   6.702  0.2474  1.1889 -2.7109
 5906SOL    HW229181   1.726   4.065   6.688 -0.2001 -1.0876  0.8776
 5907SOL     OW29182   0.354   2.697  10.280 -0.0876  0.7058 -0.5581
 5907SOL    HW129183   0.355   2.666  10.371 -3.1700  1.4650 -0.2405
 5907SOL    HW229184   0.430   2.754  10.271 -0.3839  1.2281  0.2340
 5908SOL     OW29185   1.608   3.426   6.400  0.8835 -0.6821  0.3392
 5908SOL    HW129186   1.660   3.493   6.356  3.0003 -1.3491  1.8150
 5908SOL    HW229187   1.547   3.396   6.333  0.2013  1.1234  0.1531
 5909SOL     OW29188   3.850   4.423   5.914  0.4037 -0.0575 -0.1608
 5909SOL    HW129189   3.861   4.453   5.824 -0.2607 -0.1656 -0.2781
 5909SOL    HW229190   3.937   4.411   5.953  0.5919 -1.4044 -0.9783
 5910SOL     OW29191   0.460   1.790   7.816  0.1681 -0.3556 -0.1364
 5910SOL    HW129192   0.433   1.706   7.851  0.2904 -0.4076 -0.1669
 5910SOL    HW229193   0.456   1.778   7.721 -3.0455  0.1643 -0.0634
 5911SOL     OW29194   3.860   0.163   1.847  0.3147  0.0853  0.1478
 5911SOL    HW129195   3.824   0.193   1.764  0.4595  3.4809  1.3132
 5911SOL    HW229196   3.786   0.183   1.903  1.5760  1.3026  1.3806
 5912SOL     OW29197   2.606   1.148   0.158  0.0067 -0.1337  0.5948
 5912SOL    HW129198   2.577   1.070   0.111  0.4768  0.9701 -1.5128
 5912SOL    HW229199   2.566   1.206   0.093  1.1942  0.3232  0.2746
 5913SOL     OW29200   2.275   0.078   2.852 -0.3460 -0.7264 -0.4935
 5913SOL    HW129201   2.261   0.167   2.818  4.1218 -0.0501 -0.5887
 5913SOL    HW229202   2.308   0.093   2.940 -0.8816  0.0761 -0.4280
 5914SOL     OW29203   0.061   1.293   6.726 -0.1982  0.0670 -0.3943
 5914SOL    HW129204   4.717   1.353   6.768  0.2401 -0.1647  0.5764
 5914SOL    HW229205   0.144   1.324   6.761 -0.0677 -1.5389  0.7272
 5915SOL     OW29206   1.616   1.544   7.038 -0.1059  0.3470 -0.5071
 5915SOL    HW129207   1.682   1.523   6.972  0.0765 -1.1385  0.1662
 5915SOL    HW229208   1.661   1.540   7.123 -1.9755  0.9338  0.5021
 5916SOL     OW29209   4.276   2.794   2.197  0.0461  0.3780 -0.1291
 5916SOL    HW129210   4.269   2.870   2.255 -1.5312  0.0358  0.1312
 5916SOL    HW229211   4.333   2.836   2.133  0.7382  1.4257  1.1670
 5917SOL     OW29212   4.681   2.358   5.717 -0.3918  0.7370  0.1503
 5917SOL    HW129213   4.590   2.354   5.687 -0.6193 -2.9945  1.3195
 5917SOL    HW229214   4.673   2.444   5.758  1.0571 -0.5982  3.2523
 5918SOL     OW29215   4.164   4.460   6.643 -0.2056  0.0816  0.3684
 5918SOL    HW129216   4.226   4.416   6.702  1.7085  2.9538  0.5209
 5918SOL    HW229217   4.172   4.551   6.671 -0.5924 -0.4204  2.1012
 5919SOL     OW29218   1.676   0.486  16.599 -0.4657  0.0083  0.0677
 5919SOL    HW129219   1.726   0.556  16.558 -0.0650 -0.1457  0.3034
 5919SOL    HW229220   1.716   0.503  16.684  0.4886  1.0522 -0.5972
 5920SOL     OW29221   0.661   1.541   9.264  0.2123  0.1099  0.0643
 5920SOL    HW129222   0.731   1.477   9.279  0.0737 -0.5660 -2.0470
 5920SOL    HW229223   0.681   1.606   9.332 -2.6085  1.9883 -0.8978
 5921SOL     OW29224   3.648   0.804   9.114  0.0744 -0.2693  0.0598
 5921SOL    HW129225   3.662   0.710   9.129  0.0466 -0.0909  1.1579
 5921SOL    HW229226   3.655   0.800   9.018 -0.6876  1.3750 -0.0666
 5922SOL     OW29227   4.588   2.053   3.837 -0.2463  0.6284 -0.3338
 5922SOL    HW129228   4.675   2.016   3.824  0.5512  1.3532  3.0650
 5922SOL    HW229229   4.545   1.993   3.897 -1.0940  1.7917  0.2294
 5923SOL     OW29230   0.062   2.270   7.360  0.2795 -0.1529 -0.4027
 5923SOL    HW129231   0.099   2.280   7.448 -2.5285 -0.8593  0.8584
 5923SOL    HW229232   0.135   2.241   7.306  1.4594  1.7629  0.1823
 5924SOL     OW29233   3.235   0.047   6.051  0.3641  0.4195  0.0475
 5924SOL    HW129234   3.173   0.116   6.076  1.2394  0.2317  2.7087
 5924SOL    HW229235   3.206   4.686   6.098 -2.9920  0.3262 -2.2305
 5925SOL     OW29236   1.891   1.203   7.235 -0.3381 -0.3879 -0.7408
 5925SOL    HW129237   1.803   1.201   7.271 -0.5364 -1.3532 -1.2593
 5925SOL    HW229238   1.947   1.245   7.300 -0.6756  0.8664 -1.2526
 5926SOL     OW29239   1.799   2.070   2.004 -0.3238 -0.0875 -0.2106
 5926SOL    HW129240   1.761   2.002   2.060  0.1793  0.6556  1.0098
 5926SOL    HW229241   1.867   2.096   2.065  0.0049  0.0296 -0.6328
 5927SOL     OW29242   3.431   2.756   7.774  0.3242  0.0199 -0.2405
 5927SOL    HW129243   3.511   2.761   7.721 -0.0938  1.8026 -0.7154
 5927SOL    HW229244   3.438   2.841   7.817 -0.4655  1.0055 -2.0390
 5928SOL     OW29245   0.308   0.318   3.700  0.1055 -0.0073 -0.4187
 5928SOL    HW129246   0.298   0.390   3.638  2.5079 -0.3322 -1.1645
 5928SOL    HW229247   0.390   0.287   3.663 -0.1390 -0.7687 -0.3296
 5929SOL     OW29248   2.019   3.774   3.767 -0.8116  0.0254  0.0479
 5929SOL    HW129249   1.986   3.822   3.843  0.2529  0.9240 -0.0613
 5929SOL    HW229250   2.076   3.705   3.803 -1.3140  0.0548  0.9062
 5930SOL     OW29251   4.122   3.029  16.154  0.0702  0.4841  0.4389
 5930SOL    HW129252   4.144   3.095  16.219  0.6406  1.3709 -0.6487
 5930SOL    HW229253   4.119   2.957  16.216 -0.0867 -0.9951 -1.2793
 5931SOL     OW29254   2.798   3.093  13.053 -0.2003  0.2120  0.2688
 5931SOL    HW129255   2.852   3.051  12.987 -0.9843  1.0973 -0.9272
 5931SOL    HW229256   2.723   3.112  12.997 -0.3913 -1.8889 -0.1832
 5932SOL     OW29257   2.619   3.976   3.611 -0.4523  0.6149  0.3547
 5932SOL    HW129258   2.695   4.016   3.653  1.0434 -1.5821 -0.2538
 5932SOL    HW229259   2.641   3.883   3.607  0.4574  0.9163 -1.5889
 5933SOL     OW29260   3.081   0.229   8.732 -0.4729  0.2590 -0.0246
 5933SOL    HW129261   3.050   0.315   8.759  0.7643  0.7485 -0.1328
 5933SOL    HW229262   3.040   0.176   8.799  0.3109  1.5739  1.5017
 5934SOL     OW29263   0.935   1.038   2.387  0.4810  0.0328  0.1417
 5934SOL    HW129264   1.013   1.002   2.429 -0.0413 -0.0375  1.0485
 5934SOL    HW229265   0.917   1.116   2.441 -0.0397  0.5656 -0.7922
 5935SOL     OW29266   1.938   2.609   3.409  0.1103 -0.3639  0.2411
 5935SOL    HW129267   1.910   2.526   3.370 -1.1025  0.1284  0.0814
 5935SOL    HW229268   2.015   2.621   3.353  0.4193 -0.0352  0.7344
 5936SOL     OW29269   1.460   1.757   4.700  0.1548 -0.1754  0.1691
 5936SOL    HW129270   1.391   1.823   4.695 -0.9238 -1.3954 -0.6684
 5936SOL    HW229271   1.491   1.746   4.610 -0.3541 -1.4775  0.1655
 5937SOL     OW29272   4.660   4.095   1.585  0.0106 -0.0666  0.1480
 5937SOL    HW129273   0.033   4.109   1.611  0.2877  0.7442 -1.2679
 5937SOL    HW229274   4.644   4.028   1.651 -0.8494 -0.1980 -0.1852
 5938SOL     OW29275   4.644   3.611   1.975 -0.1135 -0.0748  0.2928
 5938SOL    HW129276   4.689   3.561   2.043  0.2736  0.8259  0.6976
 5938SOL    HW229277   4.557   3.637   2.007 -0.2368 -0.8147  0.5711
 5939SOL     OW29278   3.052   0.059   7.200  0.2053  0.0457  0.3398
 5939SOL    HW129279   2.981   0.034   7.140 -1.6312 -1.2316  3.0497
 5939SOL    HW229280   3.000   0.055   7.280  0.5516 -0.4869  0.5348
 5940SOL     OW29281   2.429   0.599   8.330 -0.1362  0.3316  0.8878
 5940SOL    HW129282   2.511   0.567   8.293 -1.6021 -1.9453 -0.3741
 5940SOL    HW229283   2.424   0.554   8.415  0.8391 -2.0617 -0.3346
 5941SOL     OW29284   3.616   3.141  12.045  0.6882 -0.5471  0.3559
 5941SOL    HW129285   3.671   3.131  12.123 -0.9712 -0.0042  1.6058
 5941SOL    HW229286   3.534   3.174  12.082  1.6068  0.1937  1.7174
 5942SOL     OW29287   1.205   3.451   8.956  0.6093 -0.4260  0.5126
 5942SOL    HW129288   1.274   3.471   8.892  1.9032 -1.3880  1.6097
 5942SOL    HW229289   1.263   3.394   9.007  3.4136  1.3562 -0.6701
 5943SOL     OW29290   1.006   2.942  13.606  0.2938  0.4799 -0.0174
 5943SOL    HW129291   0.973   2.905  13.688 -0.7300  1.5176  0.0332
 5943SOL    HW229292   1.057   3.011  13.650 -0.7059  1.1383  0.1150
 5944SOL     OW29293   2.141   1.519   5.971  0.2547  0.0358  0.0689
 5944SOL    HW129294   2.074   1.539   6.036 -1.5212  2.2818 -2.4113
 5944SOL    HW229295   2.202   1.464   6.020 -1.0871 -1.4840  0.0194
 5945SOL     OW29296   3.313   2.450   0.255 -0.4450  0.4754 -0.4043
 5945SOL    HW129297   3.366   2.383   0.213  2.0136  3.0683 -1.4401
 5945SOL    HW229298   3.301   2.430   0.348  0.4958  0.7663 -0.2149
 5946SOL     OW29299   2.986   4.276   9.270  0.0772  0.5637 -0.1928
 5946SOL    HW129300   3.023   4.194   9.302 -1.2920  0.5420  1.2746
 5946SOL    HW229301   3.022   4.340   9.331  1.3703 -0.1334 -0.2212
 5947SOL     OW29302   2.531   0.020   1.977 -0.7108 -0.0772 -0.3795
 5947SOL    HW129303   2.571   0.041   2.061 -0.9350  0.2412 -0.3524
 5947SOL    HW229304   2.516   0.104   1.933 -0.8080 -0.6612 -1.4533
 5948SOL     OW29305   1.713   4.259   8.585 -0.1296  0.3620  0.4094
 5948SOL    HW129306   1.802   4.288   8.567  0.3576 -0.4510  1.4658
 5948SOL    HW229307   1.669   4.312   8.518  0.5665 -1.7697 -1.7125
 5949SOL     OW29308   4.020   0.589   1.433  0.0342 -0.7689  0.3188
 5949SOL    HW129309   4.017   0.538   1.514  1.0282 -2.9932 -1.0229
 5949SOL    HW229310   3.976   0.667   1.464 -0.2483  0.0073 -2.0633
 5950SOL     OW29311   0.254   4.096   7.863  0.0311  0.5244 -0.7842
 5950SOL    HW129312   0.305   4.037   7.807 -1.0105 -0.1181 -1.0560
 5950SOL    HW229313   0.176   4.106   7.809 -0.5253 -0.2548 -0.1266
 5951SOL     OW29314   3.358   4.392   4.110 -0.6466  0.3956 -0.6602
 5951SOL    HW129315   3.294   4.388   4.182  0.3773  2.3834  0.3757
 5951SOL    HW229316   3.437   4.429   4.149 -1.8327  1.1761  0.9917
 5952SOL     OW29317   2.964   3.132   0.199  0.0563 -0.4082 -0.4212
 5952SOL    HW129318   3.019   3.127   0.121  2.8607 -0.9723  1.5766
 5952SOL    HW229319   3.022   3.093   0.265  1.3914 -0.5720 -1.6889
 5953SOL     OW29320   4.268   2.266   6.591  0.2567 -0.3648 -0.8101
 5953SOL    HW129321   4.187   2.218   6.611  0.2254 -0.2243 -0.5960
 5953SOL    HW229322   4.273   2.261   6.496  3.9187  0.0751 -0.6311
 5954SOL     OW29323   1.181   3.910   7.789  0.0194 -0.6944  0.6326
 5954SOL    HW129324   1.260   3.943   7.832  0.4333 -1.2353  0.2850
 5954SOL    HW229325   1.156   3.850   7.859 -0.2069 -1.9082 -0.4899
 5955SOL     OW29326   3.230   4.180   3.445 -0.0052 -0.0692  0.0694
 5955SOL    HW129327   3.291   4.135   3.503 -1.3197  0.0634  1.5515
 5955SOL    HW229328   3.291   4.185   3.371 -0.4787 -1.8895 -0.4550
 5956SOL     OW29329   3.797   3.758  10.817  0.3932 -0.1085 -0.3022
 5956SOL    HW129330   3.738   3.833  10.808 -0.3130 -0.5170  1.0201
 5956SOL    HW229331   3.884   3.796  10.805 -0.8171  2.1667 -2.0107
 5957SOL     OW29332   2.697   0.960   5.737  0.1494 -0.0869  0.2010
 5957SOL    HW129333   2.624   0.907   5.769 -1.2474  0.4854 -1.9703
 5957SOL    HW229334   2.708   0.906   5.658  1.5913 -1.7166  1.5337
 5958SOL     OW29335   1.093   3.422  12.554 -0.0000  0.2771 -0.4885
 5958SOL    HW129336   1.188   3.423  12.553  0.0230 -1.0415  1.4446
 5958SOL    HW229337   1.074   3.376  12.636 -2.1101  2.2539  0.1248
 5959SOL     OW29338   0.756   2.822  11.323 -0.2271 -0.1100 -0.1991
 5959SOL    HW129339   0.662   2.839  11.317 -0.8554 -2.9962  1.4083
 5959SOL    HW229340   0.793   2.886  11.262 -1.3675 -0.3718 -1.1630
 5960SOL     OW29341   3.647   1.193   5.719  0.2068  0.1632 -0.4371
 5960SOL    HW129342   3.557   1.168   5.741 -0.1873  0.5104 -1.6680
 5960SOL    HW229343   3.690   1.116   5.683  1.1263  0.0937  0.8074
 5961SOL     OW29344   1.147   2.174   9.684  0.2599  0.5986 -0.2564
 5961SOL    HW129345   1.170   2.193   9.775  0.2715 -0.0197 -0.1316
 5961SOL    HW229346   1.232   2.177   9.641  0.7412 -0.4694  0.6206
 5962SOL     OW29347   0.097   2.996   9.862 -0.2952 -0.5954  0.0589
 5962SOL    HW129348   0.164   2.998   9.931 -0.0332  1.1628 -0.2634
 5962SOL    HW229349   0.125   2.926   9.804 -0.7961 -1.5522  0.9601
 5963SOL     OW29350   2.815   1.770  17.503 -1.0358 -0.4032 -0.1429
 5963SOL    HW129351   2.736   1.752  17.453 -0.9045  1.4354 -1.0278
 5963SOL    HW229352   2.826   1.863  17.483  0.7140 -1.0437 -2.1479
 5964SOL     OW29353   2.559   4.078   4.587 -0.6515 -0.2308  0.9274
 5964SOL    HW129354   2.637   4.102   4.637 -0.0837 -0.0773 -0.0307
 5964SOL    HW229355   2.497   4.043   4.652 -1.2764 -0.1560  0.3676
 5965SOL     OW29356   0.890   1.709   0.156  0.4181  0.3888  0.5894
 5965SOL    HW129357   0.926   1.622   0.169  1.7125  0.5119 -2.1355
 5965SOL    HW229358   0.925   1.756   0.232  0.4999  0.3506  0.5748
 5966SOL     OW29359   0.074   2.233  10.052  0.1998  0.3442  0.6713
 5966SOL    HW129360   0.077   2.217  10.146 -0.4808  1.5975  0.9172
 5966SOL    HW229361   0.148   2.293  10.039 -0.6162  1.2755  0.3002
 5967SOL     OW29362   4.699   3.314   5.846  0.1040  0.5944  0.2179
 5967SOL    HW129363   4.609   3.282   5.842  1.4186 -2.9998 -0.3386
 5967SOL    HW229364   0.025   3.256   5.783 -1.6932 -1.6308  1.0136
 5968SOL     OW29365   2.773   0.697   8.083  0.7985 -0.3485 -0.1244
 5968SOL    HW129366   2.804   0.734   8.166  0.4527  1.8713 -0.9656
 5968SOL    HW229367   2.836   0.625   8.080 -0.0194 -1.0276 -0.9534
 5969SOL     OW29368   2.502   1.354   9.047 -0.0254  0.2994  0.6358
 5969SOL    HW129369   2.517   1.352   9.141  2.4326 -0.6865  0.2333
 5969SOL    HW229370   2.457   1.270   9.036 -3.1000  2.1358 -0.7545
 5970SOL     OW29371   0.070   3.678   1.429  0.0023 -0.4508  0.0463
 5970SOL    HW129372   0.142   3.732   1.462 -0.3609 -0.3381  0.6657
 5970SOL    HW229373   0.124   3.619   1.377  0.2989  0.3280 -0.5290
 5971SOL     OW29374   0.253   3.863   5.905  0.2456 -0.4695  0.4969
 5971SOL    HW129375   0.237   3.769   5.892 -0.3588 -0.4323  0.9667
 5971SOL    HW229376   0.215   3.895   5.822  0.1897 -0.7488  0.4138
 5972SOL     OW29377   3.687   1.832   7.972 -0.0846  0.0392 -0.1341
 5972SOL    HW129378   3.599   1.794   7.974 -0.1243  0.1729  0.5245
 5972SOL    HW229379   3.730   1.790   8.046  1.9079  2.4964  0.1143
 5973SOL     OW29380   3.988   3.876   1.480 -0.3042  0.1143  0.5015
 5973SOL    HW129381   3.976   3.785   1.504 -0.3572  0.3778  1.4500
 5973SOL    HW229382   3.938   3.881   1.399  0.3919  0.3825  0.0836
 5974SOL     OW29383   1.493   2.300   7.862 -0.3453 -0.5634 -0.7797
 5974SOL    HW129384   1.413   2.255   7.836 -0.0612 -2.4520  1.6922
 5974SOL    HW229385   1.500   2.353   7.782 -0.2547 -0.6148 -0.8061
 5975SOL     OW29386   2.499   2.258   3.462 -0.5235  0.2516 -0.3312
 5975SOL    HW129387   2.562   2.307   3.514 -1.5797 -1.2915  2.4003
 5975SOL    HW229388   2.477   2.332   3.406 -0.7707 -1.0363 -1.9295
 5976SOL     OW29389   0.838   4.585   5.129  0.1825  0.2351  0.2610
 5976SOL    HW129390   0.833   4.675   5.099 -0.2028  0.3747  0.7401
 5976SOL    HW229391   0.866   4.598   5.220  2.0224 -2.8021  0.1371
 5977SOL     OW29392   1.613   4.633   0.966  0.1402 -0.0679  0.2978
 5977SOL    HW129393   1.607   4.696   0.894  1.3802 -1.0666 -0.6882
 5977SOL    HW229394   1.534   4.579   0.955  0.3207 -0.0999 -0.8971
 5978SOL     OW29395   3.083   3.789   2.094  0.0325 -0.0694  0.4608
 5978SOL    HW129396   3.069   3.697   2.071 -0.1589 -0.0026  0.3120
 5978SOL    HW229397   2.999   3.821   2.128  0.4440  1.4323  0.0658
 5979SOL     OW29398   2.234   2.759   2.647  0.5079  0.0404  0.4525
 5979SOL    HW129399   2.168   2.721   2.590  2.4846 -0.1288 -1.7412
 5979SOL    HW229400   2.312   2.712   2.615 -0.8629 -2.0011  0.1310
 5980SOL     OW29401   3.032   4.039  14.231  0.2043 -0.1838 -0.3566
 5980SOL    HW129402   3.051   4.128  14.261 -1.3753 -0.4821  1.5402
 5980SOL    HW229403   2.949   4.023  14.275 -0.6099 -0.8232 -2.1176
 5981SOL     OW29404   4.242   0.388  11.191 -0.1150 -0.2411  0.8332
 5981SOL    HW129405   4.151   0.413  11.208 -0.1365  0.2518  0.0170
 5981SOL    HW229406   4.264   0.422  11.104 -0.3817 -1.4981  0.2783
 5982SOL     OW29407   2.345   0.770   7.641 -0.0724 -0.1181 -0.2648
 5982SOL    HW129408   2.349   0.847   7.699  2.5944 -0.3995 -0.0746
 5982SOL    HW229409   2.254   0.775   7.614 -0.5728 -0.9126  1.2424
 5983SOL     OW29410   2.094   0.884   5.023  0.4754 -0.1276 -0.1057
 5983SOL    HW129411   2.159   0.899   4.954  0.6766  0.4490  0.2137
 5983SOL    HW229412   2.043   0.964   5.012  0.0809 -0.3524  0.0857
 5984SOL     OW29413   2.321   1.729  15.223 -0.0769  0.2064 -0.5255
 5984SOL    HW129414   2.379   1.734  15.299 -0.7414  1.0611 -0.0632
 5984SOL    HW229415   2.382   1.707  15.153 -1.1374 -0.0003 -1.3782
 5985SOL     OW29416   4.034   1.377   3.590 -0.1997  0.1365 -0.0332
 5985SOL    HW129417   4.095   1.437   3.547 -1.0053  1.0616  0.1127
 5985SOL    HW229418   3.960   1.435   3.608 -0.3789  0.3348 -1.4388
 5986SOL     OW29419   4.379   1.808   2.026  0.2833  0.1291 -0.4708
 5986SOL    HW129420   4.324   1.752   2.082 -0.7579 -0.3191 -1.9388
 5986SOL    HW229421   4.415   1.737   1.973 -0.9786 -1.6312  1.0377
 5987SOL     OW29422   1.810   0.259   3.741 -0.3355  0.1667  0.7194
 5987SOL    HW129423   1.783   0.219   3.824 -0.1699 -1.1810  0.1194
 5987SOL    HW229424   1.761   0.341   3.752  0.4946  0.9365 -1.2436
 5988SOL     OW29425   3.640   0.453   8.532  0.1204  0.3982 -0.0985
 5988SOL    HW129426   3.598   0.494   8.456  0.2287  1.2447  0.3015
 5988SOL    HW229427   3.563   0.444   8.589  0.2118 -0.6040 -0.1286
 5989SOL     OW29428   1.391   3.409   7.698  0.2106 -0.3378 -0.0733
 5989SOL    HW129429   1.477   3.406   7.656 -0.1644 -1.4694 -0.7679
 5989SOL    HW229430   1.366   3.317   7.705 -0.9862  0.1930  2.5038
 5990SOL     OW29431   4.509   3.696   7.305  0.0030 -0.1684 -0.1131
 5990SOL    HW129432   4.508   3.705   7.210 -1.2391 -0.2246 -0.1033
 5990SOL    HW229433   4.561   3.616   7.309  0.3596  0.1064  0.7893
 5991SOL     OW29434   0.249   1.837  10.169 -0.2486  0.0490  0.2007
 5991SOL    HW129435   0.165   1.858  10.129 -0.9022  0.3124  1.6837
 5991SOL    HW229436   0.284   1.763  10.121 -0.0052 -0.0031  0.4513
 5992SOL     OW29437   0.876   1.945  12.054 -0.1718  0.2416 -0.1490
 5992SOL    HW129438   0.793   1.913  12.090  0.2146 -0.1775  0.3691
 5992SOL    HW229439   0.935   1.876  12.082 -2.1221 -1.7216 -0.8936
 5993SOL     OW29440   2.830   0.852  13.852  0.0926  0.1881 -0.1330
 5993SOL    HW129441   2.811   0.944  13.833  0.1693  0.3291  0.4914
 5993SOL    HW229442   2.788   0.808  13.778  0.8407 -0.9242  0.1169
 5994SOL     OW29443   2.626   1.875   8.305  0.1222 -0.2442 -0.1489
 5994SOL    HW129444   2.659   1.927   8.377  1.7665 -0.0224 -1.0656
 5994SOL    HW229445   2.599   1.797   8.352 -1.2746  0.6195  0.4706
 5995SOL     OW29446   0.429   1.223  15.090 -0.0838 -0.0613 -0.9258
 5995SOL    HW129447   0.507   1.244  15.038  1.7680 -3.0480  0.6831
 5995SOL    HW229448   0.363   1.234  15.022  0.1531 -1.8172 -1.4384
 5996SOL     OW29449   3.336   1.654  17.554 -0.2307  0.0611 -0.1971
 5996SOL    HW129450   3.347   1.705  17.634 -0.4897  0.1661 -0.2273
 5996SOL    HW229451   3.241   1.647  17.558  0.0506 -2.4563  1.8877
 5997SOL     OW29452   4.579   3.099   1.571 -0.2102 -0.1275 -0.2811
 5997SOL    HW129453   4.627   3.162   1.518 -0.8744  0.3550 -0.3067
 5997SOL    HW229454   4.490   3.134   1.564  0.1421  1.1501  2.0925
 5998SOL     OW29455   3.460   4.600   4.305 -0.2723  0.5680  0.2048
 5998SOL    HW129456   3.403   4.647   4.244  0.1685 -2.3330 -2.4055
 5998SOL    HW229457   3.398   4.542   4.348 -0.8720  0.4541 -0.8117
 5999SOL     OW29458   0.861   3.084   6.617 -0.2045  0.5027  0.2938
 5999SOL    HW129459   0.900   3.135   6.546 -0.4250  1.9560  1.1934
 5999SOL    HW229460   0.768   3.084   6.596 -0.4627 -0.8378  1.4343
 6000SOL     OW29461   3.424   3.876  10.243 -0.1415  0.2594  0.0429
 6000SOL    HW129462   3.417   3.781  10.231 -1.5320  0.4406 -0.6306
 6000SOL    HW229463   3.372   3.901  10.166 -1.1132 -1.3208  0.1751
 6001SOL     OW29464   4.053   3.308   1.559  0.3070 -0.1283  0.1168
 6001SOL    HW129465   4.053   3.233   1.500  1.7616  1.0871 -1.4230
 6001SOL    HW229466   3.982   3.286   1.619 -1.4088  0.1264 -1.8173
 6002SOL     OW29467   3.503   4.618   1.451  0.1025  0.3836  0.3246
 6002SOL    HW129468   3.568   4.617   1.381 -1.3170 -1.6939 -0.9564
 6002SOL    HW229469   3.483   4.525   1.461 -2.8087  1.2072  2.1211
 6003SOL     OW29470   0.795   3.706   8.884  0.3043  0.4311 -0.1741
 6003SOL    HW129471   0.745   3.650   8.944 -1.4558  1.6490 -0.5226
 6003SOL    HW229472   0.855   3.750   8.944 -0.2663  2.4701 -1.0979
 6004SOL     OW29473   3.135   3.951  11.499 -0.2597  0.0916 -0.8724
 6004SOL    HW129474   3.187   3.905  11.565 -2.0678 -0.5624  0.1028
 6004SOL    HW229475   3.055   3.974  11.548 -0.6579 -0.6850 -1.1613
 6005SOL     OW29476   1.983   0.546   1.829 -0.6545  0.3562 -0.0508
 6005SOL    HW129477   2.015   0.546   1.739  2.6674 -0.2811  1.1276
 6005SOL    HW229478   1.904   0.492   1.817 -0.1282  0.0288 -2.0637
 6006SOL     OW29479   2.749   3.350  12.337  0.5421 -0.7346 -1.0215
 6006SOL    HW129480   2.830   3.373  12.383  0.0873  0.2940 -0.7124
 6006SOL    HW229481   2.767   3.384  12.249  0.6554  2.5196  0.2350
 6007SOL     OW29482   2.533   4.246   0.320 -0.4200  0.3729  0.6350
 6007SOL    HW129483   2.614   4.282   0.357 -0.1627  0.3816  0.0678
 6007SOL    HW229484   2.462   4.309   0.326  2.0581  3.2466 -0.1894
 6008SOL     OW29485   2.305   3.200   8.721  0.3684 -0.2054  0.4729
 6008SOL    HW129486   2.224   3.241   8.690  1.4962  1.0915 -0.7290
 6008SOL    HW229487   2.292   3.201   8.816  0.5380 -0.5797  0.5000
 6009SOL     OW29488   2.056   3.427   8.816  0.1143  0.7764  0.3782
 6009SOL    HW129489   2.150   3.445   8.824 -0.2596  2.5454  0.6985
 6009SOL    HW229490   2.025   3.517   8.808 -1.6738  0.2183  1.1076
 6010SOL     OW29491   4.094   4.005   6.377  0.0203 -0.0111 -0.2602
 6010SOL    HW129492   4.115   4.098   6.371 -0.3817  0.1565  0.9877
 6010SOL    HW229493   4.107   3.972   6.288 -0.7790 -1.0137 -0.0084
 6011SOL     OW29494   1.288   1.844   6.233  0.1119 -0.5197 -0.0199
 6011SOL    HW129495   1.339   1.917   6.197  0.7856  0.2721  2.5230
 6011SOL    HW229496   1.197   1.861   6.207 -0.3614 -1.0101  1.3005
 6012SOL     OW29497   4.447   3.202   2.123 -0.5541  0.2769  0.7289
 6012SOL    HW129498   4.444   3.229   2.031  1.0676  0.1365  0.6358
 6012SOL    HW229499   4.388   3.259   2.172 -1.2027  0.8457 -0.7320
 6013SOL     OW29500   3.475   4.451   3.414  0.2988 -1.2030 -0.0131
 6013SOL    HW129501   3.510   4.379   3.362 -1.6941  0.2177 -3.3784
 6013SOL    HW229502   3.401   4.478   3.360  0.0478  0.1252  0.9792
 6014SOL     OW29503   2.106   3.799  10.643  0.2162 -0.3411  0.1043
 6014SOL    HW129504   2.077   3.769  10.729 -0.9330 -0.8015 -0.4460
 6014SOL    HW229505   2.107   3.713  10.601  0.5159  0.3545 -1.3288
 6015SOL     OW29506   1.535   4.466  12.300 -0.1002  0.0805 -0.2243
 6015SOL    HW129507   1.623   4.463  12.263  0.4844  0.8633  1.1183
 6015SOL    HW229508   1.540   4.518  12.380  1.5239 -1.4672  0.6914
 6016SOL     OW29509   3.941   4.470   1.565 -0.4973  0.0625 -0.2351
 6016SOL    HW129510   3.959   4.545   1.509  1.2308 -0.8973 -0.9435
 6016SOL    HW229511   3.877   4.430   1.506 -2.1779  2.9019 -0.3122
 6017SOL     OW29512   1.857   4.535  11.310 -0.6434 -0.2448  0.4278
 6017SOL    HW129513   1.818   4.562  11.226 -0.8137  0.4729  0.7409
 6017SOL    HW229514   1.886   4.445  11.294 -0.1673  0.3902 -2.2737
 6018SOL     OW29515   2.632   0.852   1.658 -0.5103  0.3171  0.0012
 6018SOL    HW129516   2.575   0.928   1.650  0.4526  0.8737 -1.5971
 6018SOL    HW229517   2.613   0.816   1.572  0.0716 -2.6568  1.1007
 6019SOL     OW29518   3.542   4.386   8.639 -0.2773  0.1796  0.1974
 6019SOL    HW129519   3.465   4.409   8.588  0.2529  1.9696  0.2037
 6019SOL    HW229520   3.517   4.399   8.730 -2.2858  2.3709 -0.6829
 6020SOL     OW29521   4.047   1.269   5.705  0.3623 -0.5618 -0.3930
 6020SOL    HW129522   4.121   1.220   5.669  0.5837 -1.1788  0.8762
 6020SOL    HW229523   4.041   1.238   5.796 -0.1738  2.0529  0.4755
 6021SOL     OW29524   2.055   1.562   4.839 -0.5078  0.0595  0.3827
 6021SOL    HW129525   2.032   1.642   4.885 -1.0607  0.6463 -0.9053
 6021SOL    HW229526   2.121   1.592   4.776  0.0081  0.0443  0.9106
 6022SOL     OW29527   0.960   3.950  11.904  0.3135  0.0656 -0.1598
 6022SOL    HW129528   0.920   4.018  11.849 -0.1957 -0.6036 -0.6115
 6022SOL    HW229529   1.018   3.902  11.846  1.3918  0.5792  0.5061
 6023SOL     OW29530   3.801   3.359   1.725  0.4973 -0.1330 -0.3010
 6023SOL    HW129531   3.772   3.269   1.714 -0.8654  0.4463 -1.4724
 6023SOL    HW229532   3.761   3.396   1.646 -1.5435 -0.2827  0.6390
 6024SOL     OW29533   4.271   3.992   3.582  0.2350  0.8780  0.4441
 6024SOL    HW129534   4.217   3.951   3.514  2.9202 -0.3287 -0.9701
 6024SOL    HW229535   4.333   3.920   3.574 -0.5009  0.3391 -0.3530
 6025SOL     OW29536   1.164   4.383  15.915  0.1369 -0.0897  0.1158
 6025SOL    HW129537   1.076   4.404  15.947 -1.1203 -0.7393 -2.8390
 6025SOL    HW229538   1.151   4.307  15.857  1.8550 -1.7186  1.8957
 6026SOL     OW29539   2.340   1.189   4.712 -0.4431  0.2891  0.0895
 6026SOL    HW129540   2.421   1.220   4.672 -0.8895 -0.5576 -1.4850
 6026SOL    HW229541   2.271   1.214   4.650 -0.2015  2.6125  0.7542
 6027SOL     OW29542   4.119   1.406  10.949 -0.4785 -0.3189  0.2351
 6027SOL    HW129543   4.173   1.484  10.944  3.3706 -2.9823  0.5005
 6027SOL    HW229544   4.046   1.438  11.002  0.0219  1.1417  0.0286
 6028SOL     OW29545   0.480   0.865   2.254 -0.1129  0.2211  0.0676
 6028SOL    HW129546   0.478   0.940   2.314 -1.0866 -0.1382  0.4942
 6028SOL    HW229547   0.563   0.872   2.209 -0.7783  0.2578 -1.1428
 6029SOL     OW29548   4.345   3.721   1.076 -0.2231 -0.0316  0.2878
 6029SOL    HW129549   4.397   3.682   1.147 -3.2328 -1.5122  1.6569
 6029SOL    HW229550   4.262   3.729   1.122 -0.2041 -0.7117  0.4451
 6030SOL     OW29551   1.295   3.519   3.164  0.4927 -1.0778  0.2125
 6030SOL    HW129552   1.248   3.452   3.214 -2.0321 -0.0466 -0.8097
 6030SOL    HW229553   1.345   3.565   3.231  0.8986  1.2652 -1.7125
 6031SOL     OW29554   2.124   0.712   2.694 -0.3164 -0.2342  0.2668
 6031SOL    HW129555   2.170   0.773   2.636  2.4304 -3.6447 -1.1864
 6031SOL    HW229556   2.186   0.639   2.694  1.2354  1.0990 -0.6055
 6032SOL     OW29557   4.058   0.324   0.537 -0.1226  0.8599 -0.3683
 6032SOL    HW129558   3.964   0.339   0.532 -0.3250 -0.9659 -1.9088
 6032SOL    HW229559   4.073   0.256   0.472 -0.8014 -0.0944  0.4671
 6033SOL     OW29560   1.510   1.125  15.778 -0.1022  0.0036  0.5084
 6033SOL    HW129561   1.580   1.160  15.722 -2.9495  3.6828 -0.7900
 6033SOL    HW229562   1.519   1.030  15.770  0.5859 -0.0215  1.6472
 6034SOL     OW29563   3.916   3.632   0.192 -0.0367 -0.6567  0.0876
 6034SOL    HW129564   3.828   3.628   0.157 -0.6223  0.0068  1.4695
 6034SOL    HW229565   3.949   3.543   0.187 -1.4656 -1.2661  1.7297
 6035SOL     OW29566   2.741   0.341  10.745  0.0298  0.4550  0.9615
 6035SOL    HW129567   2.700   0.255  10.752 -1.3725  1.1403  1.1833
 6035SOL    HW229568   2.765   0.320  10.654 -0.4006  0.6585  0.8025
 6036SOL     OW29569   3.795   3.963   4.135 -0.5948  0.0821  0.3166
 6036SOL    HW129570   3.708   3.925   4.127 -0.1570 -0.5291 -1.5285
 6036SOL    HW229571   3.850   3.922   4.068 -1.2532  0.9735 -0.7767
 6037SOL     OW29572   1.164   4.655  12.648 -0.1235 -0.0265  0.1882
 6037SOL    HW129573   1.236   4.592  12.651 -1.1915 -1.2202  0.5278
 6037SOL    HW229574   1.103   4.623  12.581  1.1603 -2.1660  0.0455
 6038SOL     OW29575   4.601   3.794  15.064  0.1102 -0.3303  0.6626
 6038SOL    HW129576   4.605   3.717  15.007 -3.9743 -0.5626  0.6686
 6038SOL    HW229577   4.511   3.791  15.095 -0.5030 -1.7392 -1.2184
 6039SOL     OW29578   0.257   3.229   1.174  0.0082 -0.1776  0.2277
 6039SOL    HW129579   0.184   3.187   1.128  1.3989 -1.8450 -0.4493
 6039SOL    HW229580   0.305   3.158   1.215 -1.7928 -0.7575  1.3463
 6040SOL     OW29581   0.244   3.891   3.677 -0.1955 -0.1158 -0.0461
 6040SOL    HW129582   0.235   3.986   3.675  1.3451 -0.0013 -1.8401
 6040SOL    HW229583   0.284   3.878   3.591  0.0132 -2.4565  0.4075
 6041SOL     OW29584   1.867   0.719  10.222 -0.3059 -0.5988 -0.0823
 6041SOL    HW129585   1.812   0.765  10.286 -0.7438  1.0673 -1.6627
 6041SOL    HW229586   1.947   0.769  10.236 -0.3750  0.0110 -1.8849
 6042SOL     OW29587   4.272   1.455   3.853  0.1455 -0.1054  0.0983
 6042SOL    HW129588   4.181   1.484   3.853  0.6761  1.5602  0.6620
 6042SOL    HW229589   4.263   1.366   3.886  0.2559  0.3535  1.3654
 6043SOL     OW29590   2.840   0.363   0.147 -0.3838  0.2177  0.2897
 6043SOL    HW129591   2.773   0.295   0.147 -0.6427  0.4414  2.6073
 6043SOL    HW229592   2.861   0.372   0.054 -0.3157  1.1196  0.3873
 6044SOL     OW29593   2.869   3.058  12.176  0.5761  0.2099  0.2789
 6044SOL    HW129594   2.841   3.146  12.203 -0.9524  0.1071 -0.9331
 6044SOL    HW229595   2.928   3.057  12.251  0.8852  2.0057  0.0661
 6045SOL     OW29596   1.899   0.658   8.271 -0.1931  0.6283  0.5074
 6045SOL    HW129597   1.845   0.733   8.297 -3.0517 -1.2122 -0.1759
 6045SOL    HW229598   1.982   0.700   8.247  0.6137 -1.0926  0.2983
 6046SOL     OW29599   1.093   4.614   6.198  0.5998 -0.4241 -0.1867
 6046SOL    HW129600   1.141   4.663   6.264 -2.2423 -0.7361  2.1291
 6046SOL    HW229601   1.148   4.607   6.120  2.4068 -0.6253  1.1194
 6047SOL     OW29602   1.477   3.119  16.684 -0.2370 -0.2492  0.3264
 6047SOL    HW129603   1.408   3.171  16.645 -1.3798 -1.8341  0.2148
 6047SOL    HW229604   1.423   3.040  16.689 -1.0442  0.4343  2.2815
 6048SOL     OW29605   3.600   2.201   3.395 -0.4625 -0.5845  0.4006
 6048SOL    HW129606   3.555   2.198   3.480 -1.4357  0.1485 -0.0852
 6048SOL    HW229607   3.540   2.147   3.343  0.0687 -0.7802 -0.0035
 6049SOL     OW29608   1.499   3.987  12.470 -0.1326 -0.0880 -0.0010
 6049SOL    HW129609   1.413   4.005  12.431 -0.3447  3.0809  1.9043
 6049SOL    HW229610   1.482   3.993  12.564 -1.1349 -0.7922 -0.1382
 6050SOL     OW29611   4.252   3.090   7.788 -0.0284 -0.6144 -0.1521
 6050SOL    HW129612   4.258   3.070   7.694  1.2145 -0.5078 -0.0974
 6050SOL    HW229613   4.232   3.003   7.823 -1.2788 -0.9860 -1.7727
 6051SOL     OW29614   0.695   3.149   5.539  0.4021  0.2916  0.2303
 6051SOL    HW129615   0.641   3.185   5.609 -0.7116 -0.6705 -0.1371
 6051SOL    HW229616   0.651   3.068   5.513 -0.4552  0.7376  0.3133
 6052SOL     OW29617   1.053   4.590   9.128 -0.2132 -0.0677  0.3048
 6052SOL    HW129618   1.073   4.622   9.040 -0.3828 -1.3649 -0.2141
 6052SOL    HW229619   0.969   4.544   9.115  0.0654 -0.2962 -0.6737
 6053SOL     OW29620   2.272   2.231   6.007  0.1289  0.0706 -0.7973
 6053SOL    HW129621   2.319   2.312   6.029  0.6655 -0.5596  0.3803
 6053SOL    HW229622   2.330   2.164   6.042 -1.0771 -0.5186  0.0664
 6054SOL     OW29623   1.020   0.806   4.285 -0.5899 -0.0829  1.1554
 6054SOL    HW129624   0.949   0.834   4.343  0.6188  0.2829  2.4579
 6054SOL    HW229625   0.976   0.733   4.241 -2.2973  2.2725 -1.0418
 6055SOL     OW29626   2.987   4.145  13.853 -0.1135 -0.0049 -0.6585
 6055SOL    HW129627   2.979   4.240  13.847 -1.5287 -0.1683 -1.5732
 6055SOL    HW229628   3.038   4.130  13.932 -3.5230 -1.8124  1.2221
 6056SOL     OW29629   2.233   3.386   2.025  0.0746 -0.2447  0.5274
 6056SOL    HW129630   2.162   3.326   2.004 -0.2209  0.1204  0.4786
 6056SOL    HW229631   2.261   3.356   2.111 -0.8401 -0.9286  0.5814
 6057SOL     OW29632   1.118   4.609   2.685 -0.1706 -0.2959 -0.4671
 6057SOL    HW129633   1.066   4.586   2.762  1.9353 -1.2262  0.6646
 6057SOL    HW229634   1.043   4.625   2.627 -0.0639  0.8913 -0.2786
 6058SOL     OW29635   0.694   4.388   2.136  0.0313 -0.1776  0.1033
 6058SOL    HW129636   0.738   4.339   2.066  1.8056  1.0995  0.3221
 6058SOL    HW229637   0.608   4.346   2.130  0.1598 -0.5488  0.8385
 6059SOL     OW29638   3.775   2.215   4.791  0.1155 -0.4395  0.0899
 6059SOL    HW129639   3.855   2.268   4.790  0.4465 -0.9245  1.3041
 6059SOL    HW229640   3.785   2.178   4.878 -1.6689 -2.0093 -0.3794
 6060SOL     OW29641   4.369   1.576   6.032  0.1385  0.3773  0.1601
 6060SOL    HW129642   4.426   1.553   5.959 -1.0231  0.5966 -0.8109
 6060SOL    HW229643   4.287   1.538   6.002 -0.6009  0.5264  2.0024
 6061SOL     OW29644   3.444   2.032   2.271 -0.6822 -0.0189 -0.3760
 6061SOL    HW129645   3.475   2.121   2.257 -0.5308  0.0512  0.3704
 6061SOL    HW229646   3.492   1.996   2.346 -0.0482  1.2482 -0.1875
 6062SOL     OW29647   0.054   0.769   6.558 -0.2209  0.1298  0.0029
 6062SOL    HW129648   0.143   0.736   6.545 -1.4139 -2.4739 -1.5888
 6062SOL    HW229649   0.065   0.863   6.548  2.1723  0.2350  3.5718
 6063SOL     OW29650   3.309   1.105   7.695 -0.2671  1.0865 -0.1821
 6063SOL    HW129651   3.383   1.053   7.728  0.5391  1.9086 -0.7183
 6063SOL    HW229652   3.334   1.133   7.607 -1.1109  0.4483 -0.6291
 6064SOL     OW29653   0.255   2.995  14.506 -0.1935  0.2593 -0.0874
 6064SOL    HW129654   0.312   3.062  14.545  1.7109 -1.5211  0.1492
 6064SOL    HW229655   0.291   2.992  14.418 -1.2514 -0.7109 -0.4781
 6065SOL     OW29656   3.296   4.521  10.286  0.0499 -0.0504 -0.1911
 6065SOL    HW129657   3.310   4.603  10.334 -0.8596 -0.4778  0.7887
 6065SOL    HW229658   3.376   4.513  10.233  2.0808  3.0750  2.3686
 6066SOL     OW29659   3.302   3.844   1.155  0.5116 -0.4039  0.8176
 6066SOL    HW129660   3.345   3.892   1.226  0.0225  0.5406  0.4776
 6066SOL    HW229661   3.327   3.754   1.173 -1.2719 -1.4855 -2.0826
 6067SOL     OW29662   0.653   0.901   7.130  0.2106  0.1078  0.2778
 6067SOL    HW129663   0.575   0.848   7.149  0.3941 -0.1652  0.2571
 6067SOL    HW229664   0.692   0.836   7.072  0.8390 -0.2736  1.1348
 6068SOL     OW29665   4.037   2.491  10.458  0.2467  0.1589 -0.3518
 6068SOL    HW129666   4.094   2.451  10.524 -1.1129  0.9186  1.3032
 6068SOL    HW229667   3.948   2.461  10.476  0.3341 -0.5338 -1.0989
 6069SOL     OW29668   0.474   2.200   7.417  0.8656 -0.1478  0.0202
 6069SOL    HW129669   0.410   2.205   7.346  0.5829 -1.0289  0.2234
 6069SOL    HW229670   0.410   2.171   7.483 -0.1064  0.2891 -0.7296
 6070SOL     OW29671   0.345   1.099   4.616  0.2050 -0.0116  0.5282
 6070SOL    HW129672   0.390   1.100   4.701  0.6149 -1.5506  0.3207
 6070SOL    HW229673   0.389   1.022   4.580  1.3574  1.6695 -1.5760
 6071SOL     OW29674   2.769   1.819  13.001  0.5057  0.4755 -0.1323
 6071SOL    HW129675   2.688   1.782  13.036  1.0015 -0.9693 -0.5346
 6071SOL    HW229676   2.826   1.747  12.975  0.7019  0.5034  0.2122
 6072SOL     OW29677   4.643   3.921   0.541  0.1115 -0.1035 -0.6725
 6072SOL    HW129678   4.674   3.893   0.626 -1.2783 -1.2376 -0.5416
 6072SOL    HW229679   0.004   3.909   0.488  0.3264  0.9925 -0.5997
 6073SOL     OW29680   2.994   4.360   5.974 -0.8973 -0.1811  0.0544
 6073SOL    HW129681   2.947   4.377   5.892 -0.3867 -1.2674 -0.4726
 6073SOL    HW229682   3.085   4.351   5.946 -0.5076 -0.4931  1.4414
 6074SOL     OW29683   1.198   2.764  13.474 -0.2412  0.7147  0.2783
 6074SOL    HW129684   1.146   2.703  13.420 -1.6037  0.8971  1.3934
 6074SOL    HW229685   1.134   2.832  13.492 -0.9836 -0.0940  0.6880
 6075SOL     OW29686   3.577   3.573   9.741  0.4602  0.0832  0.4667
 6075SOL    HW129687   3.637   3.499   9.753 -0.7243 -0.8918  0.4389
 6075SOL    HW229688   3.625   3.646   9.779 -2.0314  0.1211  3.5453
 6076SOL     OW29689   2.311   4.548   3.493  0.1240 -0.3255  0.5362
 6076SOL    HW129690   2.277   4.477   3.439  1.1115  0.0343 -0.5807
 6076SOL    HW229691   2.399   4.524   3.522  1.0465 -0.6436 -2.5404
 6077SOL     OW29692   4.221   4.377   5.254 -0.0508 -0.2342  0.6730
 6077SOL    HW129693   4.130   4.366   5.223  0.2284 -2.0237  0.4793
 6077SOL    HW229694   4.223   4.468   5.224  1.0359 -1.1732 -2.0818
 6078SOL     OW29695   2.666   3.562   6.992  0.7391 -0.2718  0.1217
 6078SOL    HW129696   2.675   3.649   7.031 -2.4625 -0.8138  2.0088
 6078SOL    HW229697   2.576   3.565   6.959  1.2817  0.1834 -1.3111
 6079SOL     OW29698   4.230   3.129  17.563  0.0109 -0.5573  0.0618
 6079SOL    HW129699   4.226   3.163  17.474  0.8730  2.2966  1.0928
 6079SOL    HW229700   4.226   3.035  17.547 -1.8790 -0.4165 -0.2677
 6080SOL     OW29701   3.382   3.648   1.541 -0.2352 -0.2444 -0.1431
 6080SOL    HW129702   3.425   3.650   1.627  2.1000 -0.4217 -1.3178
 6080SOL    HW229703   3.325   3.723   1.556  0.1764  0.1904 -0.7848
 6081SOL     OW29704   2.726   2.658   6.157  0.0937  0.5949  0.1754
 6081SOL    HW129705   2.648   2.695   6.197  0.0251 -0.4567  1.0137
 6081SOL    HW229706   2.723   2.568   6.191 -0.0021  0.1870 -0.9091
 6082SOL     OW29707   1.730   4.708   3.533  0.0669 -0.7721  0.1058
 6082SOL    HW129708   1.647   4.683   3.573 -0.0261 -0.4569  0.1144
 6082SOL    HW229709   1.732   0.085   3.517  0.5271 -0.7378  0.3739
 6083SOL     OW29710   3.981   2.854   3.701 -0.3361  0.3466  0.0851
 6083SOL    HW129711   3.994   2.947   3.683  1.9883  0.1502  0.7836
 6083SOL    HW229712   3.891   2.834   3.673 -0.2766  0.9345 -0.5078
 6084SOL     OW29713   4.340   0.409  10.682 -0.0114 -0.5002 -0.1289
 6084SOL    HW129714   4.381   0.350  10.619  0.7411 -1.9794  1.7313
 6084SOL    HW229715   4.249   0.383  10.670  0.0980 -1.2679  0.6732
 6085SOL     OW29716   3.335   2.919   5.073 -0.4150 -0.2665 -0.5159
 6085SOL    HW129717   3.282   2.875   5.139 -0.2996  0.2658 -0.0669
 6085SOL    HW229718   3.360   2.846   5.017  0.0260 -0.7293  0.2762
 6086SOL     OW29719   0.165   2.222  12.923 -0.0318 -0.1167  0.6171
 6086SOL    HW129720   0.110   2.301  12.922  0.3150  0.1441  1.7551
 6086SOL    HW229721   0.153   2.184  13.010  1.3006 -3.1205 -0.5290
 6087SOL     OW29722   0.820   0.689   1.987 -0.0511  0.1770  0.0665
 6087SOL    HW129723   0.751   0.631   2.020 -0.4930 -0.2985 -1.6982
 6087SOL    HW229724   0.809   0.761   2.050  3.0279  0.3245  0.4486
 6088SOL     OW29725   2.575   0.798   1.022 -0.1706 -0.4540 -0.5981
 6088SOL    HW129726   2.567   0.735   0.951 -1.1580 -0.8182 -0.1591
 6088SOL    HW229727   2.542   0.738   1.089  1.2744 -1.4196 -0.7515
 6089SOL     OW29728   3.436   0.809   7.421  0.1342 -0.1535  0.0697
 6089SOL    HW129729   3.526   0.806   7.388 -1.1125  0.0334 -3.3157
 6089SOL    HW229730   3.389   0.859   7.355 -2.0163 -1.4956  0.5790
 6090SOL     OW29731   2.562   0.913   7.259  0.0786  0.5427 -0.6419
 6090SOL    HW129732   2.537   0.831   7.302 -1.1626  1.7691  0.9474
 6090SOL    HW229733   2.601   0.959   7.333 -1.5709  2.7502 -1.1445
 6091SOL     OW29734   0.961   1.559   6.511  0.0061 -0.2733  0.2259
 6091SOL    HW129735   1.011   1.624   6.559  0.9519  1.4545 -3.0822
 6091SOL    HW229736   0.954   1.483   6.568 -1.2016 -0.7093 -0.4938
 6092SOL     OW29737   0.402   4.268   4.782 -0.0832  0.3062 -0.8639
 6092SOL    HW129738   0.349   4.325   4.838 -1.0738 -1.9792  0.5220
 6092SOL    HW229739   0.494   4.292   4.791 -0.7414  2.0923  1.0301
 6093SOL     OW29740   0.910   3.332  10.413 -0.0359  0.0371  0.6613
 6093SOL    HW129741   0.946   3.324  10.325  0.2039  4.0337  0.3993
 6093SOL    HW229742   0.981   3.294  10.465 -0.4533  1.0708  1.9810
 6094SOL     OW29743   2.601   1.014  17.492 -0.0178 -0.3447 -0.0629
 6094SOL    HW129744   2.510   0.996  17.467  0.0155 -1.0254  0.3092
 6094SOL    HW229745   2.589   0.967  17.574  0.2466 -0.8952 -0.3397
 6095SOL     OW29746   3.540   0.437   4.325  0.0261  0.0549  0.3279
 6095SOL    HW129747   3.565   0.345   4.333  0.1233 -0.0618 -1.3485
 6095SOL    HW229748   3.617   0.480   4.362  0.5155 -0.4086 -0.1431
 6096SOL     OW29749   2.877   0.295   4.614 -0.1983  0.1201 -0.1449
 6096SOL    HW129750   2.835   0.229   4.670  0.3766  0.5521  0.8045
 6096SOL    HW229751   2.941   0.331   4.675 -0.7149  0.1937  0.3618
 6097SOL     OW29752   0.162   3.269   7.543  0.8070  0.1026 -0.6970
 6097SOL    HW129753   0.253   3.294   7.528  0.2338  2.0908 -0.9171
 6097SOL    HW229754   0.159   3.246   7.636 -2.3907  1.6105 -0.4412
 6098SOL     OW29755   3.647   3.301   2.880  0.2992  0.3407  0.0923
 6098SOL    HW129756   3.616   3.249   2.806  1.2047 -2.2254  1.4786
 6098SOL    HW229757   3.637   3.250   2.961 -1.8929 -0.1010 -0.4854
 6099SOL     OW29758   1.412   3.503  12.950 -0.2358 -0.3607 -0.3509
 6099SOL    HW129759   1.501   3.518  12.982 -0.7771  2.9252 -0.3223
 6099SOL    HW229760   1.431   3.537  12.863  3.9885 -0.5338  0.5069
 6100SOL     OW29761   1.765   2.283   5.561 -0.1635  0.0703 -0.1216
 6100SOL    HW129762   1.700   2.297   5.630 -0.5612  0.9853 -0.6779
 6100SOL    HW229763   1.701   2.265   5.492 -2.1249  0.1420  1.6474
 6101SOL     OW29764   4.152   2.522   8.832 -0.1284 -0.3798  0.1314
 6101SOL    HW129765   4.118   2.504   8.745  1.5547 -0.6894 -0.4508
 6101SOL    HW229766   4.120   2.444   8.877 -0.4056  0.3693  1.2521
 6102SOL     OW29767   0.937   3.221   4.258 -0.3456  0.2016  0.3402
 6102SOL    HW129768   1.030   3.220   4.234  0.1973 -2.5106  2.5264
 6102SOL    HW229769   0.898   3.186   4.178 -1.9931  0.3472  1.0814
 6103SOL     OW29770   1.092   1.698   8.068  0.0272  0.2217  0.6454
 6103SOL    HW129771   1.141   1.620   8.043 -0.6310  0.2582 -0.7661
 6103SOL    HW229772   1.023   1.683   8.004  0.8983  1.2790 -0.5292
 6104SOL     OW29773   1.988   2.166  10.923 -0.1180  1.2640 -0.0065
 6104SOL    HW129774   1.907   2.203  10.887 -1.5019 -0.7097  1.1184
 6104SOL    HW229775   1.998   2.095  10.859 -0.3291 -1.3622  2.9019
 6105SOL     OW29776   2.561   0.308   4.658 -0.3639 -0.1516 -0.7103
 6105SOL    HW129777   2.584   0.401   4.658 -1.1920  0.0509 -0.1102
 6105SOL    HW229778   2.645   0.266   4.675 -0.4053  0.2244  0.4088
 6106SOL     OW29779   1.566   3.742  13.881  0.2020 -0.3306 -0.5330
 6106SOL    HW129780   1.579   3.773  13.971  1.4260  0.6248 -1.0342
 6106SOL    HW229781   1.556   3.827  13.838  3.3525  0.8245  1.0293
 6107SOL     OW29782   4.131   1.661   8.276  0.0495 -0.3215  0.0437
 6107SOL    HW129783   4.184   1.698   8.205  1.2425 -1.0158  0.5912
 6107SOL    HW229784   4.205   1.626   8.325  0.4438 -1.3845 -1.3116
 6108SOL     OW29785   1.865   4.452   9.044  0.6111  0.0637 -0.0222
 6108SOL    HW129786   1.810   4.392   8.993  1.1309 -0.0472 -0.4649
 6108SOL    HW229787   1.928   4.403   9.097 -1.5585 -1.9051  0.7267
 6109SOL     OW29788   3.315   2.823   8.522 -0.5808  0.4079  0.7828
 6109SOL    HW129789   3.250   2.883   8.559 -1.3082  0.0070  0.1554
 6109SOL    HW229790   3.355   2.877   8.453 -1.4557 -1.7908 -1.4335
 6110SOL     OW29791   2.969   0.257  12.988  0.1808 -0.0944  0.0072
 6110SOL    HW129792   2.914   0.179  12.989 -0.4416  0.3410 -0.2535
 6110SOL    HW229793   2.994   0.267  12.896 -2.4836 -1.4880 -0.8447
 6111SOL     OW29794   0.835   1.343   5.431 -0.1512  0.0568 -0.3813
 6111SOL    HW129795   0.816   1.410   5.497 -1.7979 -0.0429 -0.7637
 6111SOL    HW229796   0.928   1.362   5.416  0.2457 -2.2820 -0.8562
 6112SOL     OW29797   0.090   0.073   9.403 -0.2621  0.3919  0.0099
 6112SOL    HW129798   0.131   0.080   9.316  0.0376  0.3696  0.1501
 6112SOL    HW229799   0.062   0.161   9.427 -0.3076  0.8605 -1.7518
 6113SOL     OW29800   4.554   2.715   3.240  0.3329 -0.6013  1.2540
 6113SOL    HW129801   4.535   2.779   3.308  1.0565 -1.1333  1.9489
 6113SOL    HW229802   4.461   2.695   3.230 -0.3263  2.0882  2.0587
 6114SOL     OW29803   3.114   1.927  12.801  0.0041  0.0505 -0.1694
 6114SOL    HW129804   3.145   2.017  12.792  0.7304 -0.1531  0.1926
 6114SOL    HW229805   3.155   1.903  12.885  0.0836 -3.5389 -1.2008
 6115SOL     OW29806   1.266   2.634   8.423  0.0650 -0.0015  0.3411
 6115SOL    HW129807   1.261   2.719   8.467 -0.7891 -0.9284  2.0196
 6115SOL    HW229808   1.335   2.659   8.361 -0.4096 -0.0964 -0.2278
 6116SOL     OW29809   1.723   4.676  11.963 -0.3469  0.6039  0.6967
 6116SOL    HW129810   1.740   0.027  11.897 -2.5711  0.9644  0.5057
 6116SOL    HW229811   1.662   4.622  11.912 -0.6120 -1.9087  3.7161
 6117SOL     OW29812   4.212   4.382   0.942  0.3656  0.2085  0.0576
 6117SOL    HW129813   4.283   4.380   1.005  0.2079  0.5544  0.2493
 6117SOL    HW229814   4.184   4.291   0.953  0.2976  0.1990 -0.1780
 6118SOL     OW29815   2.438   2.764  11.382  0.0376  0.9339  0.2072
 6118SOL    HW129816   2.450   2.711  11.303 -2.0287 -0.2985  0.7371
 6118SOL    HW229817   2.530   2.786  11.395  0.5068 -1.2293  0.4603
 6119SOL     OW29818   0.141   0.383  14.413  0.2467 -0.3897  0.4629
 6119SOL    HW129819   0.155   0.333  14.332  1.1030 -0.6802  0.7884
 6119SOL    HW229820   0.046   0.376  14.417  0.1297 -0.1613 -2.0650
 6120SOL     OW29821   4.275   2.954  11.632  0.0517 -0.1296 -0.2508
 6120SOL    HW129822   4.211   2.911  11.575 -0.3808  0.0832  0.0769
 6120SOL    HW229823   4.346   2.890  11.621  1.4211  1.1060  1.4947
 6121SOL     OW29824   2.676   3.909   3.923 -0.2610 -0.0699 -0.1010
 6121SOL    HW129825   2.768   3.894   3.947  0.4355  1.3212 -1.9449
 6121SOL    HW229826   2.677   4.004   3.915  0.3005 -0.0077  0.6539
 6122SOL     OW29827   1.205   1.109   1.428 -0.5171  0.0850  0.2900
 6122SOL    HW129828   1.183   1.098   1.336  0.7704  1.5255 -0.1919
 6122SOL    HW229829   1.162   1.191   1.452  0.1986  1.1866 -2.2476
 6123SOL     OW29830   1.080   3.278   3.815 -0.1370 -0.2481 -0.0952
 6123SOL    HW129831   0.990   3.285   3.782 -0.0773 -2.5518 -0.7456
 6123SOL    HW229832   1.077   3.198   3.867 -0.5353 -0.4754 -0.4633
 6124SOL     OW29833   3.076   1.259  13.813  0.0329  0.8427 -0.1488
 6124SOL    HW129834   3.055   1.221  13.728  0.7348  0.9401 -0.3736
 6124SOL    HW229835   3.103   1.177  13.855 -1.5947 -0.5440 -1.8175
 6125SOL     OW29836   1.267   1.844  10.401  0.4548 -0.5533  0.6612
 6125SOL    HW129837   1.222   1.821  10.320  2.7385 -0.4686 -0.6236
 6125SOL    HW229838   1.256   1.769  10.459 -1.2150 -1.1426 -0.4126
 6126SOL     OW29839   1.397   1.761   2.886 -0.0226  0.1393  0.4528
 6126SOL    HW129840   1.341   1.768   2.808 -1.9285  1.2727  1.9026
 6126SOL    HW229841   1.360   1.685   2.931  1.5393 -0.6198  0.4364
 6127SOL     OW29842   1.581   1.249   5.821  0.4903 -0.4988 -0.7542
 6127SOL    HW129843   1.509   1.287   5.771  0.3049  0.5194  0.2796
 6127SOL    HW229844   1.559   1.156   5.829 -0.3018 -0.0967  1.9806
 6128SOL     OW29845   3.080   0.223   7.594 -0.6391 -0.0493  0.6381
 6128SOL    HW129846   3.066   0.315   7.616 -0.2885  0.1397  0.0783
 6128SOL    HW229847   2.993   0.191   7.572  0.4547 -2.4155 -0.2684
 6129SOL     OW29848   3.491   4.349  11.320  0.5421 -0.1932  0.1892
 6129SOL    HW129849   3.564   4.377  11.375  1.6159  0.6018 -1.6780
 6129SOL    HW229850   3.501   4.254  11.309  0.3745 -0.1466 -0.3576
 6130SOL     OW29851   0.222   1.914   7.574 -0.3984 -0.4153 -0.0795
 6130SOL    HW129852   0.177   1.955   7.647 -0.1190 -2.3382  1.1742
 6130SOL    HW229853   0.164   1.947   7.505 -0.6638 -2.1072 -0.6883
 6131SOL     OW29854   3.794   1.834   6.413  0.2243 -0.2162 -0.7651
 6131SOL    HW129855   3.815   1.781   6.490 -0.3851  0.1325 -0.3614
 6131SOL    HW229856   3.717   1.788   6.379  1.1463 -3.5111  1.6675
 6132SOL     OW29857   0.903   4.466   1.777 -0.3701  0.1520  0.6885
 6132SOL    HW129858   0.911   4.455   1.682 -2.7886 -2.7352  0.8057
 6132SOL    HW229859   0.827   4.524   1.779 -0.2320  0.2692  1.9354
 6133SOL     OW29860   1.879   0.188   1.897 -0.3056  0.2463 -0.1764
 6133SOL    HW129861   1.849   0.224   1.813 -0.6881  0.9123  0.2435
 6133SOL    HW229862   1.959   0.147   1.864  3.0633  4.4792  2.6840
 6134SOL     OW29863   2.690   0.353   6.978 -0.9080  0.6105  0.7561
 6134SOL    HW129864   2.671   0.349   7.072  0.0442  2.8419  1.0528
 6134SOL    HW229865   2.716   0.267   6.946 -0.9208  0.6369  0.6728
 6135SOL     OW29866   2.615   2.903   7.174  0.5516  0.3500 -0.2684
 6135SOL    HW129867   2.601   2.893   7.080  0.9694 -1.1484 -0.1790
 6135SOL    HW229868   2.580   2.820   7.207  1.4539  1.0171  2.3481
 6136SOL     OW29869   2.124   0.787   5.556  0.2240  0.1316 -0.3419
 6136SOL    HW129870   2.163   0.870   5.582 -2.5254  0.5749  2.2886
 6136SOL    HW229871   2.170   0.786   5.472  2.9964 -1.1556  1.1914
 6137SOL     OW29872   0.150   1.978   1.670 -0.0533 -0.4099 -0.6769
 6137SOL    HW129873   0.203   1.899   1.656 -0.7031 -1.4816  3.0089
 6137SOL    HW229874   0.108   1.966   1.755 -2.5654 -0.7746 -1.9766
 6138SOL     OW29875   3.399   1.853  10.134  0.1334  0.2005 -0.1305
 6138SOL    HW129876   3.339   1.893  10.072  2.1181  0.8717 -1.6216
 6138SOL    HW229877   3.452   1.794  10.081 -0.9117  0.3526 -1.3365
 6139SOL     OW29878   1.064   4.524  12.104 -0.3100  0.0943  0.2079
 6139SOL    HW129879   1.078   4.435  12.073  0.2922 -0.3569  1.7738
 6139SOL    HW229880   1.145   4.569  12.080  0.0182 -1.5509 -1.7700
 6140SOL     OW29881   0.757   2.493   7.744  0.1807 -0.9291 -0.2284
 6140SOL    HW129882   0.747   2.514   7.836  0.5566  1.9791 -0.8606
 6140SOL    HW229883   0.767   2.582   7.710 -0.3022 -0.5746  0.5620
 6141SOL     OW29884   2.424   4.713   2.637 -0.0029  0.2980 -0.1924
 6141SOL    HW129885   2.383   0.046   2.708 -0.7277  1.5473 -1.4814
 6141SOL    HW229886   2.407   4.621   2.657 -1.3426  0.7468  0.7621
 6142SOL     OW29887   2.159   1.847   6.211  0.4602  0.2930 -0.5374
 6142SOL    HW129888   2.104   1.775   6.242  1.6032 -0.6373 -0.6855
 6142SOL    HW229889   2.243   1.803   6.215  0.7874  0.9131 -0.6449
 6143SOL     OW29890   1.355   2.799   9.211  0.0732 -0.3646 -0.1780
 6143SOL    HW129891   1.340   2.706   9.193  0.5959 -0.6080  0.6563
 6143SOL    HW229892   1.450   2.799   9.196 -0.1551  0.5495 -1.5774
 6144SOL     OW29893   0.806   1.399   3.000 -0.3692  0.2882  0.3491
 6144SOL    HW129894   0.886   1.446   3.023  0.0795  0.1990 -1.0176
 6144SOL    HW229895   0.798   1.440   2.914  0.3334  1.0122  0.6313
 6145SOL     OW29896   1.019   2.542   7.320  0.1450 -0.0093 -0.7209
 6145SOL    HW129897   1.051   2.629   7.344  0.4088 -0.8679  2.0415
 6145SOL    HW229898   0.930   2.552   7.354  0.9638 -0.7668  1.6245
 6146SOL     OW29899   0.705   3.607   8.329  0.2160 -0.4306 -0.2638
 6146SOL    HW129900   0.642   3.608   8.401  3.5963 -0.0820  2.6876
 6146SOL    HW229901   0.643   3.641   8.265 -0.0624 -1.1614 -0.3826
 6147SOL     OW29902   3.786   0.788   6.144 -0.1887 -0.5794 -0.0745
 6147SOL    HW129903   3.721   0.857   6.131  0.0975 -0.8022 -2.7425
 6147SOL    HW229904   3.754   0.716   6.090  0.1056 -0.7316 -0.0441
 6148SOL     OW29905   0.673   3.075   2.670 -0.0416  0.5491  0.3014
 6148SOL    HW129906   0.721   3.068   2.587 -1.2521 -2.1290 -0.1587
 6148SOL    HW229907   0.721   3.024   2.736 -0.9192  0.8920  1.2010
 6149SOL     OW29908   1.254   0.272   1.855  0.1456 -0.1582  0.5283
 6149SOL    HW129909   1.258   0.356   1.808  1.0377 -1.2219 -1.2861
 6149SOL    HW229910   1.349   0.261   1.857  0.1899  0.1555  0.2737
 6150SOL     OW29911   3.692   3.027   8.086 -0.0447 -0.0984 -0.3985
 6150SOL    HW129912   3.762   2.972   8.120  0.0739 -1.0167 -2.1561
 6150SOL    HW229913   3.742   3.082   8.026  1.2196  0.0474  0.7962
 6151SOL     OW29914   0.796   0.586   5.210  0.1315  0.2199  0.4892
 6151SOL    HW129915   0.773   0.678   5.224 -0.3748  0.0392  0.8030
 6151SOL    HW229916   0.850   0.574   5.288  2.7966 -0.1607 -1.3937
 6152SOL     OW29917   4.396   0.760   3.363 -0.2761  0.2906  0.3696
 6152SOL    HW129918   4.303   0.765   3.345  0.2637 -0.1245 -2.4883
 6152SOL    HW229919   4.403   0.767   3.459 -0.2226 -2.3365  0.5699
 6153SOL     OW29920   0.552   2.538  17.348  0.1891  0.1693 -0.6451
 6153SOL    HW129921   0.489   2.608  17.331  3.9952  3.6822 -0.2906
 6153SOL    HW229922   0.496   2.465  17.373 -1.2806  2.0641  1.5985
 6154SOL     OW29923   4.250   3.307   8.084 -0.6452  0.4515  0.2526
 6154SOL    HW129924   4.201   3.348   8.012  1.4129  2.1282 -0.1867
 6154SOL    HW229925   4.188   3.241   8.114  1.3081 -1.5125 -0.0482
 6155SOL     OW29926   2.177   4.093  10.901  0.1636 -0.0162 -0.7183
 6155SOL    HW129927   2.200   4.069  10.991  4.7577 -1.8902 -2.4336
 6155SOL    HW229928   2.134   4.172  10.935 -0.8144  0.5254 -3.2067
 6156SOL     OW29929   0.274   4.327   4.022 -0.2151  0.3280 -0.6041
 6156SOL    HW129930   0.312   4.291   3.942 -0.5520 -0.6146 -0.3395
 6156SOL    HW229931   0.305   4.257   4.079 -3.2719 -1.4021 -1.0221
 6157SOL     OW29932   2.660   4.083   3.233  0.0387  0.2510 -0.2438
 6157SOL    HW129933   2.736   4.141   3.237  0.8866 -0.9667  1.2143
 6157SOL    HW229934   2.607   4.117   3.160 -1.0601  1.8097  1.2914
 6158SOL     OW29935   2.232   2.882  12.770  0.3234 -0.2510 -0.2543
 6158SOL    HW129936   2.187   2.799  12.755  2.2398 -1.0580 -1.4575
 6158SOL    HW229937   2.251   2.870  12.863 -0.7126  1.5357  0.1990
 6159SOL     OW29938   1.122   3.815   7.466 -0.5399 -0.4071  0.0560
 6159SOL    HW129939   1.153   3.822   7.556 -0.0279  0.4851 -0.1835
 6159SOL    HW229940   1.204   3.810   7.417 -0.6362 -1.1218 -0.0244
 6160SOL     OW29941   3.441   0.194   6.449 -0.0156 -0.5423  0.0297
 6160SOL    HW129942   3.514   0.168   6.392  0.4619  2.8039 -0.8882
 6160SOL    HW229943   3.462   0.285   6.472 -0.7904 -0.7423  1.5607
 6161SOL     OW29944   0.523   3.483   4.262 -0.7689  0.0750 -0.3270
 6161SOL    HW129945   0.578   3.441   4.196  0.2178 -0.0204  0.5709
 6161SOL    HW229946   0.433   3.456   4.243 -1.1184  1.4388 -0.5934
 6162SOL     OW29947   1.829   0.811   3.712  0.7731 -0.2791 -0.3721
 6162SOL    HW129948   1.754   0.834   3.766 -0.2035 -0.2513 -1.7305
 6162SOL    HW229949   1.890   0.860   3.767 -0.0671 -0.3825  0.6487
 6163SOL     OW29950   2.821   4.194  15.377 -0.4716  0.0946  0.1637
 6163SOL    HW129951   2.764   4.161  15.307 -2.1661  2.3431  0.5094
 6163SOL    HW229952   2.892   4.131  15.363 -1.0076 -0.4335 -0.2017
 6164SOL     OW29953   2.219   0.119   1.505 -0.2332 -0.3001 -0.5101
 6164SOL    HW129954   2.310   0.148   1.511 -0.1766 -0.5660 -0.0948
 6164SOL    HW229955   2.222   0.025   1.523  3.1280 -0.0682  0.1859
 6165SOL     OW29956   0.132   0.009   8.064  0.0918 -0.1336 -0.2664
 6165SOL    HW129957   0.171   0.014   8.151 -0.1461  0.0657 -0.1719
 6165SOL    HW229958   0.209   4.716   8.008 -0.5576 -1.4786 -0.8823
 6166SOL     OW29959   1.441   3.610   7.873  0.2063 -0.8584  0.0799
 6166SOL    HW129960   1.445   3.581   7.781 -0.5850  0.8815 -0.5052
 6166SOL    HW229961   1.513   3.559   7.910  0.5537 -0.4548 -0.0355
 6167SOL     OW29962   3.072   2.972   6.419  0.3684 -0.5553  0.3816
 6167SOL    HW129963   3.077   3.067   6.409  0.6510 -0.8105 -1.9960
 6167SOL    HW229964   3.140   2.950   6.356 -1.5652  1.0069 -2.2572
 6168SOL     OW29965   3.121   0.328  11.440 -0.8781 -0.2640 -0.2497
 6168SOL    HW129966   3.173   0.281  11.506  1.2173 -0.8112 -2.3154
 6168SOL    HW229967   3.054   0.352  11.505 -1.5281 -1.0120 -0.6421
 6169SOL     OW29968   3.376   0.474   8.707  0.3483 -0.2643 -0.1013
 6169SOL    HW129969   3.358   0.563   8.677 -1.4732 -0.5816  0.0458
 6169SOL    HW229970   3.386   0.487   8.802 -1.0839 -1.8628  0.2648
 6170SOL     OW29971   2.333   3.372  17.018 -0.4739 -0.4014 -0.5821
 6170SOL    HW129972   2.294   3.336  16.938 -1.0877 -2.1986  0.5317
 6170SOL    HW229973   2.300   3.309  17.081 -0.7317  0.1742 -0.1423
 6171SOL     OW29974   1.332   4.582  12.112  0.1800 -0.2505  0.3841
 6171SOL    HW129975   1.318   4.664  12.159  1.7183 -0.1313  0.6159
 6171SOL    HW229976   1.391   4.539  12.174 -0.4291 -0.5501  0.7527
 6172SOL     OW29977   3.726   1.869   8.521  0.0415  0.0082  0.1684
 6172SOL    HW129978   3.820   1.860   8.530  0.0954  0.1577 -0.2536
 6172SOL    HW229979   3.703   1.777   8.539  0.1128 -0.1503 -0.5714
 6173SOL     OW29980   4.041   1.877  16.159  0.3260 -0.4042 -0.0178
 6173SOL    HW129981   4.010   1.803  16.107 -0.8134 -0.8490  1.2994
 6173SOL    HW229982   3.965   1.896  16.215  0.2801  3.0992 -1.2976
 6174SOL     OW29983   1.791   0.378   8.824 -0.0637  0.0951 -0.5009
 6174SOL    HW129984   1.764   0.295   8.865 -0.9958  1.7608  2.2748
 6174SOL    HW229985   1.719   0.432   8.858  1.1801  1.7521 -0.5234
 6175SOL     OW29986   4.498   3.468  17.099 -0.0714 -0.1530  0.0743
 6175SOL    HW129987   4.551   3.529  17.047  0.4955 -1.5877 -1.0196
 6175SOL    HW229988   4.446   3.532  17.147 -1.0960 -1.1638  0.3079
 6176SOL     OW29989   3.353   0.612   2.762  0.3916  0.3372  0.0349
 6176SOL    HW129990   3.265   0.595   2.729 -0.0122  0.3088  1.1085
 6176SOL    HW229991   3.388   0.539   2.710  1.1066  2.1633 -2.0039
 6177SOL     OW29992   4.577   2.173  12.747 -0.0898 -0.0211  0.1987
 6177SOL    HW129993   4.500   2.132  12.788  0.8772 -1.6264  0.4012
 6177SOL    HW229994   4.599   2.237  12.814  1.3853 -1.9673  1.5758
 6178SOL     OW29995   0.196   4.618   6.934  0.1635  0.5220 -0.1935
 6178SOL    HW129996   0.139   4.576   6.869  0.9033 -1.8181  0.6482
 6178SOL    HW229997   0.199   4.707   6.899  0.2608  0.7229  0.3224
 6179SOL     OW29998   0.489   3.425   2.554 -0.1473  0.8115 -0.4118
 6179SOL    HW129999   0.465   3.332   2.553  0.9273  0.4994  1.7631
 6179SOL    HW230000   0.583   3.414   2.538 -0.3263 -0.1593 -0.7888
 6180SOL     OW30001   4.246   4.209   5.460  0.4033  0.3176 -0.0233
 6180SOL    HW130002   4.316   4.261   5.499  1.6080 -1.3985  0.0841
 6180SOL    HW230003   4.231   4.273   5.390  0.2032  1.2414  0.8609
 6181SOL     OW30004   2.446   2.017   3.595 -0.1005 -0.4113 -0.2310
 6181SOL    HW130005   2.375   2.002   3.532  0.0942 -1.5349 -0.1869
 6181SOL    HW230006   2.487   2.094   3.555 -0.4972 -0.0048  0.1591
 6182SOL     OW30007   2.459   4.120   3.469  0.1135 -0.8879 -0.3188
 6182SOL    HW130008   2.473   4.114   3.374 -0.0411 -0.6989 -0.3546
 6182SOL    HW230009   2.537   4.075   3.500  1.7556  0.7615 -2.0618
 6183SOL     OW30010   1.328   2.622  10.621 -0.2135 -0.1273 -0.5830
 6183SOL    HW130011   1.272   2.636  10.697  0.6302 -0.2496  0.0634
 6183SOL    HW230012   1.407   2.657  10.663  1.1796 -1.1913 -2.3073
 6184SOL     OW30013   3.517   3.415   4.980 -0.1742 -0.4756 -0.3763
 6184SOL    HW130014   3.495   3.490   5.036 -0.1760  0.8022 -2.0969
 6184SOL    HW230015   3.511   3.347   5.047 -0.0288 -0.2985 -0.1787
 6185SOL     OW30016   2.534   3.145  11.338 -0.2662  0.3609  0.1903
 6185SOL    HW130017   2.524   3.193  11.420  2.5509  1.2523  0.0102
 6185SOL    HW230018   2.612   3.093  11.360 -0.5625 -0.1652 -0.0173
 6186SOL     OW30019   2.493   1.525   7.219  0.1436  0.4148 -0.1276
 6186SOL    HW130020   2.508   1.601   7.275  2.9371  0.0479 -0.3590
 6186SOL    HW230021   2.401   1.530   7.193  0.0471  2.3737  0.5957
 6187SOL     OW30022   0.869   2.402   8.337 -0.7572  0.2339 -0.3430
 6187SOL    HW130023   0.805   2.432   8.272 -1.5252  2.9559  1.7062
 6187SOL    HW230024   0.862   2.307   8.326 -0.1292 -0.0010  1.3150
 6188SOL     OW30025   3.165   4.360  11.040 -0.3013  0.0610  0.6128
 6188SOL    HW130026   3.157   4.407  11.123  0.0667 -0.4821  0.9505
 6188SOL    HW230027   3.222   4.411  10.983  1.5649  1.0438  3.3743
 6189SOL     OW30028   3.400   0.756   2.055  0.1001 -0.4349 -0.1601
 6189SOL    HW130029   3.334   0.803   2.107  0.7952  0.2846  0.0772
 6189SOL    HW230030   3.371   0.666   2.062 -0.6396 -0.2286 -0.5529
 6190SOL     OW30031   0.793   0.358   6.707 -0.4017 -0.1107 -0.5691
 6190SOL    HW130032   0.796   0.415   6.784 -1.5765 -1.1106  0.2128
 6190SOL    HW230033   0.871   0.305   6.723  0.2451  1.6641  2.0549
 6191SOL     OW30034   0.551   1.446  13.370  0.2100 -0.0269  0.1001
 6191SOL    HW130035   0.576   1.474  13.459 -0.5130 -1.8567  0.8781
 6191SOL    HW230036   0.508   1.366  13.398  0.8541 -0.4253 -0.0510
 6192SOL     OW30037   0.753   3.298  12.011 -0.2322 -0.4914  0.5220
 6192SOL    HW130038   0.824   3.321  12.071  0.2128  1.2441 -0.6861
 6192SOL    HW230039   0.719   3.387  12.000  0.6168 -0.3073 -0.5813
 6193SOL     OW30040   2.429   3.345   4.447 -0.5492 -0.0127 -0.3260
 6193SOL    HW130041   2.435   3.366   4.354 -1.3161 -0.4356 -0.4750
 6193SOL    HW230042   2.508   3.297   4.470 -2.4461 -1.7517  2.5525
 6194SOL     OW30043   1.660   1.547   3.925  0.1408  0.5822 -0.2092
 6194SOL    HW130044   1.567   1.548   3.900  0.0094 -0.4008  0.1992
 6194SOL    HW230045   1.701   1.562   3.840  2.3139 -0.8616  0.5936
 6195SOL     OW30046   3.318   3.464  14.834 -0.3355 -0.5717 -0.4010
 6195SOL    HW130047   3.401   3.428  14.866 -0.8088 -1.2052  0.1180
 6195SOL    HW230048   3.266   3.383  14.840 -0.0171 -0.7015  0.6125
 6196SOL     OW30049   2.186   4.426   8.844 -0.3522 -0.3914  0.3840
 6196SOL    HW130050   2.277   4.408   8.820 -0.4466 -0.3174 -0.0330
 6196SOL    HW230051   2.146   4.352   8.797 -1.6207 -0.5320  1.6992
 6197SOL     OW30052   0.525   0.105   3.625  0.0438  0.0137  0.2855
 6197SOL    HW130053   0.606   0.157   3.623 -1.2149  1.9215 -0.8449
 6197SOL    HW230054   0.514   0.116   3.719  2.1097  0.2734  0.5079
 6198SOL     OW30055   0.405   0.148   0.274 -0.4557 -0.3063  0.2053
 6198SOL    HW130056   0.350   0.073   0.254  0.1140 -0.1020 -2.0880
 6198SOL    HW230057   0.396   0.156   0.369 -0.2830  0.0713  0.1904
 6199SOL     OW30058   3.748   4.031   3.764 -0.2323 -0.2504  0.2052
 6199SOL    HW130059   3.705   4.101   3.814  1.4759  0.0601  1.2596
 6199SOL    HW230060   3.687   3.958   3.770  2.2910 -2.0374  3.6967
 6200SOL     OW30061   4.023   1.867   3.139  0.1160  0.1518 -0.5454
 6200SOL    HW130062   4.059   1.919   3.210 -1.9770  0.1475  0.5099
 6200SOL    HW230063   4.076   1.787   3.140 -1.7683 -1.1383 -1.7811
 6201SOL     OW30064   4.494   0.409  15.006 -0.6571  0.0735  1.2099
 6201SOL    HW130065   4.565   0.461  15.043 -0.1761 -0.4105  0.9604
 6201SOL    HW230066   4.417   0.460  15.033  0.2910  1.4631  1.2568
 6202SOL     OW30067   2.198   0.054   2.266  0.4410  0.5139 -0.1984
 6202SOL    HW130068   2.149   0.135   2.278  0.4938  0.6179 -0.7009
 6202SOL    HW230069   2.284   0.092   2.284  1.1432 -0.8754 -0.5640
 6203SOL     OW30070   3.934   4.202   0.136 -0.3656  0.1430  0.1539
 6203SOL    HW130071   4.021   4.183   0.170 -0.3197  0.1482  0.0415
 6203SOL    HW230072   3.926   4.131   0.071  1.1563  0.7865 -0.7382
 6204SOL     OW30073   3.036   1.739   5.159 -0.1493  0.2813  0.5546
 6204SOL    HW130074   3.029   1.698   5.073 -2.6916 -1.2606  1.4965
 6204SOL    HW230075   3.103   1.681   5.197 -0.2706  1.5000  2.6030
 6205SOL     OW30076   1.148   3.742   3.478  0.1047 -0.1559  0.0539
 6205SOL    HW130077   1.181   3.676   3.417 -1.3032 -2.1700  1.4753
 6205SOL    HW230078   1.198   3.736   3.560 -0.1750 -0.3780  0.2052
 6206SOL     OW30079   0.507   1.194  13.718 -0.1027  0.6864 -0.3234
 6206SOL    HW130080   0.526   1.228  13.806 -1.5268  2.5722 -0.7619
 6206SOL    HW230081   0.592   1.188  13.673 -0.3370 -0.0385 -0.6641
 6207SOL     OW30082   3.982   0.605   7.023  0.7053 -0.2088  0.4058
 6207SOL    HW130083   3.940   0.689   7.006  1.7182 -0.1785 -1.9116
 6207SOL    HW230084   4.076   0.624   7.028  0.5988 -0.3743  3.1665
 6208SOL     OW30085   0.748   0.160   9.471 -0.0271 -0.0794  0.3132
 6208SOL    HW130086   0.810   0.177   9.542 -0.6779  2.1913  0.3298
 6208SOL    HW230087   0.790   0.083   9.432 -1.3711 -1.3725  1.3993
 6209SOL     OW30088   1.851   4.105   2.844  0.6920 -0.5770  0.0007
 6209SOL    HW130089   1.915   4.172   2.867  0.3225 -0.6789  1.3348
 6209SOL    HW230090   1.895   4.034   2.891 -0.9897  0.0409  2.5699
 6210SOL     OW30091   2.276   1.008   5.672 -0.0613 -0.0293 -0.0982
 6210SOL    HW130092   2.263   1.028   5.764 -2.5781  3.4898 -1.2269
 6210SOL    HW230093   2.289   1.096   5.637 -2.3839  0.6213  0.6791
 6211SOL     OW30094   3.082   0.562   7.256 -0.1086 -0.0026 -0.4354
 6211SOL    HW130095   3.101   0.576   7.349  2.2333  1.8269 -1.2318
 6211SOL    HW230096   3.105   0.469   7.250  0.1251 -0.0956  1.9625
 6212SOL     OW30097   2.650   0.732  12.979  0.0434 -0.3081 -0.0313
 6212SOL    HW130098   2.713   0.661  12.965 -1.6209 -2.1271  1.7322
 6212SOL    HW230099   2.694   0.785  13.046 -0.9281  0.5435 -0.0593
 6213SOL     OW30100   1.297   3.949   6.080  0.4740  0.2295  0.3205
 6213SOL    HW130101   1.302   3.907   5.995 -1.8518  0.6083 -0.0045
 6213SOL    HW230102   1.245   4.028   6.064 -2.7808 -2.2729 -1.3868
 6214SOL     OW30103   0.639   1.895   3.033  0.5314 -0.7285  0.0757
 6214SOL    HW130104   0.632   1.833   3.105  0.9651 -0.1763  0.5933
 6214SOL    HW230105   0.708   1.843   2.992  1.0362 -0.0729  0.0883
 6215SOL     OW30106   1.085   0.962  13.095  0.2218  0.4353  0.1730
 6215SOL    HW130107   1.166   0.972  13.044  0.3431 -3.4168 -0.4032
 6215SOL    HW230108   1.026   1.017  13.044  1.6608  1.0872 -0.8027
 6216SOL     OW30109   4.674   0.283   1.277  0.1683 -0.0389  0.4381
 6216SOL    HW130110   0.025   0.332   1.232  1.1354 -1.5748  0.2392
 6216SOL    HW230111   4.592   0.320   1.246 -0.2609  1.2521  3.1387
 6217SOL     OW30112   2.464   1.210   6.258  0.3082  0.3764  0.4509
 6217SOL    HW130113   2.535   1.221   6.194 -0.3730  0.3256 -0.3192
 6217SOL    HW230114   2.452   1.115   6.265  0.4983  0.3250  0.1170
 6218SOL     OW30115   1.387   1.467   4.761 -0.1538  0.5007 -0.9061
 6218SOL    HW130116   1.393   1.495   4.669 -1.7018  1.0032 -0.8542
 6218SOL    HW230117   1.462   1.521   4.787  0.8252 -0.3596 -1.9151
 6219SOL     OW30118   0.835   2.517   3.862 -0.7569 -0.4874  0.0839
 6219SOL    HW130119   0.876   2.433   3.843  0.2263 -0.1594  0.7349
 6219SOL    HW230120   0.893   2.536   3.936 -2.7306 -1.9255  1.9912
 6220SOL     OW30121   3.199   4.055   6.922  0.6145 -0.3261  0.8040
 6220SOL    HW130122   3.136   3.985   6.941  1.7321 -2.1064 -2.2271
 6220SOL    HW230123   3.223   4.081   7.011 -0.1657  2.4708  0.2212
 6221SOL     OW30124   2.750   4.247   8.418 -0.5104 -0.1153  0.2638
 6221SOL    HW130125   2.780   4.161   8.446 -1.2707 -0.8352 -1.1159
 6221SOL    HW230126   2.711   4.218   8.335 -0.8886  1.1232  0.0012
 6222SOL     OW30127   1.936   2.356   4.732  0.3798 -0.5144 -0.2519
 6222SOL    HW130128   1.923   2.449   4.714 -0.0192 -0.9805 -2.4592
 6222SOL    HW230129   1.847   2.339   4.763 -0.3006  1.0376 -1.3612
 6223SOL     OW30130   3.147   1.419  14.502 -0.7770  0.1795  0.2034
 6223SOL    HW130131   3.082   1.350  14.488  0.6077 -0.7471 -1.7545
 6223SOL    HW230132   3.189   1.411  14.588  1.2492  0.2105 -0.7665
 6224SOL     OW30133   2.932   1.895  15.224 -0.0948  0.5127 -0.4725
 6224SOL    HW130134   2.901   1.983  15.245  2.6705  0.9547  1.7518
 6224SOL    HW230135   3.019   1.904  15.263 -0.6789 -0.4695  1.0452
 6225SOL     OW30136   2.272   0.826  14.324  0.0193  0.5173 -0.2047
 6225SOL    HW130137   2.336   0.897  14.329 -0.8739  1.1047  2.8226
 6225SOL    HW230138   2.206   0.855  14.387 -1.5031 -1.5358 -0.8584
 6226SOL     OW30139   4.237   4.615  16.191 -0.2329 -0.0662 -0.1911
 6226SOL    HW130140   4.303   4.582  16.129 -0.8242  0.1963 -0.9521
 6226SOL    HW230141   4.278   4.615  16.278  1.5551 -2.6897 -1.0174
 6227SOL     OW30142   3.230   1.978   9.976 -0.1739 -0.1147 -0.3484
 6227SOL    HW130143   3.290   2.051   9.964  2.4867 -2.1021  0.7939
 6227SOL    HW230144   3.208   1.962   9.884  1.6586 -2.0383 -0.4742
 6228SOL     OW30145   1.676   4.050   4.165  0.1787  0.5006  0.6497
 6228SOL    HW130146   1.716   4.121   4.215 -3.2959  1.7136  1.7041
 6228SOL    HW230147   1.744   4.028   4.101  0.8314 -4.0892  2.8995
 6229SOL     OW30148   4.649   4.608   4.257 -0.1348  0.6623  0.2625
 6229SOL    HW130149   4.613   4.530   4.215  0.2463  1.9044 -2.3708
 6229SOL    HW230150   4.590   4.676   4.224 -3.0978 -1.8116  0.4302
 6230SOL     OW30151   2.900   0.830  17.043  0.2063 -0.2130 -0.2555
 6230SOL    HW130152   2.873   0.794  17.128  0.2285  0.6493  0.1190
 6230SOL    HW230153   2.820   0.819  16.992  1.1580 -0.3873 -1.6888
 6231SOL     OW30154   2.664   3.640   6.281 -0.2829  0.0707  0.3130
 6231SOL    HW130155   2.721   3.565   6.297 -0.5372 -0.5939 -1.8649
 6231SOL    HW230156   2.661   3.669   6.372 -1.6950 -0.1542  0.3378
 6232SOL     OW30157   2.377   4.319   1.205 -0.0833  0.2855  0.2535
 6232SOL    HW130158   2.424   4.240   1.177  1.4437  1.0547  0.6131
 6232SOL    HW230159   2.432   4.383   1.159  0.6748  1.4848  2.8680
 6233SOL     OW30160   0.372   1.559   5.506 -0.6336  0.6245 -0.1233
 6233SOL    HW130161   0.463   1.557   5.478 -0.7992 -0.5957 -0.5900
 6233SOL    HW230162   0.388   1.509   5.586  1.0758  4.6412  2.0608
 6234SOL     OW30163   3.384   0.003   0.319  0.5258 -0.4841  0.4636
 6234SOL    HW130164   3.465   0.038   0.281  1.4594 -1.4692  1.5422
 6234SOL    HW230165   3.399   0.055   0.398 -0.3924  0.5449 -0.0506
 6235SOL     OW30166   2.153   0.688   3.637  0.0179  0.4346  0.3560
 6235SOL    HW130167   2.140   0.594   3.646  1.1063  0.2483  0.0010
 6235SOL    HW230168   2.119   0.718   3.721  0.5948 -1.4127  1.2336
 6236SOL     OW30169   2.326   3.259   0.103 -0.0535 -0.5094 -0.3513
 6236SOL    HW130170   2.381   3.333   0.130 -0.9252  1.0675 -2.8984
 6236SOL    HW230171   2.273   3.259   0.182  0.8367  2.0114  0.2739
 6237SOL     OW30172   1.115   3.450   4.115  0.2156 -0.0805  0.9392
 6237SOL    HW130173   1.172   3.390   4.067  4.4636  2.2850  2.9650
 6237SOL    HW230174   1.106   3.524   4.055  1.1225 -0.0566  0.8378
 6238SOL     OW30175   4.305   0.304   5.812  0.3910  0.4077  0.9729
 6238SOL    HW130176   4.271   0.345   5.732  0.3159 -0.2068  0.6935
 6238SOL    HW230177   4.386   0.260   5.786 -0.9911 -2.0551  0.8327
 6239SOL     OW30178   4.472   0.866   5.019 -0.0063 -0.3497 -0.0292
 6239SOL    HW130179   4.418   0.804   5.068  0.6330 -0.5799  0.3860
 6239SOL    HW230180   4.409   0.883   4.949  1.3619 -1.4308 -1.5170
 6240SOL     OW30181   3.228   1.365  14.750  0.2032 -0.3875  0.1935
 6240SOL    HW130182   3.220   1.459  14.767  2.6276 -0.1165 -0.2448
 6240SOL    HW230183   3.224   1.327  14.838  0.4181  0.0638  0.3990
 6241SOL     OW30184   4.373   0.479   7.437 -0.6878 -0.6721  0.1102
 6241SOL    HW130185   4.364   0.384   7.426  0.4008 -0.4626 -2.6367
 6241SOL    HW230186   4.284   0.503   7.462 -0.0005  0.3610  1.5508
 6242SOL     OW30187   4.237   2.851   3.602  0.0085  0.0231 -0.0932
 6242SOL    HW130188   4.256   2.935   3.643  0.8702  0.9806 -2.5251
 6242SOL    HW230189   4.143   2.839   3.620 -0.2066  0.8861 -0.6582
 6243SOL     OW30190   4.031   2.737   9.533 -0.2764  0.2145  0.1274
 6243SOL    HW130191   4.016   2.685   9.454 -0.3951 -0.4921  0.6195
 6243SOL    HW230192   4.127   2.732   9.541 -0.4548  1.4108  2.6937
 6244SOL     OW30193   3.905   4.366  16.336  0.1722  0.5822 -0.5049
 6244SOL    HW130194   3.864   4.430  16.394 -2.5719 -1.2861 -0.3661
 6244SOL    HW230195   3.882   4.413  16.256  1.4714  1.7560 -0.1959
 6245SOL     OW30196   0.200   3.051   2.731 -0.8117 -0.0569 -0.2166
 6245SOL    HW130197   0.141   2.975   2.730 -0.3015 -0.4616  0.6557
 6245SOL    HW230198   0.193   3.074   2.638 -1.8692  0.9178  0.0986
 6246SOL     OW30199   0.272   2.657   4.988 -0.6757  0.3652  0.1012
 6246SOL    HW130200   0.251   2.721   4.920  0.8934 -0.6943 -1.3879
 6246SOL    HW230201   0.354   2.622   4.953 -1.7078 -2.5713  0.5784
 6247SOL     OW30202   0.476   4.190   4.507 -0.3191 -0.1102  0.0406
 6247SOL    HW130203   0.553   4.244   4.527 -1.3758  1.0612  0.9508
 6247SOL    HW230204   0.432   4.179   4.591  0.9876  1.9778  0.9995
 6248SOL     OW30205   4.603   0.303   3.194 -0.0033 -0.2229 -0.4215
 6248SOL    HW130206   4.688   0.300   3.152  0.0094 -3.6243 -0.1797
 6248SOL    HW230207   4.575   0.393   3.175 -2.0135 -0.7303  0.1212
 6249SOL     OW30208   3.583   2.217   0.830 -0.5314  0.5575 -0.3427
 6249SOL    HW130209   3.549   2.169   0.905  0.4925 -0.7129 -0.7076
 6249SOL    HW230210   3.675   2.238   0.847 -0.9467  0.9277  1.4890
 6250SOL     OW30211   3.210   3.442  12.590  0.4030 -0.0743 -0.3108
 6250SOL    HW130212   3.219   3.379  12.661 -0.6102  0.6837  0.5101
 6250SOL    HW230213   3.228   3.527  12.631  0.8218  0.2511 -1.1705
 6251SOL     OW30214   2.494   0.090   5.632  0.1366 -0.4569  0.2837
 6251SOL    HW130215   2.564   0.146   5.665  0.9114  0.0780 -2.2794
 6251SOL    HW230216   2.509   0.034   5.557  0.8650  1.3351 -0.9079
 6252SOL     OW30217   3.172   2.491  10.006 -0.4963  0.0391 -0.3262
 6252SOL    HW130218   3.206   2.551  10.073  0.2945  0.0312 -0.7161
 6252SOL    HW230219   3.228   2.417  10.030 -0.5431  0.3803  0.8302
 6253SOL     OW30220   1.625   2.191   8.902  0.3294  0.0576 -0.2828
 6253SOL    HW130221   1.559   2.242   8.855 -0.2204 -0.1445  0.2691
 6253SOL    HW230222   1.696   2.255   8.904 -0.4798  0.9096  1.2784
 6254SOL     OW30223   2.562   0.580   0.827 -0.1112 -0.3466  0.2619
 6254SOL    HW130224   2.618   0.628   0.766  0.6133 -2.6704 -0.8958
 6254SOL    HW230225   2.499   0.548   0.763  0.0120  1.6651 -0.9024
 6255SOL     OW30226   2.115   0.929   1.998  0.6259  0.1208 -0.5032
 6255SOL    HW130227   2.087   1.019   1.983 -1.5835 -0.1519  2.0963
 6255SOL    HW230228   2.092   0.921   2.090  0.3714 -3.1424 -0.8523
 6256SOL     OW30229   0.397   1.454   1.604  0.0561 -0.1220  0.1549
 6256SOL    HW130230   0.354   1.476   1.521  1.2670 -1.1372 -0.7591
 6256SOL    HW230231   0.326   1.439   1.667 -0.9713  0.2632 -0.9128
 6257SOL     OW30232   0.291   3.123   1.724  0.9540  0.3756  0.0527
 6257SOL    HW130233   0.318   3.195   1.668  0.0752  1.4439  1.0068
 6257SOL    HW230234   0.214   3.157   1.770  1.9681 -0.1483  2.1586
 6258SOL     OW30235   3.405   3.209   4.241  0.0745 -0.2813 -0.3539
 6258SOL    HW130236   3.362   3.130   4.208  0.2973 -0.1978 -0.8454
 6258SOL    HW230237   3.488   3.171   4.270  0.5931  1.5444  0.5766
 6259SOL     OW30238   0.322   1.110   1.024 -0.2111  0.1333 -0.0381
 6259SOL    HW130239   0.304   1.160   0.943 -2.4823 -3.2326 -1.6100
 6259SOL    HW230240   0.233   1.079   1.044 -0.6501  2.0078  0.9622
 6260SOL     OW30241   2.739   1.086  10.518  0.1114 -0.2218  0.1627
 6260SOL    HW130242   2.829   1.099  10.549 -0.9860  0.9769  2.8000
 6260SOL    HW230243   2.718   0.999  10.552  1.0386 -0.8619 -0.8450
 6261SOL     OW30244   1.658   2.731  14.733  0.0256 -0.1426  0.0046
 6261SOL    HW130245   1.694   2.806  14.781 -1.4176  0.6765 -0.2175
 6261SOL    HW230246   1.724   2.665  14.755  0.3443 -0.2821 -1.4061
 6262SOL     OW30247   3.853   3.584   4.218 -0.1922 -0.6602 -0.2638
 6262SOL    HW130248   3.785   3.650   4.203 -0.3819 -0.8114 -0.0616
 6262SOL    HW230249   3.799   3.532   4.277 -0.7699  0.7771  0.4755
 6263SOL     OW30250   4.707   3.764   3.579  0.2098  0.2572 -0.4298
 6263SOL    HW130251   0.075   3.795   3.607 -0.5520  1.3492  0.7357
 6263SOL    HW230252   0.005   3.716   3.498 -1.9540 -0.8293 -0.2052
 6264SOL     OW30253   3.151   2.063   2.816  0.5267 -0.3401 -0.0536
 6264SOL    HW130254   3.117   2.115   2.743  2.2486 -2.2583 -2.2493
 6264SOL    HW230255   3.116   1.976   2.800  2.1026 -1.1261  0.8213
 6265SOL     OW30256   0.898   2.497   8.963  0.1693  0.1200  0.2989
 6265SOL    HW130257   0.869   2.515   8.874 -0.3678 -2.8742 -0.1359
 6265SOL    HW230258   0.922   2.404   8.956  2.3440  0.7028  0.1915
 6266SOL     OW30259   4.078   4.600   4.817 -0.1570 -0.0807  0.0530
 6266SOL    HW130260   4.059   4.649   4.737 -1.9201 -0.2289  0.3814
 6266SOL    HW230261   4.174   4.605   4.816 -0.2678  1.6908 -1.1048
 6267SOL     OW30262   3.686   4.152   0.215 -0.0852  0.2701  0.1837
 6267SOL    HW130263   3.667   4.138   0.123 -0.4538  0.9745  0.1543
 6267SOL    HW230264   3.772   4.192   0.201 -0.8629  1.4770 -1.1278
 6268SOL     OW30265   3.731   4.396  10.637  0.3868  0.5169  0.3393
 6268SOL    HW130266   3.819   4.390  10.675  0.2824  0.2850  0.5452
 6268SOL    HW230267   3.697   4.468  10.690 -0.4548 -2.1990  3.4708
 6269SOL     OW30268   1.095   1.913   5.639  0.1284 -0.3712  0.0026
 6269SOL    HW130269   1.186   1.924   5.614  0.0050 -1.7466 -1.0458
 6269SOL    HW230270   1.077   1.851   5.568 -2.1974  0.1229  0.1560
 6270SOL     OW30271   0.035   2.479  13.970 -0.2165  0.2163  0.8847
 6270SOL    HW130272   0.070   2.390  13.977  1.7440  1.1933  3.6120
 6270SOL    HW230273   0.094   2.521  13.907 -1.2536 -3.5316 -2.5782
 6271SOL     OW30274   4.318   4.527  10.357  0.1244 -0.0800 -0.3393
 6271SOL    HW130275   4.322   4.568  10.443  1.5591 -2.6163  0.7842
 6271SOL    HW230276   4.224   4.508  10.357  0.0743  0.1773  0.3404
 6272SOL     OW30277   3.957   3.748   7.024 -0.4780  0.2612  0.2391
 6272SOL    HW130278   4.023   3.711   7.082 -0.3950  2.3992  1.5086
 6272SOL    HW230279   3.917   3.671   6.983 -2.7687  1.8077 -0.4403
 6273SOL     OW30280   2.420   3.484   8.534 -0.1957 -0.6489 -0.5451
 6273SOL    HW130281   2.410   3.552   8.467 -0.9093 -0.4532 -0.2376
 6273SOL    HW230282   2.466   3.418   8.482 -0.4509 -0.2314 -1.3111
 6274SOL     OW30283   4.331   0.074  11.218 -0.2308 -0.2682  0.1802
 6274SOL    HW130284   4.268   0.044  11.153 -0.9228 -0.4351  0.9349
 6274SOL    HW230285   4.306   0.165  11.233 -3.6875 -1.3460  1.0055
 6275SOL     OW30286   0.502   2.562   9.873  0.3868 -0.1192  0.1890
 6275SOL    HW130287   0.564   2.622   9.914 -1.6102  2.9685 -1.2295
 6275SOL    HW230288   0.419   2.576   9.919  1.9071 -1.1486  3.2511
 6276SOL     OW30289   3.797   0.368   7.946 -0.4304  0.1074 -0.6424
 6276SOL    HW130290   3.872   0.309   7.944 -0.7453 -0.3226  0.2669
 6276SOL    HW230291   3.826   0.426   8.017  0.6548  0.3848 -1.3156
 6277SOL     OW30292   0.463   3.888   4.527  0.1477 -0.2974 -0.7027
 6277SOL    HW130293   0.483   3.981   4.521  1.5189 -0.4463  1.4037
 6277SOL    HW230294   0.508   3.859   4.447 -2.0291 -1.4764 -1.4986
 6278SOL     OW30295   1.424   3.248   4.732 -0.6247 -0.4047 -0.7925
 6278SOL    HW130296   1.401   3.223   4.822 -0.8516  0.9205 -0.4698
 6278SOL    HW230297   1.344   3.301   4.724  1.4594  2.7948 -0.4050
 6279SOL     OW30298   2.684   4.590   2.878  0.1870  0.4564  0.3235
 6279SOL    HW130299   2.624   4.608   2.950 -0.1446 -2.4820  0.7923
 6279SOL    HW230300   2.624   4.560   2.810  0.4542 -2.7134  1.4691
 6280SOL     OW30301   1.197   4.137  15.739  0.0428  0.1671  0.7491
 6280SOL    HW130302   1.291   4.120  15.732 -0.5414 -2.3197 -1.0203
 6280SOL    HW230303   1.159   4.085  15.810 -0.7041 -0.3499 -0.0328
 6281SOL     OW30304   3.246   1.520   6.401  0.1090 -0.3481  0.2756
 6281SOL    HW130305   3.204   1.478   6.326  1.1448 -1.2909  0.2343
 6281SOL    HW230306   3.234   1.613   6.383  0.2061 -0.0307  1.9016
 6282SOL     OW30307   2.345   3.688   5.739  0.0855  0.1200 -0.2417
 6282SOL    HW130308   2.295   3.650   5.811 -0.9537  0.9063 -0.5420
 6282SOL    HW230309   2.355   3.614   5.680  2.9260  1.4292 -1.3784
 6283SOL     OW30310   2.089   1.964   5.510  0.3918  0.0912 -0.5780
 6283SOL    HW130311   2.122   1.975   5.599  3.1439 -1.3824 -1.4190
 6283SOL    HW230312   1.999   1.949   5.538 -0.0121  1.9036 -0.9127
 6284SOL     OW30313   0.413   2.404   3.308 -0.3777  0.4130  0.0948
 6284SOL    HW130314   0.478   2.334   3.300 -1.1806 -0.2963 -0.1070
 6284SOL    HW230315   0.426   2.428   3.400  4.5253 -0.7612 -0.2568
 6285SOL     OW30316   2.059   0.009  15.308  0.3104 -0.6191  0.3566
 6285SOL    HW130317   2.131   4.703  15.367  0.9149 -0.1962 -0.2043
 6285SOL    HW230318   2.067   4.656  15.244  0.5489 -0.8725  0.6631
 6286SOL     OW30319   0.320   4.555   2.947 -0.3636 -0.0891 -0.6746
 6286SOL    HW130320   0.406   4.582   2.979 -0.5631 -0.2624  0.0149
 6286SOL    HW230321   0.351   4.487   2.888  1.0303 -0.6724  0.7196
 6287SOL     OW30322   2.221   4.215   4.126  0.0669  0.5887 -0.2572
 6287SOL    HW130323   2.159   4.287   4.124  0.6587  1.0617 -1.7063
 6287SOL    HW230324   2.161   4.141   4.135  0.5982  0.2670  0.5708
 6288SOL     OW30325   1.626   1.994   7.654  0.4548 -0.9702 -0.1864
 6288SOL    HW130326   1.616   1.900   7.647  0.0749 -0.9261 -0.2050
 6288SOL    HW230327   1.569   2.025   7.584 -1.0191 -1.3916  0.8427
 6289SOL     OW30328   1.218   0.545   9.869 -0.5319 -0.3160  0.1088
 6289SOL    HW130329   1.282   0.492   9.917  2.0827  1.4750 -1.4369
 6289SOL    HW230330   1.235   0.512   9.781  1.7465 -2.7401  1.4595
 6290SOL     OW30331   2.382   3.434   0.347  0.8397  0.1622 -0.1874
 6290SOL    HW130332   2.416   3.523   0.346 -0.1661  0.5886  3.3588
 6290SOL    HW230333   2.461   3.393   0.310 -0.0523 -0.8353 -0.9825
 6291SOL     OW30334   3.363   1.484   3.901 -0.1542  0.3436 -0.1019
 6291SOL    HW130335   3.324   1.412   3.852  0.9621 -1.2689  1.4311
 6291SOL    HW230336   3.456   1.465   3.889 -0.4328  0.6723 -2.8981
 6292SOL     OW30337   3.936   3.217   4.272 -0.3948  0.3756 -0.6797
 6292SOL    HW130338   3.969   3.188   4.357  0.4570  1.4386 -0.6399
 6292SOL    HW230339   3.949   3.312   4.282 -1.7894  0.6565 -1.5921
 6293SOL     OW30340   3.766   2.206   6.794 -0.0793  0.7714 -0.3544
 6293SOL    HW130341   3.752   2.115   6.817 -0.6562  1.0028  0.2126
 6293SOL    HW230342   3.683   2.254   6.793 -0.7025 -0.2977  0.6159
 6294SOL     OW30343   1.785   0.692   3.013 -0.5425  0.3121 -0.4808
 6294SOL    HW130344   1.843   0.630   3.057  0.1604  1.2987 -0.0294
 6294SOL    HW230345   1.805   0.773   3.059 -1.8252  0.2322  0.2362
 6295SOL     OW30346   3.575   3.653   2.196 -0.5130 -0.0256 -0.4371
 6295SOL    HW130347   3.574   3.748   2.208  1.2283  0.0408 -0.8215
 6295SOL    HW230348   3.484   3.625   2.208 -0.5124 -0.5206 -1.5387
 6296SOL     OW30349   3.957   4.174   3.693  0.1305 -0.1252 -0.1727
 6296SOL    HW130350   3.883   4.118   3.717 -0.6332  1.3203  0.8795
 6296SOL    HW230351   4.012   4.162   3.770  0.3538  0.5082 -0.2325
 6297SOL     OW30352   3.317   3.522   5.346  0.1791  0.4186 -0.4822
 6297SOL    HW130353   3.390   3.464   5.365  0.0165  0.9583  1.7769
 6297SOL    HW230354   3.254   3.450   5.333 -0.0728  0.7518 -1.1298
 6298SOL     OW30355   1.138   0.311   9.380  0.0776  0.6114 -0.3051
 6298SOL    HW130356   1.095   0.253   9.442 -0.3327 -0.1989 -1.3475
 6298SOL    HW230357   1.132   0.256   9.302  1.8269  0.2761 -0.2060
 6299SOL     OW30358   3.817   4.230  15.107 -0.6516  0.1128  0.2702
 6299SOL    HW130359   3.759   4.168  15.150 -0.6242  0.1904  0.4164
 6299SOL    HW230360   3.856   4.174  15.039  1.5092 -0.8256  2.3084
 6300SOL     OW30361   3.047   0.164   3.197  0.0606 -0.0099  0.4846
 6300SOL    HW130362   3.068   0.207   3.114  0.2358  1.0407  1.0701
 6300SOL    HW230363   3.119   0.101   3.205  2.9803  3.6701  2.9793
 6301SOL     OW30364   0.352   0.954   7.681 -0.5222 -0.9729 -0.3971
 6301SOL    HW130365   0.354   0.948   7.586 -0.9291  0.1333 -0.4785
 6301SOL    HW230366   0.306   0.877   7.716  1.5903 -2.2547 -0.4736
 6302SOL     OW30367   2.443   1.490   3.144 -0.7661 -0.4120  0.7407
 6302SOL    HW130368   2.379   1.559   3.162  0.1530  0.5742  0.1847
 6302SOL    HW230369   2.509   1.500   3.213 -0.3577 -3.5869  0.8248
 6303SOL     OW30370   3.483   2.924   7.502  0.9519 -0.1530 -0.3678
 6303SOL    HW130371   3.536   3.004   7.495  0.9139  0.0793  2.0393
 6303SOL    HW230372   3.459   2.895   7.415 -0.9701  1.8915 -0.5067
 6304SOL     OW30373   2.885   1.350   6.603  0.0759  0.1651 -0.4411
 6304SOL    HW130374   2.789   1.352   6.595  0.0842 -3.0059 -1.3480
 6304SOL    HW230375   2.896   1.369   6.696 -0.1472 -1.8526  0.0033
 6305SOL     OW30376   3.958   1.101   9.950  0.9325 -0.5442 -0.2752
 6305SOL    HW130377   3.979   1.044  10.024  4.9022  1.0131 -0.2150
 6305SOL    HW230378   3.936   1.037   9.881 -2.7373  0.1846  0.2228
 6306SOL     OW30379   3.715   0.561   6.011 -0.1541  0.1972 -0.1702
 6306SOL    HW130380   3.704   0.550   5.917 -0.0383 -0.7918 -0.0651
 6306SOL    HW230381   3.633   0.522   6.042  1.2874 -1.6889  1.3000
 6307SOL     OW30382   2.936   1.114  16.965  0.2444  0.2278  0.2494
 6307SOL    HW130383   2.907   1.026  16.989 -0.9127  0.6566  0.3899
 6307SOL    HW230384   2.968   1.090  16.878 -1.9521 -0.9864 -0.2310
 6308SOL     OW30385   4.328   4.558  13.784 -0.4692  0.1174 -0.0120
 6308SOL    HW130386   4.264   4.595  13.844 -0.1124  1.5284 -0.4935
 6308SOL    HW230387   4.386   4.634  13.771 -0.3439  0.1557  0.7655
 6309SOL     OW30388   3.782   3.915  10.400 -0.2838  0.1431  0.7654
 6309SOL    HW130389   3.707   3.964  10.435  0.0216  0.0708  1.5056
 6309SOL    HW230390   3.751   3.827  10.420  1.4721 -0.3333  1.3633
 6310SOL     OW30391   1.057   3.651  17.380  0.0885 -0.3622  0.0430
 6310SOL    HW130392   1.117   3.650  17.454 -0.8269 -1.6611  0.7725
 6310SOL    HW230393   0.986   3.684  17.436 -0.8454 -1.7853 -0.2865
 6311SOL     OW30394   0.529   0.355   7.509  0.4568  0.0761  0.1084
 6311SOL    HW130395   0.607   0.324   7.556  0.8089  2.3374  1.0386
 6311SOL    HW230396   0.524   0.296   7.434  1.3773 -0.3359  0.3675
 6312SOL     OW30397   1.664   0.992  11.575 -0.3495 -0.0522 -0.3060
 6312SOL    HW130398   1.621   1.065  11.620  0.8480 -0.1302  0.9759
 6312SOL    HW230399   1.642   1.010  11.484 -0.5048  1.1630 -0.0389
 6313SOL     OW30400   3.636   0.472   0.964 -0.1340  0.2331 -0.4443
 6313SOL    HW130401   3.650   0.549   1.019  1.0799 -0.5532  0.3399
 6313SOL    HW230402   3.723   0.435   0.977  0.6960  1.6710 -2.0235
 6314SOL     OW30403   2.409   0.381  13.051 -0.3327 -0.3222 -0.4247
 6314SOL    HW130404   2.466   0.390  12.974 -0.1896 -1.0413 -0.4033
 6314SOL    HW230405   2.406   0.472  13.080 -1.5089 -0.9463  1.4230
 6315SOL     OW30406   1.518   0.463   5.526  0.0560  0.1159 -0.5433
 6315SOL    HW130407   1.542   0.550   5.495 -1.3285  0.7489  0.1262
 6315SOL    HW230408   1.549   0.467   5.617 -0.5591  2.5491 -0.4331
 6316SOL     OW30409   1.963   0.514   3.400 -0.0471 -0.2170 -0.0883
 6316SOL    HW130410   1.924   0.595   3.433  2.9323  0.8248  0.9182
 6316SOL    HW230411   1.988   0.471   3.482 -0.8736 -0.5077  0.0100
 6317SOL     OW30412   0.324   4.155  15.029 -0.4661  0.2790  0.1943
 6317SOL    HW130413   0.353   4.142  15.119  0.0673 -0.7382 -0.1273
 6317SOL    HW230414   0.403   4.186  14.984  0.6904  1.4561  3.0502
 6318SOL     OW30415   4.247   4.007   1.551 -0.4868 -0.5301 -0.2328
 6318SOL    HW130416   4.162   3.963   1.548 -1.1134  0.6860 -0.6105
 6318SOL    HW230417   4.293   3.928   1.577 -0.3856 -0.6919 -0.9107
 6319SOL     OW30418   0.578   4.102   3.262  0.0914  0.4938  0.0024
 6319SOL    HW130419   0.521   4.035   3.225 -0.8146 -0.3793  2.9591
 6319SOL    HW230420   0.659   4.051   3.250  0.1999  0.4902  0.7236
 6320SOL     OW30421   1.402   1.418   5.641  0.0978 -0.2458 -0.1728
 6320SOL    HW130422   1.369   1.508   5.649 -1.6325 -1.0828  1.9133
 6320SOL    HW230423   1.479   1.431   5.586  0.2699 -0.9478 -0.1011
 6321SOL     OW30424   3.211   1.855   4.940 -0.7014 -0.4295 -0.4652
 6321SOL    HW130425   3.252   1.884   5.022  1.0973  0.8696 -1.8361
 6321SOL    HW230426   3.282   1.796   4.914 -1.0287 -0.3603 -1.5113
 6322SOL     OW30427   1.600   0.858   6.731 -0.5815  0.0886  0.1726
 6322SOL    HW130428   1.668   0.916   6.695  0.1677 -1.1081 -0.3300
 6322SOL    HW230429   1.614   0.871   6.825 -1.6804 -0.1227  0.3565
 6323SOL     OW30430   2.033   0.495   8.932  0.4394  0.0144  0.4813
 6323SOL    HW130431   2.094   0.463   8.999 -0.8132 -3.4119 -0.0198
 6323SOL    HW230432   1.964   0.430   8.938  0.6666 -0.2366  0.4049
 6324SOL     OW30433   1.190   3.298   6.490 -0.4701 -0.1611  0.3008
 6324SOL    HW130434   1.180   3.252   6.407 -0.3425 -2.2400  1.4198
 6324SOL    HW230435   1.191   3.226   6.554  1.4824  0.8953  1.4795
 6325SOL     OW30436   3.662   2.453  11.354 -0.3629 -0.5116  0.1214
 6325SOL    HW130437   3.684   2.377  11.301  0.5139  0.9436 -1.5699
 6325SOL    HW230438   3.748   2.494  11.354 -0.7109  0.2492  1.7520
 6326SOL     OW30439   0.435   3.555   5.811 -0.2036 -0.0474  0.3802
 6326SOL    HW130440   0.354   3.536   5.858 -0.9457 -0.4961 -1.1211
 6326SOL    HW230441   0.455   3.633   5.864 -0.5739  0.4103 -0.1566
 6327SOL     OW30442   0.501   2.252   0.666 -0.6153  0.3259  0.7369
 6327SOL    HW130443   0.569   2.314   0.693  1.7967 -2.3088  0.7328
 6327SOL    HW230444   0.526   2.242   0.574 -2.5381  1.1725  0.1276
 6328SOL     OW30445   2.855   1.859   3.120  0.0550  0.2882 -0.1772
 6328SOL    HW130446   2.908   1.820   3.189 -0.5007  1.1945  0.7575
 6328SOL    HW230447   2.803   1.782   3.097 -1.3930  1.3878 -0.5344
 6329SOL     OW30448   1.926   2.245   7.023  1.0995 -0.3233  0.1187
 6329SOL    HW130449   1.839   2.207   7.035  1.6349 -1.6797 -0.2271
 6329SOL    HW230450   1.910   2.339   7.028 -2.2125 -0.9466  0.9123
 6330SOL     OW30451   1.008   2.044   7.348  0.2800  0.5882  0.6225
 6330SOL    HW130452   0.930   2.100   7.356  0.4951  0.8484  0.8887
 6330SOL    HW230453   1.020   2.049   7.253  0.5885  0.8759  0.6754
 6331SOL     OW30454   3.812   0.368  10.279  0.3682 -0.5720  0.1066
 6331SOL    HW130455   3.795   0.437  10.214 -2.9473  3.1139  4.8595
 6331SOL    HW230456   3.746   0.305  10.252  1.1783 -1.2840 -0.2128
 6332SOL     OW30457   4.664   0.303   6.754 -0.0898  0.0824 -0.4935
 6332SOL    HW130458   4.684   0.284   6.662  0.4234  0.3292 -0.4305
 6332SOL    HW230459   4.571   0.325   6.748 -0.5202 -1.5743  0.2793
 6333SOL     OW30460   0.331   2.749   2.245 -0.2154 -0.4133 -0.2190
 6333SOL    HW130461   0.270   2.695   2.295 -1.1760  1.9318  1.1562
 6333SOL    HW230462   0.395   2.683   2.218 -0.1916 -0.1662 -0.7834
 6334SOL     OW30463   0.387   3.055   6.852 -0.5262  0.2413  0.2889
 6334SOL    HW130464   0.458   3.055   6.916  0.1583 -2.6149 -0.4623
 6334SOL    HW230465   0.312   3.053   6.911 -0.1562  1.1165  0.7806
 6335SOL     OW30466   1.261   3.968   4.699  0.0515  0.3338  0.2005
 6335SOL    HW130467   1.298   3.883   4.676 -2.1183 -0.5279 -0.0951
 6335SOL    HW230468   1.305   4.023   4.635 -1.3896  1.1118 -0.1347
 6336SOL     OW30469   1.501   2.059   8.023 -0.0798  0.5294  0.4827
 6336SOL    HW130470   1.408   2.079   8.032 -0.6583 -1.9886 -0.1353
 6336SOL    HW230471   1.539   2.135   7.978 -0.8046  1.1788  0.9621
 6337SOL     OW30472   3.442   0.900   8.237  0.5088 -0.0941  0.1725
 6337SOL    HW130473   3.363   0.874   8.284 -0.1818  3.9051  1.2045
 6337SOL    HW230474   3.407   0.983   8.205 -0.3734 -0.8999 -0.9511
 6338SOL     OW30475   3.117   0.075   5.522  0.3560  0.2566  0.5661
 6338SOL    HW130476   3.033   0.029   5.521 -0.8897  2.5432 -0.4656
 6338SOL    HW230477   3.167   0.009   5.474  0.3743  0.5369  0.2016
 6339SOL     OW30478   0.577   1.415   3.697 -0.0408  0.0425 -0.3569
 6339SOL    HW130479   0.595   1.321   3.692  1.9901  0.2699  2.3543
 6339SOL    HW230480   0.503   1.421   3.638  1.5474  1.3103 -2.2280
 6340SOL     OW30481   0.700   4.320   0.782 -0.1137 -0.3967 -0.4222
 6340SOL    HW130482   0.716   4.326   0.688  1.5573  2.3919  0.0329
 6340SOL    HW230483   0.746   4.398   0.813  0.7727 -0.1765 -2.3007
 6341SOL     OW30484   3.111   0.103   1.053  0.9808 -0.0230  0.2823
 6341SOL    HW130485   3.132   0.188   1.091 -1.0279  1.2274 -1.4380
 6341SOL    HW230486   3.121   0.049   1.132  2.5791 -0.7813 -0.4464
 6342SOL     OW30487   0.178   0.998   5.641  0.0228  0.7086 -0.1856
 6342SOL    HW130488   0.101   1.013   5.696 -1.1227 -2.1562 -0.9495
 6342SOL    HW230489   0.223   0.931   5.692 -0.3068  1.6315  1.3084
 6343SOL     OW30490   2.302   1.899   3.858  0.2523 -0.3940  0.0651
 6343SOL    HW130491   2.318   1.935   3.944  0.8220  0.3095 -0.3416
 6343SOL    HW230492   2.289   1.974   3.800  2.6381  1.9063  2.6065
 6344SOL     OW30493   3.209   1.960  13.843 -0.1490  0.2533 -0.0439
 6344SOL    HW130494   3.199   1.999  13.756  1.3191 -0.4993 -0.5493
 6344SOL    HW230495   3.190   2.034  13.901 -1.1709 -0.9293  1.1537
 6345SOL     OW30496   2.888   3.335   4.265  0.0753 -0.4360  0.3149
 6345SOL    HW130497   2.956   3.394   4.231  0.2507 -1.1912 -0.6208
 6345SOL    HW230498   2.816   3.397   4.276 -0.1516 -1.1514  2.8115
 6346SOL     OW30499   2.692   1.251   4.079 -0.3292  0.0029  0.3763
 6346SOL    HW130500   2.688   1.156   4.091  0.4440 -0.1460 -0.4733
 6346SOL    HW230501   2.691   1.256   3.983 -0.1185 -0.7508  0.3396
 6347SOL     OW30502   0.307   1.678   8.923  0.2002  0.0965  0.0747
 6347SOL    HW130503   0.354   1.688   8.840 -0.6369 -2.2437 -0.6574
 6347SOL    HW230504   0.381   1.692   8.983  1.5430 -1.6127 -1.1846
 6348SOL     OW30505   0.359   3.048   5.828 -0.4066  0.4764  0.1066
 6348SOL    HW130506   0.420   2.974   5.825 -0.9183  0.1378 -1.9480
 6348SOL    HW230507   0.274   3.009   5.808  0.5666 -0.5141 -2.1582
 6349SOL     OW30508   2.016   0.141   3.556  0.4219 -0.2899  0.0112
 6349SOL    HW130509   1.952   0.127   3.627 -0.7864 -0.2418 -1.0741
 6349SOL    HW230510   2.084   0.110   3.616  1.5284 -0.7997 -1.5220
 6350SOL     OW30511   2.696   3.788  14.763 -0.1648 -0.2097 -0.2045
 6350SOL    HW130512   2.717   3.695  14.777 -0.4128 -0.4069 -1.1235
 6350SOL    HW230513   2.771   3.827  14.808 -0.1616  1.5864 -1.7677
 6351SOL     OW30514   0.440   2.010  11.935  1.1168  0.0234 -0.1186
 6351SOL    HW130515   0.483   1.991  11.852 -0.3564 -1.2239 -0.6033
 6351SOL    HW230516   0.429   2.105  11.922  1.6446 -0.3271 -3.2318
 6352SOL     OW30517   1.432   2.440  10.892 -0.3392  0.0318 -0.1273
 6352SOL    HW130518   1.388   2.412  10.972  0.1630 -0.5547 -0.0568
 6352SOL    HW230519   1.499   2.502  10.922 -0.0448 -0.5944  0.5108
 6353SOL     OW30520   3.031   2.601   6.647  0.6298  0.4326 -0.3664
 6353SOL    HW130521   2.986   2.553   6.717  0.9234 -0.2581 -0.6545
 6353SOL    HW230522   3.010   2.691   6.671  1.1067  0.1254  1.2079
 6354SOL     OW30523   1.305   2.654   0.865 -0.5852  0.3847 -0.2487
 6354SOL    HW130524   1.287   2.665   0.959 -1.0018 -1.2545 -0.1347
 6354SOL    HW230525   1.256   2.731   0.838  0.8898  0.7453 -1.8776
 6355SOL     OW30526   1.661   1.808  15.082  0.3608  0.1441  0.4317
 6355SOL    HW130527   1.699   1.788  14.997  1.1900  1.2890  0.5358
 6355SOL    HW230528   1.609   1.886  15.061  2.9375  2.1627  1.6301
 6356SOL     OW30529   0.167   2.608   9.863  0.1826  0.1815 -0.1019
 6356SOL    HW130530   0.203   2.617   9.952  1.9596  3.2958 -1.1234
 6356SOL    HW230531   0.167   2.514   9.844  0.4683  0.1474  0.0607
 6357SOL     OW30532   2.054   2.153   5.302 -0.2819  0.4707 -0.5237
 6357SOL    HW130533   2.058   2.085   5.234  3.0162 -0.7955  0.9126
 6357SOL    HW230534   2.043   2.095   5.377  1.6922 -0.2916 -0.8179
 6358SOL     OW30535   0.501   2.794   7.318 -0.8211 -0.2381 -0.4088
 6358SOL    HW130536   0.549   2.873   7.342  1.5681 -1.5899 -0.7096
 6358SOL    HW230537   0.424   2.806   7.374  0.0483 -0.8357  0.9021
 6359SOL     OW30538   1.203   3.630  17.619 -0.0797  0.2961  0.0622
 6359SOL    HW130539   1.176   3.539  17.634  0.2046  0.3726  1.0435
 6359SOL    HW230540   1.137   3.675  17.671  0.7573 -0.0932  1.4637
 6360SOL     OW30541   4.220   0.538   2.089  0.1672 -0.0950 -0.0244
 6360SOL    HW130542   4.176   0.479   2.028 -3.0647  0.5916  1.6238
 6360SOL    HW230543   4.297   0.577   2.047  0.1596  3.1562  2.8950
 6361SOL     OW30544   2.211   2.397   4.584  0.8895  0.1259  0.4025
 6361SOL    HW130545   2.175   2.356   4.663 -1.1636  1.3699  0.1236
 6361SOL    HW230546   2.147   2.365   4.520 -0.9696  2.2502  1.2270
 6362SOL     OW30547   4.237   3.289  17.089 -0.7227 -0.5495 -0.0769
 6362SOL    HW130548   4.327   3.320  17.096 -0.6352 -0.8042 -0.0472
 6362SOL    HW230549   4.200   3.327  17.168  0.2065  0.1906  0.0041
 6363SOL     OW30550   3.874   0.685   2.233  0.2434 -0.0899 -0.2791
 6363SOL    HW130551   3.952   0.738   2.249 -1.7061  2.4936  0.6664
 6363SOL    HW230552   3.832   0.731   2.306 -1.5190  2.8228 -3.1364
 6364SOL     OW30553   1.531   3.274  12.512 -0.5938 -0.9546  0.1353
 6364SOL    HW130554   1.561   3.358  12.478 -2.0472  0.2563  1.8602
 6364SOL    HW230555   1.604   3.217  12.488 -0.7493 -1.0909 -0.0062
 6365SOL     OW30556   4.277   2.748   3.204 -0.0930  0.5000  0.2713
 6365SOL    HW130557   4.221   2.797   3.143  1.0841  0.6041 -0.7344
 6365SOL    HW230558   4.210   2.709   3.260 -0.6775 -0.7560 -1.3001
 6366SOL     OW30559   3.981   1.120   3.545 -0.0431  0.0939 -0.4928
 6366SOL    HW130560   4.004   1.205   3.582 -1.2582 -0.5629  1.7458
 6366SOL    HW230561   3.887   1.125   3.527 -0.4827 -0.1560  1.7078
 6367SOL     OW30562   2.351   1.011  12.348 -0.4518 -0.1507 -0.4283
 6367SOL    HW130563   2.357   0.920  12.377 -2.2921 -0.0661  0.2574
 6367SOL    HW230564   2.428   1.003  12.291 -0.0904  0.0206  0.0361
 6368SOL     OW30565   1.616   3.080   4.670  0.3685 -0.6421  0.1374
 6368SOL    HW130566   1.531   3.121   4.684 -0.7567 -2.1590 -2.1643
 6368SOL    HW230567   1.662   3.129   4.737  0.6754 -1.7788  0.7628
 6369SOL     OW30568   2.640   4.582  17.538  0.6751 -0.3258  0.0629
 6369SOL    HW130569   2.559   4.578  17.590  1.1286 -1.9557  0.6442
 6369SOL    HW230570   2.663   4.491  17.524 -0.5028 -0.4569 -1.0242
 6370SOL     OW30571   2.116   4.338  14.794 -0.1444 -0.1120 -0.0401
 6370SOL    HW130572   2.083   4.298  14.875 -0.7445  1.4191  0.4632
 6370SOL    HW230573   2.075   4.424  14.799 -3.5105 -1.5524 -3.1124
 6371SOL     OW30574   2.324   0.850  16.357  0.3385  0.1250 -0.2883
 6371SOL    HW130575   2.296   0.777  16.412  1.0203 -1.1012 -1.5501
 6371SOL    HW230576   2.280   0.922  16.401  0.4017 -0.2816  0.4466
 6372SOL     OW30577   0.448   0.912   5.907 -0.5259 -0.0629 -0.1966
 6372SOL    HW130578   0.387   0.847   5.875 -0.7563 -0.4700  1.0932
 6372SOL    HW230579   0.524   0.890   5.852 -0.2508  0.4433 -0.0275
 6373SOL     OW30580   4.304   3.466   4.978  0.0915 -0.2158  0.4291
 6373SOL    HW130581   4.326   3.503   4.893 -0.1308 -1.2927 -0.1037
 6373SOL    HW230582   4.295   3.537   5.041  1.6221  0.6349 -0.3383
 6374SOL     OW30583   3.195   3.622   2.712 -0.5773 -0.1569  0.2809
 6374SOL    HW130584   3.140   3.688   2.753  0.2002  0.2590  0.6500
 6374SOL    HW230585   3.242   3.585   2.787 -1.2047 -1.7501 -0.0988
 6375SOL     OW30586   2.895   3.690  11.416  0.2391 -0.1917 -0.1059
 6375SOL    HW130587   2.819   3.632  11.418  1.6528 -2.0759 -1.1194
 6375SOL    HW230588   2.927   3.685  11.506 -3.0209  0.3872  1.0756
 6376SOL     OW30589   2.255   2.611   6.888  0.3015 -0.1214 -0.0705
 6376SOL    HW130590   2.258   2.550   6.962  0.6936 -0.1501 -0.1096
 6376SOL    HW230591   2.213   2.690   6.922  0.0709 -0.2389 -0.0758
 6377SOL     OW30592   4.572   2.117   6.641 -0.3839  0.1509  0.3511
 6377SOL    HW130593   4.535   2.116   6.729  0.0944 -1.0609  0.5334
 6377SOL    HW230594   4.494   2.130   6.587  0.7154 -2.1353 -1.7543
 6378SOL     OW30595   2.475   3.992  16.324  0.0175  0.1144 -0.1461
 6378SOL    HW130596   2.416   4.050  16.275 -1.1448 -1.2220 -0.3216
 6378SOL    HW230597   2.421   3.944  16.386  0.4437  1.4327  1.2362
 6379SOL     OW30598   1.091   2.083  15.742  0.2150  0.4520 -0.2033
 6379SOL    HW130599   1.098   2.081  15.647 -2.8231  3.7978 -0.5103
 6379SOL    HW230600   1.047   2.168  15.752 -0.6390  0.0408 -0.4634
 6380SOL     OW30601   0.560   4.122   5.519  0.1949 -0.3009  0.2027
 6380SOL    HW130602   0.487   4.061   5.530  0.0103 -0.3306 -1.1676
 6380SOL    HW230603   0.618   4.061   5.473 -0.6794  0.9326 -2.5262
 6381SOL     OW30604   1.515   1.394  17.577  0.1990 -0.5655 -0.2503
 6381SOL    HW130605   1.572   1.344  17.518 -1.5481 -1.8635 -0.8295
 6381SOL    HW230606   1.582   1.437  17.630 -0.2583  0.4065 -0.4683
 6382SOL     OW30607   3.962   4.352   4.774 -0.4831  0.1188  0.1965
 6382SOL    HW130608   3.997   4.439   4.794  0.3739  0.1329 -1.3902
 6382SOL    HW230609   3.895   4.381   4.712 -2.3462 -2.2683  1.1019
 6383SOL     OW30610   1.912   3.893   4.038 -0.2580 -0.1116  0.7126
 6383SOL    HW130611   1.924   3.836   4.114 -0.6813  0.8952  1.5322
 6383SOL    HW230612   1.994   3.936   4.018  0.3896 -0.3472  2.8140
 6384SOL     OW30613   1.899   1.725  12.344 -0.0348 -0.7433  0.1317
 6384SOL    HW130614   1.930   1.666  12.275 -0.4026  0.9021 -1.4368
 6384SOL    HW230615   1.975   1.758  12.392  0.9664 -0.5203 -1.6109
 6385SOL     OW30616   1.648   1.156  15.549 -0.6650 -0.3232  0.6656
 6385SOL    HW130617   1.725   1.202  15.582  0.6617 -0.8999 -1.6396
 6385SOL    HW230618   1.610   1.212  15.482 -0.4371 -2.0820 -0.9245
 6386SOL     OW30619   2.151   3.100  12.657  0.4581  0.4992 -0.0907
 6386SOL    HW130620   2.212   3.086  12.584 -0.1744 -1.5435 -0.2154
 6386SOL    HW230621   2.173   3.022  12.709  2.3308 -0.6049 -2.5300
 6387SOL     OW30622   0.859   4.170  11.740 -0.8951  0.3645  0.4844
 6387SOL    HW130623   0.765   4.166  11.759 -0.7948 -2.3769  0.4414
 6387SOL    HW230624   0.854   4.168  11.645 -1.1968  0.6905  0.4944
 6388SOL     OW30625   4.432   1.276  16.506 -1.0541 -0.4459 -0.2012
 6388SOL    HW130626   4.378   1.274  16.427 -0.5187  1.1302 -0.6039
 6388SOL    HW230627   4.469   1.362  16.487  2.2300 -1.6842  0.5118
 6389SOL     OW30628   1.692   2.851   4.779 -0.5662 -0.5090 -0.0348
 6389SOL    HW130629   1.623   2.829   4.842 -1.2033 -0.5853 -0.7518
 6389SOL    HW230630   1.655   2.932   4.745 -0.2473 -1.0389 -1.6262
 6390SOL     OW30631   2.736   1.003  16.655  0.1458  0.4213 -0.0915
 6390SOL    HW130632   2.827   1.033  16.656  1.1388 -2.5869  1.3157
 6390SOL    HW230633   2.696   1.088  16.635 -3.8857 -1.2102  1.1797
 6391SOL     OW30634   0.975   0.114   7.213 -0.7321 -0.3917 -0.0377
 6391SOL    HW130635   0.921   0.099   7.136 -0.6237 -0.6438 -0.0665
 6391SOL    HW230636   0.938   0.062   7.284  1.1251 -0.9000  0.5834
 6392SOL     OW30637   2.010   3.815   2.829 -1.0344 -0.5315  0.1715
 6392SOL    HW130638   1.950   3.812   2.755 -1.3497 -0.5275  0.4256
 6392SOL    HW230639   2.071   3.881   2.795 -0.1544 -1.1699  0.5206
 6393SOL     OW30640   2.428   4.208   1.555 -0.4195  0.1776 -0.4166
 6393SOL    HW130641   2.429   4.124   1.602  3.2955 -0.7490 -2.1266
 6393SOL    HW230642   2.523   4.215   1.544 -0.2158  3.2067  3.3354
 6394SOL     OW30643   2.805   3.737  15.871  0.2226  0.4068  0.2050
 6394SOL    HW130644   2.794   3.830  15.852  0.2784  0.6747  1.4708
 6394SOL    HW230645   2.726   3.733  15.926  1.7409 -0.9192  2.3305
 6395SOL     OW30646   4.322   1.076   2.604  0.0196  0.1403 -0.1766
 6395SOL    HW130647   4.320   1.028   2.687  1.7532  0.9696  0.3438
 6395SOL    HW230648   4.366   1.156   2.635 -2.8134  0.6644  2.5428
 6396SOL     OW30649   3.290   0.861  12.971 -0.8478  0.1168  0.1686
 6396SOL    HW130650   3.384   0.844  12.966 -0.8814 -0.2651  0.7693
 6396SOL    HW230651   3.274   0.914  12.893 -0.4467  1.7162  1.1560
 6397SOL     OW30652   2.315   4.281  10.427 -0.2590  0.0892  0.2296
 6397SOL    HW130653   2.333   4.372  10.449 -0.1080 -0.0357  0.6436
 6397SOL    HW230654   2.254   4.256  10.497  1.4740 -1.8305  1.0730
 6398SOL     OW30655   0.629   4.444  11.484  0.1604  0.3757 -0.2870
 6398SOL    HW130656   0.560   4.386  11.518  1.7112 -1.2105  0.1992
 6398SOL    HW230657   0.690   4.380  11.446  0.4957  0.3935  0.2193
 6399SOL     OW30658   2.508   3.799  16.622  0.5892 -0.3441 -0.5788
 6399SOL    HW130659   2.455   3.822  16.546  2.3638  0.5689 -1.5259
 6399SOL    HW230660   2.477   3.709  16.635  1.0569 -0.5024 -0.5796
 6400SOL     OW30661   1.175   1.667   5.882 -0.1934 -0.2371  0.2173
 6400SOL    HW130662   1.162   1.609   5.807 -1.9447  1.0855 -0.5074
 6400SOL    HW230663   1.101   1.727   5.876 -0.1532 -0.3339 -1.2376
 6401SOL     OW30664   3.823   1.767   5.344  0.2419 -0.0998  0.4670
 6401SOL    HW130665   3.808   1.766   5.438 -0.3045 -0.5218  0.3755
 6401SOL    HW230666   3.918   1.758   5.350  0.2809  0.3430  0.4855
 6402SOL     OW30667   1.376   3.792   1.241 -0.2813 -0.1178 -0.1245
 6402SOL    HW130668   1.349   3.828   1.325  0.4914 -0.1247  0.1302
 6402SOL    HW230669   1.437   3.726   1.274  0.4566  0.8246  0.4127
 6403SOL     OW30670   2.733   4.182   4.757 -0.0155  0.0537 -0.2387
 6403SOL    HW130671   2.735   4.199   4.851 -1.6231 -0.8419 -0.0394
 6403SOL    HW230672   2.827   4.166   4.754 -0.0908 -0.1954 -1.1149
 6404SOL     OW30673   3.886   2.870   2.005  0.0160 -0.0126 -0.0419
 6404SOL    HW130674   3.806   2.923   2.007  0.6121  0.8044  2.0245
 6404SOL    HW230675   3.919   2.873   2.095 -0.1370 -0.4839  0.0290
 6405SOL     OW30676   3.876   1.831  10.692  0.0216 -0.1887 -0.7106
 6405SOL    HW130677   3.935   1.877  10.632 -0.0593 -0.9344 -1.3662
 6405SOL    HW230678   3.923   1.841  10.774 -1.8114 -0.5576  0.3936
 6406SOL     OW30679   2.542   2.765   5.969 -0.0368  0.6715 -0.8068
 6406SOL    HW130680   2.489   2.736   6.044  1.3679  0.3833  0.0773
 6406SOL    HW230681   2.627   2.757   6.011 -0.5164  0.2432  0.1008
 6407SOL     OW30682   3.687   3.385   0.395 -0.4545  0.0544  0.7524
 6407SOL    HW130683   3.696   3.313   0.332  3.8204  0.5395  0.8213
 6407SOL    HW230684   3.726   3.347   0.474 -1.6080 -0.3284  1.1348
 6408SOL     OW30685   2.757   1.305   8.947  0.1614  0.3897  0.1119
 6408SOL    HW130686   2.724   1.219   8.919  0.6313 -0.6042  2.6589
 6408SOL    HW230687   2.696   1.328   9.016 -0.4456 -1.2872  0.1469
 6409SOL     OW30688   3.576   3.132   3.110  0.3775  0.2729 -0.3418
 6409SOL    HW130689   3.647   3.072   3.134  3.3381  2.4067 -3.6981
 6409SOL    HW230690   3.555   3.170   3.196  0.0480 -0.4125 -0.1237
 6410SOL     OW30691   2.879   0.626   4.759 -0.5071  0.2053 -0.4840
 6410SOL    HW130692   2.800   0.618   4.813  0.4175  3.1840  1.3210
 6410SOL    HW230693   2.852   0.625   4.667  2.5148 -0.6555 -1.3498
 6411SOL     OW30694   2.926   2.133  12.160 -0.1671 -0.1281 -0.3055
 6411SOL    HW130695   3.000   2.194  12.154 -0.1225  0.1666  3.2078
 6411SOL    HW230696   2.872   2.184  12.220  1.1837  0.3905  0.4887
 6412SOL     OW30697   4.693   3.150   2.879 -0.0987  0.0709  0.7280
 6412SOL    HW130698   4.667   3.062   2.852 -0.0125 -0.5482  2.6486
 6412SOL    HW230699   0.068   3.143   2.855  0.2003 -0.1110  1.9236
 6413SOL     OW30700   2.142   2.215   6.571  0.1754 -0.1298 -0.1040
 6413SOL    HW130701   2.125   2.203   6.665  0.3919  0.2049 -0.0210
 6413SOL    HW230702   2.137   2.128   6.532 -1.2871  1.4109 -3.3968
 6414SOL     OW30703   0.884   0.090   2.682  0.1959 -1.0389 -0.3442
 6414SOL    HW130704   0.918   0.086   2.772  1.4990 -2.4628 -0.9100
 6414SOL    HW230705   0.848   0.179   2.679  1.8834 -0.3987 -1.2182
 6415SOL     OW30706   1.308   1.985  17.171  0.2950 -0.0584  0.2203
 6415SOL    HW130707   1.316   2.043  17.095  1.1161 -2.7820 -1.7837
 6415SOL    HW230708   1.383   2.019  17.219  0.7954 -1.5986  0.5403
 6416SOL     OW30709   3.453   0.651   3.361 -0.2149  0.3426  0.1010
 6416SOL    HW130710   3.500   0.574   3.393  1.2673  0.9639 -0.6213
 6416SOL    HW230711   3.502   0.663   3.280 -0.2743  1.3525  0.2231
 6417SOL     OW30712   4.203   4.284  12.015 -0.8403 -0.2956  0.4953
 6417SOL    HW130713   4.172   4.326  12.095 -1.7127  0.0947 -0.0463
 6417SOL    HW230714   4.285   4.253  12.052 -0.5313  0.0717  0.1238
 6418SOL     OW30715   0.799   0.831  16.940  0.0070  0.1217  0.0420
 6418SOL    HW130716   0.719   0.813  16.891  1.4097 -2.2321 -1.3814
 6418SOL    HW230717   0.748   0.878  17.006 -1.6155 -2.4287  0.6512
 6419SOL     OW30718   2.464   0.240   1.558  0.2997 -0.2980 -0.7092
 6419SOL    HW130719   2.451   0.266   1.649  1.4629  0.4212 -0.7491
 6419SOL    HW230720   2.532   0.173   1.571  0.1004 -0.2790  0.4608
 6420SOL     OW30721   2.772   1.275   2.425  0.6255 -0.3882  0.0021
 6420SOL    HW130722   2.720   1.218   2.483  1.4297  0.4559  1.5445
 6420SOL    HW230723   2.700   1.304   2.369 -1.0189 -2.6995  0.8949
 6421SOL     OW30724   0.381   2.164  11.646  0.3902  0.0404  0.3862
 6421SOL    HW130725   0.391   2.212  11.564  1.3381 -0.8083  0.0014
 6421SOL    HW230726   0.304   2.112  11.623 -0.7121  1.7824  0.0731
 6422SOL     OW30727   2.136   4.628  13.444 -0.1751 -0.5468  0.1736
 6422SOL    HW130728   2.194   4.661  13.375  0.6030  0.4400  1.2892
 6422SOL    HW230729   2.053   4.668  13.418 -0.2370 -0.6658  0.1880
 6423SOL     OW30730   1.210   0.274   7.294  0.2899  0.0691  0.4707
 6423SOL    HW130731   1.162   0.194   7.274  1.7388 -0.2885 -1.6262
 6423SOL    HW230732   1.298   0.264   7.257 -0.4890  0.5551 -1.4862
 6424SOL     OW30733   1.382   4.530   2.810 -0.0447 -0.2764  0.3010
 6424SOL    HW130734   1.331   4.604   2.777  0.7716  0.1709  0.0279
 6424SOL    HW230735   1.460   4.545   2.757  0.2983  0.4780  1.0012
 6425SOL     OW30736   4.100   2.255   3.226 -1.0711 -0.2195 -0.6121
 6425SOL    HW130737   4.037   2.327   3.239  0.2458  0.7919  0.2131
 6425SOL    HW230738   4.169   2.289   3.169 -1.0238 -0.6388 -0.8024
 6426SOL     OW30739   2.380   2.956   2.347  0.3425  0.1503 -0.0791
 6426SOL    HW130740   2.462   2.908   2.339  1.5629  2.2053  0.3085
 6426SOL    HW230741   2.388   3.011   2.425  1.5356  0.8654 -0.7099
 6427SOL     OW30742   1.576   2.340   5.726  0.0044 -1.0761  0.0177
 6427SOL    HW130743   1.549   2.410   5.785 -1.1672 -1.4269 -0.1111
 6427SOL    HW230744   1.496   2.288   5.723 -0.0386 -0.9980 -0.1978
 6428SOL     OW30745   2.316   2.603   0.755  0.2325 -0.5357  0.2964
 6428SOL    HW130746   2.265   2.523   0.740  1.1376 -1.0193 -0.1449
 6428SOL    HW230747   2.282   2.650   0.678  0.6713 -0.2484  0.2821
 6429SOL     OW30748   3.418   3.601  10.210 -0.1553 -0.0143  0.1664
 6429SOL    HW130749   3.390   3.529  10.153  0.4284 -0.2634  0.1980
 6429SOL    HW230750   3.414   3.556  10.294 -2.2219 -1.3989 -0.6607
 6430SOL     OW30751   0.640   0.512   2.060  0.3584  0.0245  0.1143
 6430SOL    HW130752   0.570   0.467   2.013  0.3560 -1.7809  1.8037
 6430SOL    HW230753   0.698   0.436   2.069 -1.0770 -0.9937  0.6654
 6431SOL     OW30754   2.817   1.664   0.292 -0.2236  0.5678 -0.1126
 6431SOL    HW130755   2.748   1.600   0.276  1.5042 -0.8616 -1.8536
 6431SOL    HW230756   2.782   1.745   0.253  2.0299  2.0401  0.9173
 6432SOL     OW30757   1.527   4.177   6.253 -0.2908 -0.0290  0.9418
 6432SOL    HW130758   1.578   4.249   6.290 -2.3207  2.2067 -0.6225
 6432SOL    HW230759   1.544   4.195   6.160  0.5124 -3.0661  0.5005
 6433SOL     OW30760   4.520   4.136   3.748  0.2961 -0.0422  0.3458
 6433SOL    HW130761   4.490   4.177   3.829 -1.1021 -0.5867  0.1102
 6433SOL    HW230762   4.556   4.210   3.700  0.0042  0.9461  1.6757
 6434SOL     OW30763   3.156   0.829   5.218 -0.5403 -0.2404  0.1738
 6434SOL    HW130764   3.231   0.774   5.198 -0.0695  0.1873  0.7582
 6434SOL    HW230765   3.206   0.883   5.279 -0.6628 -0.9397  0.8883
 6435SOL     OW30766   2.999   3.481   8.663 -0.2425 -0.8411 -0.0306
 6435SOL    HW130767   3.014   3.498   8.570  1.1182 -0.7663  0.2015
 6435SOL    HW230768   3.010   3.387   8.674 -0.3322 -0.8542 -0.0553
 6436SOL     OW30769   2.119   4.213   8.685  0.5608  0.1329  0.0997
 6436SOL    HW130770   2.148   4.175   8.602 -2.8538 -0.4165 -0.8261
 6436SOL    HW230771   2.052   4.148   8.708 -0.8250  1.1555 -1.0055
 6437SOL     OW30772   0.325   3.788   6.741 -0.5011 -0.5993 -0.2937
 6437SOL    HW130773   0.241   3.811   6.780 -0.4583  2.1196 -1.8019
 6437SOL    HW230774   0.372   3.854   6.793 -2.2232  0.4152 -0.0485
 6438SOL     OW30775   2.626   0.782   3.111 -0.1597 -0.5992  0.8019
 6438SOL    HW130776   2.693   0.757   3.175  2.6239 -2.2491 -2.7672
 6438SOL    HW230777   2.617   0.877   3.115  1.8815 -0.3698  0.0496
 6439SOL     OW30778   3.027   2.945   2.450 -0.0083  0.4371 -0.6894
 6439SOL    HW130779   3.096   2.968   2.512  0.2569 -1.3774 -0.3163
 6439SOL    HW230780   3.082   2.925   2.375  2.0711 -0.0321  0.9514
 6440SOL     OW30781   3.432   2.147   7.538  0.1675  0.5246 -0.6132
 6440SOL    HW130782   3.429   2.082   7.609  1.4393 -0.4055 -1.4195
 6440SOL    HW230783   3.509   2.200   7.557  0.0563  0.2902  0.5498
 6441SOL     OW30784   3.127   4.400   6.722  0.7093 -0.6112  0.2442
 6441SOL    HW130785   3.189   4.438   6.659  2.3180 -0.5519  1.8588
 6441SOL    HW230786   3.141   4.450   6.803 -1.8545 -0.8633  0.8451
 6442SOL     OW30787   1.462   1.214   9.017  0.0054  0.0051  0.2518
 6442SOL    HW130788   1.468   1.218   9.113  0.1134  2.0528  0.1723
 6442SOL    HW230789   1.367   1.210   9.008  0.3025 -2.4758 -1.4890
 6443SOL     OW30790   2.572   0.110  12.570  0.2825  0.0115  0.1074
 6443SOL    HW130791   2.614   0.160  12.640 -0.6741  1.2255 -0.1867
 6443SOL    HW230792   2.488   0.105  12.617 -1.6577  0.2290 -3.3832
 6444SOL     OW30793   3.188   1.070   0.983  0.0459 -0.1251 -0.0891
 6444SOL    HW130794   3.217   1.046   0.894  0.2453 -0.5309  0.0847
 6444SOL    HW230795   3.267   1.114   1.013 -0.1377 -0.7987  1.3682
 6445SOL     OW30796   1.674   3.866   8.833  0.3558 -0.0241  0.4145
 6445SOL    HW130797   1.718   3.951   8.842 -0.0036  0.3271 -1.1192
 6445SOL    HW230798   1.648   3.881   8.742  2.6883  0.8843 -0.1071
 6446SOL     OW30799   4.648   4.252   7.040  0.1029 -0.0215  0.1589
 6446SOL    HW130800   4.646   4.343   7.069  1.7450  0.1251 -0.1857
 6446SOL    HW230801   0.025   4.235   7.033 -0.0362 -0.3285 -0.9466
 6447SOL     OW30802   0.397   0.939  13.695 -0.2179 -0.0297  0.4408
 6447SOL    HW130803   0.402   1.016  13.751  0.9692  0.7084 -0.6844
 6447SOL    HW230804   0.308   0.910  13.715 -0.7621  0.6204 -1.0157
 6448SOL     OW30805   3.595   1.525  16.493 -0.1332  0.1693 -0.8015
 6448SOL    HW130806   3.614   1.552  16.583  0.3377  0.0757 -0.8758
 6448SOL    HW230807   3.552   1.605  16.461 -4.2085 -1.3780  0.8225
 6449SOL     OW30808   2.163   2.285   2.482 -0.0756 -0.3383  0.4271
 6449SOL    HW130809   2.159   2.305   2.575  0.4119  0.7892  0.1969
 6449SOL    HW230810   2.069   2.273   2.467 -0.2672  0.6321  0.8302
 6450SOL     OW30811   0.576   1.878  12.139  0.3546  0.5174  0.3999
 6450SOL    HW130812   0.572   1.889  12.233 -3.1451  1.2634  0.1594
 6450SOL    HW230813   0.524   1.953  12.112  1.4067  0.9765 -0.3675
 6451SOL     OW30814   4.163   1.184   5.972  0.1653 -0.3938 -0.4544
 6451SOL    HW130815   4.196   1.203   6.060 -0.6477  0.3230 -0.3118
 6451SOL    HW230816   4.249   1.178   5.930  0.7540  0.1056  0.6881
 6452SOL     OW30817   2.733   3.771   7.469  0.6065  0.0323  0.2485
 6452SOL    HW130818   2.731   3.685   7.511  0.4780  0.2860  0.7569
 6452SOL    HW230819   2.640   3.787   7.453  0.8547  1.0693 -0.1107
 6453SOL     OW30820   2.918   4.704  10.233 -0.6591  0.0640 -0.0222
 6453SOL    HW130821   2.918   0.024  10.145  2.6008  1.5507  0.6175
 6453SOL    HW230822   2.984   0.039  10.279 -0.7294 -2.1319  2.6364
 6454SOL     OW30823   4.073   2.534   7.849  0.4866 -0.7290  0.2454
 6454SOL    HW130824   3.999   2.593   7.832  1.6791  1.2109  1.8199
 6454SOL    HW230825   4.098   2.509   7.760  0.7403  0.5376 -0.0358
 6455SOL     OW30826   2.433   3.369   6.217  0.3392  0.2342 -0.0822
 6455SOL    HW130827   2.488   3.438   6.254 -2.9265  1.6332  2.0497
 6455SOL    HW230828   2.500   3.302   6.199  0.1930  0.0805 -0.0498
 6456SOL     OW30829   1.617   1.523   0.791  0.1350  0.5083 -0.2361
 6456SOL    HW130830   1.589   1.451   0.848  0.0964  1.0805  0.4724
 6456SOL    HW230831   1.619   1.596   0.853  0.7098 -1.4976  2.1285
 6457SOL     OW30832   3.013   2.645   6.361 -0.1676  0.1375 -0.0554
 6457SOL    HW130833   3.001   2.625   6.453 -1.0740 -1.2307 -0.4625
 6457SOL    HW230834   2.944   2.703   6.331 -0.6826 -1.6655 -2.3587
 6458SOL     OW30835   2.184   2.089  17.076 -0.4608 -0.2355  0.4770
 6458SOL    HW130836   2.251   2.108  17.011  0.2832 -3.3650  0.2951
 6458SOL    HW230837   2.227   2.120  17.155  2.5829 -0.8848 -0.9282
 6459SOL     OW30838   2.888   4.075   9.830 -0.1169 -0.0599 -0.5904
 6459SOL    HW130839   2.914   4.164   9.850  2.2759 -0.8230 -0.3461
 6459SOL    HW230840   2.796   4.097   9.816 -0.4390 -1.8997 -1.3218
 6460SOL     OW30841   4.289   3.151   5.505 -0.8768  0.3812 -0.3919
 6460SOL    HW130842   4.225   3.104   5.559  1.0294 -2.0389 -0.2402
 6460SOL    HW230843   4.229   3.199   5.448  0.2683 -0.0102 -1.9054
 6461SOL     OW30844   2.759   3.317   9.589  0.2548 -0.0318 -0.1289
 6461SOL    HW130845   2.847   3.350   9.574 -0.1604  1.5591  0.9969
 6461SOL    HW230846   2.707   3.382   9.542  0.3010  0.9452  1.1849
 6462SOL     OW30847   4.495   4.568   9.100 -0.2691  0.0634 -0.1872
 6462SOL    HW130848   4.444   4.615   9.034  0.3979  0.1838 -0.6149
 6462SOL    HW230849   4.472   4.611   9.182 -1.5664  2.5727 -1.8740
 6463SOL     OW30850   4.674   1.023   9.183 -0.0360  0.4897 -0.2452
 6463SOL    HW130851   4.640   0.938   9.159  0.5742  0.5403 -1.3008
 6463SOL    HW230852   0.048   0.996   9.174  0.1148  1.2270 -0.9994
 6464SOL     OW30853   3.038   0.503   6.685 -0.3311 -0.0522 -0.2731
 6464SOL    HW130854   3.104   0.511   6.754  1.4568  0.7596 -2.0709
 6464SOL    HW230855   2.966   0.545   6.731 -0.7476 -1.6373  0.5326
 6465SOL     OW30856   4.110   2.133   8.306 -0.4715  0.5370  0.5886
 6465SOL    HW130857   4.164   2.154   8.230 -0.2601  0.8029  0.8122
 6465SOL    HW230858   4.022   2.109   8.278 -0.7719 -0.1313  2.0852
 6466SOL     OW30859   1.655   4.356  16.571  0.4022  0.0642  0.4755
 6466SOL    HW130860   1.718   4.313  16.514 -0.3398 -0.6000  0.1563
 6466SOL    HW230861   1.574   4.322  16.534  0.9171 -0.3891 -0.2347
 6467SOL     OW30862   3.555   0.816  12.947  0.8174  0.2195  0.1768
 6467SOL    HW130863   3.591   0.817  12.858 -1.1935 -1.3470 -0.6534
 6467SOL    HW230864   3.609   0.884  12.988  2.8753 -0.4387 -1.4010
 6468SOL     OW30865   2.718   2.985   4.269 -0.3138 -0.2163 -0.1883
 6468SOL    HW130866   2.643   3.031   4.231 -0.2912 -1.4086 -1.6971
 6468SOL    HW230867   2.687   2.894   4.263  2.5941 -0.9915 -3.3083
 6469SOL     OW30868   0.584   2.089   6.771  0.1137  0.3452 -0.4946
 6469SOL    HW130869   0.523   2.019   6.796 -1.0315  1.7314  0.5963
 6469SOL    HW230870   0.640   2.043   6.709 -1.4281 -1.6535 -0.3952
 6470SOL     OW30871   0.537   3.213   3.055 -0.0405 -0.0675  0.1907
 6470SOL    HW130872   0.588   3.216   2.974  0.3635 -0.3148  0.4353
 6470SOL    HW230873   0.507   3.304   3.049  0.9524  0.1808 -0.9961
 6471SOL     OW30874   3.201   2.622   1.876  0.0341 -0.1820 -0.1706
 6471SOL    HW130875   3.120   2.630   1.826 -1.5047 -1.5417  2.1366
 6471SOL    HW230876   3.256   2.680   1.823  0.5309 -0.5203 -0.0292
 6472SOL     OW30877   2.676   3.362   3.167  0.2606 -0.6919  0.1624
 6472SOL    HW130878   2.712   3.277   3.192  1.2837  0.4322  2.4742
 6472SOL    HW230879   2.718   3.376   3.083 -1.1409 -0.5341 -0.5068
 6473SOL     OW30880   1.917   3.397   5.193  0.0335 -0.5367  0.1510
 6473SOL    HW130881   1.848   3.462   5.177  0.8596  0.7324  1.7917
 6473SOL    HW230882   1.908   3.363   5.282  2.0776 -1.1622  0.1138
 6474SOL     OW30883   1.394   2.339  17.181  0.0391 -0.0830  0.1795
 6474SOL    HW130884   1.345   2.277  17.235 -0.0635 -0.1576  0.0006
 6474SOL    HW230885   1.384   2.420  17.232 -2.3685 -0.2996  0.0171
 6475SOL     OW30886   0.104   3.147  16.110 -0.6557  0.4573  0.4321
 6475SOL    HW130887   0.163   3.072  16.098 -1.0213  0.1635  0.4817
 6475SOL    HW230888   0.164   3.219  16.090 -0.3227 -0.6635 -2.7063
 6476SOL     OW30889   4.681   1.514   9.511  0.6415  0.0174 -0.0838
 6476SOL    HW130890   4.651   1.605   9.499  0.2038  0.1018  1.6997
 6476SOL    HW230891   0.010   1.512   9.595 -1.0782 -0.9597  0.8354
 6477SOL     OW30892   0.796   3.954   6.532  0.6588 -0.0198 -0.3728
 6477SOL    HW130893   0.726   3.891   6.549 -0.8269  1.3641 -1.2564
 6477SOL    HW230894   0.864   3.894   6.561  0.5975 -0.3124 -0.8434
 6478SOL     OW30895   1.306   0.706   9.504  0.2669 -0.6137 -0.5054
 6478SOL    HW130896   1.267   0.623   9.529 -1.9555  0.5880  0.0663
 6478SOL    HW230897   1.400   0.690   9.517  0.2920 -1.1415 -1.3612
 6479SOL     OW30898   3.664   1.943   2.783  0.2264 -0.3592  0.1263
 6479SOL    HW130899   3.753   1.957   2.816  0.0367 -0.3891  0.6562
 6479SOL    HW230900   3.656   2.029   2.743  1.1837 -0.0887  0.4978
 6480SOL     OW30901   2.631   3.901  12.022 -0.9312 -0.0572  0.5614
 6480SOL    HW130902   2.639   3.996  12.015 -2.2670 -0.1675 -2.3216
 6480SOL    HW230903   2.536   3.896  12.013 -0.8233  0.6188 -0.9683
 6481SOL     OW30904   0.403   2.214  14.488  0.5122 -0.0412  0.2935
 6481SOL    HW130905   0.361   2.299  14.472 -1.5371 -0.6535  2.2741
 6481SOL    HW230906   0.460   2.240  14.561  0.2336  1.8112 -0.1340
 6482SOL     OW30907   3.352   2.165   9.368 -0.5489 -0.1370  0.5362
 6482SOL    HW130908   3.362   2.254   9.332 -2.9405 -0.4718 -0.9301
 6482SOL    HW230909   3.387   2.163   9.457  0.3942  0.6907  0.1901
 6483SOL     OW30910   0.298   4.558  13.846 -0.2041 -0.7176 -0.0347
 6483SOL    HW130911   0.349   4.633  13.877 -0.2493 -0.5704 -0.3219
 6483SOL    HW230912   0.285   4.577  13.753  1.2611 -2.0454 -0.5011
 6484SOL     OW30913   2.493   2.395   8.372 -0.0150 -0.0941  0.0182
 6484SOL    HW130914   2.512   2.485   8.344 -0.4334  0.5225  1.6747
 6484SOL    HW230915   2.554   2.390   8.446  0.1994 -0.5665 -0.1943
 6485SOL     OW30916   1.194   1.177   9.020 -0.0275  0.3338 -0.0359
 6485SOL    HW130917   1.163   1.110   8.959 -0.3061 -0.8072  1.3706
 6485SOL    HW230918   1.136   1.250   8.998  1.2274  1.4103  0.2490
 6486SOL     OW30919   1.214   1.272   8.573  0.5730  0.2961 -0.1908
 6486SOL    HW130920   1.266   1.220   8.635  0.1844  1.4869  1.1230
 6486SOL    HW230921   1.191   1.343   8.632 -0.6699 -0.5425  0.3369
 6487SOL     OW30922   4.050   1.490   1.352 -0.3829  0.2496  0.3531
 6487SOL    HW130923   4.032   1.472   1.444  0.5655  2.1901  0.9177
 6487SOL    HW230924   3.993   1.427   1.307  0.3041  0.9867 -1.5521
 6488SOL     OW30925   3.639   0.309   7.364 -0.3644  0.7027  0.5010
 6488SOL    HW130926   3.685   0.307   7.281 -1.6344  0.2561 -0.1922
 6488SOL    HW230927   3.674   0.392   7.397  1.8400  0.4848 -1.3398
 6489SOL     OW30928   3.526   3.320   5.640  0.3090 -0.0133  0.3040
 6489SOL    HW130929   3.575   3.277   5.710 -0.0835 -2.0181 -0.6584
 6489SOL    HW230930   3.505   3.402   5.685  0.0346 -0.0375  0.2240
 6490SOL     OW30931   2.634   3.703   6.564  0.1635 -0.3518  0.3143
 6490SOL    HW130932   2.680   3.624   6.594 -1.3540 -2.6176 -3.2086
 6490SOL    HW230933   2.638   3.765   6.636 -0.4059  0.6113 -0.4869
 6491SOL     OW30934   0.289   0.125  13.274  0.1141  0.0300  0.1928
 6491SOL    HW130935   0.332   0.200  13.235  1.3569 -1.0334 -0.4737
 6491SOL    HW230936   0.348   0.106  13.347  0.0896  2.1375  0.7652
 6492SOL     OW30937   2.223   0.421   6.180 -0.0329 -0.5558 -0.4402
 6492SOL    HW130938   2.241   0.366   6.256 -0.3508  0.4171  0.3445
 6492SOL    HW230939   2.270   0.374   6.111 -0.2716  0.3087 -1.1867
 6493SOL     OW30940   3.146   1.807   0.794  0.3060  0.0620 -0.3794
 6493SOL    HW130941   3.057   1.796   0.763 -0.0180  0.0718  0.5520
 6493SOL    HW230942   3.188   1.728   0.761  0.5376 -0.4540  1.1209
 6494SOL     OW30943   3.037   2.495  13.694  0.1282  0.3567  0.0859
 6494SOL    HW130944   3.124   2.470  13.661 -0.6289 -0.3290 -1.3905
 6494SOL    HW230945   3.051   2.549  13.771 -0.1204 -0.3049  0.5975
 6495SOL     OW30946   1.316   0.391  12.274 -0.0698  0.2231  0.2910
 6495SOL    HW130947   1.317   0.399  12.178 -2.2068  1.1489  0.3516
 6495SOL    HW230948   1.409   0.411  12.286 -0.2481  0.8889  0.5129
 6496SOL     OW30949   3.540   3.232   3.388 -0.1556  0.4710 -0.0490
 6496SOL    HW130950   3.605   3.212   3.456 -0.9789 -0.8274  0.3481
 6496SOL    HW230951   3.461   3.249   3.438 -3.1273 -2.4182 -3.7941
 6497SOL     OW30952   4.034   1.891   4.092 -0.1883  0.2833  0.8812
 6497SOL    HW130953   4.123   1.923   4.109 -0.0554  0.0025  0.7158
 6497SOL    HW230954   3.984   1.953   4.144  3.0668  2.7073  1.1577
 6498SOL     OW30955   3.774   3.510  10.278 -0.5285  0.5669 -0.3715
 6498SOL    HW130956   3.791   3.590  10.328  1.3265 -1.7118  2.6562
 6498SOL    HW230957   3.851   3.503  10.222  1.3822  1.7340  2.1237
 6499SOL     OW30958   2.300   3.674   3.479  0.0399  0.1806 -0.3794
 6499SOL    HW130959   2.211   3.666   3.444  0.0056 -0.1736 -0.2165
 6499SOL    HW230960   2.291   3.766   3.503 -1.0074 -0.3661  1.3736
 6500SOL     OW30961   3.836   4.159  16.796 -0.2324  0.1048 -0.5545
 6500SOL    HW130962   3.814   4.077  16.753  0.9417 -2.0795  3.0196
 6500SOL    HW230963   3.864   4.215  16.724  1.4611  1.0235  0.8031
 6501SOL     OW30964   1.195   0.565   6.016  0.1224 -0.1387 -0.2506
 6501SOL    HW130965   1.155   0.640   6.060  1.3419  0.8732 -0.8462
 6501SOL    HW230966   1.280   0.603   5.994 -0.9019  2.3388  0.0042
 6502SOL     OW30967   4.037   2.760   1.814  0.5720 -0.1941  0.3898
 6502SOL    HW130968   3.987   2.815   1.875  2.2518  0.5259  1.1293
 6502SOL    HW230969   4.070   2.697   1.879  2.1985 -1.4094 -1.6318
 6503SOL     OW30970   4.572   4.023   3.502 -0.3646 -0.7967  0.3767
 6503SOL    HW130971   4.584   4.110   3.539  0.2902 -1.2019  1.0977
 6503SOL    HW230972   4.583   3.961   3.574  1.5942 -1.2519 -0.3020
 6504SOL     OW30973   3.042   0.677  11.331  0.6986 -0.3085 -0.5855
 6504SOL    HW130974   3.028   0.619  11.256 -1.8221 -1.5086  0.8159
 6504SOL    HW230975   3.016   0.761  11.292  1.1568  0.2543  0.3204
 6505SOL     OW30976   2.517   4.453   5.264 -0.4959  0.0526  0.1609
 6505SOL    HW130977   2.434   4.406   5.273  0.5165 -1.8823 -0.4963
 6505SOL    HW230978   2.576   4.381   5.284  0.5366  1.4065  1.9218
 6506SOL     OW30979   4.684   2.259  11.175 -0.4314 -0.1008  0.0657
 6506SOL    HW130980   4.600   2.223  11.146 -1.2706  0.5311  1.7168
 6506SOL    HW230981   0.031   2.209  11.124  1.7856  1.9125  0.9356
 6507SOL     OW30982   2.744   2.085   0.237 -0.0117  0.3202  0.6578
 6507SOL    HW130983   2.765   2.049   0.324  0.7915 -0.2524  0.2357
 6507SOL    HW230984   2.667   2.130   0.271 -0.6397 -0.2446  0.0016
 6508SOL     OW30985   1.348   2.725   5.829  0.1154  0.4075  0.0363
 6508SOL    HW130986   1.437   2.761   5.833 -0.3719  1.6200 -0.0933
 6508SOL    HW230987   1.326   2.780   5.753  1.4563  2.9243  1.4803
 6509SOL     OW30988   2.328   0.119   8.542  0.1125 -0.0931  0.4044
 6509SOL    HW130989   2.233   0.117   8.533  0.1224  1.0173  0.0220
 6509SOL    HW230990   2.336   0.121   8.638  0.2577  2.0974  0.3567
 6510SOL     OW30991   2.869   1.949  13.418  0.1023 -0.5948  0.2168
 6510SOL    HW130992   2.890   1.923  13.507 -0.7861  1.5840  1.0751
 6510SOL    HW230993   2.921   2.029  13.415  0.3365 -0.7829 -0.6185
 6511SOL     OW30994   3.732   3.856  17.250  0.0516 -0.2163  0.1207
 6511SOL    HW130995   3.752   3.771  17.210 -0.7420 -0.4147  0.1301
 6511SOL    HW230996   3.799   3.909  17.207 -1.4799  0.4309 -1.5199
 6512SOL     OW30997   0.852   0.216   5.462  0.1887 -0.7549 -0.2023
 6512SOL    HW130998   0.947   0.228   5.469  0.3546 -1.7577 -0.6797
 6512SOL    HW230999   0.821   0.235   5.550  2.2818  0.3984  0.2871
 6513SOL     OW31000   0.749   3.577  10.121  0.2540  0.2812  0.3146
 6513SOL    HW131001   0.840   3.601  10.138  0.7125 -0.6211 -0.8533
 6513SOL    HW231002   0.718   3.659  10.083 -0.1910 -0.6882 -1.4230
 6514SOL     OW31003   1.113   2.419   3.631  0.6860 -0.3793  0.4378
 6514SOL    HW131004   1.158   2.465   3.560 -2.4051  0.8351 -0.7277
 6514SOL    HW231005   1.179   2.355   3.658  1.9225  1.5665  1.9627
 6515SOL     OW31006   2.703   2.940  10.369 -0.3445  0.6651 -0.0583
 6515SOL    HW131007   2.611   2.914  10.374  0.0529 -1.1408 -1.8668
 6515SOL    HW231008   2.714   3.012  10.431  1.0736 -0.1447  0.6132
 6516SOL     OW31009   2.551   0.116   7.889  0.3799  0.4045 -0.0109
 6516SOL    HW131010   2.614   0.141   7.957  1.5890  1.0915 -1.3784
 6516SOL    HW231011   2.564   0.196   7.838  0.5534 -0.1963 -0.9124
 6517SOL     OW31012   0.314   1.491   9.376  0.0586 -0.4842  0.2071
 6517SOL    HW131013   0.337   1.465   9.286 -1.7450  0.9884 -0.6925
 6517SOL    HW231014   0.354   1.426   9.434 -1.7445  0.3392  2.3705
 6518SOL     OW31015   0.351   2.432   6.090  0.7250  0.2317 -0.0420
 6518SOL    HW131016   0.366   2.412   6.183 -0.5623 -0.4819  0.0053
 6518SOL    HW231017   0.406   2.510   6.081  0.0315  0.8258  0.9371
 6519SOL     OW31018   0.940   1.161  12.947 -0.1120  0.2789  0.0932
 6519SOL    HW131019   0.914   1.251  12.965  1.1732  1.0929 -2.1142
 6519SOL    HW231020   0.850   1.129  12.957 -0.5735  1.6323  0.2855
 6520SOL     OW31021   4.435   2.209   4.297 -0.6988  0.6307  0.0203
 6520SOL    HW131022   4.419   2.303   4.302 -2.0327  0.4206 -0.4356
 6520SOL    HW231023   4.530   2.202   4.289 -0.8857  0.0636 -1.7323
 6521SOL     OW31024   2.575   4.193   7.762  0.2404  0.3984  0.0821
 6521SOL    HW131025   2.564   4.099   7.772  1.6772  0.1398 -0.7299
 6521SOL    HW231026   2.504   4.224   7.818 -1.2277 -2.2208 -0.3387
 6522SOL     OW31027   1.880   3.575   0.564  0.5864 -0.1980 -0.4610
 6522SOL    HW131028   1.842   3.662   0.574 -0.7731 -0.7797 -0.4934
 6522SOL    HW231029   1.796   3.531   0.553 -0.5361  2.4993 -2.6923
 6523SOL     OW31030   0.471   1.101  13.333  0.2848 -1.1817  0.0438
 6523SOL    HW131031   0.401   1.044  13.301 -1.1060 -0.2479  1.4391
 6523SOL    HW231032   0.434   1.160  13.398  0.5121 -0.0372 -0.8809
 6524SOL     OW31033   1.274   2.903  16.719  0.8029  0.0363 -0.1557
 6524SOL    HW131034   1.340   2.843  16.755  0.7645  1.0005  1.4900
 6524SOL    HW231035   1.219   2.917  16.796 -1.5348 -1.0794 -1.6086
 6525SOL     OW31036   3.454   2.656  16.761  0.1479  0.1728 -0.0685
 6525SOL    HW131037   3.531   2.655  16.704 -0.9139  1.3983 -1.5219
 6525SOL    HW231038   3.436   2.750  16.771  1.2579  0.2677  1.0868
 6526SOL     OW31039   0.780   3.019  10.270 -0.2046 -0.0017  0.0231
 6526SOL    HW131040   0.752   3.054  10.355 -0.7389 -0.2918 -0.0311
 6526SOL    HW231041   0.876   3.019  10.268 -0.2087  1.7364  0.2562
 6527SOL     OW31042   4.560   1.125   1.940  0.6099 -0.6305  0.0080
 6527SOL    HW131043   4.503   1.201   1.945  0.2890 -0.7531 -2.0414
 6527SOL    HW231044   4.600   1.128   1.854  0.4738 -2.3243 -0.1104
 6528SOL     OW31045   4.267   0.311   3.015  0.4284 -0.1536 -0.2576
 6528SOL    HW131046   4.299   0.327   3.103 -3.0053  0.2114  0.9451
 6528SOL    HW231047   4.317   0.375   2.965  0.8599  0.5171  1.0285
 6529SOL     OW31048   3.734   0.453  10.888  0.1416 -0.5295 -0.4037
 6529SOL    HW131049   3.760   0.438  10.979 -0.7942 -1.7193 -0.3230
 6529SOL    HW231050   3.645   0.417  10.888 -0.2154  0.3570 -1.2217
 6530SOL     OW31051   3.798   3.861   3.043  0.1844  0.0176  0.1001
 6530SOL    HW131052   3.806   3.766   3.032 -0.6795 -0.5069  4.1965
 6530SOL    HW231053   3.855   3.888   2.971 -2.5306 -0.3870 -2.2228
 6531SOL     OW31054   3.524   3.997  10.447 -0.2142 -0.1726  0.2527
 6531SOL    HW131055   3.481   3.958  10.524  0.5298 -0.1730  0.6753
 6531SOL    HW231056   3.493   3.934  10.382 -0.2534 -0.0097  0.1155
 6532SOL     OW31057   0.991   3.103  10.766 -0.5768 -0.2331 -0.5473
 6532SOL    HW131058   0.935   3.031  10.736 -0.7076  0.3188 -1.6085
 6532SOL    HW231059   1.072   3.067  10.802 -0.8456 -0.7439 -0.4559
 6533SOL     OW31060   3.994   1.851  11.261  0.0881  0.2810 -0.2722
 6533SOL    HW131061   3.921   1.790  11.254 -0.5241  1.0520 -0.5794
 6533SOL    HW231062   3.943   1.926  11.233 -1.4802 -0.9142 -0.5936
 6534SOL     OW31063   3.701   2.764   2.317  0.6002  0.0844  0.1617
 6534SOL    HW131064   3.779   2.814   2.294 -0.0560  0.7469 -0.5938
 6534SOL    HW231065   3.733   2.681   2.354 -1.1848 -0.3111  0.8501
 6535SOL     OW31066   1.796   4.636   5.439  0.6174  0.6245 -0.0665
 6535SOL    HW131067   1.789   4.542   5.425  2.2351  0.8054 -2.0114
 6535SOL    HW231068   1.862   4.646   5.371 -0.4570  3.9708 -0.6442
 6536SOL     OW31069   4.568   2.972   7.933 -0.2613  0.0538 -0.5689
 6536SOL    HW131070   4.624   3.003   8.005  0.6592  0.8522 -1.6269
 6536SOL    HW231071   4.547   2.881   7.953 -2.5659  0.2592 -2.0464
 6537SOL     OW31072   4.459   1.621   8.321  0.4601  0.0730  0.3501
 6537SOL    HW131073   4.514   1.550   8.355  1.1429 -0.3853 -1.7343
 6537SOL    HW231074   4.458   1.680   8.396  4.3948  0.8936 -0.2569
 6538SOL     OW31075   1.524   0.475   4.587  0.0090 -0.1097  0.3203
 6538SOL    HW131076   1.482   0.521   4.660 -0.1831  0.0057  0.1403
 6538SOL    HW231077   1.493   0.504   4.501 -0.3442 -1.4475 -0.0035
 6539SOL     OW31078   3.554   4.654   2.507  0.1650  0.0451 -0.9721
 6539SOL    HW131079   3.478   4.611   2.466 -0.3144  0.3370 -0.3843
 6539SOL    HW231080   3.615   4.645   2.433 -0.2533 -0.6790 -1.2268
 6540SOL     OW31081   3.351   0.633   7.978  0.8422  0.0381 -0.0745
 6540SOL    HW131082   3.427   0.611   7.924  0.2676  0.1542 -0.9260
 6540SOL    HW231083   3.400   0.678   8.047 -0.5911  0.8068  0.4496
 6541SOL     OW31084   0.570   4.117   1.216 -0.5811  0.2440 -0.2263
 6541SOL    HW131085   0.629   4.090   1.287  0.1272  1.9936 -0.1351
 6541SOL    HW231086   0.578   4.053   1.146 -0.1809  0.0241  0.0204
 6542SOL     OW31087   1.505   0.608   6.722  0.0994  0.4252 -0.6142
 6542SOL    HW131088   1.415   0.619   6.691 -0.2866  2.5609  1.2513
 6542SOL    HW231089   1.532   0.697   6.743 -0.5964  0.4742  0.0749
 6543SOL     OW31090   4.607   1.340  11.146  0.0228 -0.4759 -0.2055
 6543SOL    HW131091   4.687   1.357  11.097 -2.1161  1.9312 -2.8785
 6543SOL    HW231092   4.601   1.245  11.131 -0.8317 -0.2895 -1.0396
 6544SOL     OW31093   4.394   1.028   8.148 -0.2104 -0.3191  0.1196
 6544SOL    HW131094   4.341   1.092   8.197 -2.3048  0.8663 -3.6705
 6544SOL    HW231095   4.350   1.037   8.063  1.5858 -2.1077 -0.9793
 6545SOL     OW31096   0.162   0.356   4.001 -0.3406 -0.7657  0.2458
 6545SOL    HW131097   0.135   0.265   4.012  1.5663 -1.3965 -0.4655
 6545SOL    HW231098   0.150   0.385   4.091  3.7497  0.9946  0.1891
 6546SOL     OW31099   1.451   2.039   5.882  0.2931 -0.1933 -0.1051
 6546SOL    HW131100   1.479   1.949   5.866  3.3179  0.7402 -0.0951
 6546SOL    HW231101   1.505   2.063   5.957  0.3341 -0.5393 -0.0226
 6547SOL     OW31102   3.127   4.386   4.680  0.1470 -0.1737  0.0935
 6547SOL    HW131103   3.098   4.303   4.640  3.0172 -0.9431 -0.3521
 6547SOL    HW231104   3.048   4.397   4.733 -0.4583 -1.2253 -0.5799
 6548SOL     OW31105   0.729   3.599   5.929 -0.7189 -0.4080  0.0189
 6548SOL    HW131106   0.684   3.562   6.005 -1.2103 -0.8509 -0.4887
 6548SOL    HW231107   0.764   3.524   5.881  0.0611  1.2900 -2.0854
 6549SOL     OW31108   1.983   0.520  10.030  0.5304  0.4849 -0.0631
 6549SOL    HW131109   2.021   0.497  10.115 -1.2732 -2.1172  0.0544
 6549SOL    HW231110   1.934   0.596  10.060 -0.2045 -0.1987  0.4598
 6550SOL     OW31111   1.154   2.843  15.815 -0.0518 -0.5170 -0.4031
 6550SOL    HW131112   1.152   2.894  15.896 -0.3631 -2.0346  0.5270
 6550SOL    HW231113   1.062   2.819  15.800 -0.7374  3.6635 -3.0913
 6551SOL     OW31114   2.100   1.805  14.876 -0.1719 -0.5336  0.2608
 6551SOL    HW131115   2.046   1.731  14.849  0.9347 -0.9737 -0.7500
 6551SOL    HW231116   2.155   1.811  14.798 -1.7555  3.8571 -0.5208
 6552SOL     OW31117   2.324   4.562   1.921  0.6665 -0.3484  0.4374
 6552SOL    HW131118   2.252   4.553   1.984 -1.0196  1.4484 -1.2406
 6552SOL    HW231119   2.382   4.630   1.955  0.3320 -0.1915  0.7024
 6553SOL     OW31120   1.710   0.384   9.197  0.0294 -0.1495  0.8589
 6553SOL    HW131121   1.756   0.406   9.116  0.0168  3.5290  1.8456
 6553SOL    HW231122   1.678   0.469   9.225 -2.7259 -1.3953  1.4377
 6554SOL     OW31123   1.024   3.411   3.081  0.5275 -0.2674 -0.5722
 6554SOL    HW131124   0.962   3.421   3.153 -0.1015 -0.1640 -1.1354
 6554SOL    HW231125   1.104   3.373   3.118 -0.0375 -1.9970 -1.1349
 6555SOL     OW31126   1.884   2.287   6.088  0.3314  0.4245 -0.2058
 6555SOL    HW131127   1.896   2.301   5.994  0.0619  1.0459 -0.1482
 6555SOL    HW231128   1.947   2.216   6.099 -0.4660 -0.4771 -1.3631
 6556SOL     OW31129   1.723   0.292   1.370  0.1016 -0.4659  0.4556
 6556SOL    HW131130   1.643   0.330   1.334 -0.5154 -2.3272 -0.1476
 6556SOL    HW231131   1.762   0.256   1.291 -2.4651 -1.0145 -0.5631
 6557SOL     OW31132   2.909   0.840   2.307 -0.3012 -0.3575 -0.4670
 6557SOL    HW131133   2.922   0.814   2.398  0.8018  0.5485 -0.3610
 6557SOL    HW231134   2.847   0.910   2.328 -0.3954  0.0944 -2.1813
 6558SOL     OW31135   0.763   4.353   7.722 -0.0874 -0.3552 -0.0072
 6558SOL    HW131136   0.837   4.410   7.743  0.4331 -1.7014  1.7666
 6558SOL    HW231137   0.739   4.324   7.810  2.9443 -3.1969 -0.1591
 6559SOL     OW31138   0.577   3.078   7.040  0.5442  0.1781 -0.7736
 6559SOL    HW131139   0.589   3.172   7.034 -1.9836  0.4770 -0.8693
 6559SOL    HW231140   0.662   3.052   7.076  0.4218 -1.7568 -1.8705
 6560SOL     OW31141   2.064   1.439   0.661 -0.0877 -0.4878 -0.6616
 6560SOL    HW131142   1.977   1.397   0.661 -1.1703  1.7483 -1.5798
 6560SOL    HW231143   2.090   1.421   0.752 -0.2232  0.0341 -0.5181
 6561SOL     OW31144   4.701   2.562   9.443  0.7179 -0.0451  0.0691
 6561SOL    HW131145   4.655   2.626   9.498  0.5551  1.2643 -1.6066
 6561SOL    HW231146   4.674   2.478   9.481  0.0303  0.1930  0.1049
 6562SOL     OW31147   1.069   1.462  13.317 -0.2996 -0.0397 -0.0256
 6562SOL    HW131148   1.143   1.409  13.291  1.6179  2.2381  0.7420
 6562SOL    HW231149   1.003   1.413  13.365 -1.8409  0.0682 -2.0461
 6563SOL     OW31150   1.717   4.546   4.630 -0.3583  0.1156  0.1913
 6563SOL    HW131151   1.686   4.463   4.593 -2.6428  2.0759 -2.2726
 6563SOL    HW231152   1.668   4.535   4.712 -2.1653 -2.2272 -1.1883
 6564SOL     OW31153   3.229   3.110   5.413  0.4661 -0.1949 -0.0666
 6564SOL    HW131154   3.306   3.064   5.446  0.7771 -1.6351 -2.7698
 6564SOL    HW231155   3.173   3.033   5.402  1.6765 -1.1207  0.1789
 6565SOL     OW31156   4.182   1.507  12.676  0.2297  0.0159 -0.6631
 6565SOL    HW131157   4.117   1.452  12.631 -1.5703  0.6634  1.1471
 6565SOL    HW231158   4.236   1.442  12.721 -4.0666 -2.4196  1.0903
 6566SOL     OW31159   0.772   2.198   3.512 -0.0501 -0.5700 -0.0242
 6566SOL    HW131160   0.816   2.113   3.517 -0.4254 -0.7330  0.5873
 6566SOL    HW231161   0.816   2.224   3.594 -0.3175 -2.8339  0.8416
 6567SOL     OW31162   0.731   3.502  17.249 -0.1338  0.5746  0.5212
 6567SOL    HW131163   0.642   3.467  17.244  0.6130 -1.1617 -0.5757
 6567SOL    HW231164   0.716   3.581  17.301 -1.1858 -0.3130  1.5669
 6568SOL     OW31165   3.020   4.172   3.865  0.5091  0.0024 -0.0133
 6568SOL    HW131166   2.991   4.083   3.884  0.3476 -0.1975 -1.2096
 6568SOL    HW231167   2.966   4.224   3.925 -0.6723 -2.5682  1.1301
 6569SOL     OW31168   0.270   2.265   3.791 -0.7107  0.3960 -0.1665
 6569SOL    HW131169   0.182   2.291   3.761  0.0318  0.6339 -2.1352
 6569SOL    HW231170   0.280   2.185   3.740 -1.1676  1.8446 -2.5594
 6570SOL     OW31171   0.138   4.701  10.854 -0.1268 -0.0307 -0.3174
 6570SOL    HW131172   0.109   0.072  10.878  1.1497  0.7183 -1.5388
 6570SOL    HW231173   0.073   4.642  10.892  1.9326 -1.7922  0.4529
 6571SOL     OW31174   1.905   1.094   0.691 -0.4816 -0.1765  0.4539
 6571SOL    HW131175   1.966   1.147   0.742  1.3669 -1.8299 -0.0478
 6571SOL    HW231176   1.826   1.111   0.743 -1.1201 -3.1427  0.4564
 6572SOL     OW31177   0.637   4.550   0.376  0.1728  0.6599  0.3404
 6572SOL    HW131178   0.627   4.604   0.455 -1.3257 -0.6458  1.0474
 6572SOL    HW231179   0.692   4.605   0.321 -0.2280  0.3238 -0.3957
 6573SOL     OW31180   4.171   0.956   6.554 -0.5183  0.8147 -0.0375
 6573SOL    HW131181   4.264   0.976   6.552 -0.6584  1.4899  0.2211
 6573SOL    HW231182   4.181   0.889   6.622 -1.5298  1.1321  0.4289
 6574SOL     OW31183   2.222   2.203   3.476 -0.4192  0.3303  0.3313
 6574SOL    HW131184   2.181   2.255   3.407  0.3556 -0.7943 -0.9743
 6574SOL    HW231185   2.315   2.210   3.456 -0.7012  3.7322  0.2149
 6575SOL     OW31186   2.666   1.595   8.133  0.6809 -0.1411 -0.5277
 6575SOL    HW131187   2.616   1.607   8.052  1.2186  0.9941 -0.7004
 6575SOL    HW231188   2.598   1.595   8.200  0.0526  1.0078 -1.1716
 6576SOL     OW31189   1.347   3.729   7.341  0.2008 -0.2323 -0.4367
 6576SOL    HW131190   1.399   3.805   7.315 -2.0771  0.9229 -1.6267
 6576SOL    HW231191   1.368   3.670   7.268 -1.6073 -1.1355 -0.2227
 6577SOL     OW31192   0.111   1.842   2.959  0.1970  0.0745  0.1187
 6577SOL    HW131193   0.145   1.785   3.028  0.8808  1.1606  0.6713
 6577SOL    HW231194   0.181   1.907   2.950  1.8620 -1.4461  2.2247
 6578SOL     OW31195   1.076   1.389   3.631  0.1249  0.7714  0.3333
 6578SOL    HW131196   1.020   1.385   3.554 -0.5610  0.0369  0.8694
 6578SOL    HW231197   1.013   1.395   3.704 -1.2663 -2.0923 -0.6245
 6579SOL     OW31198   3.411   3.851   2.445  0.1827 -0.3218  0.4287
 6579SOL    HW131199   3.326   3.828   2.410 -0.4927 -2.2596  3.2851
 6579SOL    HW231200   3.453   3.765   2.442  1.0556  0.1004  0.5196
 6580SOL     OW31201   0.025   1.191   5.138  0.3533  0.1933 -0.7763
 6580SOL    HW131202   0.100   1.244   5.165 -1.1290  1.5005  0.8095
 6580SOL    HW231203   4.673   1.257   5.134 -0.5011 -0.6166  0.7767
 6581SOL     OW31204   4.652   2.908   7.692  0.5564 -0.2955  0.0354
 6581SOL    HW131205   4.641   2.923   7.786  2.2740  0.0035  0.1922
 6581SOL    HW231206   0.024   2.942   7.685  0.9348 -1.2366  0.1982
 6582SOL     OW31207   2.742   3.318   0.887 -0.2166  0.4177 -0.2976
 6582SOL    HW131208   2.683   3.286   0.955 -2.5405 -0.8066 -2.8990
 6582SOL    HW231209   2.725   3.257   0.816 -0.3570 -1.2366  1.1765
 6583SOL     OW31210   0.676   1.769  11.810  0.6504 -0.5199  0.3837
 6583SOL    HW131211   0.696   1.862  11.806  0.0297 -0.4726 -1.3959
 6583SOL    HW231212   0.709   1.740  11.895  0.7824  1.5631  1.0369
 6584SOL     OW31213   4.265   1.268   6.309 -0.4252 -0.8015 -0.8001
 6584SOL    HW131214   4.170   1.275   6.304 -0.2240  2.1497 -0.1528
 6584SOL    HW231215   4.283   1.185   6.263 -0.2535 -1.4530  0.4440
 6585SOL     OW31216   0.366   0.639   4.439  0.5474 -0.3799  0.1507
 6585SOL    HW131217   0.432   0.569   4.446  0.5639 -0.3801 -0.0023
 6585SOL    HW231218   0.410   0.681   4.365  1.5241 -0.1998  0.8250
 6586SOL     OW31219   3.308   2.543   7.207  0.3660  0.5225  0.1171
 6586SOL    HW131220   3.228   2.522   7.255  1.0502 -1.3327  0.4599
 6586SOL    HW231221   3.266   2.559   7.123 -0.5230  1.1416  0.6859
 6587SOL     OW31222   4.346   0.197   2.720  0.4320 -0.2311 -0.0945
 6587SOL    HW131223   4.362   0.171   2.811  0.7339  0.6459  0.1027
 6587SOL    HW231224   4.263   0.158   2.693  0.5907 -1.7201  1.5208
 6588SOL     OW31225   3.405   1.080   3.091 -0.4314 -0.7730  0.0921
 6588SOL    HW131226   3.378   1.064   3.001  0.0927 -1.6808  0.0989
 6588SOL    HW231227   3.386   0.992   3.124 -0.3674 -0.7573  0.1715
 6589SOL     OW31228   0.316   3.179  15.479 -0.5656  0.6386 -0.0176
 6589SOL    HW131229   0.379   3.110  15.502  2.0441  3.5428  1.5688
 6589SOL    HW231230   0.241   3.120  15.484  0.3702 -0.6749 -1.5804
 6590SOL     OW31231   3.613   1.915   5.499  0.6388  0.0168 -0.8417
 6590SOL    HW131232   3.622   1.896   5.593  1.1395 -0.4453 -0.9830
 6590SOL    HW231233   3.532   1.868   5.478  0.2712  0.0357  0.4641
 6591SOL     OW31234   3.646   4.102  17.592  0.0223  0.2065  0.0562
 6591SOL    HW131235   3.618   4.020  17.551  1.4809 -0.4988  0.4930
 6591SOL    HW231236   3.739   4.087  17.579  0.1641 -0.9163  2.4026
 6592SOL     OW31237   4.695   4.682  13.849  0.1191 -0.0379  0.2280
 6592SOL    HW131238   0.013   4.627  13.779 -0.5207 -0.4560  0.2304
 6592SOL    HW231239   4.605   4.704  13.823  1.4726  2.8099 -2.0610
 6593SOL     OW31240   2.965   4.063   5.196 -0.5735  0.5461  0.3281
 6593SOL    HW131241   3.006   4.033   5.277 -0.1777 -2.8227 -1.1133
 6593SOL    HW231242   2.885   4.010   5.198 -0.1714 -0.1004 -0.6454
 6594SOL     OW31243   2.276   0.937   2.600  0.0073 -0.2530  0.1529
 6594SOL    HW131244   2.318   0.975   2.523  2.3659 -0.8824  1.1355
 6594SOL    HW231245   2.321   0.982   2.672 -0.7704 -2.9760  2.3592
 6595SOL     OW31246   2.855   1.053   3.140  0.5681  0.5147  0.0386
 6595SOL    HW131247   2.779   1.055   3.198 -0.2225  0.1069 -0.9814
 6595SOL    HW231248   2.887   1.142   3.154  0.1080  0.6886 -0.0295
 6596SOL     OW31249   1.078   1.149   5.085 -0.1409  0.1204  0.2650
 6596SOL    HW131250   1.164   1.107   5.097 -0.3357 -0.6362 -0.9662
 6596SOL    HW231251   1.045   1.079   5.027 -0.6717  0.9422 -0.4182
 6597SOL     OW31252   4.213   3.380   3.234  0.2949  0.2072 -0.0048
 6597SOL    HW131253   4.243   3.291   3.254 -0.1281  0.2891  0.9943
 6597SOL    HW231254   4.123   3.352   3.216  0.8230 -0.5385 -1.4757
 6598SOL     OW31255   4.352   0.788   4.600  0.0305 -0.4474 -0.4416
 6598SOL    HW131256   4.275   0.808   4.547 -0.5623 -0.5470  0.3810
 6598SOL    HW231257   4.348   0.854   4.670 -0.9511 -0.3353 -0.5982
 6599SOL     OW31258   3.505   4.007   6.315  0.5913 -0.2791 -0.4611
 6599SOL    HW131259   3.549   4.088   6.338  0.4798 -0.4514  0.3642
 6599SOL    HW231260   3.433   3.996   6.378  1.0954 -0.9464  0.0092
 6600SOL     OW31261   2.929   1.141   2.239 -0.1007  0.4356 -0.4347
 6600SOL    HW131262   2.880   1.196   2.300  0.0091  1.8994 -1.6821
 6600SOL    HW231263   2.863   1.123   2.172 -1.3950 -0.3399  1.0387
 6601SOL     OW31264   4.617   1.697   2.939 -0.7960  0.4310  0.2037
 6601SOL    HW131265   4.676   1.773   2.940 -0.4278  0.1536 -0.0843
 6601SOL    HW231266   4.610   1.697   3.034 -0.1758  0.4220  0.2499
 6602SOL     OW31267   0.406   1.522   4.588 -0.1428  0.0444 -0.0162
 6602SOL    HW131268   0.407   1.608   4.545  1.8991  0.5870  1.1042
 6602SOL    HW231269   0.333   1.531   4.649  0.4938 -1.8985  1.0311
 6603SOL     OW31270   4.115   0.054   4.010  0.2828  0.2057  0.1748
 6603SOL    HW131271   4.085   0.064   4.101 -0.6683 -1.2903  0.0157
 6603SOL    HW231272   4.092   0.136   3.966  3.0571  1.2461  0.6616
 6604SOL     OW31273   3.367   0.263   9.117  0.2247  0.0415  0.0566
 6604SOL    HW131274   3.443   0.301   9.075 -0.9517  0.6385 -1.5333
 6604SOL    HW231275   3.356   0.194   9.051  1.2106 -1.7624  1.7665
 6605SOL     OW31276   2.056   4.626   2.794 -0.0933  0.0978 -0.1670
 6605SOL    HW131277   2.012   4.653   2.714  0.2255  0.8663 -0.0855
 6605SOL    HW231278   2.134   4.682   2.797 -1.2044  1.6084  0.6637
 6606SOL     OW31279   4.121   0.834   7.977 -0.0447 -0.1671 -0.1833
 6606SOL    HW131280   4.173   0.822   8.057  1.1952  2.2660 -0.6043
 6606SOL    HW231281   4.156   0.769   7.916  2.3253 -0.3360  1.3563
 6607SOL     OW31282   4.115   0.503  12.297  0.6267  0.2501  0.0171
 6607SOL    HW131283   4.053   0.523  12.367  0.5634  0.6278 -0.1424
 6607SOL    HW231284   4.053   0.479  12.228  0.0039  2.4570 -0.1917
 6608SOL     OW31285   1.998   1.999   3.013 -0.3633 -0.1642 -0.1211
 6608SOL    HW131286   2.047   1.926   2.974 -1.0122 -0.9650  0.5680
 6608SOL    HW231287   1.945   2.017   2.936 -1.6346  1.5027  1.1429
 6609SOL     OW31288   2.121   0.956  16.542 -0.2606  0.1736 -0.3184
 6609SOL    HW131289   2.093   0.875  16.585 -0.4505 -0.6045 -1.8972
 6609SOL    HW231290   2.038   0.989  16.507  0.0051 -1.4009 -2.4274
 6610SOL     OW31291   4.009   0.359   2.982  0.8142  0.4071  0.0617
 6610SOL    HW131292   4.031   0.450   3.002 -1.0137  0.9239 -0.2953
 6610SOL    HW231293   4.100   0.329   2.990  1.5811  2.1279 -2.3715
 6611SOL     OW31294   1.398   4.458   0.933 -0.5528  0.5794 -0.1481
 6611SOL    HW131295   1.427   4.445   1.023  0.9228 -1.3660 -0.8809
 6611SOL    HW231296   1.359   4.371   0.919 -1.4662  0.6213  2.2093
 6612SOL     OW31297   4.560   3.143   1.826 -0.3071 -0.0851 -0.2688
 6612SOL    HW131298   4.558   3.101   1.740 -1.3597  2.7658 -1.6430
 6612SOL    HW231299   4.474   3.187   1.826  0.1029  0.7210 -0.2206
 6613SOL     OW31300   2.545   1.346   7.426 -0.1830 -0.0741 -0.3570
 6613SOL    HW131301   2.541   1.397   7.345  4.1237  0.5365 -0.1935
 6613SOL    HW231302   2.640   1.337   7.418  0.1320  1.3737  1.9751
 6614SOL     OW31303   2.578   1.655   5.667  0.3429 -0.0722  0.1310
 6614SOL    HW131304   2.643   1.589   5.692  1.7005  1.1555 -0.1891
 6614SOL    HW231305   2.580   1.726   5.731  0.8033 -0.8693  1.0064
 6615SOL     OW31306   3.196   2.289   7.547 -0.2242  0.5768 -0.0591
 6615SOL    HW131307   3.251   2.215   7.524  0.9393  1.4594 -0.1230
 6615SOL    HW231308   3.265   2.346   7.582  0.1358 -0.0453  0.2502
 6616SOL     OW31309   3.549   1.964  16.948  0.0914  0.1459 -0.0017
 6616SOL    HW131310   3.566   1.987  17.040 -0.4207  0.7281 -0.0522
 6616SOL    HW231311   3.600   2.032  16.904  1.3715  0.0180  1.2742
 6617SOL     OW31312   2.857   0.062   9.937  0.5399 -0.2464 -0.3824
 6617SOL    HW131313   2.827   0.127   9.873 -1.9217  1.5476  2.5907
 6617SOL    HW231314   2.915   0.012   9.880  2.4072  0.2807  1.0442
 6618SOL     OW31315   1.409   4.057   4.921 -0.3665  0.2655  0.1776
 6618SOL    HW131316   1.435   3.970   4.951  0.6839  0.1407 -1.0942
 6618SOL    HW231317   1.357   4.040   4.842 -1.5115 -1.3404  1.2917
 6619SOL     OW31318   2.141   3.952   8.006  0.3996  0.0773 -0.4470
 6619SOL    HW131319   2.054   3.991   8.008 -0.5136 -1.9220 -0.5489
 6619SOL    HW231320   2.146   3.892   7.931 -0.8633 -0.6828  0.0828
 6620SOL     OW31321   3.566   1.214  17.134  0.1959  0.0052  0.2698
 6620SOL    HW131322   3.501   1.284  17.121 -0.6462 -1.1082 -1.5896
 6620SOL    HW231323   3.602   1.224  17.222 -1.7286  0.0795  1.0512
 6621SOL     OW31324   3.152   2.705  16.774  0.1767 -0.7517  0.2859
 6621SOL    HW131325   3.241   2.703  16.739  0.5921  1.9037  1.1644
 6621SOL    HW231326   3.105   2.777  16.733  1.0520  1.5197  3.2337
 6622SOL     OW31327   1.169   1.422   8.828 -0.5140 -0.2711  0.2867
 6622SOL    HW131328   1.100   1.485   8.807 -0.6153 -0.6382 -0.4737
 6622SOL    HW231329   1.221   1.474   8.889  0.3599 -0.4960 -0.2659
 6623SOL     OW31330   4.214   2.625   1.084  0.1716  0.2726 -0.5012
 6623SOL    HW131331   4.250   2.563   1.147 -0.8767  1.8211  1.6237
 6623SOL    HW231332   4.253   2.709   1.109  1.3702 -0.4101 -0.0730
 6624SOL     OW31333   0.173   3.993   5.658 -0.6075 -0.2292 -0.0255
 6624SOL    HW131334   0.256   3.992   5.610 -2.0446 -1.2766 -2.4785
 6624SOL    HW231335   0.109   3.986   5.587  0.7403 -1.3816 -1.1264
 6625SOL     OW31336   2.916   0.833   7.330 -0.4429  0.1114  0.3062
 6625SOL    HW131337   2.827   0.819   7.360 -0.2215  0.8922  1.3768
 6625SOL    HW231338   2.927   0.771   7.259 -2.2025 -1.2962  1.2681
 6626SOL     OW31339   0.915   0.663  16.537 -0.1631  0.3820 -0.2003
 6626SOL    HW131340   0.936   0.635  16.625  0.9231  0.7821 -0.3319
 6626SOL    HW231341   0.888   0.585  16.487 -0.9483  0.9673 -0.6942
 6627SOL     OW31342   2.647   0.189   9.283 -0.2869  0.0526 -0.1314
 6627SOL    HW131343   2.582   0.209   9.216 -1.9342  1.3335  1.8502
 6627SOL    HW231344   2.628   0.096   9.291  0.6837 -0.1671 -0.3641
 6628SOL     OW31345   0.981   3.552   0.323 -0.0978 -0.5119 -0.8620
 6628SOL    HW131346   1.014   3.587   0.406 -1.2312 -1.1711 -0.1273
 6628SOL    HW231347   1.029   3.469   0.320  0.5677 -0.3417  4.7807
 6629SOL     OW31348   1.183   0.015  10.208 -1.2204 -0.1388  0.3879
 6629SOL    HW131349   1.140   0.058  10.282 -1.3363 -0.1077  0.3028
 6629SOL    HW231350   1.142   0.067  10.139  0.4771 -2.5743 -2.4844
 6630SOL     OW31351   4.402   4.184  11.359  0.2710  0.3802  0.2816
 6630SOL    HW131352   4.397   4.264  11.411 -0.6782  0.3709  0.2125
 6630SOL    HW231353   4.383   4.215  11.271  0.3609  2.9007  1.1378
 6631SOL     OW31354   0.039   1.046   3.467 -0.2042  0.0290 -0.0912
 6631SOL    HW131355   4.666   1.068   3.490  0.0580  0.9723  0.0604
 6631SOL    HW231356   0.089   1.122   3.497  0.7419 -0.3446 -0.7359
 6632SOL     OW31357   3.024   2.324  12.584  0.3676 -0.5215  0.6778
 6632SOL    HW131358   3.106   2.374  12.578  2.3522 -3.7497  1.0422
 6632SOL    HW231359   3.048   2.268  12.657  0.6460  0.2682  1.1946
 6633SOL     OW31360   0.890   3.913  14.766  0.1159  0.3047 -0.1118
 6633SOL    HW131361   0.923   3.991  14.722 -0.2825  1.6391  1.9431
 6633SOL    HW231362   0.821   3.956  14.816  0.0271  0.8869 -0.7320
 6634SOL     OW31363   0.584   0.750  12.318  0.2530  0.5169  0.1139
 6634SOL    HW131364   0.489   0.739  12.319  0.1460  1.5095  0.5232
 6634SOL    HW231365   0.603   0.724  12.408 -1.2415  2.9018  1.1131
 6635SOL     OW31366   0.717   2.098   5.605 -0.5300 -0.0928 -0.0378
 6635SOL    HW131367   0.662   2.167   5.569  1.5168  1.3944 -0.3502
 6635SOL    HW231368   0.653   2.053   5.660 -0.1486 -0.6203 -0.0160
 6636SOL     OW31369   2.787   3.118   7.594  0.1133 -0.2586 -0.6703
 6636SOL    HW131370   2.857   3.164   7.546 -0.1885  0.3056 -0.5719
 6636SOL    HW231371   2.788   3.029   7.558 -1.1160 -0.9194  0.9514
 6637SOL     OW31372   1.639   1.614   6.704 -0.0125  0.2149  0.0863
 6637SOL    HW131373   1.563   1.616   6.646 -1.0894 -2.2404  1.4351
 6637SOL    HW231374   1.690   1.536   6.685 -1.1954 -0.1057 -1.7339
 6638SOL     OW31375   2.946   3.888   6.443 -0.1180 -1.0674  0.2290
 6638SOL    HW131376   2.991   3.813   6.484 -0.3397 -0.0416  2.3601
 6638SOL    HW231377   2.971   3.964   6.495  0.1740 -0.2738 -1.0966
 6639SOL     OW31378   0.881   1.971   8.769 -0.4645  0.9979 -0.9022
 6639SOL    HW131379   0.971   1.951   8.796 -0.5768  1.0889 -0.4569
 6639SOL    HW231380   0.830   1.903   8.814 -0.7287 -0.3973 -3.3203
 6640SOL     OW31381   4.557   3.092  11.656  0.1122 -0.4578  0.1516
 6640SOL    HW131382   4.575   3.002  11.683  0.2735 -0.0594  1.3565
 6640SOL    HW231383   4.648   3.118  11.669 -0.4571  2.3003 -1.3614
 6641SOL     OW31384   3.414   3.505  11.011 -0.1957  0.0884 -0.2152
 6641SOL    HW131385   3.439   3.413  11.015  1.1079  0.4755  0.3164
 6641SOL    HW231386   3.426   3.530  11.102  0.0535 -2.0613  0.3442
 6642SOL     OW31387   2.503   0.086   7.501  0.7194  0.4967  0.4797
 6642SOL    HW131388   2.463   0.014   7.551 -0.0641  0.8606  0.3667
 6642SOL    HW231389   2.452   0.162   7.530  0.7568  1.1971 -1.3187
 6643SOL     OW31390   3.402   0.013   3.478 -0.0971 -0.5370 -0.4796
 6643SOL    HW131391   3.318   0.032   3.518  0.4901  0.8550  0.1102
 6643SOL    HW231392   3.449   4.694   3.554 -0.7381 -2.5895 -1.0819
 6644SOL     OW31393   2.075   3.631  11.401 -0.2071 -0.4935  0.8111
 6644SOL    HW131394   2.166   3.627  11.373 -0.3612 -1.1482  0.4010
 6644SOL    HW231395   2.070   3.548  11.448  0.9706  0.6061  2.9166
 6645SOL     OW31396   1.079   0.676  13.068 -0.0307 -0.0417  0.7090
 6645SOL    HW131397   0.989   0.670  13.098 -0.1808  3.1120  0.8604
 6645SOL    HW231398   1.071   0.770  13.049 -0.6594  0.1866  2.1146
 6646SOL     OW31399   1.533   1.100   0.628  0.4765 -0.1949  0.2017
 6646SOL    HW131400   1.581   1.142   0.699  0.0060 -2.2997  1.7797
 6646SOL    HW231401   1.512   1.016   0.670 -1.2549 -0.5526 -1.3538
 6647SOL     OW31402   2.563   2.895   6.864 -0.0555  0.3409 -0.5288
 6647SOL    HW131403   2.573   2.803   6.886 -0.0878  0.5678  0.4383
 6647SOL    HW231404   2.486   2.883   6.808 -1.5918 -0.5096  1.7653
 6648SOL     OW31405   2.040   0.846   6.048  0.5706 -0.0332 -0.2953
 6648SOL    HW131406   1.959   0.879   6.009 -0.2092 -1.9585 -0.2949
 6648SOL    HW231407   2.004   0.786   6.113  0.6433 -0.0653 -0.2852
 6649SOL     OW31408   1.966   1.067   2.618  0.3215  0.2094 -0.3662
 6649SOL    HW131409   1.973   1.075   2.713 -0.5210  0.5287 -0.3304
 6649SOL    HW231410   2.005   0.981   2.601  2.4581  0.9358  0.9272
 6650SOL     OW31411   0.208   4.179   3.623 -0.2041 -0.3107  0.2660
 6650SOL    HW131412   0.268   4.223   3.683  0.0391  1.1931 -1.0808
 6650SOL    HW231413   0.132   4.237   3.633 -0.0682 -0.2615  0.9961
 6651SOL     OW31414   2.717   3.113  16.687  0.5627 -0.6012 -0.0820
 6651SOL    HW131415   2.711   3.078  16.776  0.1676 -0.6662 -0.1309
 6651SOL    HW231416   2.712   3.204  16.714 -0.7557 -0.8286  0.4655
 6652SOL     OW31417   1.180   1.067   8.386  0.0366  0.1439 -0.5283
 6652SOL    HW131418   1.085   1.056   8.387  0.2611 -1.6021  0.5124
 6652SOL    HW231419   1.190   1.122   8.463 -0.9651 -1.2578  0.5966
 6653SOL     OW31420   3.721   2.884  15.497 -0.4031 -0.6303 -0.6318
 6653SOL    HW131421   3.795   2.920  15.546 -0.7305  0.1613 -0.7186
 6653SOL    HW231422   3.657   2.953  15.516 -1.4402 -2.1435  1.3808
 6654SOL     OW31423   1.925   1.660  15.934 -0.1539 -0.0254 -0.1552
 6654SOL    HW131424   1.974   1.732  15.973 -0.2091  0.6068 -1.2440
 6654SOL    HW231425   1.838   1.698  15.918  0.6578  0.4886 -3.2326
 6655SOL     OW31426   2.013   1.983   4.459 -0.4522 -0.3463  0.2514
 6655SOL    HW131427   1.939   2.044   4.458 -0.5196 -0.4316 -0.0007
 6655SOL    HW231428   2.005   1.955   4.550  2.5333 -0.2018  0.5452
 6656SOL     OW31429   2.917   2.909  12.549  0.5762  0.2827  0.2638
 6656SOL    HW131430   2.916   2.817  12.522 -1.7892  0.2791  0.4399
 6656SOL    HW231431   2.825   2.933  12.554 -0.2723 -2.6159 -1.4195
 6657SOL     OW31432   1.844   2.886   1.811  0.2203  0.5753 -0.6518
 6657SOL    HW131433   1.917   2.836   1.849 -0.2770  0.8160  0.6187
 6657SOL    HW231434   1.765   2.836   1.827  0.1480  1.1490  0.8516
 6658SOL     OW31435   0.891   2.947   2.553  0.0454  0.0457 -0.3124
 6658SOL    HW131436   0.940   2.976   2.476 -0.7292 -0.7822 -1.1168
 6658SOL    HW231437   0.841   2.874   2.516 -2.0066  1.3999 -0.2270
 6659SOL     OW31438   1.273   3.482   1.261  0.4590  0.0866  0.2589
 6659SOL    HW131439   1.253   3.516   1.348 -0.3265  0.4810 -0.0794
 6659SOL    HW231440   1.290   3.388   1.269 -2.0204 -0.3236  0.6504
 6660SOL     OW31441   2.629   0.384   3.191 -0.4594 -0.1255 -0.4539
 6660SOL    HW131442   2.553   0.431   3.227 -1.2823 -1.1278 -0.8966
 6660SOL    HW231443   2.680   0.465   3.195  2.2974 -1.9829  1.7658
 6661SOL     OW31444   2.902   3.426   8.134 -0.9721  0.5669  0.5057
 6661SOL    HW131445   2.859   3.358   8.186 -1.3797 -1.6456 -2.6830
 6661SOL    HW231446   2.952   3.372   8.072  1.4974  1.6170  1.6000
 6662SOL     OW31447   1.286   2.703   3.774 -0.1864  0.0672 -0.2259
 6662SOL    HW131448   1.266   2.795   3.757  0.8935  0.1695 -0.9672
 6662SOL    HW231449   1.264   2.653   3.696 -1.3079  0.5393 -0.2075
 6663SOL     OW31450   2.148   1.938   6.550  0.0359 -0.2437  0.0458
 6663SOL    HW131451   2.081   1.870   6.538  0.2537 -1.1124  3.6018
 6663SOL    HW231452   2.156   1.939   6.645  0.0403  0.5192  0.0387
 6664SOL     OW31453   3.066   3.685   7.853  0.0781  0.0778  0.1397
 6664SOL    HW131454   3.039   3.704   7.764  2.1260  1.8946 -0.1096
 6664SOL    HW231455   3.038   3.756   7.910 -1.1895  1.1696 -1.8525
 6665SOL     OW31456   3.426   0.196   7.742 -0.2829  0.5903  0.1049
 6665SOL    HW131457   3.410   0.203   7.836 -2.1574 -1.1224 -0.0825
 6665SOL    HW231458   3.520   0.179   7.741 -0.4415 -0.2996  0.9257
 6666SOL     OW31459   2.958   3.193  10.336  0.1060  0.1250  0.0667
 6666SOL    HW131460   3.047   3.160  10.328 -0.7361 -2.6658  2.2865
 6666SOL    HW231461   2.921   3.191  10.248  1.8327 -0.5149 -0.6420
 6667SOL     OW31462   2.161   2.947   7.693  0.1388  0.3061  0.3496
 6667SOL    HW131463   2.139   2.866   7.740 -2.0395  0.2190 -0.7964
 6667SOL    HW231464   2.167   3.012   7.762  1.1465 -1.8125  2.2595
 6668SOL     OW31465   3.880   0.584   6.324 -0.7453 -0.3896  0.3806
 6668SOL    HW131466   3.832   0.637   6.387  1.0633  2.0722 -0.2877
 6668SOL    HW231467   3.841   0.627   6.248 -0.3018  0.1424  0.4506
 6669SOL     OW31468   1.195   0.352   6.541 -0.1113  0.2491  0.0906
 6669SOL    HW131469   1.280   0.321   6.508  0.0635  0.2865  0.5000
 6669SOL    HW231470   1.146   0.342   6.459  0.0016 -1.3781  0.2208
 6670SOL     OW31471   0.640   4.420   3.327 -0.6916  0.1840 -0.2412
 6670SOL    HW131472   0.636   4.495   3.386 -3.2316  0.1134 -0.3184
 6670SOL    HW231473   0.730   4.388   3.335 -0.4907  0.6263 -0.7472
 6671SOL     OW31474   0.995   4.414  10.279  0.4722  0.0750  0.3605
 6671SOL    HW131475   1.001   4.477  10.351 -2.2124 -0.4074  1.0269
 6671SOL    HW231476   1.080   4.419  10.236 -1.1168  1.0019 -2.6373
 6672SOL     OW31477   3.684   2.963   6.667  0.0327  0.2532  0.0257
 6672SOL    HW131478   3.683   2.971   6.572  0.4436 -0.1883 -0.0163
 6672SOL    HW231479   3.636   2.880   6.667 -1.7608  1.2774 -0.7377
 6673SOL     OW31480   2.131   3.279   4.020 -0.0699  0.3379  0.2263
 6673SOL    HW131481   2.161   3.206   4.075 -0.7861  0.0906  0.2822
 6673SOL    HW231482   2.036   3.267   4.021  0.0491 -0.4862  1.4601
 6674SOL     OW31483   2.031   0.256   5.665  0.3105 -0.0039 -0.2037
 6674SOL    HW131484   2.104   0.312   5.638  2.2194 -1.4345  1.9911
 6674SOL    HW231485   1.956   0.310   5.639 -1.5876 -2.6384 -0.1183
 6675SOL     OW31486   0.543   0.169   1.481 -0.7748 -0.6793 -0.5874
 6675SOL    HW131487   0.615   0.107   1.486 -0.8977 -0.7046  1.0170
 6675SOL    HW231488   0.548   0.212   1.396  1.5002 -2.7198 -1.4612
 6676SOL     OW31489   1.172   0.510   9.599 -0.1565  0.0543 -0.4147
 6676SOL    HW131490   1.077   0.511   9.616  0.1513 -0.9667  1.3844
 6676SOL    HW231491   1.170   0.459   9.518  0.8926 -0.4791 -0.0930
 6677SOL     OW31492   1.661   2.594  17.065 -0.4772  0.0137  0.0337
 6677SOL    HW131493   1.628   2.683  17.052  0.7540  0.5105  0.2876
 6677SOL    HW231494   1.580   2.549  17.043 -0.3328  0.2069 -0.9183
 6678SOL     OW31495   0.852   4.229   6.586 -0.4783 -0.2160 -0.0649
 6678SOL    HW131496   0.779   4.290   6.570  0.9121  1.1770 -1.0988
 6678SOL    HW231497   0.826   4.155   6.532  1.9744 -1.4138  0.4029
 6679SOL     OW31498   3.290   0.364   2.611  0.1868  0.0780  0.2977
 6679SOL    HW131499   3.229   0.291   2.601  1.5073 -0.8382 -0.9540
 6679SOL    HW231500   3.369   0.312   2.600 -0.0634  0.0077 -1.1674
 6680SOL     OW31501   3.626   4.662  16.766  0.0493  0.3079  0.9455
 6680SOL    HW131502   3.541   4.674  16.809 -0.8023 -1.9107 -0.0780
 6680SOL    HW231503   3.635   0.030  16.725 -0.3742  0.3751  0.9940
 6681SOL     OW31504   4.044   1.517   7.662  0.2829 -0.6578 -0.6796
 6681SOL    HW131505   4.017   1.466   7.739  1.5351 -0.5544 -0.1859
 6681SOL    HW231506   4.097   1.450   7.619 -1.3739 -2.1214 -0.4975
 6682SOL     OW31507   4.183   4.113   4.480  0.2917 -0.4745  0.3664
 6682SOL    HW131508   4.102   4.121   4.430  1.2295 -1.5439 -1.3237
 6682SOL    HW231509   4.240   4.120   4.403  0.4946 -0.0012  0.5638
 6683SOL     OW31510   3.350   2.777   2.808  0.2056  0.4699 -0.2947
 6683SOL    HW131511   3.256   2.783   2.824  0.3262 -0.7198  0.8453
 6683SOL    HW231512   3.393   2.782   2.894  0.4650  0.4175 -0.4200
 6684SOL     OW31513   3.631   0.753   8.822 -0.5732  0.7340 -0.4260
 6684SOL    HW131514   3.627   0.753   8.726  1.1679 -1.9749 -0.4834
 6684SOL    HW231515   3.539   0.735   8.841 -0.9173  4.1158  1.1149
 6685SOL     OW31516   1.962   3.946  11.911 -0.3423 -0.4491 -0.6527
 6685SOL    HW131517   1.891   4.003  11.940  1.2742  1.0909  0.3471
 6685SOL    HW231518   1.971   3.896  11.992  1.1652  0.9289  0.0464
 6686SOL     OW31519   0.665   1.175   6.037  0.0504 -0.1409  0.2501
 6686SOL    HW131520   0.712   1.111   6.091 -0.1763  1.1637  1.9931
 6686SOL    HW231521   0.748   1.220   6.021  0.0153 -0.4477 -0.7701
 6687SOL     OW31522   2.079   0.689  13.065  0.4995  0.2870 -0.2505
 6687SOL    HW131523   2.043   0.626  13.127 -1.9060  0.9069 -1.0183
 6687SOL    HW231524   2.134   0.751  13.112 -0.4812 -1.3924  3.0951
 6688SOL     OW31525   2.483   1.985   3.008 -0.3103  0.1507  0.1789
 6688SOL    HW131526   2.524   1.942   3.084 -0.0745  0.3978  0.1888
 6688SOL    HW231527   2.415   2.037   3.051  0.9067  2.1030 -0.3126
 6689SOL     OW31528   1.812   3.886   7.626  0.0635 -0.4315 -0.2003
 6689SOL    HW131529   1.724   3.920   7.611  0.5556  0.9374  0.0539
 6689SOL    HW231530   1.830   3.838   7.545  1.4819  1.4780 -0.9891
 6690SOL     OW31531   4.320   1.516   5.045  0.5000  0.1839 -0.1170
 6690SOL    HW131532   4.311   1.447   4.979 -0.8665 -1.3561  1.6769
 6690SOL    HW231533   4.229   1.531   5.071  1.0050  0.3733  1.5910
 6691SOL     OW31534   1.796   0.186  11.825  0.3638 -0.1850  0.4966
 6691SOL    HW131535   1.821   0.243  11.752 -0.7687  1.2989  1.2762
 6691SOL    HW231536   1.745   0.244  11.881  1.4752  0.1979  1.1149
 6692SOL     OW31537   1.314   3.009   5.375 -0.1217 -0.1524 -0.1105
 6692SOL    HW131538   1.365   2.972   5.302 -0.2820 -0.1109 -0.2421
 6692SOL    HW231539   1.310   3.103   5.359 -0.7916  0.1830  2.1352
 6693SOL     OW31540   0.597   1.120   3.688 -0.5728 -0.4470  0.0192
 6693SOL    HW131541   0.506   1.109   3.714 -0.5034  1.5633  1.1518
 6693SOL    HW231542   0.593   1.117   3.593 -0.4193  0.3715 -0.0100
 6694SOL     OW31543   3.705   4.188   5.209  0.1684  0.6082 -0.1289
 6694SOL    HW131544   3.716   4.266   5.263 -1.4301 -0.6534  2.0357
 6694SOL    HW231545   3.719   4.215   5.118  0.7144  1.3147  0.1682
 6695SOL     OW31546   3.613   3.302   4.093  0.5115 -0.1163 -0.2233
 6695SOL    HW131547   3.661   3.228   4.132 -0.5248 -1.0998 -0.8077
 6695SOL    HW231548   3.521   3.281   4.106  0.8865 -1.3305  0.5477
 6696SOL     OW31549   4.292   1.858  16.277  0.2956 -1.0895  0.1109
 6696SOL    HW131550   4.336   1.804  16.212 -0.7387 -2.0577  0.2066
 6696SOL    HW231551   4.202   1.852  16.244  0.8538 -2.3004 -1.1679
 6697SOL     OW31552   4.699   3.387   1.515 -0.1365  0.6910 -0.2147
 6697SOL    HW131553   4.647   3.431   1.582 -1.5405  0.1012 -0.9305
 6697SOL    HW231554   0.050   3.454   1.512 -1.0023  1.4717 -2.3872
 6698SOL     OW31555   2.441   1.377   3.773  0.0303 -0.6284  0.4753
 6698SOL    HW131556   2.383   1.342   3.705  0.3496 -0.0810 -0.0753
 6698SOL    HW231557   2.423   1.470   3.784 -0.5901 -0.3265 -3.0088
 6699SOL     OW31558   2.956   3.643   7.248  0.8417 -0.0793  0.3463
 6699SOL    HW131559   2.922   3.615   7.333  0.0120  2.4587  0.8516
 6699SOL    HW231560   2.875   3.686   7.218  1.3953 -0.2348 -1.4066
 6700SOL     OW31561   3.226   3.253  12.378  0.3564 -0.3082  0.5489
 6700SOL    HW131562   3.213   3.336  12.425  2.7694 -0.3620  1.2797
 6700SOL    HW231563   3.136   3.223  12.387  0.0341  0.7170  0.8246
 6701SOL     OW31564   2.931   1.993   8.277  0.2438 -0.8919 -0.3132
 6701SOL    HW131565   2.926   2.075   8.227 -1.7757 -2.0275 -1.9863
 6701SOL    HW231566   3.017   1.953   8.286  1.0464  0.8508 -0.1239
 6702SOL     OW31567   0.601   3.387   7.021  0.1985 -0.3953  0.3356
 6702SOL    HW131568   0.666   3.444   7.061  0.5922  0.3320 -1.3203
 6702SOL    HW231569   0.658   3.325   6.975 -0.4530  0.0733 -1.1259
 6703SOL     OW31570   0.694   1.658  17.639 -0.3027  0.2636 -0.4266
 6703SOL    HW131571   0.623   1.679   0.026 -0.5023  3.1638 -1.6671
 6703SOL    HW231572   0.776   1.687   0.005 -1.1381  2.4924 -0.3421
 6704SOL     OW31573   3.528   4.156   7.967  0.5310 -0.4352  0.1296
 6704SOL    HW131574   3.466   4.196   8.027 -0.3023  0.9918 -1.6618
 6704SOL    HW231575   3.563   4.079   8.011  0.7345 -1.5660 -1.9966
 6705SOL     OW31576   2.516   1.470   5.957 -0.3356  0.6107 -0.3956
 6705SOL    HW131577   2.475   1.493   5.874  1.4295 -2.0000 -1.9831
 6705SOL    HW231578   2.446   1.478   6.022  0.5829  1.0502  0.5446
 6706SOL     OW31579   1.931   1.073  15.842  0.1895  0.2414 -0.0949
 6706SOL    HW131580   1.930   1.132  15.918  2.1800 -0.4844  0.4981
 6706SOL    HW231581   1.980   1.003  15.885  0.4760  0.4525 -0.0775
 6707SOL     OW31582   1.878   0.576   4.210 -0.2577 -0.2185  0.3803
 6707SOL    HW131583   1.818   0.539   4.274  0.4407  0.9538  1.7086
 6707SOL    HW231584   1.869   0.668   4.235 -0.3547  0.2343 -1.2768
 6708SOL     OW31585   2.384   2.382   2.343  0.3028  0.3732  0.2749
 6708SOL    HW131586   2.390   2.310   2.280 -1.3573 -0.8170  1.4527
 6708SOL    HW231587   2.309   2.354   2.396 -1.3736  3.5386 -0.4134
 6709SOL     OW31588   2.686   3.342  11.074 -0.3052 -0.2673 -0.5677
 6709SOL    HW131589   2.760   3.398  11.099 -1.5223  0.6517  1.0058
 6709SOL    HW231590   2.627   3.370  11.144  0.4781  0.1130 -0.0540
 6710SOL     OW31591   2.354   0.256   7.217  0.4524  0.3083  0.2120
 6710SOL    HW131592   2.306   0.243   7.135  0.7621  0.3056  0.0297
 6710SOL    HW231593   2.299   0.202   7.272  0.6344 -0.6866 -0.5827
 6711SOL     OW31594   3.208   4.454  10.627  0.1168  0.4315 -0.3037
 6711SOL    HW131595   3.227   4.400  10.550  1.7744 -1.8148  1.6803
 6711SOL    HW231596   3.229   4.540  10.591 -1.7999  0.8792 -0.3551
 6712SOL     OW31597   1.081   0.170  10.416 -0.3179 -0.1549  0.3704
 6712SOL    HW131598   1.004   0.227  10.410 -0.3191 -0.2290 -0.3230
 6712SOL    HW231599   1.139   0.242  10.437 -0.0293 -0.9847  2.3940
 6713SOL     OW31600   2.858   1.581   1.505 -0.3624 -0.2907 -0.1478
 6713SOL    HW131601   2.923   1.650   1.495 -0.8666  0.0143 -1.2891
 6713SOL    HW231602   2.823   1.567   1.417 -0.7950  1.0540 -0.1898
 6714SOL     OW31603   4.618   1.855  16.870 -0.9969 -0.1116 -0.4000
 6714SOL    HW131604   4.685   1.854  16.801 -1.7066  1.7461 -1.1102
 6714SOL    HW231605   4.631   1.763  16.892 -2.7378 -0.5129 -1.0559
 6715SOL     OW31606   4.381   3.787  14.599 -0.0600 -0.0132  0.5033
 6715SOL    HW131607   4.397   3.694  14.608  2.0641  0.2548 -0.4349
 6715SOL    HW231608   4.471   3.820  14.592 -0.1008  0.4142  2.0613
 6716SOL     OW31609   4.294   4.094   9.919 -0.1011 -0.4203 -0.1582
 6716SOL    HW131610   4.308   4.138   9.835 -3.1430 -2.1065 -1.5523
 6716SOL    HW231611   4.217   4.139   9.953  0.2804 -0.2648  0.4805
 6717SOL     OW31612   2.978   4.055   8.315  0.0134  0.5594 -0.1107
 6717SOL    HW131613   3.023   4.123   8.264 -2.9517  2.9254  0.4194
 6717SOL    HW231614   3.020   4.067   8.400  0.0213  0.9798 -0.1704
 6718SOL     OW31615   2.778   1.920  12.053 -0.1238  0.3226  0.2067
 6718SOL    HW131616   2.722   1.954  12.123  0.0196  2.2274 -0.5883
 6718SOL    HW231617   2.853   1.979  12.064 -0.3917  1.4887 -4.1488
 6719SOL     OW31618   3.554   0.394  14.697 -0.0366 -0.2058  0.0027
 6719SOL    HW131619   3.504   0.473  14.713  0.6512  0.4314 -1.0118
 6719SOL    HW231620   3.478   0.343  14.668 -0.6553 -0.4684  2.0625
 6720SOL     OW31621   4.085   2.055   6.513  0.1406  0.2044 -0.0064
 6720SOL    HW131622   4.031   2.123   6.553 -3.0329 -0.5644 -3.0194
 6720SOL    HW231623   4.034   2.025   6.438  2.4370 -1.4435 -0.9249
 6721SOL     OW31624   4.374   2.627   7.948 -0.6555 -0.7517  0.0786
 6721SOL    HW131625   4.322   2.583   8.015 -0.4369 -0.3617  0.4986
 6721SOL    HW231626   4.465   2.631   7.977 -0.6451  0.4993 -0.1438
 6722SOL     OW31627   2.130   0.940   2.288 -0.9063  0.2409 -0.3878
 6722SOL    HW131628   2.213   0.980   2.314 -1.5044  2.3424 -1.7116
 6722SOL    HW231629   2.146   0.849   2.311  2.0572  0.8109 -0.1244
 6723SOL     OW31630   4.430   4.007   7.796  0.2867  0.1393 -0.3854
 6723SOL    HW131631   4.409   3.973   7.709  0.4548 -0.9961  0.0180
 6723SOL    HW231632   4.409   3.932   7.852 -3.4679  1.6040  0.1957
 6724SOL     OW31633   1.201   3.815   5.830  0.4659  0.1794 -0.3079
 6724SOL    HW131634   1.180   3.830   5.738  1.5190 -2.3506 -0.9638
 6724SOL    HW231635   1.138   3.745   5.849  1.0931 -0.8568 -2.1119
 6725SOL     OW31636   2.299   2.727   2.983  0.1914  0.1701  0.3460
 6725SOL    HW131637   2.377   2.700   2.934 -0.7529 -1.6870 -0.1483
 6725SOL    HW231638   2.311   2.822   2.984  0.6553  0.1650 -2.2447
 6726SOL     OW31639   1.041   0.877   2.628 -0.2614 -0.2709  0.4476
 6726SOL    HW131640   1.014   0.937   2.698  0.4214  1.5467 -0.8316
 6726SOL    HW231641   1.108   0.932   2.586  0.4502 -0.3389  1.4999
 6727SOL     OW31642   0.441   3.327   5.063  0.2424 -0.4972 -0.4740
 6727SOL    HW131643   0.479   3.413   5.078  0.6755 -0.4363 -1.9327
 6727SOL    HW231644   0.505   3.273   5.017  1.4960 -0.6975  1.5531
 6728SOL     OW31645   0.535   1.108  15.554  0.4544 -0.0163 -0.1576
 6728SOL    HW131646   0.546   1.112  15.459  0.8256 -3.6895 -0.2669
 6728SOL    HW231647   0.603   1.159  15.599  1.6752 -0.2370 -1.7463
 6729SOL     OW31648   1.005   4.523   1.254  0.1918  0.3485  0.1339
 6729SOL    HW131649   1.077   4.578   1.222  0.7940 -0.0107  0.8772
 6729SOL    HW231650   0.929   4.581   1.247 -0.4571 -0.4455  0.7029
 6730SOL     OW31651   2.386   2.132  12.347 -0.2277 -0.0182  0.0268
 6730SOL    HW131652   2.430   2.163  12.426 -3.6230  1.0504  1.4621
 6730SOL    HW231653   2.368   2.217  12.307  2.7608 -0.6287 -2.6746
 6731SOL     OW31654   0.727   3.400   2.401  0.4208  0.0689  0.6412
 6731SOL    HW131655   0.807   3.358   2.435 -0.7787 -0.1617  3.2028
 6731SOL    HW231656   0.727   3.371   2.310  1.1925  0.8600  0.3867
 6732SOL     OW31657   1.251   2.886  11.703  0.3597 -0.0104 -0.1467
 6732SOL    HW131658   1.313   2.959  11.707 -0.2486  0.4146  1.7093
 6732SOL    HW231659   1.260   2.845  11.790  2.0244  0.9351  0.1420
 6733SOL     OW31660   0.608   1.425  13.088  0.3894 -0.5536 -0.0702
 6733SOL    HW131661   0.579   1.475  13.163 -0.3883  0.0103 -0.7470
 6733SOL    HW231662   0.626   1.336  13.119 -2.0234 -0.7454  0.7659
 6734SOL     OW31663   0.604   2.094   0.422 -0.4352  0.4311  0.3182
 6734SOL    HW131664   0.526   2.038   0.421 -0.3666  0.3298  1.2307
 6734SOL    HW231665   0.668   2.024   0.408 -0.1050  0.8838 -0.4930
 6735SOL     OW31666   4.430   4.626   0.263  0.1444  0.0813  0.3633
 6735SOL    HW131667   4.463   4.541   0.293 -0.4740  0.9139  3.3079
 6735SOL    HW231668   4.512   4.675   0.260  0.1930 -0.0281 -0.1805
 6736SOL     OW31669   2.142   1.729  13.813  0.0179  0.1962  0.2679
 6736SOL    HW131670   2.064   1.727  13.757 -0.2738 -0.0791  0.6771
 6736SOL    HW231671   2.108   1.669  13.880  1.5085  0.2151  1.0368
 6737SOL     OW31672   2.903   0.717   5.708  0.4673  0.4243  0.5153
 6737SOL    HW131673   2.843   0.692   5.637  0.6071  1.7237 -0.0629
 6737SOL    HW231674   2.857   0.666   5.775 -3.4969  1.7785 -1.1469
 6738SOL     OW31675   2.749   3.552  14.941 -0.3881  0.1148  0.4035
 6738SOL    HW131676   2.726   3.635  14.983  0.5972 -1.1254  3.3768
 6738SOL    HW231677   2.662   3.513  14.942 -0.7927  1.0131 -0.2273
 6739SOL     OW31678   4.093   0.083   0.353 -0.4407 -0.1923  0.0151
 6739SOL    HW131679   4.039   0.023   0.405 -1.1949  1.8027  1.5610
 6739SOL    HW231680   4.046   0.090   0.270  1.5397  2.3640 -0.8949
 6740SOL     OW31681   0.089   1.697   1.796  0.4355  0.0400 -0.1185
 6740SOL    HW131682   0.136   1.642   1.860 -0.9521 -1.8140 -0.6930
 6740SOL    HW231683   0.157   1.713   1.730  1.9124 -0.5105  1.2412
 6741SOL     OW31684   1.743   0.037   0.034  0.0045  0.1220 -0.1650
 6741SOL    HW131685   1.758   0.122  17.666 -2.3075 -0.5704 -2.3931
 6741SOL    HW231686   1.686   4.712  17.644  1.4146 -0.3046 -1.1411
 6742SOL     OW31687   3.437   4.478   7.442  0.1694  0.4753 -0.4477
 6742SOL    HW131688   3.530   4.503   7.446  0.7685 -1.8700  0.2471
 6742SOL    HW231689   3.422   4.524   7.360 -1.3295  0.0936 -0.3904
 6743SOL     OW31690   0.430   3.667  13.686  0.0954 -0.0410  0.4781
 6743SOL    HW131691   0.475   3.751  13.683  1.4138 -0.7395  0.5157
 6743SOL    HW231692   0.448   3.641  13.776 -2.1072 -2.5630  0.1781
 6744SOL     OW31693   2.936   2.398  10.104 -0.6487 -0.0799  0.1279
 6744SOL    HW131694   2.939   2.305  10.083 -0.9901 -0.1075  0.1931
 6744SOL    HW231695   3.012   2.423  10.052 -0.3114  0.4852  0.8882
 6745SOL     OW31696   2.247   2.951   5.013  0.2575  0.5919  0.5545
 6745SOL    HW131697   2.228   3.010   5.087  2.4882  1.5535  0.3741
 6745SOL    HW231698   2.342   2.948   5.006  0.2244  1.9950 -0.6098
 6746SOL     OW31699   2.130   1.823   2.845  0.5445  0.2343 -0.1626
 6746SOL    HW131700   2.132   1.746   2.788 -4.5058  0.5670 -0.7559
 6746SOL    HW231701   2.202   1.875   2.808  0.7111 -0.3908 -0.7324
 6747SOL     OW31702   2.936   4.038   4.197 -0.1290  0.1618 -0.6737
 6747SOL    HW131703   3.003   3.988   4.150  0.1885  0.5600 -0.6442
 6747SOL    HW231704   2.942   4.120   4.148 -0.1495 -0.1134 -1.1259
 6748SOL     OW31705   1.876   3.569   4.486  0.2724 -0.1529 -0.5600
 6748SOL    HW131706   1.936   3.522   4.428  0.8091  0.1090 -0.2180
 6748SOL    HW231707   1.924   3.651   4.499  0.2258  0.2364 -2.7907
 6749SOL     OW31708   0.065   0.572   2.949  0.7663 -0.2372 -0.1813
 6749SOL    HW131709   0.016   0.638   2.901  2.7717  0.6303 -1.0542
 6749SOL    HW231710   0.061   0.605   3.039 -1.1171  0.3750 -0.4966
 6750SOL     OW31711   1.607   0.727  11.717 -0.3491 -0.7843  0.1104
 6750SOL    HW131712   1.603   0.820  11.692 -0.6591 -0.7621  0.2366
 6750SOL    HW231713   1.526   0.711  11.765  0.2674 -1.8921  0.7724
 6751SOL     OW31714   3.776   2.109  12.097 -0.0781 -0.0713 -0.2315
 6751SOL    HW131715   3.870   2.100  12.109 -0.1053 -0.6234 -0.4526
 6751SOL    HW231716   3.737   2.036  12.146  1.3838 -1.2587 -0.8472
 6752SOL     OW31717   2.509   2.760  12.638  0.4866  0.6627  0.8628
 6752SOL    HW131718   2.585   2.701  12.637  1.3810  1.8218  0.0843
 6752SOL    HW231719   2.463   2.733  12.717 -0.5281  2.7877  1.0040
 6753SOL     OW31720   2.215   0.558   7.777  0.6388  0.1948 -0.3220
 6753SOL    HW131721   2.261   0.502   7.840 -1.0928 -1.3329 -0.4095
 6753SOL    HW231722   2.279   0.626   7.758  2.4553 -1.0697  1.2225
 6754SOL     OW31723   0.990   0.147  12.043 -0.4104 -0.4525 -0.2061
 6754SOL    HW131724   1.012   0.237  12.018  1.3609 -0.7864  0.1634
 6754SOL    HW231725   1.070   0.103  12.013 -1.3356 -0.9548 -1.9861
 6755SOL     OW31726   2.294   2.395  13.043  0.1219  0.0048 -0.5300
 6755SOL    HW131727   2.353   2.461  13.080 -2.3830  2.0394 -0.1969
 6755SOL    HW231728   2.207   2.417  13.074 -0.2470  1.1749 -2.3673
 6756SOL     OW31729   3.584   1.307  12.007 -0.2084 -0.5122  0.3147
 6756SOL    HW131730   3.568   1.335  11.916 -2.9486 -1.0430  0.6395
 6756SOL    HW231731   3.668   1.264  11.992 -0.0237 -0.0317 -0.0412
 6757SOL     OW31732   2.681   1.591   0.546  0.5784  0.1732 -0.0039
 6757SOL    HW131733   2.604   1.625   0.500  2.7325  1.1738 -2.7753
 6757SOL    HW231734   2.756   1.619   0.494  2.5731 -1.4429  1.9931
 6758SOL     OW31735   1.094   4.276   9.264  0.4224  0.3797  0.4629
 6758SOL    HW131736   1.117   4.190   9.231 -2.0363  0.4052 -1.3651
 6758SOL    HW231737   1.173   4.325   9.243  0.5695  0.3774  1.0076
 6759SOL     OW31738   2.806   3.217  14.100  0.3557 -0.6334 -0.0704
 6759SOL    HW131739   2.772   3.224  14.011 -0.2814  0.4942  0.2554
 6759SOL    HW231740   2.726   3.242  14.147  0.5961 -1.5702  0.8477
 6760SOL     OW31741   1.786   3.816   2.694  0.2721 -0.4496 -0.0618
 6760SOL    HW131742   1.704   3.817   2.743  0.0279  0.4118 -0.4881
 6760SOL    HW231743   1.751   3.762   2.624 -0.9193 -2.8113  2.3674
 6761SOL     OW31744   0.497   4.543   1.473 -0.1514  0.1699  0.1905
 6761SOL    HW131745   0.433   4.563   1.542 -1.7307  0.0843 -1.2636
 6761SOL    HW231746   0.438   4.536   1.398  1.1558 -1.6780 -0.6479
 6762SOL     OW31747   4.170   3.509  17.338 -0.0412  0.2738  0.2239
 6762SOL    HW131748   4.159   3.488  17.245 -1.9686 -0.3216  0.5744
 6762SOL    HW231749   4.124   3.591  17.358  0.2092  0.7686 -1.2100
 6763SOL     OW31750   2.083   3.678   4.749  0.2308  0.8310 -0.2440
 6763SOL    HW131751   2.106   3.630   4.670 -1.5957 -2.1409  1.0487
 6763SOL    HW231752   2.126   3.760   4.725  0.2861  0.7088 -0.5592
 6764SOL     OW31753   3.293   3.661   8.378 -0.6277 -0.0914 -0.1649
 6764SOL    HW131754   3.273   3.727   8.444  0.8627 -1.2154  1.4116
 6764SOL    HW231755   3.217   3.665   8.320  0.6600 -0.7961 -1.8898
 6765SOL     OW31756   0.193   2.910   1.540  0.0340 -0.5676 -0.1912
 6765SOL    HW131757   0.254   2.914   1.466  1.2088 -0.9390  0.7691
 6765SOL    HW231758   0.212   2.991   1.586  0.9955 -0.3141 -1.0350
 6766SOL     OW31759   4.536   3.941   6.060  0.2000  0.3120  0.5132
 6766SOL    HW131760   4.614   3.906   6.102 -1.2844  0.1616  3.1401
 6766SOL    HW231761   4.472   3.909   6.124 -0.4667 -0.6594 -0.6529
 6767SOL     OW31762   4.509   2.677  11.425  0.4656 -0.0695  0.2167
 6767SOL    HW131763   4.426   2.700  11.383  1.9483  0.3735 -2.4517
 6767SOL    HW231764   4.478   2.650  11.512 -0.2184 -0.0954 -0.0349
 6768SOL     OW31765   0.522   1.873   5.506  0.0545  0.1957  0.0861
 6768SOL    HW131766   0.427   1.879   5.511  0.1250  1.7972 -0.4033
 6768SOL    HW231767   0.534   1.932   5.432  1.3407  2.1142  1.8013
 6769SOL     OW31768   3.487   2.806   4.114 -0.1167  0.1174  0.2705
 6769SOL    HW131769   3.530   2.782   4.032 -0.6795 -1.1326  0.3411
 6769SOL    HW231770   3.453   2.720   4.139  1.5597 -0.9933 -1.3693
 6770SOL     OW31771   0.998   2.977   3.792 -0.4183  0.0838 -0.4230
 6770SOL    HW131772   1.085   2.982   3.753 -0.7730 -1.5354 -1.4371
 6770SOL    HW231773   0.988   2.881   3.791  1.0483 -0.0877  2.0715
 6771SOL     OW31774   3.121   0.284   5.760  0.2862  0.8696 -0.2578
 6771SOL    HW131775   3.030   0.270   5.788 -0.0975  2.0119 -0.9216
 6771SOL    HW231776   3.138   0.242   5.675  1.5448  0.6718  0.0910
 6772SOL     OW31777   0.484   2.364   5.309 -0.3662 -0.1490 -0.2121
 6772SOL    HW131778   0.565   2.378   5.260 -0.3461  2.4698  0.5805
 6772SOL    HW231779   0.507   2.314   5.388  1.3628  0.8087 -0.1077
 6773SOL     OW31780   2.384   2.674   3.482  0.1295  0.2064  0.1454
 6773SOL    HW131781   2.301   2.715   3.508 -0.8729 -1.1544 -0.8585
 6773SOL    HW231782   2.436   2.752   3.466  0.5626  0.0711  0.9030
 6774SOL     OW31783   4.357   0.424  15.779 -0.9385  0.0878 -0.2940
 6774SOL    HW131784   4.403   0.507  15.770 -0.8778 -0.1247 -1.8754
 6774SOL    HW231785   4.328   0.420  15.688 -1.3839  1.3268 -0.2046
 6775SOL     OW31786   3.068   0.607   6.407  0.4209 -0.1541 -0.5782
 6775SOL    HW131787   3.069   0.614   6.503  0.6610 -1.5248 -0.4686
 6775SOL    HW231788   3.033   0.691   6.378  1.9400  0.6095 -0.1913
 6776SOL     OW31789   3.354   1.726  10.379 -0.2352 -0.1092 -0.5911
 6776SOL    HW131790   3.426   1.676  10.340 -0.4109 -1.9164  1.4253
 6776SOL    HW231791   3.359   1.795  10.313 -0.6036  0.3578 -0.1318
 6777SOL     OW31792   0.679   2.941   0.365  0.0421  0.0346 -0.2415
 6777SOL    HW131793   0.594   2.973   0.396 -0.1521 -1.9070  1.1884
 6777SOL    HW231794   0.656   2.880   0.296 -1.9407  2.4690 -1.7419
 6778SOL     OW31795   1.765   0.596   4.605 -0.4392  0.4040  0.3935
 6778SOL    HW131796   1.676   0.572   4.629  0.2581 -1.7488  0.7686
 6778SOL    HW231797   1.743   0.680   4.563 -0.4808  0.7426  1.0898
 6779SOL     OW31798   2.049   3.407   6.983 -0.0810  0.4780 -0.1359
 6779SOL    HW131799   2.016   3.343   6.920 -0.6529 -0.5217  1.1706
 6779SOL    HW231800   2.139   3.376   6.993 -0.0996  0.9987  1.7000
 6780SOL     OW31801   4.402   3.904   7.528  0.2870 -0.2810 -0.3660
 6780SOL    HW131802   4.439   3.905   7.439 -4.1310 -0.7438 -2.2380
 6780SOL    HW231803   4.468   3.848   7.567  0.7875  0.8059  0.3331
 6781SOL     OW31804   3.634   0.857   3.521  0.3055  0.1283 -0.8141
 6781SOL    HW131805   3.709   0.799   3.508  1.7188  1.8488 -0.1750
 6781SOL    HW231806   3.574   0.803   3.470 -0.9456  0.9236 -0.1954
 6782SOL     OW31807   4.623   2.359  12.931  0.2131 -0.5955  0.0145
 6782SOL    HW131808   4.633   2.444  12.889 -2.8772 -0.6578 -0.8525
 6782SOL    HW231809   4.547   2.388  12.982  2.6775  4.4963  0.7895
 6783SOL     OW31810   3.993   0.948   2.548  0.1860  0.4419  0.4501
 6783SOL    HW131811   4.079   0.976   2.516 -0.6521  0.6190 -1.6386
 6783SOL    HW231812   4.017   0.891   2.621 -2.7011 -1.4986 -0.1131
 6784SOL     OW31813   4.601   3.924   2.196 -0.0693 -0.2159 -0.2028
 6784SOL    HW131814   4.506   3.908   2.190 -0.4141  2.3740 -1.4215
 6784SOL    HW231815   4.588   4.014   2.223  0.5947  1.0060 -3.9029
 6785SOL     OW31816   1.276   2.656   4.059  0.6280 -0.1197 -0.8956
 6785SOL    HW131817   1.180   2.663   4.066  0.8094  0.6914  0.9091
 6785SOL    HW231818   1.287   2.648   3.965 -2.2241 -0.6085 -1.2031
 6786SOL     OW31819   1.938   1.757   7.464  0.0879 -0.1094 -0.0545
 6786SOL    HW131820   1.864   1.701   7.492 -0.9248  0.8814 -0.7477
 6786SOL    HW231821   1.982   1.777   7.547  1.1686 -1.6685 -0.2414
 6787SOL     OW31822   2.785   4.618   4.283  0.8391  0.0794 -0.0222
 6787SOL    HW131823   2.746   4.554   4.223  2.2714  0.4125 -1.3229
 6787SOL    HW231824   2.759   4.571   4.362 -1.7134  0.0880 -0.8480
 6788SOL     OW31825   4.344   3.682  17.148 -0.1385  0.0210  0.7288
 6788SOL    HW131826   4.302   3.711  17.067  0.1586  1.1154  0.9607
 6788SOL    HW231827   4.278   3.701  17.216  0.8252  2.0789  1.0878
 6789SOL     OW31828   2.451   4.314  12.008 -0.2037 -0.1524  0.1111
 6789SOL    HW131829   2.498   4.397  11.995 -0.7445 -0.0207 -1.0976
 6789SOL    HW231830   2.461   4.266  11.925 -3.3625 -0.0487 -0.3528
 6790SOL     OW31831   3.360   3.401  15.118  0.6321 -0.0937 -0.4502
 6790SOL    HW131832   3.281   3.393  15.064 -0.4538 -2.2964  1.4894
 6790SOL    HW231833   3.428   3.385  15.052  0.1719 -0.7795 -0.7629
 6791SOL     OW31834   4.075   3.617   3.282  0.7053 -0.3607 -0.2596
 6791SOL    HW131835   4.132   3.666   3.222  0.3385 -1.2380 -1.3239
 6791SOL    HW231836   4.118   3.531   3.280  0.4572 -0.4664 -1.1108
 6792SOL     OW31837   4.000   1.372   2.032 -0.1806 -0.9535  0.0299
 6792SOL    HW131838   3.985   1.291   1.982  1.0561  0.1896 -2.2173
 6792SOL    HW231839   3.915   1.381   2.074 -0.9573 -2.6953 -1.1630
 6793SOL     OW31840   3.067   3.947   2.481  0.0150 -0.0291  0.4729
 6793SOL    HW131841   3.073   4.025   2.426  0.8235 -1.3043 -1.2015
 6793SOL    HW231842   2.972   3.935   2.488  0.2052 -1.4518  0.6936
 6794SOL     OW31843   2.595   1.562  13.960  0.3482  0.4651 -0.0701
 6794SOL    HW131844   2.689   1.580  13.952  0.8617 -2.8599 -1.1075
 6794SOL    HW231845   2.570   1.622  14.031 -0.1300  1.1588 -0.8247
 6795SOL     OW31846   2.328   1.065   4.382 -0.6121  0.2117  0.5929
 6795SOL    HW131847   2.390   0.998   4.352 -1.0096 -0.0299  0.3055
 6795SOL    HW231848   2.275   0.994   4.417 -0.5012 -0.0615  0.2145
 6796SOL     OW31849   2.871   1.400   5.057 -0.2717  0.2663  0.2301
 6796SOL    HW131850   2.813   1.416   4.983  0.5512 -0.2255 -0.5171
 6796SOL    HW231851   2.948   1.434   5.013 -0.3215  0.3142  0.1811
 6797SOL     OW31852   3.152   1.474   8.646  0.1918  0.3714  0.2317
 6797SOL    HW131853   3.211   1.535   8.691 -0.3809  1.0091  0.1160
 6797SOL    HW231854   3.093   1.449   8.717 -0.2357 -0.3679 -0.3910
 6798SOL     OW31855   1.905   1.216   4.036 -0.1115  0.0067  0.2147
 6798SOL    HW131856   1.925   1.303   4.071  2.0763  0.6085 -2.5832
 6798SOL    HW231857   1.950   1.159   4.098  2.3657 -1.6378 -3.0736
 6799SOL     OW31858   4.697   0.300   8.742  0.3308 -0.4225 -0.6181
 6799SOL    HW131859   0.048   0.270   8.683  1.1033 -1.1181  0.6528
 6799SOL    HW231860   0.018   0.299   8.829 -0.3774  1.7474 -0.2612
 6800SOL     OW31861   1.050   3.422   6.863 -0.3224  0.0012  0.0192
 6800SOL    HW131862   1.051   3.331   6.836 -1.5186 -0.7691  2.5696
 6800SOL    HW231863   1.083   3.406   6.951  1.7793 -0.0546 -0.7871
 6801SOL     OW31864   3.000   3.918   3.070 -0.2088 -0.1126 -0.4454
 6801SOL    HW131865   3.070   3.910   3.005  1.8888 -0.6000  1.8998
 6801SOL    HW231866   2.995   3.830   3.107 -0.3865  0.4004  0.7481
 6802SOL     OW31867   1.373   0.097  12.649 -0.0004 -0.1567  0.3685
 6802SOL    HW131868   1.320   0.174  12.625 -0.1335 -0.1201  0.7811
 6802SOL    HW231869   1.300   0.037  12.665 -1.8469  1.6931 -0.9803
 6803SOL     OW31870   1.846   1.834  17.538  0.0402  0.4470  0.4535
 6803SOL    HW131871   1.842   1.760  17.478 -1.0914  0.1562  0.9032
 6803SOL    HW231872   1.786   1.802  17.605 -1.4271  0.3570 -0.9266
 6804SOL     OW31873   3.815   0.455   3.306 -0.4591  0.2054 -0.0815
 6804SOL    HW131874   3.723   0.434   3.291 -0.3249 -0.9018  0.6345
 6804SOL    HW231875   3.854   0.370   3.284 -0.2019  0.6289 -1.2735
 6805SOL     OW31876   2.622   2.195   3.874 -0.5631 -0.0797 -0.0433
 6805SOL    HW131877   2.577   2.157   3.799 -0.1867  1.1274 -0.8944
 6805SOL    HW231878   2.633   2.121   3.933  1.5288 -1.3960 -2.0703
 6806SOL     OW31879   1.089   1.153   7.864  0.5182 -0.1040  0.4570
 6806SOL    HW131880   1.158   1.104   7.819  2.3223  0.8703  2.2125
 6806SOL    HW231881   1.050   1.194   7.786  0.9155 -0.3549  0.1273
 6807SOL     OW31882   4.662   0.750  10.348  0.4797  0.2593 -1.2700
 6807SOL    HW131883   4.694   0.659  10.348 -1.3128 -0.3823 -2.2835
 6807SOL    HW231884   4.590   0.760  10.285 -0.7098 -0.4670 -0.0380
 6808SOL     OW31885   2.981   4.288  16.460  0.2195 -0.0331 -0.6434
 6808SOL    HW131886   2.952   4.379  16.468 -0.2783 -0.3447  1.2682
 6808SOL    HW231887   3.073   4.302  16.436  0.8479 -0.6077  1.4099
 6809SOL     OW31888   2.600   4.404  13.886 -0.5655  0.2603 -0.0226
 6809SOL    HW131889   2.505   4.408  13.895 -0.3512  1.9995  1.3696
 6809SOL    HW231890   2.616   4.497  13.870 -0.8496  0.5252  1.2804
 6810SOL     OW31891   1.762   1.476   5.813  0.4985  0.2079 -0.0841
 6810SOL    HW131892   1.840   1.421   5.811 -1.4138 -2.5415  1.3940
 6810SOL    HW231893   1.694   1.409   5.814  0.0967  0.6244  0.4136
 6811SOL     OW31894   3.656   1.814   1.898 -0.0488 -0.4071 -0.1603
 6811SOL    HW131895   3.677   1.724   1.923  3.4896  1.1548  2.5021
 6811SOL    HW231896   3.722   1.864   1.946 -0.4487  0.7734 -0.8524
 6812SOL     OW31897   0.659   2.368  16.957  0.0982  0.2009  0.1944
 6812SOL    HW131898   0.736   2.315  16.978 -0.5914 -1.0172 -0.3962
 6812SOL    HW231899   0.593   2.306  16.925 -0.5050  1.7154 -1.4648
 6813SOL     OW31900   2.910   4.349  17.227 -0.4764  0.0158  0.5024
 6813SOL    HW131901   2.839   4.285  17.231 -0.2421 -0.4207 -2.5557
 6813SOL    HW231902   2.862   4.431  17.217  3.7659  2.0373 -3.0412
 6814SOL     OW31903   2.178   0.929   2.908  0.6821  1.1164  0.2677
 6814SOL    HW131904   2.174   0.848   2.857 -0.4984 -0.1957  2.4349
 6814SOL    HW231905   2.260   0.965   2.873  0.1362  1.3098 -0.8291
 6815SOL     OW31906   0.031   2.575   6.704  0.1764 -0.2753  0.6815
 6815SOL    HW131907   4.701   2.593   6.623  2.6956  2.2402 -0.2653
 6815SOL    HW231908   4.717   2.652   6.751  0.6610  0.2340  0.1804
 6816SOL     OW31909   0.321   2.063   2.338  0.2237 -0.1646  0.4040
 6816SOL    HW131910   0.299   1.972   2.354 -0.5470 -0.1975 -0.8746
 6816SOL    HW231911   0.353   2.047   2.249  1.1945 -0.5886  0.8344
 6817SOL     OW31912   1.238   1.114  12.724 -0.4228  0.2335  0.5145
 6817SOL    HW131913   1.318   1.144  12.681 -0.4330  2.6003  2.1795
 6817SOL    HW231914   1.264   1.080  12.809  0.9066  0.1911  0.0927
 6818SOL     OW31915   3.607   2.856  12.349  0.1211 -0.1919  0.1692
 6818SOL    HW131916   3.524   2.903  12.334 -0.5263 -0.9176  1.5021
 6818SOL    HW231917   3.600   2.772  12.305  1.3317 -0.4448  0.4788
 6819SOL     OW31918   0.751   0.266   3.618 -0.0347 -0.5181 -0.0818
 6819SOL    HW131919   0.765   0.338   3.556 -2.1374 -0.8915 -1.0149
 6819SOL    HW231920   0.743   0.302   3.706  1.6358 -0.5683  0.0881
 6820SOL     OW31921   1.524   4.414  14.419 -0.3706 -0.3510 -0.0210
 6820SOL    HW131922   1.500   4.332  14.375  1.5433 -1.3940  0.9258
 6820SOL    HW231923   1.593   4.453  14.365  0.2773  1.0357  1.8337
 6821SOL     OW31924   0.370   4.684   7.135 -0.0663 -0.1303  0.0537
 6821SOL    HW131925   0.306   4.635   7.084  0.0803 -0.5923  0.3114
 6821SOL    HW231926   0.389   0.041   7.078  1.1574 -0.1440  0.4433
 6822SOL     OW31927   0.552   4.235   1.554  0.4635  0.2166 -0.1620
 6822SOL    HW131928   0.642   4.210   1.533  1.6878  3.5853  1.1200
 6822SOL    HW231929   0.554   4.331   1.553 -1.7227  0.2572  1.7038
 6823SOL     OW31930   1.252   3.126   5.817 -0.8141  0.0906  0.2020
 6823SOL    HW131931   1.205   3.046   5.840 -0.4962  0.1858  1.2206
 6823SOL    HW231932   1.208   3.192   5.872 -1.4042  0.3898 -0.6302
 6824SOL     OW31933   4.528   0.721   8.479  0.1222 -0.3208 -0.1841
 6824SOL    HW131934   4.433   0.713   8.492  0.2005 -0.7180  0.1401
 6824SOL    HW231935   4.550   0.644   8.427  1.1865  0.2896 -0.6427
 6825SOL     OW31936   2.446   3.321   2.877 -0.4842  0.0519  0.4517
 6825SOL    HW131937   2.419   3.381   2.808  3.2609  0.5115 -0.6032
 6825SOL    HW231938   2.374   3.305   2.939 -1.9409  1.9943 -0.7672
 6826SOL     OW31939   2.426   0.632  13.168 -0.3642 -0.1588 -0.1545
 6826SOL    HW131940   2.484   0.664  13.099 -1.8976  0.8992 -0.9556
 6826SOL    HW231941   2.371   0.710  13.176  1.4844  1.1094  0.1275
 6827SOL     OW31942   3.054   2.158  13.349 -0.1151 -0.0099  0.1104
 6827SOL    HW131943   3.056   2.252  13.334 -0.9400 -0.2290 -1.3509
 6827SOL    HW231944   3.071   2.127  13.260  2.5100  0.4818  0.4390
 6828SOL     OW31945   4.566   0.523  14.744 -0.3889 -0.0684  0.1079
 6828SOL    HW131946   4.489   0.579  14.756  0.9683  1.5583  1.2088
 6828SOL    HW231947   4.559   0.467  14.822 -0.1891  0.6227  0.6281
 6829SOL     OW31948   2.845   2.471   3.537 -0.0411 -0.2651 -0.2427
 6829SOL    HW131949   2.867   2.451   3.628 -1.7099 -0.5328  0.0863
 6829SOL    HW231950   2.764   2.521   3.533  0.4688  0.7443  2.2124
 6830SOL     OW31951   2.623   4.200  10.460 -0.0219  0.2148 -0.3140
 6830SOL    HW131952   2.530   4.216  10.442  0.2879  1.6147 -0.6330
 6830SOL    HW231953   2.650   4.183  10.370 -1.9558 -1.5620 -0.5671
 6831SOL     OW31954   4.546   2.282  12.253 -0.1916 -0.2448  0.8115
 6831SOL    HW131955   4.591   2.200  12.239  0.7597 -0.0819  2.8244
 6831SOL    HW231956   4.455   2.252  12.253 -0.5327  0.7649  0.8970
 6832SOL     OW31957   2.718   2.161   7.041  0.5687 -0.5711  0.4632
 6832SOL    HW131958   2.631   2.182   7.074 -0.4543 -0.6616 -2.2171
 6832SOL    HW231959   2.701   2.143   6.949  1.4227 -1.0912  0.4084
 6833SOL     OW31960   0.373   0.433  16.725 -0.1404  0.3733 -0.6308
 6833SOL    HW131961   0.458   0.476  16.714 -0.0257 -0.0139 -1.2558
 6833SOL    HW231962   0.400   0.377  16.797 -2.0392 -1.0056 -1.0020
 6834SOL     OW31963   0.403   3.403   1.645  0.2184 -0.1985 -0.3197
 6834SOL    HW131964   0.311   3.431   1.645 -0.0144 -0.9751  1.7277
 6834SOL    HW231965   0.432   3.431   1.558  2.3512 -2.4434 -0.3216
 6835SOL     OW31966   2.379   3.838  11.947  0.0513 -0.1610 -0.1989
 6835SOL    HW131967   2.357   3.864  12.036 -1.4589  2.0892 -1.2280
 6835SOL    HW231968   2.333   3.902  11.893  0.2865  1.5449  1.6588
 6836SOL     OW31969   0.511   3.751   0.608  0.2296 -0.3989  0.3834
 6836SOL    HW131970   0.598   3.745   0.568 -0.1049  2.9596 -0.8061
 6836SOL    HW231971   0.483   3.663   0.582  1.1553 -1.2817  2.3089
 6837SOL     OW31972   0.407   3.890  15.368  0.4271  0.8362  0.5272
 6837SOL    HW131973   0.451   3.972  15.348 -0.7124  1.2032 -0.4616
 6837SOL    HW231974   0.471   3.839  15.418 -2.6638 -2.6860  0.8355
 6838SOL     OW31975   1.950   0.848   9.654  0.0180  0.3198  0.2640
 6838SOL    HW131976   1.949   0.830   9.748 -1.8308  0.9666  0.3579
 6838SOL    HW231977   1.881   0.797   9.612 -0.0610  3.0782 -2.9622
 6839SOL     OW31978   3.488   4.551   7.175 -0.5257  0.0094  0.3707
 6839SOL    HW131979   3.470   4.577   7.084  0.0667  1.2073  0.5961
 6839SOL    HW231980   3.571   4.599   7.177 -0.4146 -0.1790  0.3226
 6840SOL     OW31981   1.876   2.293   6.442  0.3276 -0.1763 -0.0067
 6840SOL    HW131982   1.836   2.263   6.524  1.0284 -1.2991 -0.0793
 6840SOL    HW231983   1.968   2.270   6.456  0.8589  0.8074 -1.8973
 6841SOL     OW31984   3.015   3.256   7.435  0.7813  0.2867  0.0538
 6841SOL    HW131985   3.084   3.297   7.487 -0.6650 -0.2125  2.3972
 6841SOL    HW231986   3.059   3.242   7.352  2.1013 -1.1990  1.0081
 6842SOL     OW31987   0.006   2.168  10.868  0.1946  0.1884  0.0304
 6842SOL    HW131988   0.016   2.100  10.801 -0.9624  0.4429 -0.4050
 6842SOL    HW231989   0.083   2.146  10.920  0.0592 -1.7702 -0.5927
 6843SOL     OW31990   4.633   2.823   4.732 -0.2045 -0.3572 -0.0823
 6843SOL    HW131991   4.598   2.772   4.805  0.2696 -1.1018 -0.3725
 6843SOL    HW231992   0.003   2.787   4.726  0.2291  0.4981  1.1176
 6844SOL     OW31993   1.051   2.422  10.757  0.1639 -0.7815 -0.4561
 6844SOL    HW131994   1.137   2.408  10.719  0.3194 -1.7835  0.2738
 6844SOL    HW231995   1.050   2.484  10.831 -2.4326  0.1742 -1.3030
 6845SOL     OW31996   0.290   3.465  13.593 -0.3685 -0.0088 -0.2289
 6845SOL    HW131997   0.240   3.503  13.520 -0.6711  1.6057  0.8130
 6845SOL    HW231998   0.346   3.540  13.614 -0.1583 -0.5473  1.1013
 6846SOL     OW31999   2.943   1.123   8.339 -0.5109 -0.7161 -0.1020
 6846SOL    HW132000   2.865   1.168   8.308  0.1584  0.0788 -0.6150
 6846SOL    HW232001   2.968   1.163   8.422 -2.7446  0.8752 -0.1906
 6847SOL     OW32002   4.570   3.751   7.679  0.4864  0.2141  0.0463
 6847SOL    HW132003   4.642   3.687   7.679 -0.5538 -0.9464 -0.7147
 6847SOL    HW232004   4.577   3.788   7.767 -1.7005  1.6193 -0.3695
 6848SOL     OW32005   3.515   0.450   6.153 -0.3224  0.0687 -0.1096
 6848SOL    HW132006   3.464   0.491   6.224 -0.9488 -2.6739  1.0009
 6848SOL    HW232007   3.450   0.419   6.091 -0.6230  1.3494 -0.4371
 6849SOL     OW32008   0.538   3.190  15.693 -0.1459 -0.2129 -0.0340
 6849SOL    HW132009   0.550   3.105  15.651  1.5588  0.1908 -0.3589
 6849SOL    HW232010   0.567   3.243  15.618  1.0732  1.4838  1.6364
 6850SOL     OW32011   4.157   0.010  11.025 -0.0429  0.2532 -0.0615
 6850SOL    HW132012   4.114   0.093  11.044 -1.9376 -0.7647  0.0837
 6850SOL    HW232013   4.157   0.013  10.930 -2.5209 -1.2916 -0.1289
 6851SOL     OW32014   3.671   0.861   0.811  0.2194  0.2535  0.0290
 6851SOL    HW132015   3.734   0.930   0.831  0.2881  0.2380 -0.1347
 6851SOL    HW232016   3.679   0.821   0.897  0.0032  2.2426  0.9809
 6852SOL     OW32017   1.414   4.247  14.203  0.5830 -0.0722 -0.3008
 6852SOL    HW132018   1.328   4.246  14.246  0.1448 -1.7928 -1.2235
 6852SOL    HW232019   1.409   4.319  14.140 -0.0750 -2.1413 -2.5964
 6853SOL     OW32020   2.757   3.164   7.008  0.0979 -0.0108  0.0434
 6853SOL    HW132021   2.806   3.246   7.011 -1.4696  0.8504  2.2809
 6853SOL    HW232022   2.699   3.186   7.081  0.0153  1.3968 -0.4564
 6854SOL     OW32023   0.694   1.809   0.398 -0.2648  0.1797  0.5210
 6854SOL    HW132024   0.688   1.812   0.493 -1.5853 -0.0280  0.4415
 6854SOL    HW232025   0.787   1.820   0.381 -0.1233 -1.0633  0.4929
 6855SOL     OW32026   2.247   0.886  15.270 -0.1649  0.4387  0.4825
 6855SOL    HW132027   2.237   0.834  15.349  0.0571 -1.4493 -0.7373
 6855SOL    HW232028   2.169   0.941  15.276 -0.7982 -0.4819  0.6834
 6856SOL     OW32029   1.541   0.623  13.763 -0.1396 -0.4267 -0.3374
 6856SOL    HW132030   1.558   0.553  13.825  2.1283 -0.3098 -0.8106
 6856SOL    HW232031   1.456   0.656  13.792  0.0503 -0.1144 -0.1383
 6857SOL     OW32032   3.476   0.265   2.978  0.3144  0.1372  0.0341
 6857SOL    HW132033   3.489   0.177   2.942  1.4565  1.2650 -2.2678
 6857SOL    HW232034   3.563   0.304   2.974  1.2204 -2.0004 -1.3045
 6858SOL     OW32035   2.576   3.479   8.140  0.4049  0.3603 -0.4668
 6858SOL    HW132036   2.558   3.460   8.233 -1.6538 -1.8723 -1.3253
 6858SOL    HW232037   2.603   3.390   8.118  0.3074  0.5055 -1.1624
 6859SOL     OW32038   3.596   3.539   3.072  0.1561 -0.0480  0.1961
 6859SOL    HW132039   3.611   3.601   3.143 -4.0794  2.7506 -1.3403
 6859SOL    HW232040   3.683   3.520   3.038 -0.1697  0.5737 -0.9897
 6860SOL     OW32041   3.002   3.219   9.285  0.1595 -0.1220 -0.1885
 6860SOL    HW132042   3.053   3.155   9.235  0.5259 -2.1510  2.8131
 6860SOL    HW232043   2.929   3.163   9.311  0.7860 -1.2443 -0.8476
 6861SOL     OW32044   1.123   0.738   9.291  0.6079 -0.5654 -0.3788
 6861SOL    HW132045   1.162   0.735   9.379 -2.5028 -0.7009  0.9910
 6861SOL    HW232046   1.167   0.813   9.252 -0.2913 -0.4647 -1.1870
 6862SOL     OW32047   4.337   0.223   7.365  0.5371 -0.0823  0.0460
 6862SOL    HW132048   4.275   0.167   7.412  0.7419  0.5764  1.1040
 6862SOL    HW232049   4.380   0.155   7.313 -3.0143 -0.6538 -2.1993
 6863SOL     OW32050   1.427   3.151   8.438 -0.1201  0.8411  0.3324
 6863SOL    HW132051   1.365   3.145   8.365  0.3389 -3.5805  0.3442
 6863SOL    HW232052   1.499   3.189   8.387 -1.3390  1.8454 -0.6332
 6864SOL     OW32053   0.654   2.915   5.139  1.0133 -0.0035  0.5235
 6864SOL    HW132054   0.568   2.939   5.104  1.5901  2.5852  0.9454
 6864SOL    HW232055   0.660   2.819   5.134  0.3510  0.0231 -0.9006
 6865SOL     OW32056   3.482   0.134   0.546  0.2766  0.5704 -0.4930
 6865SOL    HW132057   3.465   0.096   0.632  4.1052 -2.5945 -1.1484
 6865SOL    HW232058   3.496   0.226   0.568  2.1511 -0.3900  2.3188
 6866SOL     OW32059   0.583   0.899   4.651 -0.2212  0.3547  0.0382
 6866SOL    HW132060   0.607   0.828   4.710  0.7608  2.0386  1.6506
 6866SOL    HW232061   0.609   0.864   4.566 -1.1892  4.5962 -2.0327
 6867SOL     OW32062   2.835   1.370  10.700  0.3372 -0.3061  0.1212
 6867SOL    HW132063   2.892   1.297  10.677  0.3582 -0.2956  0.1392
 6867SOL    HW232064   2.821   1.416  10.618 -1.5468  2.4205  1.9546
 6868SOL     OW32065   3.223   1.845   7.747  0.9084  0.2571  0.3793
 6868SOL    HW132066   3.165   1.887   7.811  1.1861  1.6048 -0.2472
 6868SOL    HW232067   3.301   1.900   7.749  1.6914 -0.7895 -1.2233
 6869SOL     OW32068   3.420   1.983  15.464  0.3143  0.4261 -0.0930
 6869SOL    HW132069   3.477   1.911  15.436 -2.0381 -0.8681 -1.6051
 6869SOL    HW232070   3.427   1.970  15.559 -1.5769  0.2993  0.0278
 6870SOL     OW32071   1.410   4.021  12.745  0.0656 -0.2488 -0.2392
 6870SOL    HW132072   1.332   3.986  12.789 -0.0909 -1.6191 -1.6125
 6870SOL    HW232073   1.392   4.115  12.744  1.7566  0.0761  0.0764
 6871SOL     OW32074   1.997   2.144   2.220  0.4167 -0.2476 -0.4955
 6871SOL    HW132075   2.017   2.238   2.225 -0.5090 -0.1871  2.0287
 6871SOL    HW232076   1.966   2.135   2.310 -1.0189  0.3473 -0.9201
 6872SOL     OW32077   0.252   0.506   8.676 -1.2413 -0.0575 -0.2198
 6872SOL    HW132078   0.205   0.579   8.717  0.5695  0.7142  0.4682
 6872SOL    HW232079   0.325   0.480   8.731  1.0295 -0.9610 -3.6271
 6873SOL     OW32080   2.358   3.706  11.363  0.3666 -0.0074 -0.0886
 6873SOL    HW132081   2.363   3.766  11.437 -0.6296 -0.2246  0.1682
 6873SOL    HW232082   2.425   3.752  11.312 -0.1466 -0.4294 -1.1617
 6874SOL     OW32083   1.534   0.365  12.805  0.1561 -0.4455  0.5222
 6874SOL    HW132084   1.492   0.418  12.873  1.2288 -0.4165  1.1698
 6874SOL    HW232085   1.527   0.418  12.726  0.0966 -0.3269  0.6058
 6875SOL     OW32086   2.567   2.653  16.770  0.4952  0.4832 -0.1277
 6875SOL    HW132087   2.545   2.724  16.831 -0.4657  0.2381 -0.1796
 6875SOL    HW232088   2.493   2.596  16.792 -0.1012  1.6433  0.9623
 6876SOL     OW32089   3.601   3.007   3.875  0.0476 -0.2416 -0.3640
 6876SOL    HW132090   3.635   3.010   3.964  1.5791  0.1705 -0.9710
 6876SOL    HW232091   3.592   2.914   3.854  1.1530 -0.2523 -0.7733
 6877SOL     OW32092   1.520   3.146   5.995  0.9225 -0.2117 -0.1452
 6877SOL    HW132093   1.456   3.107   5.936  1.3275 -0.3644 -0.4851
 6877SOL    HW232094   1.549   3.071   6.047 -2.0387  0.7564  2.8809
 6878SOL     OW32095   3.445   3.615   4.819  0.6253 -0.3081  0.6343
 6878SOL    HW132096   3.445   3.522   4.838  2.4332 -0.2566  0.8342
 6878SOL    HW232097   3.398   3.656   4.892 -1.9741 -1.5639 -0.3207
 6879SOL     OW32098   3.727   0.793   6.446 -0.2142 -0.4648  0.4260
 6879SOL    HW132099   3.685   0.815   6.364 -2.0537 -0.9168  1.2520
 6879SOL    HW232100   3.691   0.860   6.504  1.0601  0.9062 -0.3558
 6880SOL     OW32101   0.431   0.918   8.287 -0.4709 -0.5133 -0.4813
 6880SOL    HW132102   0.361   0.967   8.330 -0.8893 -2.2279  0.8211
 6880SOL    HW232103   0.389   0.896   8.203 -0.9984  0.0595 -0.3676
 6881SOL     OW32104   4.576   4.154  16.808  0.0959 -0.0026 -0.3287
 6881SOL    HW132105   4.510   4.160  16.739 -0.2636  0.9847  0.0927
 6881SOL    HW232106   4.653   4.112  16.772 -0.4564  0.8357 -2.5150
 6882SOL     OW32107   2.320   1.719   2.077  0.1975 -0.1981 -0.0997
 6882SOL    HW132108   2.286   1.665   2.148  0.3549 -0.7191 -0.4246
 6882SOL    HW232109   2.246   1.780   2.078  0.6226  0.2996  1.2112
 6883SOL     OW32110   4.585   1.107  13.050  0.4958  0.1299 -0.4310
 6883SOL    HW132111   4.522   1.123  13.120  1.9106 -3.3536  1.6664
 6883SOL    HW232112   4.671   1.123  13.089 -0.6029  2.5122  0.9805
 6884SOL     OW32113   1.545   3.146   2.218  0.0441  0.0557 -0.0264
 6884SOL    HW132114   1.483   3.082   2.252  0.5787  0.2695  1.3323
 6884SOL    HW232115   1.499   3.162   2.135  1.3385 -1.8017 -1.1172
 6885SOL     OW32116   3.578   2.916   4.740  0.6213  0.0104  0.1900
 6885SOL    HW132117   3.574   3.003   4.781 -1.1517  0.6172 -1.2900
 6885SOL    HW232118   3.594   2.868   4.821  0.0822  0.0424  0.3167
 6886SOL     OW32119   4.390   2.743   6.715  0.0438 -0.3724 -0.1363
 6886SOL    HW132120   4.471   2.744   6.664  0.0885 -1.5525 -0.0817
 6886SOL    HW232121   4.354   2.657   6.691 -0.0098 -0.4848  0.3520
 6887SOL     OW32122   2.899   1.671   7.365  0.3068 -0.1503  0.0248
 6887SOL    HW132123   2.925   1.700   7.452  0.4827 -0.6031  0.1230
 6887SOL    HW232124   2.917   1.744   7.307 -0.7018  1.3232  1.5901
 6888SOL     OW32125   3.599   3.872   5.113  0.1469  0.2982  0.2614
 6888SOL    HW132126   3.551   3.952   5.093 -1.1854 -0.6377 -0.3366
 6888SOL    HW232127   3.527   3.810   5.099 -1.4787  2.5724 -1.4014
 6889SOL     OW32128   4.711   2.981   5.870  0.2159 -0.0651 -0.5646
 6889SOL    HW132129   4.659   2.908   5.836  0.3796 -0.3481 -0.2106
 6889SOL    HW232130   0.006   3.028   5.788 -1.2724  0.6126 -0.4022
 6890SOL     OW32131   2.375   1.116   9.103  0.0944 -0.1829  0.1337
 6890SOL    HW132132   2.361   1.098   9.196  1.3040 -0.0326  0.3406
 6890SOL    HW232133   2.284   1.127   9.074 -0.0618  0.7243  0.9638
 6891SOL     OW32134   3.323   3.516   9.447  0.4041  0.2115  0.2504
 6891SOL    HW132135   3.384   3.559   9.387 -0.5700 -2.0225 -2.3286
 6891SOL    HW232136   3.253   3.493   9.386  0.4255  1.1784 -0.1360
 6892SOL     OW32137   0.207   4.606  12.347  0.7089  0.8755  0.0757
 6892SOL    HW132138   0.294   4.635  12.376  0.8972 -1.1222  1.4736
 6892SOL    HW232139   0.154   4.665  12.401 -0.4451 -0.2922  0.2028
 6893SOL     OW32140   1.223   0.968   9.230  0.0397  0.1989 -0.0687
 6893SOL    HW132141   1.224   1.046   9.174  1.1717 -0.3463 -0.8044
 6893SOL    HW232142   1.282   0.989   9.303 -1.8822  0.7717  1.3326
 6894SOL     OW32143   3.858   4.390   8.530  0.1366 -0.1364 -0.2389
 6894SOL    HW132144   3.802   4.418   8.602 -1.5750 -0.3056 -1.5190
 6894SOL    HW232145   3.847   4.464   8.470  0.1041  0.9841  1.1599
 6895SOL     OW32146   2.942   3.941   8.828  0.6728  0.1381 -0.2501
 6895SOL    HW132147   2.986   3.856   8.822  0.0481 -0.1465 -0.8743
 6895SOL    HW232148   2.893   3.934   8.909  1.1219  1.2545  0.1190
 6896SOL     OW32149   4.654   2.607  13.642 -0.4255  0.4156 -0.1840
 6896SOL    HW132150   4.579   2.648  13.684 -1.4377 -1.1750 -0.4586
 6896SOL    HW232151   0.004   2.645  13.699  1.2691 -0.0008 -1.8993
 6897SOL     OW32152   2.606   2.382  12.347  0.1555 -0.6518 -0.1283
 6897SOL    HW132153   2.564   2.364  12.431  2.5021 -2.0701  0.7626
 6897SOL    HW232154   2.686   2.331  12.364 -0.1683 -0.4787  1.9056
 6898SOL     OW32155   0.768   1.103   7.258 -0.0984  0.2142  0.6229
 6898SOL    HW132156   0.733   1.165   7.194  2.4439  0.5741 -0.4482
 6898SOL    HW232157   0.731   1.022   7.224  2.2116  0.2283 -1.9679
 6899SOL     OW32158   0.967   1.880   0.374  0.3474 -0.3005  0.1582
 6899SOL    HW132159   1.037   1.942   0.395  1.0422 -1.6865  1.9119
 6899SOL    HW232160   1.005   1.797   0.403  1.4084 -0.4170 -1.5663
 6900SOL     OW32161   1.470   1.661   3.392 -0.0371  0.1481 -0.5449
 6900SOL    HW132162   1.426   1.742   3.365 -0.1647  0.6817  1.2824
 6900SOL    HW232163   1.545   1.675   3.334 -0.9242  1.4884 -1.3737
 6901SOL     OW32164   3.305   3.635   7.583  0.3811  0.6078 -0.3916
 6901SOL    HW132165   3.290   3.710   7.526  1.6138  2.0402  1.1997
 6901SOL    HW232166   3.301   3.676   7.669  0.2687 -0.0307 -0.0964
 6902SOL     OW32167   4.385   1.139   7.600 -0.2596  0.6904 -0.3440
 6902SOL    HW132168   4.428   1.098   7.675 -2.0839 -0.8452 -0.1389
 6902SOL    HW232169   4.465   1.143   7.548 -0.2202  2.4473 -0.1715
 6903SOL     OW32170   3.512   4.711   2.906  0.4314  0.2093 -0.5115
 6903SOL    HW132171   3.503   4.640   2.970 -2.4499  0.8635 -0.2110
 6903SOL    HW232172   3.438   4.692   2.849  0.6334 -2.2913  0.0677
 6904SOL     OW32173   1.801   2.331  14.905  0.0188  0.3923 -0.1869
 6904SOL    HW132174   1.799   2.426  14.914  1.2849  0.0985  3.1482
 6904SOL    HW232175   1.750   2.309  14.983 -0.5380  1.2372 -0.3197
 6905SOL     OW32176   2.962   2.958  16.794  0.2434 -0.4246 -0.5787
 6905SOL    HW132177   2.900   2.892  16.825 -2.2703  2.6518  0.9072
 6905SOL    HW232178   2.952   2.942  16.700 -2.2260  1.1060 -0.5675
 6906SOL     OW32179   4.655   2.293   3.959  0.2523 -0.0531  0.0905
 6906SOL    HW132180   4.688   2.307   3.871  2.3046 -1.3491  0.6482
 6906SOL    HW232181   4.616   2.206   3.955  0.1363  0.0487 -0.8840
 6907SOL     OW32182   0.829   0.287   2.083  0.8359 -0.7169  0.2082
 6907SOL    HW132183   0.822   0.252   2.172  0.6678 -0.5608  0.2564
 6907SOL    HW232184   0.916   0.259   2.055  1.4449  0.2542  1.1081
 6908SOL     OW32185   1.798   3.943   6.960 -0.3302  0.0342  0.3822
 6908SOL    HW132186   1.771   3.864   6.913  2.3439  0.9066 -2.5834
 6908SOL    HW232187   1.824   4.003   6.890  1.0188 -0.2416  0.6533
 6909SOL     OW32188   1.202   2.641  11.593  0.5377 -0.0855 -0.3358
 6909SOL    HW132189   1.140   2.655  11.521  0.5985 -0.6778 -0.5052
 6909SOL    HW232190   1.211   2.730  11.625  0.3757 -0.8645  1.8775
 6910SOL     OW32191   4.505   0.619   6.714 -0.1489  0.0681 -0.3396
 6910SOL    HW132192   4.456   0.553   6.762 -0.9413  3.3354  3.3665
 6910SOL    HW232193   4.568   0.653   6.778 -0.1677  0.9558 -0.7849
 6911SOL     OW32194   1.157   3.988  13.427 -0.3664  0.3619 -0.2988
 6911SOL    HW132195   1.199   3.933  13.360  1.5211 -1.1498  2.0822
 6911SOL    HW232196   1.074   3.942  13.419  1.1548 -2.0252 -2.2346
 6912SOL     OW32197   4.297   2.347   0.982 -0.4511  1.0715  0.5633
 6912SOL    HW132198   4.297   2.408   0.908  1.6246 -0.0653 -0.3643
 6912SOL    HW232199   4.341   2.266   0.958 -0.2910  1.7144 -1.2968
 6913SOL     OW32200   3.400   4.097  13.335 -0.3945  0.5871 -0.6428
 6913SOL    HW132201   3.462   4.057  13.397 -1.0942  0.0956 -0.2605
 6913SOL    HW232202   3.419   4.032  13.267 -0.0115  1.0862 -1.0124
 6914SOL     OW32203   3.252   1.556   0.719 -0.6557 -0.3304  0.4842
 6914SOL    HW132204   3.307   1.490   0.761  0.6689  1.3067  1.3224
 6914SOL    HW232205   3.187   1.501   0.675  0.4376 -1.0906 -0.1757
 6915SOL     OW32206   0.920   1.575   6.849 -0.0470  0.3777 -0.2363
 6915SOL    HW132207   1.000   1.545   6.893  0.2562  1.4444 -0.0517
 6915SOL    HW232208   0.966   1.644   6.801 -1.2869  0.6316 -1.0393
 6916SOL     OW32209   1.281   0.725   8.786  0.0297 -0.1185  0.1173
 6916SOL    HW132210   1.330   0.798   8.825 -0.7084 -0.2325  1.2604
 6916SOL    HW232211   1.258   0.676   8.865  1.7369 -0.4638  0.4180
 6917SOL     OW32212   0.709   3.816  10.255 -0.1644 -0.0888 -0.2558
 6917SOL    HW132213   0.775   3.864  10.304  0.7892 -0.8944 -0.7578
 6917SOL    HW232214   0.726   3.844  10.165  0.8931  0.0126 -0.0237
 6918SOL     OW32215   2.342   1.059   3.339  0.4319 -0.0315 -0.1135
 6918SOL    HW132216   2.294   1.003   3.278 -0.3229  1.9915 -1.3806
 6918SOL    HW232217   2.318   1.022   3.424 -1.3710  1.4738  0.0410
 6919SOL     OW32218   3.227   3.697   6.356  0.0345  0.3206  0.1122
 6919SOL    HW132219   3.323   3.692   6.351  0.0196 -0.9812  1.2439
 6919SOL    HW232220   3.207   3.664   6.268  1.9374  1.7880 -0.8637
 6920SOL     OW32221   0.433   3.642   5.124 -0.1820  0.0549 -0.2942
 6920SOL    HW132222   0.436   3.733   5.154  1.9958 -0.1378  0.0826
 6920SOL    HW232223   0.365   3.614   5.185  0.6170 -0.2204  0.4601
 6921SOL     OW32224   0.396   0.170  17.286  0.0089 -0.0360 -0.3168
 6921SOL    HW132225   0.477   0.197  17.242  0.3291  1.4505  1.1684
 6921SOL    HW232226   0.329   0.220  17.240  0.0440 -1.0597 -1.4807
 6922SOL     OW32227   3.896   3.826   0.490  0.2178 -0.8943 -0.1574
 6922SOL    HW132228   3.949   3.898   0.455  0.5781 -0.8731  0.4238
 6922SOL    HW232229   3.817   3.842   0.438 -0.3932 -0.1221  1.0133
 6923SOL     OW32230   1.016   1.702   7.302  0.4602  0.0121 -0.1961
 6923SOL    HW132231   1.093   1.752   7.276  0.7683  0.7085  2.0301
 6923SOL    HW232232   0.969   1.766   7.355  0.5413  1.8165 -2.3247
 6924SOL     OW32233   2.183   0.049  14.038  0.6259  0.1736 -0.6921
 6924SOL    HW132234   2.126   0.018  13.967  0.7092 -0.2335 -0.5808
 6924SOL    HW232235   2.269   0.015  14.014  0.4824 -0.0392 -0.9057
 6925SOL     OW32236   3.615   2.982   5.772  0.2463  0.3694  0.0011
 6925SOL    HW132237   3.639   2.890   5.786  0.5312  0.2773 -1.0905
 6925SOL    HW232238   3.696   3.029   5.752 -0.2726  1.4159  0.4229
 6926SOL     OW32239   1.158   3.190   6.228 -0.7003  0.1743 -0.1284
 6926SOL    HW132240   1.086   3.227   6.175 -0.5785 -1.9134 -1.7387
 6926SOL    HW232241   1.147   3.095   6.230 -1.0374  0.1894 -0.9558
 6927SOL     OW32242   4.678   1.768   4.290 -0.3650 -0.4053 -0.0097
 6927SOL    HW132243   4.616   1.711   4.244 -0.3396 -0.2338 -0.2560
 6927SOL    HW232244   4.653   1.727   4.373  1.4490  0.0564  0.7666
 6928SOL     OW32245   0.191   2.124   2.065  0.9468 -0.0703  0.2904
 6928SOL    HW132246   0.259   2.058   2.072  0.7174 -0.1785  1.4946
 6928SOL    HW232247   0.120   2.066   2.038  1.7712 -0.3369 -1.2941
 6929SOL     OW32248   3.817   4.640  16.944  0.1125  0.6546  0.5699
 6929SOL    HW132249   3.809   4.546  16.960 -1.0358  0.7200  0.3787
 6929SOL    HW232250   3.739   4.646  16.889  0.5024  1.6777  0.1153
 6930SOL     OW32251   2.321   4.117   4.408 -0.1276  0.1311 -0.2667
 6930SOL    HW132252   2.389   4.137   4.345 -0.5050  1.0967 -0.3709
 6930SOL    HW232253   2.351   4.048   4.467  1.2773  0.7900 -0.2233
 6931SOL     OW32254   0.552   4.634   0.774  0.2575 -0.5305 -0.0928
 6931SOL    HW132255   0.510   4.556   0.811  0.2621 -1.2544 -1.6037
 6931SOL    HW232256   0.636   4.628   0.820 -0.2887  1.1572  1.1107
 6932SOL     OW32257   3.542   1.025  16.194  0.0530 -0.0436  0.1327
 6932SOL    HW132258   3.601   1.049  16.123 -1.2328 -1.9569 -1.5839
 6932SOL    HW232259   3.606   1.001  16.262 -0.9388 -1.4398  0.5847
 6933SOL     OW32260   4.515   1.592  13.528  0.2467  0.0507 -0.1866
 6933SOL    HW132261   4.522   1.652  13.603  0.2972  0.4923 -0.5480
 6933SOL    HW232262   4.552   1.641  13.455 -0.6443  0.8416 -0.1167
 6934SOL     OW32263   0.238   0.531   2.717 -0.5576  0.0458  0.3744
 6934SOL    HW132264   0.179   0.514   2.790 -1.4539 -1.0009 -0.6045
 6934SOL    HW232265   0.270   0.621   2.721 -0.7291  0.0813  0.8488
 6935SOL     OW32266   4.308   3.729   1.625  0.0130  0.4047  0.3233
 6935SOL    HW132267   4.395   3.743   1.587  1.0747 -0.5180  2.3963
 6935SOL    HW232268   4.339   3.745   1.714 -0.1807  0.5879  0.3592
 6936SOL     OW32269   3.576   0.611   8.317  0.7704 -0.2938 -0.3141
 6936SOL    HW132270   3.635   0.677   8.353 -0.4991  1.4575 -1.4647
 6936SOL    HW232271   3.492   0.642   8.351  1.3287  0.8060  0.0526
 6937SOL     OW32272   1.511   0.369   8.627  0.0322 -0.3993  0.0907
 6937SOL    HW132273   1.589   0.424   8.615 -0.3111  0.1294  0.2769
 6937SOL    HW232274   1.545   0.279   8.627 -0.2294 -0.4763 -3.2874
 6938SOL     OW32275   2.577   3.187   7.218  0.0832  0.1750 -0.9362
 6938SOL    HW132276   2.484   3.174   7.238  0.4508 -0.3851  0.4208
 6938SOL    HW232277   2.604   3.096   7.218 -1.2991 -0.2380  3.0781
 6939SOL     OW32278   0.961   4.554   2.913  0.2346 -0.2773 -0.4704
 6939SOL    HW132279   0.934   4.642   2.942 -0.5604 -0.6861  0.0370
 6939SOL    HW232280   0.991   4.516   2.996 -2.0398  1.4847  1.1499
 6940SOL     OW32281   1.207   3.467   7.978 -0.0743 -0.4388  0.2464
 6940SOL    HW132282   1.285   3.506   7.938  0.1952 -1.9613 -0.6883
 6940SOL    HW232283   1.246   3.452   8.064 -0.9164  1.3830  0.9513
 6941SOL     OW32284   0.436   2.104  14.752 -0.2360 -0.6507 -0.4052
 6941SOL    HW132285   0.467   2.102  14.661 -1.2812 -2.6969 -0.7229
 6941SOL    HW232286   0.511   2.157  14.779 -0.0230 -0.8976 -0.5121
 6942SOL     OW32287   2.755   1.980   1.670  0.1713 -0.4050  0.1003
 6942SOL    HW132288   2.673   2.023   1.646 -0.1620 -0.4502  1.1239
 6942SOL    HW232289   2.758   1.988   1.766  0.7265  0.1697  0.0291
 6943SOL     OW32290   2.654   0.760  15.910  0.7836 -0.0571  0.5120
 6943SOL    HW132291   2.628   0.668  15.912  1.3615 -0.2267  0.3155
 6943SOL    HW232292   2.697   0.775  15.994 -0.5998 -0.5655  1.3075
 6944SOL     OW32293   3.030   3.756   1.147 -0.4481 -0.4054  0.4556
 6944SOL    HW132294   3.020   3.735   1.054  0.2831  0.8202  0.1050
 6944SOL    HW232295   3.112   3.803   1.157  0.1605 -1.5290  0.7836
 6945SOL     OW32296   3.973   0.620   3.140 -0.0139 -0.4693 -0.3538
 6945SOL    HW132297   3.903   0.620   3.075 -0.4548 -3.7488  0.1085
 6945SOL    HW232298   3.957   0.531   3.171 -1.7930  0.5118  1.5206
 6946SOL     OW32299   1.730   3.965  12.309  0.1198  0.1895  0.0407
 6946SOL    HW132300   1.658   3.973  12.371  0.1357 -2.3585  0.3817
 6946SOL    HW232301   1.809   3.992  12.355 -0.9768  1.8298  0.9643
 6947SOL     OW32302   2.052   3.699   3.240  0.1002  0.3914 -0.5677
 6947SOL    HW132303   2.057   3.681   3.334 -0.4929  0.5464 -0.5050
 6947SOL    HW232304   2.028   3.790   3.254 -2.8841 -0.7674  1.7823
 6948SOL     OW32305   0.858   4.274   2.823  0.2673  0.8006  0.5661
 6948SOL    HW132306   0.872   4.369   2.822  1.2295  0.6639  0.9714
 6948SOL    HW232307   0.882   4.254   2.733 -0.1655  0.1081  0.6031
 6949SOL     OW32308   2.346   4.464   5.884  1.0220 -0.3857 -0.3320
 6949SOL    HW132309   2.371   4.438   5.973 -3.3830  0.2790  1.1441
 6949SOL    HW232310   2.253   4.447   5.902  0.5531  1.8171 -0.6163
 6950SOL     OW32311   4.612   3.153   0.392 -0.2466  0.8768 -0.3095
 6950SOL    HW132312   4.613   3.247   0.372 -1.6278  0.8089 -0.6718
 6950SOL    HW232313   4.530   3.155   0.441 -1.1643  0.5669 -1.8143
 6951SOL     OW32314   3.511   2.362   4.855 -0.2206  0.0734  0.4389
 6951SOL    HW132315   3.540   2.342   4.766 -0.8617 -0.9870  0.4703
 6951SOL    HW232316   3.443   2.296   4.863  1.1874 -1.2125  1.7227
 6952SOL     OW32317   2.034   2.546  14.638  0.0214  0.0649 -0.6819
 6952SOL    HW132318   1.958   2.584  14.593 -0.0147  1.2397  0.3616
 6952SOL    HW232319   2.097   2.542  14.566 -0.1056 -0.8643 -0.7379
 6953SOL     OW32320   4.359   4.021   2.486  0.2818 -0.3342 -0.6130
 6953SOL    HW132321   4.294   3.954   2.462 -1.3591  2.5872 -4.2707
 6953SOL    HW232322   4.313   4.101   2.460 -0.2609 -0.3441  0.3043
 6954SOL     OW32323   0.440   0.415   3.454 -0.0164 -0.2133 -0.3935
 6954SOL    HW132324   0.468   0.377   3.371 -2.0477 -1.3776 -0.5594
 6954SOL    HW232325   0.344   0.422   3.449 -0.0674 -0.8515 -0.3545
 6955SOL     OW32326   2.095   3.521   0.223  0.3746 -0.6194 -0.4850
 6955SOL    HW132327   2.034   3.470   0.277  0.1878  1.5681  1.3877
 6955SOL    HW232328   2.166   3.549   0.280 -0.8747  0.6781  0.4533
 6956SOL     OW32329   0.782   2.148  14.680 -0.3845 -0.7818  0.1017
 6956SOL    HW132330   0.829   2.208  14.623 -0.0821 -1.4816 -0.3918
 6956SOL    HW232331   0.699   2.194  14.675 -0.8767 -1.6380  0.2965
 6957SOL     OW32332   0.441   2.344   4.920  0.3937 -0.6442 -0.0835
 6957SOL    HW132333   0.498   2.309   4.852  0.4603 -2.2943  0.8256
 6957SOL    HW232334   0.485   2.429   4.922  3.6688 -2.3278 -0.8024
 6958SOL     OW32335   2.374   1.776  13.703 -0.1798  0.5005  0.1253
 6958SOL    HW132336   2.333   1.819  13.628 -0.3809  1.5534  0.8478
 6958SOL    HW232337   2.297   1.747  13.752 -0.9515  2.1274 -0.1233
 6959SOL     OW32338   3.399   2.546   7.932  0.2876  0.4951 -0.1013
 6959SOL    HW132339   3.403   2.640   7.913  1.2086  0.7699  1.4399
 6959SOL    HW232340   3.343   2.517   7.860  2.4961 -0.2776 -1.5243
 6960SOL     OW32341   0.800   1.842   1.188 -0.3871 -0.7269  0.1701
 6960SOL    HW132342   0.721   1.832   1.241  0.3109 -1.1232  1.1475
 6960SOL    HW232343   0.771   1.824   1.099 -0.7957 -2.5239  0.6685
 6961SOL     OW32344   3.499   1.648  17.119 -0.3021  0.0575  0.1396
 6961SOL    HW132345   3.428   1.708  17.139 -0.7646 -0.7977  1.0566
 6961SOL    HW232346   3.460   1.563  17.144  1.7279 -0.7560  0.5750
 6962SOL     OW32347   3.962   3.865   3.944 -0.5896 -0.0506  0.1532
 6962SOL    HW132348   4.016   3.915   3.883 -1.1943  1.5958  0.9718
 6962SOL    HW232349   3.921   3.817   3.873  0.1088  1.2231 -1.1161
 6963SOL     OW32350   1.773   2.036  12.366 -0.5486 -0.0858 -0.1609
 6963SOL    HW132351   1.696   1.996  12.326 -1.0195  2.2656 -1.5874
 6963SOL    HW232352   1.778   1.990  12.450  1.9364  0.8773  0.2299
 6964SOL     OW32353   2.864   4.017   2.846  0.2047 -0.4055  0.2282
 6964SOL    HW132354   2.906   3.937   2.812 -2.3350 -1.9793  0.7583
 6964SOL    HW232355   2.883   3.995   2.937 -2.7420 -2.1200  0.4488
 6965SOL     OW32356   0.223   3.409   3.770 -0.1427 -0.0207 -0.0678
 6965SOL    HW132357   0.236   3.459   3.689 -0.5416 -1.2146 -0.8695
 6965SOL    HW232358   0.236   3.322   3.732  2.6360  0.5549 -0.4563
 6966SOL     OW32359   1.793   3.046  13.288 -0.2347  0.4023  0.1693
 6966SOL    HW132360   1.732   3.106  13.245 -1.8067 -2.9683 -2.2541
 6966SOL    HW232361   1.866   3.045  13.227  0.9994  2.5824  1.6184
 6967SOL     OW32362   4.456   2.234   6.103  0.3749  0.4715 -0.0197
 6967SOL    HW132363   4.399   2.168   6.144  0.9695 -0.8152 -1.2624
 6967SOL    HW232364   4.464   2.310   6.160 -1.1119 -0.1355  1.0180
 6968SOL     OW32365   3.530   2.892  12.604 -0.1878  0.0001  0.0323
 6968SOL    HW132366   3.614   2.924  12.637 -0.3766 -0.4315  0.9321
 6968SOL    HW232367   3.550   2.889  12.510  0.6472  1.2835  0.1667
 6969SOL     OW32368   2.948   1.266  11.856 -0.2223 -0.1731  0.6276
 6969SOL    HW132369   2.853   1.275  11.846 -0.0096  1.9140  0.5110
 6969SOL    HW232370   2.956   1.184  11.906 -0.3344 -0.2957  0.4426
 6970SOL     OW32371   2.873   2.967   3.568  0.1918 -0.5968 -0.4992
 6970SOL    HW132372   2.781   2.992   3.558  0.1408  0.0986  1.7139
 6970SOL    HW232373   2.871   2.957   3.664 -1.4770 -0.9712 -0.5646
 6971SOL     OW32374   3.074   3.648   8.215 -0.4867  0.4420 -1.1031
 6971SOL    HW132375   3.025   3.638   8.134 -0.0683 -2.5384 -0.9669
 6971SOL    HW232376   3.054   3.564   8.256  0.0639  0.0626 -1.6136
 6972SOL     OW32377   2.412   3.628   3.106 -0.0554  0.0705  0.0062
 6972SOL    HW132378   2.333   3.607   3.057 -1.0521  0.8868  1.2833
 6972SOL    HW232379   2.471   3.614   3.032 -0.1379 -0.1039 -0.0271
 6973SOL     OW32380   4.098   1.157  11.038  0.3591 -0.1024 -0.1962
 6973SOL    HW132381   4.010   1.157  11.074  0.4371  0.4485  0.0001
 6973SOL    HW232382   4.100   1.244  10.999 -0.5130 -0.3467 -0.7845
 6974SOL     OW32383   3.820   3.962   4.563 -0.0309 -0.3645 -0.1992
 6974SOL    HW132384   3.834   3.868   4.552 -0.0830 -0.1222 -2.2701
 6974SOL    HW232385   3.871   3.985   4.642  0.3351  1.0993 -0.8498
 6975SOL     OW32386   3.013   3.582   5.612  0.3928 -0.3847  0.3319
 6975SOL    HW132387   2.965   3.585   5.530  0.2116 -1.8052  0.3856
 6975SOL    HW232388   3.051   3.494   5.613 -0.1385 -0.6340 -0.8791
 6976SOL     OW32389   1.015   0.974   2.895 -0.3956 -0.0109 -0.2431
 6976SOL    HW132390   0.952   0.925   2.947 -0.3947  1.7745  1.4209
 6976SOL    HW232391   0.974   1.060   2.894 -0.6849 -0.1486 -0.9394
 6977SOL     OW32392   1.901   2.908   3.951  0.4618 -0.1060 -0.2068
 6977SOL    HW132393   1.808   2.924   3.939  0.2285 -1.5251 -0.3530
 6977SOL    HW232394   1.937   2.974   3.892  1.0887 -0.4466 -0.2129
 6978SOL     OW32395   3.590   4.674   5.773  0.0457  0.4664 -0.0893
 6978SOL    HW132396   3.501   4.652   5.744  0.0234 -2.1810  1.9656
 6978SOL    HW232397   3.617   0.003   5.694 -1.5856 -1.0415 -1.5368
 6979SOL     OW32398   2.196   2.916  14.180  0.5355  0.3762 -0.5707
 6979SOL    HW132399   2.125   2.976  14.204 -2.3333 -1.9185 -3.3019
 6979SOL    HW232400   2.177   2.912  14.087 -1.3104  1.8519 -0.2522
 6980SOL     OW32401   3.259   4.556   9.509  0.1874  0.3068  0.1273
 6980SOL    HW132402   3.283   4.643   9.477  1.0915 -0.6318 -1.7638
 6980SOL    HW232403   3.337   4.503   9.494 -0.9184 -1.8142  1.7530
 6981SOL     OW32404   2.259   3.211   6.422  0.3230 -0.9643 -0.3536
 6981SOL    HW132405   2.330   3.274   6.415 -2.4781  2.1437 -0.6404
 6981SOL    HW232406   2.288   3.143   6.361 -0.7056 -2.2464  0.5886
 6982SOL     OW32407   1.595   2.681   0.139  0.6575 -0.2364 -0.6854
 6982SOL    HW132408   1.689   2.686   0.118  0.3780  0.7642 -1.6963
 6982SOL    HW232409   1.592   2.616   0.209  0.9782  0.3746 -0.1023
 6983SOL     OW32410   4.545   2.777   5.356  0.3920 -0.5896  0.1322
 6983SOL    HW132411   4.624   2.750   5.401  0.8054 -1.3874 -1.0771
 6983SOL    HW232412   4.521   2.842   5.422  0.2901 -0.5401  0.0469
 6984SOL     OW32413   3.637   3.126   1.741 -0.2617  0.0158  0.3757
 6984SOL    HW132414   3.572   3.196   1.735 -0.9737 -0.7039 -0.2918
 6984SOL    HW232415   3.585   3.060   1.787 -0.8736  1.7589  2.1748
 6985SOL     OW32416   3.014   1.623   7.921 -0.4198 -0.7178 -0.1533
 6985SOL    HW132417   2.959   1.588   7.850 -2.0288  1.5327  0.0104
 6985SOL    HW232418   2.956   1.689   7.958  0.9276 -0.1320  0.8870
 6986SOL     OW32419   0.080   4.631   3.915 -0.1874  0.0182  0.0835
 6986SOL    HW132420   0.057   4.707   3.969  0.1848  0.0772  0.1592
 6986SOL    HW232421   0.130   4.681   3.850 -2.6209  2.1196 -0.1864
 6987SOL     OW32422   4.077   3.103   2.619 -0.5666 -0.1382  0.4402
 6987SOL    HW132423   4.108   3.078   2.706  0.9766  1.8649  0.4690
 6987SOL    HW232424   4.157   3.120   2.569 -1.3023  1.1238 -0.3064
 6988SOL     OW32425   3.458   3.281   5.376  0.4974 -0.2850 -0.7141
 6988SOL    HW132426   3.517   3.305   5.448  0.0464  1.6593 -0.9836
 6988SOL    HW232427   3.390   3.221   5.405 -0.7602  0.6386 -1.7775
 6989SOL     OW32428   3.594   0.571   1.326  0.0950  0.9323 -0.2029
 6989SOL    HW132429   3.552   0.541   1.406  1.8600  0.9311  0.7325
 6989SOL    HW232430   3.655   0.498   1.317 -3.0294 -1.7560  0.8785
 6990SOL     OW32431   2.729   1.997  12.568  0.3172  0.2289 -0.2640
 6990SOL    HW132432   2.772   2.009  12.653  3.0686 -1.7318 -1.4001
 6990SOL    HW232433   2.637   2.016  12.584  0.3365 -0.4457  0.6651
 6991SOL     OW32434   3.039   3.148   8.257 -0.0157  0.2818  0.0468
 6991SOL    HW132435   3.117   3.109   8.297  0.4975  0.6764 -0.5643
 6991SOL    HW232436   3.028   3.096   8.178 -0.0353  0.6632 -0.2045
 6992SOL     OW32437   0.659   4.656   8.240  0.2552  0.3130 -0.5526
 6992SOL    HW132438   0.606   4.579   8.223 -1.4538  0.9571  1.7986
 6992SOL    HW232439   0.621   4.667   8.327 -2.0952 -2.4909 -1.2363
 6993SOL     OW32440   3.723   2.143   6.401 -0.4208  0.4456 -0.0067
 6993SOL    HW132441   3.770   2.114   6.322 -2.3006  0.7623 -1.2441
 6993SOL    HW232442   3.696   2.058   6.433 -3.0964  1.1906 -0.3040
 6994SOL     OW32443   4.167   0.409   1.086 -0.7752  0.0944 -0.6352
 6994SOL    HW132444   4.220   0.399   1.008 -1.0850 -0.6694 -0.7483
 6994SOL    HW232445   4.085   0.366   1.061 -1.6629  1.3467  0.0765
 6995SOL     OW32446   0.159   3.363   2.444 -0.2011 -0.7646  0.1247
 6995SOL    HW132447   0.239   3.310   2.439 -1.8056 -2.9814 -1.4801
 6995SOL    HW232448   0.088   3.299   2.444  0.5033 -1.5239 -1.2103
 6996SOL     OW32449   0.259   3.086   6.092  0.0962 -0.0790 -0.1578
 6996SOL    HW132450   0.312   3.080   6.012  1.4436  2.4790  0.5556
 6996SOL    HW232451   0.209   3.168   6.089 -0.6551 -0.4655  1.7478
 6997SOL     OW32452   2.430   3.366   1.419 -0.2345  0.3482 -0.8632
 6997SOL    HW132453   2.365   3.423   1.458 -0.4092 -1.0956  0.9327
 6997SOL    HW232454   2.404   3.373   1.327 -2.8234  3.7690  0.1370
 6998SOL     OW32455   0.459   0.226  13.009 -0.1368  0.4602  0.1029
 6998SOL    HW132456   0.429   0.284  12.939  0.9313 -1.2167 -1.7642
 6998SOL    HW232457   0.535   0.279  13.032  0.8019 -0.0394 -1.8295
 6999SOL     OW32458   0.875   4.678   9.337 -0.1304 -0.3244  0.1483
 6999SOL    HW132459   0.919   4.594   9.326 -0.0344 -0.5124  1.9869
 6999SOL    HW232460   0.884   0.005   9.252  0.0905 -3.8448 -1.6760
 7000SOL     OW32461   4.276   4.549  16.493  0.2028 -0.0882 -0.3505
 7000SOL    HW132462   4.185   4.573  16.509  0.0324  0.6410 -2.3954
 7000SOL    HW232463   4.322   4.611  16.549 -0.4852  0.2679 -0.1858
 7001SOL     OW32464   0.360   1.220   2.160 -0.4846 -0.7994 -0.1046
 7001SOL    HW132465   0.409   1.291   2.202  0.8429 -0.9732 -1.3547
 7001SOL    HW232466   0.320   1.173   2.233  2.1913  0.4147  2.1162
 7002SOL     OW32467   2.789   3.661  11.051  0.6463  0.0637  0.0051
 7002SOL    HW132468   2.765   3.623  10.967 -1.5579  0.6274  0.3624
 7002SOL    HW232469   2.844   3.594  11.091 -0.1627 -0.9643 -0.6096
 7003SOL     OW32470   4.374   2.509  10.595 -0.1319 -0.0249  0.2546
 7003SOL    HW132471   4.403   2.590  10.637 -0.3204  1.6974 -2.9674
 7003SOL    HW232472   4.345   2.452  10.666  1.6739 -0.2809  0.7928
 7004SOL     OW32473   1.332   3.117   4.451  0.3873 -0.2052  0.0693
 7004SOL    HW132474   1.302   3.120   4.542 -1.6781 -2.1327 -0.5385
 7004SOL    HW232475   1.418   3.159   4.454  0.4793 -0.3122 -1.0810
 7005SOL     OW32476   4.634   0.276   0.324  0.2097  0.1516 -0.1403
 7005SOL    HW132477   4.615   0.223   0.247 -0.6998  2.7486 -1.6778
 7005SOL    HW232478   4.552   0.276   0.372  0.1475  0.9206 -0.2487
 7006SOL     OW32479   3.319   4.074   2.161  0.0163  0.1222 -0.3812
 7006SOL    HW132480   3.332   4.086   2.067 -1.2747  1.7093 -0.3361
 7006SOL    HW232481   3.363   4.151   2.198  0.7540 -0.4015 -0.1582
 7007SOL     OW32482   3.300   1.843  16.918 -0.0021  0.4157 -0.2066
 7007SOL    HW132483   3.233   1.888  16.970  0.6784 -1.3902  2.1887
 7007SOL    HW232484   3.376   1.901  16.918  0.0904  0.3078 -3.5356
 7008SOL     OW32485   2.730   4.218   9.217 -0.2222  0.1359  0.1284
 7008SOL    HW132486   2.704   4.307   9.192  0.7535  0.2833 -0.3392
 7008SOL    HW232487   2.814   4.242   9.254  0.1791 -0.9195 -0.1073
 7009SOL     OW32488   1.898   1.300  12.376  0.3317  0.3919  0.2407
 7009SOL    HW132489   1.927   1.368  12.314 -0.0344  1.5361  1.3193
 7009SOL    HW232490   1.951   1.226  12.346 -1.0011 -1.3365  2.1568
 7010SOL     OW32491   2.007   3.695  12.387  0.3681 -0.2367 -0.4463
 7010SOL    HW132492   1.934   3.634  12.388 -0.0373  0.2726  0.5545
 7010SOL    HW232493   2.021   3.718  12.479  0.5328  1.1703 -0.8141
 7011SOL     OW32494   1.556   0.091   3.139  0.4716  0.0345 -0.0975
 7011SOL    HW132495   1.593   0.065   3.055 -2.2873 -2.8977 -0.3906
 7011SOL    HW232496   1.637   0.135   3.166  1.9952 -0.7054 -3.4653
 7012SOL     OW32497   1.867   0.138   7.485 -0.4161  0.3254 -0.2489
 7012SOL    HW132498   1.795   0.136   7.547 -2.0187  0.4411 -2.1285
 7012SOL    HW232499   1.824   0.070   7.433 -0.2319 -0.2054  0.2959
 7013SOL     OW32500   4.459   1.085   2.360  0.0013 -0.1995 -0.1682
 7013SOL    HW132501   4.426   1.079   2.450 -2.0262  0.7197 -0.8397
 7013SOL    HW232502   4.450   0.992   2.336  0.3879 -0.6494  1.4437
 7014SOL     OW32503   2.975   2.166   1.850 -0.2421 -0.4634 -0.4099
 7014SOL    HW132504   3.034   2.093   1.835 -0.4188 -0.2842 -1.9633
 7014SOL    HW232505   3.017   2.201   1.929 -1.1559  1.7501 -0.9029
 7015SOL     OW32506   3.918   1.591   7.419 -0.4931  0.6467  0.3441
 7015SOL    HW132507   3.932   1.590   7.514  2.2987 -1.1627 -0.0995
 7015SOL    HW232508   3.872   1.511   7.393  1.0279 -0.0668 -0.1400
 7016SOL     OW32509   1.074   1.917   4.505  0.1136 -0.4992  0.2504
 7016SOL    HW132510   1.067   1.822   4.493 -0.3792 -0.4255 -0.0482
 7016SOL    HW232511   1.157   1.938   4.548 -0.2662 -0.2925  0.8829
 7017SOL     OW32512   2.134   0.159   1.768 -0.6032  0.6500  0.1419
 7017SOL    HW132513   2.116   0.158   1.673  0.1359 -1.7753  0.0267
 7017SOL    HW232514   2.229   0.159   1.768 -0.5943  1.4090 -0.8494
 7018SOL     OW32515   2.731   0.739   7.727 -0.5723 -0.2170 -0.4530
 7018SOL    HW132516   2.662   0.704   7.784 -0.9138  1.1477 -0.0334
 7018SOL    HW232517   2.726   0.673   7.657 -0.0904  0.8101 -1.4541
 7019SOL     OW32518   3.973   4.337  12.681 -0.7732  0.0852 -0.1113
 7019SOL    HW132519   3.879   4.336  12.665 -0.8308  0.7705  0.1934
 7019SOL    HW232520   3.981   4.243  12.698  0.3940 -0.3271 -2.9678
 7020SOL     OW32521   0.434   3.646   7.677  0.3186  0.2973 -0.1886
 7020SOL    HW132522   0.525   3.634   7.706  0.1216  0.0355  0.3149
 7020SOL    HW232523   0.417   3.571   7.618  0.4865  1.1103 -1.2755
 7021SOL     OW32524   0.539   3.891   3.090 -0.0988 -0.4985 -0.2577
 7021SOL    HW132525   0.582   3.941   3.020 -1.7145  3.3274  1.4907
 7021SOL    HW232526   0.608   3.833   3.123  1.1263  1.4917  0.7302
 7022SOL     OW32527   0.196   3.296  10.229  0.0460 -0.4238 -0.0121
 7022SOL    HW132528   0.151   3.369  10.273  0.5317 -0.2805  0.2464
 7022SOL    HW232529   0.263   3.340  10.178  0.5811  0.7799  1.7122
 7023SOL     OW32530   2.915   1.164   0.959 -0.3880 -0.6717 -0.1858
 7023SOL    HW132531   2.854   1.097   0.929 -0.4323 -0.8518  0.3110
 7023SOL    HW232532   2.991   1.116   0.992  0.8348  0.3962 -1.4525
 7024SOL     OW32533   2.612   1.413  16.785  0.3260  0.4805  0.4160
 7024SOL    HW132534   2.655   1.339  16.742  0.3811  0.3039  0.7745
 7024SOL    HW232535   2.523   1.390  16.758  1.0044 -0.3149 -1.1414
 7025SOL     OW32536   1.044   3.211  12.391  0.3530  1.1565 -0.2243
 7025SOL    HW132537   1.064   3.289  12.443  1.5055  0.4039  0.4464
 7025SOL    HW232538   1.095   3.149  12.443 -0.9808 -0.9686 -1.4853
 7026SOL     OW32539   4.417   3.197   4.729  0.0994 -0.4066  0.2112
 7026SOL    HW132540   4.380   3.177   4.815 -0.4242  1.7156  0.4707
 7026SOL    HW232541   4.501   3.154   4.747  1.1781  1.0694 -1.2868
 7027SOL     OW32542   1.887   2.589  16.721  0.2991 -0.7850 -0.0673
 7027SOL    HW132543   1.824   2.661  16.730  1.3593  0.0630  0.5502
 7027SOL    HW232544   1.900   2.588  16.626  0.1287  0.5795 -0.1022
 7028SOL     OW32545   2.685   2.030   3.235 -0.3007 -0.3122  0.2694
 7028SOL    HW132546   2.718   2.115   3.263  1.5074 -1.5211  1.8748
 7028SOL    HW232547   2.759   1.982   3.197  1.0721  1.4531  0.7163
 7029SOL     OW32548   2.811   0.820   3.713  0.3588  0.0306 -0.8339
 7029SOL    HW132549   2.792   0.848   3.623  0.4695  3.3389  0.1474
 7029SOL    HW232550   2.854   0.899   3.747  0.4492  0.2869 -1.5452
 7030SOL     OW32551   3.870   1.883   9.696 -0.4197 -0.5998 -0.0258
 7030SOL    HW132552   3.857   1.917   9.608 -1.2196  1.6741  0.9693
 7030SOL    HW232553   3.958   1.913   9.720  0.2912 -1.2585 -1.8290
 7031SOL     OW32554   1.525   0.667  12.061  0.2807  0.2995  0.1154
 7031SOL    HW132555   1.452   0.610  12.087  0.9017 -0.4113  0.2951
 7031SOL    HW232556   1.536   0.723  12.138  0.8525  0.7885 -0.3238
 7032SOL     OW32557   2.514   2.889   8.704  0.5319 -0.4776 -1.1468
 7032SOL    HW132558   2.422   2.902   8.724  0.5552 -0.9722 -0.7245
 7032SOL    HW232559   2.498   2.796   8.688 -1.3144 -0.2357 -0.7071
 7033SOL     OW32560   0.644   2.923  13.484  0.2782  0.1012  0.1036
 7033SOL    HW132561   0.640   2.953  13.575 -3.0209 -0.4114  0.0950
 7033SOL    HW232562   0.723   2.968  13.451  0.1339 -0.3055 -0.7774
 7034SOL     OW32563   4.326   0.987   2.848 -0.1318  0.6776  0.4347
 7034SOL    HW132564   4.404   0.971   2.900 -0.6430  2.0427  1.6303
 7034SOL    HW232565   4.265   0.931   2.896 -2.0869  4.7433  2.7517
 7035SOL     OW32566   3.305   0.704   6.796  0.3255  0.2072 -0.0616
 7035SOL    HW132567   3.219   0.739   6.819  0.8511  2.1865 -1.1086
 7035SOL    HW232568   3.277   0.612   6.797 -1.2508  0.6729 -1.3368
 7036SOL     OW32569   0.512   2.437   7.510  0.1187 -0.0018  0.4308
 7036SOL    HW132570   0.567   2.422   7.587 -1.1576 -0.4533  1.2544
 7036SOL    HW232571   0.505   2.347   7.480  0.8229  0.2341 -0.4457
 7037SOL     OW32572   4.083   1.759  15.879 -0.3537  0.1419  0.8915
 7037SOL    HW132573   4.170   1.786  15.849 -0.4906  1.5226  1.7431
 7037SOL    HW232574   4.077   1.663  15.876  0.6326  0.1226 -0.3367
 7038SOL     OW32575   0.669   0.400   8.076 -0.1089 -0.1644  0.1075
 7038SOL    HW132576   0.716   0.460   8.133 -0.9633  0.6785 -0.0645
 7038SOL    HW232577   0.744   0.370   8.025  0.3933  0.8930  0.2393
 7039SOL     OW32578   1.200   2.816   4.416  0.0644  0.0598  0.5968
 7039SOL    HW132579   1.111   2.852   4.422  0.1542 -0.2351  3.8321
 7039SOL    HW232580   1.177   2.730   4.381  1.2913 -0.8540  2.0573
 7040SOL     OW32581   0.478   1.229   6.778  0.5103 -0.0661  0.4450
 7040SOL    HW132582   0.522   1.148   6.807  0.8722  0.5067  1.5167
 7040SOL    HW232583   0.398   1.227   6.831  1.0508  0.7037  1.2917
 7041SOL     OW32584   0.601   2.032  11.702 -0.2122 -0.0459  0.0801
 7041SOL    HW132585   0.676   2.091  11.708 -1.2660  1.2811  0.1407
 7041SOL    HW232586   0.532   2.077  11.654  2.7186  2.2440 -2.0054
 7042SOL     OW32587   2.003   2.288   8.204  0.2441  0.2782  0.1865
 7042SOL    HW132588   2.048   2.305   8.287  0.6600 -0.5241  0.1325
 7042SOL    HW232589   1.960   2.210   8.239 -1.2398  1.8024  1.7366
 7043SOL     OW32590   3.405   1.799  12.064 -0.3947 -0.4009 -0.0116
 7043SOL    HW132591   3.475   1.734  12.072 -0.3037 -0.4040 -0.7636
 7043SOL    HW232592   3.355   1.759  12.135  2.6470 -0.6011  2.0119
 7044SOL     OW32593   2.827   4.503  14.414  0.4636  0.2320  0.0599
 7044SOL    HW132594   2.908   4.462  14.446  0.4773  1.0806  1.1257
 7044SOL    HW232595   2.803   4.549  14.495 -2.8897 -1.7583  0.1746
 7045SOL     OW32596   1.633   2.527   6.780  0.7262 -0.2815  0.2005
 7045SOL    HW132597   1.564   2.545   6.716 -0.0817 -2.4591  0.4736
 7045SOL    HW232598   1.577   2.511   6.856  0.1394 -2.4860 -0.6769
 7046SOL     OW32599   4.021   3.112   3.649  0.6446  0.0008  0.3982
 7046SOL    HW132600   3.962   3.160   3.707 -1.6659  1.7744 -3.4138
 7046SOL    HW232601   4.101   3.164   3.650 -1.6278  3.4713  1.5817
 7047SOL     OW32602   0.227   0.912   4.413 -0.7725  0.5268  0.7924
 7047SOL    HW132603   0.264   0.829   4.443 -0.6711  0.6751  1.0722
 7047SOL    HW232604   0.152   0.917   4.473 -0.2468  3.8152  1.1390
 7048SOL     OW32605   2.898   3.886   3.641  0.0031 -0.2072 -0.6178
 7048SOL    HW132606   2.823   3.832   3.614 -0.0257 -0.7421  0.5403
 7048SOL    HW232607   2.935   3.895   3.553 -1.5903  1.3275 -1.1265
 7049SOL     OW32608   4.243   2.624   9.099 -0.1180  0.5514  0.1916
 7049SOL    HW132609   4.223   2.595   9.010  0.0041 -0.7557  0.5852
 7049SOL    HW232610   4.164   2.668   9.128 -0.6033  0.6665 -1.2960
 7050SOL     OW32611   2.501   4.451   8.792  0.1133  0.3261  0.3464
 7050SOL    HW132612   2.555   4.529   8.777  0.9272  0.0298  1.6976
 7050SOL    HW232613   2.508   4.419   8.703  0.3225 -0.3757  0.6164
 7051SOL     OW32614   4.106   2.948   3.100  0.1611 -0.3817 -0.4004
 7051SOL    HW132615   4.130   2.986   3.184  0.2956 -1.5373  0.0778
 7051SOL    HW232616   4.018   2.911   3.109  1.3672 -2.7786  1.3545
 7052SOL     OW32617   2.809   4.244   7.547  0.3524 -0.1244 -0.2068
 7052SOL    HW132618   2.746   4.205   7.486 -1.4650 -1.5277  2.5939
 7052SOL    HW232619   2.754   4.270   7.621 -0.5119 -1.8717 -0.2328
 7053SOL     OW32620   0.081   1.656   3.539  0.1306 -0.0312 -0.5506
 7053SOL    HW132621   0.098   1.715   3.465  1.1294 -1.2866 -1.3266
 7053SOL    HW232622   0.033   1.708   3.603  2.6847  2.8476 -0.9893
 7054SOL     OW32623   0.014   4.429   3.355 -0.2617  0.1488 -0.0557
 7054SOL    HW132624   0.045   4.414   3.266  0.4174 -1.2320  0.4129
 7054SOL    HW232625   0.046   4.518   3.372  0.4534 -0.2069  0.5131
 7055SOL     OW32626   1.934   4.377   2.786 -0.0898  0.1932  0.3395
 7055SOL    HW132627   1.859   4.378   2.844 -0.3530  0.9595 -0.0146
 7055SOL    HW232628   1.978   4.458   2.810  0.7951 -0.9846  2.7245
 7056SOL     OW32629   4.158   3.784  16.955 -0.5830 -0.3267 -0.0481
 7056SOL    HW132630   4.171   3.720  16.885  0.1268 -0.0179 -0.1958
 7056SOL    HW232631   4.110   3.852  16.907 -1.5627 -1.6644 -0.9790
 7057SOL     OW32632   2.603   2.835  15.197 -0.6285  0.3959  0.6097
 7057SOL    HW132633   2.683   2.821  15.247  0.2311 -2.6156 -1.5941
 7057SOL    HW232634   2.574   2.744  15.195  1.3605 -0.1845 -0.8034
 7058SOL     OW32635   1.721   1.849  16.758 -0.0227  0.0599 -0.3960
 7058SOL    HW132636   1.674   1.883  16.834  0.5939 -0.8786  0.4266
 7058SOL    HW232637   1.772   1.922  16.724  1.4345 -0.2331  1.1557
 7059SOL     OW32638   2.184   1.126   1.150  0.5597  0.2952  0.0990
 7059SOL    HW132639   2.211   1.093   1.064  1.6094  1.0353  0.1410
 7059SOL    HW232640   2.272   1.138   1.185  1.0824  1.6034 -1.6403
 7060SOL     OW32641   0.492   4.528   4.346  0.3833  0.1089  0.3264
 7060SOL    HW132642   0.406   4.541   4.306  0.3949  1.0012  0.5975
 7060SOL    HW232643   0.495   4.594   4.415 -0.1835 -1.0682  1.4811
 7061SOL     OW32644   2.899   4.663   3.412  0.0653  0.4478  0.8025
 7061SOL    HW132645   2.821   0.001   3.408 -1.8044 -2.2655 -0.4688
 7061SOL    HW232646   2.869   4.582   3.371  1.7408  0.1853  0.0689
 7062SOL     OW32647   2.332   4.398   5.607 -0.3433  0.1079 -0.3907
 7062SOL    HW132648   2.414   4.437   5.577  0.2801 -0.9327 -0.0445
 7062SOL    HW232649   2.330   4.420   5.700 -1.4283  0.2088 -0.4388
 7063SOL     OW32650   0.774   4.356   5.284  0.0733 -0.0155  0.6353
 7063SOL    HW132651   0.841   4.289   5.294  1.3562  0.7407 -2.6211
 7063SOL    HW232652   0.817   4.424   5.231 -4.2048  1.9020 -0.4355
 7064SOL     OW32653   1.052   0.343   6.283  0.2990  0.5142  0.2783
 7064SOL    HW132654   0.983   0.406   6.301 -0.2922  0.2401 -0.9983
 7064SOL    HW232655   1.001   0.264   6.265  0.9328 -0.3503  2.2914
 7065SOL     OW32656   1.885   3.824   7.874  0.0589 -0.1074  0.0026
 7065SOL    HW132657   1.974   3.798   7.854 -0.3419  0.3582 -2.3716
 7065SOL    HW232658   1.847   3.857   7.792  1.9508  1.0407 -0.4016
 7066SOL     OW32659   0.748   0.718   7.920 -0.4038 -0.7666  0.4103
 7066SOL    HW132660   0.746   0.813   7.912 -1.2223 -1.1180 -3.5736
 7066SOL    HW232661   0.688   0.706   7.993  1.9248 -1.4440  2.2344
 7067SOL     OW32662   4.312   1.139   3.167  0.1424  0.0090 -0.0563
 7067SOL    HW132663   4.226   1.129   3.207 -0.8361  1.7686 -1.6825
 7067SOL    HW232664   4.337   1.047   3.167  0.0537 -0.0147  1.4631
 7068SOL     OW32665   4.645   2.163   5.927 -0.2852 -0.0032  1.1171
 7068SOL    HW132666   4.579   2.190   5.991 -2.0874 -2.9962  0.5318
 7068SOL    HW232667   4.643   2.233   5.862 -0.9281  0.0309  1.1681
 7069SOL     OW32668   0.443   4.552   9.852  0.4140 -0.0031 -0.2994
 7069SOL    HW132669   0.386   4.611   9.901 -0.5229  0.0412 -1.4570
 7069SOL    HW232670   0.446   4.594   9.767 -2.6814 -0.6341 -0.7434
 7070SOL     OW32671   1.097   4.440   8.333 -0.4748 -0.6146 -0.1744
 7070SOL    HW132672   1.144   4.378   8.277  0.3846  0.1951 -0.3415
 7070SOL    HW232673   1.053   4.498   8.270 -1.5263 -2.3041 -1.0080
 7071SOL     OW32674   0.553   2.975   7.978 -0.0937 -0.4709 -0.2187
 7071SOL    HW132675   0.542   2.987   8.072  1.8912 -1.0702  0.1016
 7071SOL    HW232676   0.487   2.909   7.957  2.4085 -3.0428  0.0562
 7072SOL     OW32677   2.599   1.877   4.747 -0.5296 -0.1425 -0.2661
 7072SOL    HW132678   2.634   1.868   4.836 -1.3283 -0.5954 -0.0009
 7072SOL    HW232679   2.522   1.932   4.759  0.1320  0.3434  1.7614
 7073SOL     OW32680   2.348   0.149  10.584  0.3044 -0.0445  0.0905
 7073SOL    HW132681   2.430   0.165  10.538 -0.3851 -0.7460 -1.3867
 7073SOL    HW232682   2.367   0.064  10.623  0.1951 -0.2854 -0.3802
 7074SOL     OW32683   4.422   3.086   8.155  0.9897 -0.0673 -0.1778
 7074SOL    HW132684   4.372   3.127   8.084  0.3122  0.8975  0.8452
 7074SOL    HW232685   4.383   3.000   8.164  0.8129 -0.1137 -1.4326
 7075SOL     OW32686   3.058   0.845   6.805  0.3389  0.4958 -0.1555
 7075SOL    HW132687   2.994   0.818   6.740 -0.6794  1.7901  0.3305
 7075SOL    HW232688   3.063   0.939   6.792 -4.6245  0.6338 -0.8584
 7076SOL     OW32689   0.574   1.366   5.306  0.6304  0.1681 -0.0647
 7076SOL    HW132690   0.599   1.395   5.218  1.5838  0.2948  0.2547
 7076SOL    HW232691   0.658   1.366   5.351  0.1644  0.1424  0.8085
 7077SOL     OW32692   2.579   1.720   4.348 -0.0928 -0.7831  0.0000
 7077SOL    HW132693   2.500   1.729   4.403  0.6916 -1.2719  1.2086
 7077SOL    HW232694   2.598   1.627   4.357 -0.7611 -0.9443 -0.2045
 7078SOL     OW32695   2.418   3.895   6.124  0.6934  0.5260 -0.2684
 7078SOL    HW132696   2.418   3.933   6.211 -2.0593  1.2524 -0.5785
 7078SOL    HW232697   2.329   3.859   6.115  0.4900  0.5958  1.4816
 7079SOL     OW32698   3.984   0.437   7.246 -0.1543 -0.2207  0.5599
 7079SOL    HW132699   3.976   0.527   7.215 -1.7172 -0.1771  1.1276
 7079SOL    HW232700   3.948   0.443   7.335 -1.3273 -1.5464  0.1645
 7080SOL     OW32701   0.151   4.176   8.105 -0.1583 -0.1289  0.1727
 7080SOL    HW132702   0.206   4.163   8.027  1.1011  1.1154  0.8614
 7080SOL    HW232703   0.189   4.255   8.142  1.5374 -0.2795 -1.2485
 7081SOL     OW32704   1.451   3.456   2.942  0.3723  0.2582  0.2257
 7081SOL    HW132705   1.394   3.494   2.876 -0.2699  1.0427  1.2352
 7081SOL    HW232706   1.398   3.474   3.020  0.2076 -0.0652  0.1862
 7082SOL     OW32707   2.949   4.321   6.243 -0.5388  0.3988  0.3051
 7082SOL    HW132708   2.940   4.309   6.148  1.3447  0.0607  0.1816
 7082SOL    HW232709   3.002   4.400   6.243  1.3048 -0.8471  1.1463
 7083SOL     OW32710   4.560   2.528   4.075 -0.4761 -0.0771  0.0043
 7083SOL    HW132711   4.605   2.450   4.043  0.5111 -0.0362  1.2975
 7083SOL    HW232712   4.495   2.524   4.005 -2.1005  4.8130  1.2233
 7084SOL     OW32713   4.348   1.319   2.751  0.1922 -0.2170 -0.0829
 7084SOL    HW132714   4.378   1.313   2.842  0.3706  1.2569 -0.0441
 7084SOL    HW232715   4.260   1.357   2.754  0.6560  0.8153  0.4720
 7085SOL     OW32716   3.273   1.216   5.753 -0.1720  0.4036  0.3384
 7085SOL    HW132717   3.249   1.284   5.690 -0.6664 -0.6860 -0.6540
 7085SOL    HW232718   3.233   1.140   5.710  2.2724 -0.7338  0.0920
 7086SOL     OW32719   2.548   4.640   9.613  0.0003 -0.1935  0.3431
 7086SOL    HW132720   2.642   4.626   9.605 -0.1639 -0.9882 -0.2285
 7086SOL    HW232721   2.548   4.659   9.707 -2.6826 -0.5539  0.4099
 7087SOL     OW32722   3.546   1.942  13.891  0.0856  0.1835  0.1593
 7087SOL    HW132723   3.535   2.036  13.877 -1.0116  0.4172  2.5973
 7087SOL    HW232724   3.535   1.895  13.808 -0.0287  1.1918 -0.3929
 7088SOL     OW32725   2.230   4.343   3.331  0.4324  0.1575  0.3461
 7088SOL    HW132726   2.241   4.266   3.275  0.4695  0.7203 -0.4184
 7088SOL    HW232727   2.138   4.352   3.353  0.2977  0.8849 -0.5313
 7089SOL     OW32728   2.407   4.471  14.794 -0.6965  0.4453  0.5858
 7089SOL    HW132729   2.357   4.504  14.869  0.9100  0.6088  1.5911
 7089SOL    HW232730   2.422   4.381  14.824 -0.3985  0.4566  0.4693
 7090SOL     OW32731   0.708   3.017  14.681 -0.0297  0.2467  0.0210
 7090SOL    HW132732   0.676   3.106  14.671 -2.2120 -0.4593  0.7541
 7090SOL    HW232733   0.763   3.021  14.602 -2.1868 -1.7441 -1.6003
 7091SOL     OW32734   2.595   3.755  11.226  0.1307  0.2956 -0.1432
 7091SOL    HW132735   2.658   3.723  11.162  0.3514 -3.9163  2.2243
 7091SOL    HW232736   2.609   3.850  11.217  0.9668  0.3120  1.3361
 7092SOL     OW32737   0.247   0.612  11.224 -0.1345  0.2317 -0.1083
 7092SOL    HW132738   0.201   0.621  11.307  0.1094 -2.6410  0.3517
 7092SOL    HW232739   0.215   0.525  11.198 -0.6243 -0.2361  2.0245
 7093SOL     OW32740   3.241   0.584   3.085 -0.0031 -0.4045  0.2634
 7093SOL    HW132741   3.150   0.592   3.055 -0.4336  0.1603  1.7462
 7093SOL    HW232742   3.290   0.576   3.003  0.1866 -0.5650  0.3945
 7094SOL     OW32743   2.844   3.417   6.766  0.5661  0.1035  0.5106
 7094SOL    HW132744   2.763   3.366   6.758  0.3194  0.4908  0.5488
 7094SOL    HW232745   2.831   3.464   6.848 -3.7289 -0.4429  0.1694
 7095SOL     OW32746   0.579   3.951   2.420 -0.3573  0.0105 -0.3067
 7095SOL    HW132747   0.576   3.863   2.382  1.4654 -1.2686  2.5399
 7095SOL    HW232748   0.506   3.990   2.372  0.5786  0.3681 -1.4647
 7096SOL     OW32749   0.540   2.876   4.810 -0.2541 -0.3030  0.2340
 7096SOL    HW132750   0.596   2.815   4.762  3.5229  3.9835 -0.9261
 7096SOL    HW232751   0.609   2.923   4.858 -0.1414  1.9653 -2.1088
 7097SOL     OW32752   0.271   2.070   3.314 -0.2874  0.0379  0.3383
 7097SOL    HW132753   0.317   2.016   3.249 -1.8355  0.4626 -1.1034
 7097SOL    HW232754   0.204   2.120   3.268 -1.3532 -2.0439 -0.3999
 7098SOL     OW32755   3.602   4.333   9.073 -0.5101 -0.2315 -1.0238
 7098SOL    HW132756   3.574   4.412   9.026 -0.0606  0.5085 -0.0341
 7098SOL    HW232757   3.526   4.309   9.126  0.9230 -0.7872  0.7825
 7099SOL     OW32758   1.149   0.206   8.474  0.0441  0.6079 -0.1056
 7099SOL    HW132759   1.235   0.165   8.459 -0.5282 -0.1648 -1.3159
 7099SOL    HW232760   1.152   0.207   8.569 -1.3465 -2.4542 -0.0025
 7100SOL     OW32761   2.858   3.285   8.416  0.5609  0.1038 -0.0175
 7100SOL    HW132762   2.924   3.233   8.370  1.1754 -0.6102  1.6736
 7100SOL    HW232763   2.903   3.369   8.426  0.8099 -0.3273  2.5174
 7101SOL     OW32764   0.517   1.862  12.412 -0.6213  0.4791 -0.1133
 7101SOL    HW132765   0.518   1.780  12.460  2.3989 -0.2889 -1.4888
 7101SOL    HW232766   0.448   1.904  12.463 -2.1296 -0.4636 -1.3787
 7102SOL     OW32767   3.161   3.069   6.959  0.0079 -0.2531  0.4791
 7102SOL    HW132768   3.247   3.073   6.919 -0.5707 -1.3550 -0.8570
 7102SOL    HW232769   3.113   2.993   6.928 -1.9565  0.4981  1.6485
 7103SOL     OW32770   4.619   4.657  16.488 -0.4811 -0.2021 -0.7422
 7103SOL    HW132771   4.568   4.615  16.558  1.2165 -0.5703  0.2792
 7103SOL    HW232772   4.707   4.625  16.507 -0.1265  1.4292  0.3684
 7104SOL     OW32773   3.948   0.206   5.139  0.1098 -0.1554 -0.3426
 7104SOL    HW132774   3.903   0.194   5.056  0.4900  0.4576 -0.6314
 7104SOL    HW232775   4.002   0.279   5.110 -1.1013  1.0428  0.4182
 7105SOL     OW32776   4.074   3.264   5.394 -0.6101  0.1032 -0.5155
 7105SOL    HW132777   4.020   3.232   5.466 -0.3092 -1.9699 -1.2211
 7105SOL    HW232778   4.021   3.246   5.316 -1.9566  1.5454  0.0649
 7106SOL     OW32779   0.875   2.342   2.734 -0.2326 -0.1000 -0.0650
 7106SOL    HW132780   0.953   2.308   2.689  0.5175 -0.0556  1.2036
 7106SOL    HW232781   0.807   2.278   2.714  0.4153 -1.4133  1.9228
 7107SOL     OW32782   4.336   0.839   5.904  0.0595  0.3022  0.1987
 7107SOL    HW132783   4.398   0.829   5.832 -0.0637  1.0551 -0.0203
 7107SOL    HW232784   4.395   0.845   5.978  0.7293 -1.4152 -0.2101
 7108SOL     OW32785   2.100   3.133   7.487 -0.0871 -0.0116 -0.0999
 7108SOL    HW132786   2.074   3.048   7.524 -1.5274  0.2064 -0.6017
 7108SOL    HW232787   2.133   3.187   7.559  1.1723  0.0257 -0.7089
 7109SOL     OW32788   1.600   3.043   7.343 -0.0456 -0.2974 -0.4586
 7109SOL    HW132789   1.598   3.036   7.439  0.0495 -0.7597 -0.4870
 7109SOL    HW232790   1.691   3.067   7.327 -0.0532 -1.7729 -2.7025
 7110SOL     OW32791   0.854   2.625  16.253 -0.5224  0.3369 -0.1680
 7110SOL    HW132792   0.778   2.568  16.256  0.4898 -0.9093  1.5455
 7110SOL    HW232793   0.924   2.566  16.224 -1.4097 -1.3335  1.1271
 7111SOL     OW32794   3.428   3.204   7.174  0.3969  0.3098  0.2895
 7111SOL    HW132795   3.435   3.297   7.193  1.3503  0.8435 -2.7944
 7111SOL    HW232796   3.515   3.164   7.171 -0.1461 -0.9346  0.9688
 7112SOL     OW32797   3.361   2.629   2.389  0.5858 -0.0703 -0.1560
 7112SOL    HW132798   3.398   2.586   2.311  1.1314 -0.6904  0.4453
 7112SOL    HW232799   3.273   2.591   2.386  0.3726  0.3028  1.4946
 7113SOL     OW32800   0.750   4.025   2.149  0.1167 -0.0465 -0.0751
 7113SOL    HW132801   0.783   4.017   2.238  0.4491  4.1073  0.1399
 7113SOL    HW232802   0.690   3.951   2.139 -0.4405  0.3315  0.4965
 7114SOL     OW32803   0.338   0.235   4.480 -0.3176  0.2552 -0.0449
 7114SOL    HW132804   0.318   0.256   4.388  0.2556  1.0850  0.0198
 7114SOL    HW232805   0.246   0.214   4.495 -0.0052  0.6830  2.3435
 7115SOL     OW32806   1.448   3.253   7.407 -0.8808  0.3651  0.2972
 7115SOL    HW132807   1.377   3.197   7.439 -0.7021 -1.0024 -1.6434
 7115SOL    HW232808   1.511   3.182   7.391 -3.0494 -1.2244 -1.2865
 7116SOL     OW32809   1.829   4.206   8.270 -0.0562 -0.1693  0.3231
 7116SOL    HW132810   1.918   4.240   8.261 -0.8614  1.8561 -0.1313
 7116SOL    HW232811   1.791   4.255   8.197 -0.0545 -0.7358 -0.0602
 7117SOL     OW32812   4.106   4.141   1.023 -0.2551  0.4600  0.0785
 7117SOL    HW132813   4.172   4.072   1.008 -1.7328 -1.0586  0.5489
 7117SOL    HW232814   4.086   4.141   1.116 -1.2823  2.3350 -0.1512
 7118SOL     OW32815   1.921   0.901   6.811  0.3693  0.3012  0.4906
 7118SOL    HW132816   1.890   0.811   6.808  0.3162  0.2622  2.1518
 7118SOL    HW232817   1.924   0.911   6.906 -0.5033 -2.3195  0.8046
 7119SOL     OW32818   2.898   2.931   7.057 -0.2044 -0.4209  0.6685
 7119SOL    HW132819   2.832   2.865   7.041 -1.5827  0.9081  0.9009
 7119SOL    HW232820   2.853   3.014   7.041 -1.7388 -1.0272  1.8934
 7120SOL     OW32821   2.657   0.166   1.055  0.0587 -0.5504 -0.5745
 7120SOL    HW132822   2.580   0.221   1.066  0.0482 -0.7630  0.4543
 7120SOL    HW232823   2.604   0.087   1.046 -0.8401 -0.2337  1.7065
 7121SOL     OW32824   4.707   0.053   6.281  0.0958  0.0472  0.6307
 7121SOL    HW132825   4.629   0.034   6.229  1.3770  0.6495 -1.5064
 7121SOL    HW232826   0.035   0.105   6.214  1.6095 -0.7596  1.0410
 7122SOL     OW32827   2.094   1.789   3.372 -0.0702  0.1469  0.3596
 7122SOL    HW132828   2.033   1.851   3.332 -0.9901 -0.4220  0.8799
 7122SOL    HW232829   2.128   1.843   3.443 -2.4331 -0.1671  1.7383
 7123SOL     OW32830   3.563   2.511   7.138 -0.1839 -0.2491  0.5631
 7123SOL    HW132831   3.568   2.597   7.097 -0.0458  0.4684  2.1121
 7123SOL    HW232832   3.479   2.506   7.182 -0.7599  1.3798 -0.3740
 7124SOL     OW32833   2.014   2.659   8.991 -0.3717 -0.0133 -0.0295
 7124SOL    HW132834   1.960   2.684   8.916  1.0601  1.0051 -0.7240
 7124SOL    HW232835   2.065   2.588   8.952 -0.5804 -0.6998  0.9561
 7125SOL     OW32836   0.584   4.695   8.508 -0.3460  0.8605  0.1442
 7125SOL    HW132837   0.507   4.643   8.530  1.5823 -2.0069  0.0745
 7125SOL    HW232838   0.559   0.057   8.554 -2.1427 -0.4280  1.3825
 7126SOL     OW32839   2.200   0.529  10.972 -0.0883 -0.2830 -0.0306
 7126SOL    HW132840   2.146   0.560  11.044  0.2669  0.3466 -0.0364
 7126SOL    HW232841   2.283   0.515  11.018  0.4300 -1.0219 -1.2008
 7127SOL     OW32842   3.173   2.443   2.707 -0.3424  0.1159 -0.5082
 7127SOL    HW132843   3.210   2.365   2.666  0.2248  0.2546 -0.2606
 7127SOL    HW232844   3.226   2.512   2.666  1.8263 -2.0351 -1.3163
 7128SOL     OW32845   4.639   0.486   8.373  0.1802  0.0011 -0.9038
 7128SOL    HW132846   4.655   0.424   8.302  0.3579  1.3395 -2.0323
 7128SOL    HW232847   0.003   0.533   8.388 -0.1092  0.0556  0.4705
 7129SOL     OW32848   3.139   1.939   3.225  0.1893  0.1677  0.0036
 7129SOL    HW132849   3.116   1.876   3.156 -0.2434 -0.9959  1.2039
 7129SOL    HW232850   3.106   2.019   3.185 -0.6592  0.1958  0.7662
 7130SOL     OW32851   2.649   3.992   8.313  0.6435  0.0547 -0.4854
 7130SOL    HW132852   2.625   3.908   8.273 -1.7249  0.2916  0.4490
 7130SOL    HW232853   2.714   3.979   8.381 -0.9770 -1.3869  0.7785
 7131SOL     OW32854   0.781   3.671  14.789  0.1487 -0.5966  0.1236
 7131SOL    HW132855   0.693   3.685  14.823  0.3134  0.3095  0.1749
 7131SOL    HW232856   0.817   3.760  14.790  1.3745 -1.0779 -1.3821
 7132SOL     OW32857   3.605   1.222   7.560 -0.6401 -0.4757 -0.3093
 7132SOL    HW132858   3.660   1.233   7.638 -0.5542 -1.1258 -0.2791
 7132SOL    HW232859   3.617   1.130   7.536 -1.5264 -0.8727  0.7461
 7133SOL     OW32860   2.709   3.318  13.346  0.7916 -0.1625 -0.3592
 7133SOL    HW132861   2.652   3.371  13.291 -1.2631  1.1092  2.9695
 7133SOL    HW232862   2.707   3.376  13.422 -2.0248  1.6756 -1.8751
 7134SOL     OW32863   4.068   2.028   3.363  0.5921  0.1214  0.9832
 7134SOL    HW132864   4.073   2.060   3.453 -1.6388  1.5951  0.5894
 7134SOL    HW232865   4.075   2.112   3.318 -3.1700  0.1465  0.4243
 7135SOL     OW32866   4.278   2.083   0.866 -0.1740 -0.1681 -0.0138
 7135SOL    HW132867   4.364   2.093   0.907  0.0937  0.7828 -0.8059
 7135SOL    HW232868   4.256   2.002   0.912  0.3281  0.4768  1.3725
 7136SOL     OW32869   3.953   4.026  16.016  0.6136 -0.3223 -0.4807
 7136SOL    HW132870   3.965   4.021  16.111 -1.5338  2.9909 -0.0283
 7136SOL    HW232871   3.998   4.108  15.993 -0.9093  0.8513  0.7339
 7137SOL     OW32872   2.068   0.315   4.284  0.0511 -0.8462  0.0503
 7137SOL    HW132873   2.063   0.409   4.266 -1.5641 -1.0486 -0.6195
 7137SOL    HW232874   2.020   0.280   4.208 -0.9886 -0.4338  0.5159
 7138SOL     OW32875   1.411   2.464  11.159  0.0242  0.8709 -0.0739
 7138SOL    HW132876   1.433   2.553  11.187 -3.2401  1.3498  0.9411
 7138SOL    HW232877   1.390   2.422  11.243  0.7860 -2.7460 -1.6868
 7139SOL     OW32878   3.453   1.568   3.223 -0.1676  0.2898 -0.7090
 7139SOL    HW132879   3.449   1.644   3.166 -0.0365 -0.7233 -2.0733
 7139SOL    HW232880   3.525   1.595   3.280  0.9991 -0.3052 -1.8855
 7140SOL     OW32881   3.657   0.167   8.244 -0.2438  0.4672  0.5131
 7140SOL    HW132882   3.723   0.161   8.313  1.2478 -0.8792 -1.0318
 7140SOL    HW232883   3.697   0.107   8.182 -4.0062 -2.1020  0.6190
 7141SOL     OW32884   3.935   1.220  17.485  0.9793 -0.3042  0.3761
 7141SOL    HW132885   3.955   1.171  17.564 -3.5460 -1.7776  0.5889
 7141SOL    HW232886   4.022   1.242  17.451  0.3268 -0.9741 -1.7487
 7142SOL     OW32887   0.505   1.253   7.560  0.8391 -0.2389  0.0445
 7142SOL    HW132888   0.527   1.294   7.644  0.0716  0.1878  0.0292
 7142SOL    HW232889   0.588   1.256   7.513  1.6363  0.1216  1.4553
 7143SOL     OW32890   4.522   1.980   9.890  0.2223 -0.0204  0.1349
 7143SOL    HW132891   4.428   1.971   9.907 -0.2345  1.3100 -1.6292
 7143SOL    HW232892   4.539   2.072   9.910  1.8918 -0.3852  0.3818
 7144SOL     OW32893   1.983   3.844   4.295  0.4216 -0.6362  0.0337
 7144SOL    HW132894   1.998   3.938   4.306  1.4435 -0.5993 -1.6567
 7144SOL    HW232895   2.068   3.811   4.322  0.8406 -0.3455 -0.9257
 7145SOL     OW32896   1.975   2.769   4.491 -0.0898 -0.3274  0.1758
 7145SOL    HW132897   2.023   2.800   4.413 -1.9824  1.2907 -0.3416
 7145SOL    HW232898   1.959   2.846   4.546  1.4813  1.1405 -1.3910
 7146SOL     OW32899   3.569   3.629   2.541 -0.0663  0.5123  0.0786
 7146SOL    HW132900   3.657   3.603   2.566 -0.5672  0.2738  1.6196
 7146SOL    HW232901   3.526   3.673   2.615  0.7011  1.5490 -0.1042
 7147SOL     OW32902   2.608   0.766   8.809  0.6884  0.4957  0.0180
 7147SOL    HW132903   2.527   0.715   8.811  0.9720 -0.0213 -1.2896
 7147SOL    HW232904   2.634   0.764   8.717  1.6371 -0.8769  0.3065
 7148SOL     OW32905   0.877   4.235  12.539 -0.1685  0.2957 -0.3806
 7148SOL    HW132906   0.926   4.229  12.621  1.7468  0.7302 -1.4926
 7148SOL    HW232907   0.811   4.165  12.543  0.3660 -0.1259  1.1918
 7149SOL     OW32908   4.283   4.236   2.691 -0.0791 -0.4903 -0.0050
 7149SOL    HW132909   4.223   4.309   2.708 -0.8320 -1.1738  0.2700
 7149SOL    HW232910   4.230   4.158   2.710  1.7188 -1.5574  0.6231
 7150SOL     OW32911   3.666   2.724  14.154  0.3175 -0.1828 -0.2229
 7150SOL    HW132912   3.587   2.766  14.186  1.2208  2.0336 -0.9416
 7150SOL    HW232913   3.694   2.678  14.234 -0.3609 -2.5536 -1.3351
 7151SOL     OW32914   1.925   3.438  11.027 -0.1521 -0.1009 -0.2473
 7151SOL    HW132915   1.986   3.365  11.014  0.4732  0.5579 -1.0634
 7151SOL    HW232916   1.863   3.421  10.956  0.4239  0.5144 -0.9043
 7152SOL     OW32917   0.974   2.401   3.366 -0.0991 -0.6565  0.4210
 7152SOL    HW132918   0.916   2.426   3.437 -0.3973  0.3238 -0.1583
 7152SOL    HW232919   0.933   2.317   3.350 -0.4457 -0.3973 -0.0761
 7153SOL     OW32920   1.701   3.355   8.833 -0.0464  0.2497  0.2481
 7153SOL    HW132921   1.709   3.403   8.751 -1.9342 -1.1794 -0.7655
 7153SOL    HW232922   1.616   3.382   8.867  0.8447  3.0968  0.1828
 7154SOL     OW32923   4.170   1.746  12.830  0.8315 -0.2341  0.1431
 7154SOL    HW132924   4.174   1.654  12.805 -0.6072 -0.9841  2.6776
 7154SOL    HW232925   4.106   1.772  12.764  1.5830 -0.3974 -0.6594
 7155SOL     OW32926   0.738   2.692   4.138  0.6813 -0.2847 -0.0399
 7155SOL    HW132927   0.677   2.674   4.209  0.7825 -0.7120 -0.0594
 7155SOL    HW232928   0.730   2.787   4.142 -2.3960 -0.4364 -2.4791
 7156SOL     OW32929   2.286   2.021   2.381 -0.6124  0.6248 -0.6422
 7156SOL    HW132930   2.237   2.100   2.404 -1.3671 -0.0320  0.0234
 7156SOL    HW232931   2.340   2.046   2.306 -0.7871  0.5019 -0.8083
 7157SOL     OW32932   1.134   2.760   5.148 -0.2361  0.1423  0.0535
 7157SOL    HW132933   1.063   2.740   5.210 -0.3166 -2.3918 -0.8483
 7157SOL    HW232934   1.202   2.705   5.187 -0.4170  1.5038  2.2802
 7158SOL     OW32935   2.656   1.331  13.797 -0.4485  0.1502  0.2482
 7158SOL    HW132936   2.733   1.366  13.841 -0.4352 -0.3548  0.6343
 7158SOL    HW232937   2.590   1.386  13.839  1.0737  3.0710 -1.2593
 7159SOL     OW32938   0.485   4.201   2.127 -0.2069  0.3584  0.0994
 7159SOL    HW132939   0.436   4.147   2.188  1.4180 -0.4345  0.6952
 7159SOL    HW232940   0.505   4.136   2.060  2.2791 -0.6131  1.7824
 7160SOL     OW32941   1.361   2.813   8.237 -0.1060 -0.7305  0.1953
 7160SOL    HW132942   1.430   2.878   8.248 -1.0137 -0.5039  4.5162
 7160SOL    HW232943   1.291   2.865   8.198 -0.3129 -0.9691  0.2499
 7161SOL     OW32944   2.389   0.981   2.034  0.0309 -0.2556 -0.7679
 7161SOL    HW132945   2.299   0.951   2.022  1.3535 -3.5332 -2.4691
 7161SOL    HW232946   2.379   1.074   2.054  2.1575 -0.2538  0.2755
 7162SOL     OW32947   0.035   2.210   3.187  0.3045  0.2781 -0.0928
 7162SOL    HW132948   4.687   2.203   3.257  0.7146  1.1615  0.3779
 7162SOL    HW232949   0.014   2.291   3.142 -0.5585  0.6064  0.8912
 7163SOL     OW32950   4.128   0.916   3.607 -0.0486 -0.4232  0.0077
 7163SOL    HW132951   4.061   0.985   3.610  0.3965 -0.0721  1.9103
 7163SOL    HW232952   4.159   0.907   3.517  0.1889 -3.3672  0.3985
 7164SOL     OW32953   2.027   4.020  13.786  0.3517 -0.0522 -0.0174
 7164SOL    HW132954   2.099   4.063  13.739 -1.8484  3.6723  0.0255
 7164SOL    HW232955   1.978   4.092  13.825 -1.0789 -0.5370 -0.9168
 7165SOL     OW32956   0.227   1.761  10.784  0.2917  0.0697 -0.2152
 7165SOL    HW132957   0.196   1.673  10.760  1.5473 -0.9068  1.7279
 7165SOL    HW232958   0.286   1.774  10.710 -1.1586  1.6596 -1.0860
 7166SOL     OW32959   1.882   2.334  11.587 -0.2913  0.2629  0.2905
 7166SOL    HW132960   1.845   2.266  11.532  0.9545 -0.6380  0.5731
 7166SOL    HW232961   1.831   2.411  11.559 -3.1001 -1.1509  1.5292
 7167SOL     OW32962   4.623   4.459   2.372 -0.7103  0.0884  0.3720
 7167SOL    HW132963   4.587   4.387   2.424 -3.2896  1.1177 -0.0041
 7167SOL    HW232964   4.620   4.526   2.440  0.2662  0.3221  0.1757
 7168SOL     OW32965   1.637   0.105   8.543  0.1863  0.1405 -0.0685
 7168SOL    HW132966   1.678   0.026   8.579  1.1135  0.6879  0.0971
 7168SOL    HW232967   1.702   0.123   8.475 -0.3784  1.1393 -0.3315
 7169SOL     OW32968   4.559   1.156   4.670  0.0458 -0.4161  0.1532
 7169SOL    HW132969   4.600   1.070   4.686 -1.0364 -1.0329 -0.4022
 7169SOL    HW232970   4.514   1.170   4.754 -0.8827  0.7892 -0.5536
 7170SOL     OW32971   2.689   2.969  14.344  0.4477 -0.2920  0.0478
 7170SOL    HW132972   2.608   2.944  14.299  0.2510 -3.1821  2.0343
 7170SOL    HW232973   2.752   2.989  14.274  0.8912 -0.0424  0.5234
 7171SOL     OW32974   1.049   3.157   9.107 -1.4262 -0.0881 -0.1425
 7171SOL    HW132975   1.114   3.223   9.082 -0.7159 -0.5331  0.5111
 7171SOL    HW232976   1.102   3.077   9.099 -1.4732 -0.1280 -0.0477
 7172SOL     OW32977   4.227   4.387   0.658 -0.4774  0.2737 -0.7185
 7172SOL    HW132978   4.173   4.370   0.735 -0.8359  0.6122 -0.8948
 7172SOL    HW232979   4.257   4.475   0.680  1.0964 -0.2256 -0.8871
 7173SOL     OW32980   3.382   0.214  10.278  0.1311 -0.2240  0.3914
 7173SOL    HW132981   3.411   0.276  10.345 -0.7349 -0.9805  1.4706
 7173SOL    HW232982   3.455   0.199  10.219  2.4004  1.7345  2.7018
 7174SOL     OW32983   0.742   1.206   3.909 -0.5965  0.2790 -0.6354
 7174SOL    HW132984   0.836   1.195   3.893 -0.7337  1.5069 -2.3010
 7174SOL    HW232985   0.712   1.203   3.819 -0.6966  0.2595 -0.6014
 7175SOL     OW32986   3.499   4.551   6.908 -0.8190  0.5495  0.0072
 7175SOL    HW132987   3.549   4.492   6.852 -0.8641  1.0960 -0.6146
 7175SOL    HW232988   3.409   4.537   6.877 -0.6351 -1.3573  0.3460
 7176SOL     OW32989   1.846   4.660   2.202  0.0847  0.9203 -0.3016
 7176SOL    HW132990   1.765   4.612   2.191  0.5883 -0.6816  3.1209
 7176SOL    HW232991   1.824   0.034   2.220  0.2171  1.3638 -2.3456
 7177SOL     OW32992   2.910   1.884  15.814  0.2521 -0.4105 -0.2226
 7177SOL    HW132993   2.949   1.838  15.739  0.9280 -0.2575  0.0363
 7177SOL    HW232994   2.846   1.941  15.772 -0.4461  0.6605  2.3496
 7178SOL     OW32995   4.502   1.452   5.818 -0.3094  0.4506  0.1248
 7178SOL    HW132996   4.587   1.410   5.804  0.6845  1.5691  2.7104
 7178SOL    HW232997   4.438   1.384   5.799 -1.6088  1.5240  0.6932
 7179SOL     OW32998   2.921   4.508  15.732  0.3795  0.1937 -0.5297
 7179SOL    HW132999   2.931   4.494  15.826 -1.5927 -0.6698 -0.4623
 7179SOL    HW233000   2.960   4.595  15.735 -1.2926  0.9574 -1.4559
 7180SOL     OW33001   3.972   2.677   4.216 -0.0421  0.3875  0.2187
 7180SOL    HW133002   3.892   2.705   4.259 -0.1228 -1.5890  1.3298
 7180SOL    HW233003   3.992   2.760   4.171 -1.3887  1.6840  2.0282
 7181SOL     OW33004   4.462   2.881   3.418 -0.5543 -0.2528  0.2515
 7181SOL    HW133005   4.400   2.930   3.363  1.7254  0.2389 -1.8682
 7181SOL    HW233006   4.403   2.850   3.487  0.5795  1.1663  1.8458
 7182SOL     OW33007   2.747   1.703   3.438  0.5090 -0.9686  0.4875
 7182SOL    HW133008   2.768   1.754   3.517 -1.5925 -0.0675  0.4630
 7182SOL    HW233009   2.652   1.697   3.434  0.4764  0.2863 -0.5475
 7183SOL     OW33010   2.762   1.849  11.784 -0.9962 -0.0191  0.0195
 7183SOL    HW133011   2.778   1.894  11.867  0.4529 -1.0018  0.2621
 7183SOL    HW233012   2.679   1.803  11.800 -1.5972  0.4414 -1.8133
 7184SOL     OW33013   1.597   3.909   7.238  0.4062  0.2086  0.3105
 7184SOL    HW133014   1.579   3.973   7.169  1.1745  0.4619  0.3431
 7184SOL    HW233015   1.623   3.835   7.183 -1.0005 -0.8905  1.1329
 7185SOL     OW33016   0.219   1.254   9.077 -0.0552 -0.8580 -0.0299
 7185SOL    HW133017   0.303   1.300   9.065 -0.7013 -0.2547 -2.2900
 7185SOL    HW233018   0.165   1.317   9.124  0.0054  0.0174 -1.1460
 7186SOL     OW33019   1.270   4.188   0.890 -0.6908 -0.2193 -0.0216
 7186SOL    HW133020   1.208   4.195   0.962 -1.2749 -1.2908 -0.4218
 7186SOL    HW233021   1.306   4.103   0.917 -2.9194 -1.5998 -1.3256
 7187SOL     OW33022   4.002   3.952  11.750  0.2162 -1.0134 -0.4546
 7187SOL    HW133023   4.038   4.022  11.696  0.1442 -0.0093  0.7886
 7187SOL    HW233024   4.037   3.966  11.838 -0.3873  0.9624 -0.5155
 7188SOL     OW33025   0.473   2.397   6.342 -0.0695  0.1052 -0.4830
 7188SOL    HW133026   0.496   2.447   6.421 -0.4346 -1.3819  0.5651
 7188SOL    HW233027   0.559   2.389   6.301  0.0833 -1.0781  0.0651
 7189SOL     OW33028   1.132   0.726   4.842 -0.0663 -0.4938  0.0684
 7189SOL    HW133029   1.191   0.720   4.917  0.6236 -0.0914 -0.4438
 7189SOL    HW233030   1.156   0.645   4.798 -0.8558 -2.4981  3.2796
 7190SOL     OW33031   0.722   2.385   4.557 -0.2177  0.2197  0.3604
 7190SOL    HW133032   0.761   2.327   4.491 -1.8248 -1.7518  1.1267
 7190SOL    HW233033   0.633   2.404   4.528 -0.9062 -1.6839  1.2045
 7191SOL     OW33034   4.459   1.723   9.418 -0.6400 -0.6935 -0.5075
 7191SOL    HW133035   4.422   1.810   9.403 -0.3020 -0.8704 -2.3369
 7191SOL    HW233036   4.381   1.668   9.420 -0.2254 -1.3040 -1.1180
 7192SOL     OW33037   4.459   1.041  13.921  0.4741 -0.0018  0.1629
 7192SOL    HW133038   4.418   1.041  14.008 -1.5575  0.6265 -0.7732
 7192SOL    HW233039   4.382   1.041  13.864 -0.3366 -1.0052  1.2534
 7193SOL     OW33040   1.475   2.347   0.523 -0.3010  0.3835 -0.1013
 7193SOL    HW133041   1.462   2.395   0.604  2.2904  0.1257  0.4755
 7193SOL    HW233042   1.386   2.330   0.493  0.2466 -0.9171 -1.0152
 7194SOL     OW33043   0.723   0.637   7.302 -0.5889 -0.0902  0.0430
 7194SOL    HW133044   0.779   0.570   7.262  0.9482  0.9535  0.4322
 7194SOL    HW233045   0.786   0.709   7.308 -2.5165  1.4296  2.2554
 7195SOL     OW33046   0.984   3.682   9.389 -0.1862  0.4988  0.2207
 7195SOL    HW133047   0.895   3.719   9.387 -0.4909 -0.3523 -1.3765
 7195SOL    HW233048   0.968   3.589   9.403  1.9576  0.3959  1.9071
 7196SOL     OW33049   0.219   3.353  15.979  0.2447 -1.2319  0.1789
 7196SOL    HW133050   0.255   3.437  16.006 -2.7548 -0.1129  0.6506
 7196SOL    HW233051   0.293   3.313  15.932  0.2425 -1.0107 -0.0095
 7197SOL     OW33052   3.179   4.412   7.938  0.3670  0.3348  0.3659
 7197SOL    HW133053   3.216   4.483   7.989  0.0173  1.4514 -0.9406
 7197SOL    HW233054   3.242   4.390   7.869  1.5704  1.8838  0.9781
 7198SOL     OW33055   0.106   4.249   1.063  0.3202  0.1979 -0.0797
 7198SOL    HW133056   0.202   4.258   1.061  0.5580 -2.0601  1.0447
 7198SOL    HW233057   0.094   4.259   1.157  0.3333 -2.2336  0.1928
 7199SOL     OW33058   3.659   2.294   2.209 -0.2241  0.0299  0.2923
 7199SOL    HW133059   3.678   2.243   2.129 -1.1457  0.0301  0.0724
 7199SOL    HW233060   3.736   2.263   2.256  0.1767 -1.8356 -1.5815
 7200SOL     OW33061   0.058   2.755   2.349 -0.0114  0.3169 -0.2965
 7200SOL    HW133062   4.688   2.722   2.366  0.8930 -2.2427 -0.6915
 7200SOL    HW233063   0.097   2.677   2.310  1.0618  1.1002 -0.8198
 7201SOL     OW33064   2.021   0.628  10.560  0.2566  0.1067  0.3222
 7201SOL    HW133065   2.002   0.722  10.550 -2.6432 -0.5074  0.1771
 7201SOL    HW233066   2.064   0.620  10.475  1.8613 -0.3884  1.1827
 7202SOL     OW33067   0.176   4.695   9.106 -0.2632 -0.9859  0.7139
 7202SOL    HW133068   0.265   4.673   9.134  0.5825 -0.7550 -1.7950
 7202SOL    HW233069   0.190   0.031   9.028 -1.2289  1.4259  2.2084
 7203SOL     OW33070   2.686   0.862   5.491 -0.1832  0.1871  0.0884
 7203SOL    HW133071   2.696   0.767   5.486  2.6442  0.5625 -1.2629
 7203SOL    HW233072   2.760   0.900   5.444 -0.5995 -0.2354 -0.9229
 7204SOL     OW33073   0.070   1.557  10.108  0.1916  0.6825  0.2565
 7204SOL    HW133074   0.162   1.584  10.107  0.8398 -1.6326 -0.4188
 7204SOL    HW233075   0.021   1.635  10.081  2.3767  1.3151 -1.7990
 7205SOL     OW33076   0.968   0.392   2.549  0.3339  0.0067  0.1555
 7205SOL    HW133077   1.061   0.394   2.573  0.5462 -0.6181 -0.6115
 7205SOL    HW233078   0.961   0.482   2.518  0.2846  0.1578  0.6109
 7206SOL     OW33079   4.511   1.077   4.144 -0.2250 -0.3794  0.4099
 7206SOL    HW133080   4.533   1.119   4.227 -1.2705  0.9055  0.0322
 7206SOL    HW233081   4.460   1.000   4.167 -0.7885 -0.6054 -1.6039
 7207SOL     OW33082   0.571   0.572   1.259  0.0643 -0.5408 -0.2745
 7207SOL    HW133083   0.577   0.574   1.354 -2.2909  0.9356 -0.1362
 7207SOL    HW233084   0.638   0.637   1.237 -1.7458  1.2996 -0.4298
 7208SOL     OW33085   0.993   2.200   8.971 -0.2716  0.2051 -0.3437
 7208SOL    HW133086   1.044   2.119   8.968  0.5064  0.5463  2.8356
 7208SOL    HW233087   0.907   2.159   8.976 -0.9099  1.6877  1.0638
 7209SOL     OW33088   3.669   3.122  10.026 -0.5923  0.2939  0.0043
 7209SOL    HW133089   3.607   3.111  10.098  0.1415 -0.2309  0.5579
 7209SOL    HW233090   3.626   3.091   9.946 -0.1859 -0.0948 -0.0630
 7210SOL     OW33091   0.066   1.158   2.120 -0.3461 -0.1714  0.0287
 7210SOL    HW133092   0.091   1.248   2.098  1.3341 -0.1819  1.8781
 7210SOL    HW233093   4.708   1.140   2.065 -1.8415 -0.8652  2.2946
 7211SOL     OW33094   2.088   3.667   5.911 -0.3815  0.3856 -0.2031
 7211SOL    HW133095   2.147   3.606   5.953 -1.9343 -1.5733 -0.8560
 7211SOL    HW233096   2.010   3.611   5.915  0.6453 -1.0403 -0.0828
 7212SOL     OW33097   1.881   1.878   4.191 -0.2096  0.0561 -0.8528
 7212SOL    HW133098   1.907   1.965   4.221  1.4675 -0.4249 -0.9231
 7212SOL    HW233099   1.814   1.896   4.125  1.0580 -0.9972 -2.4124
 7213SOL     OW33100   2.726   4.278  14.113 -0.0236  0.4578  0.2166
 7213SOL    HW133101   2.670   4.328  14.053  1.2514  1.4335 -0.1673
 7213SOL    HW233102   2.810   4.313  14.083 -1.9802  3.9626 -1.1705
 7214SOL     OW33103   3.061   3.741   4.150  0.0728  0.4690 -0.2623
 7214SOL    HW133104   3.049   3.646   4.143  4.0788 -0.0020 -0.2777
 7214SOL    HW233105   3.021   3.781   4.073 -1.7409 -0.6284  0.0939
 7215SOL     OW33106   2.501   3.208   9.241  0.5836  0.4160 -0.2270
 7215SOL    HW133107   2.575   3.229   9.298  1.3877  0.7885 -1.4328
 7215SOL    HW233108   2.504   3.113   9.244 -0.5677  0.4725  3.1683
 7216SOL     OW33109   0.216   0.418   4.267  0.0423  0.2355  0.3500
 7216SOL    HW133110   0.278   0.480   4.307  2.4572 -1.4520 -0.8063
 7216SOL    HW233111   0.130   0.442   4.303  0.7400  1.5560  1.1272
 7217SOL     OW33112   1.150   0.909   3.199 -0.4372 -0.0198  0.1991
 7217SOL    HW133113   1.243   0.886   3.202  0.7375  4.5655 -0.2895
 7217SOL    HW233114   1.116   0.830   3.158  0.1430  0.2040 -0.7072
 7218SOL     OW33115   2.990   4.082   6.655 -0.4816  0.5490  0.3612
 7218SOL    HW133116   2.958   4.171   6.671 -1.4625  0.4001 -0.7002
 7218SOL    HW233117   3.067   4.085   6.711 -1.2126 -1.8928  1.4680
 7219SOL     OW33118   2.263   3.978   6.568 -0.3253 -0.2488  0.2697
 7219SOL    HW133119   2.297   4.040   6.633 -2.7478  0.2842  1.0197
 7219SOL    HW233120   2.289   3.894   6.606 -0.1978 -1.0543 -1.6318
 7220SOL     OW33121   2.666   2.781   6.530 -0.1002  0.2012 -0.2131
 7220SOL    HW133122   2.728   2.823   6.470  1.9136 -0.1890  1.5740
 7220SOL    HW233123   2.719   2.807   6.605 -0.9728  1.6238 -0.0741
 7221SOL     OW33124   2.527   3.994  16.849 -0.1321 -0.6156 -0.2482
 7221SOL    HW133125   2.464   4.024  16.914  0.5618 -1.1560  0.6692
 7221SOL    HW233126   2.535   3.901  16.871 -2.2059 -0.7732 -0.2261
 7222SOL     OW33127   1.426   3.262   1.055 -0.6426  0.3794  0.0391
 7222SOL    HW133128   1.385   3.231   1.136  4.1622 -0.3007  2.2031
 7222SOL    HW233129   1.424   3.178   1.009  2.0830  0.9177 -1.0137
 7223SOL     OW33130   3.680   3.031   9.753 -0.1920  0.1366  0.1825
 7223SOL    HW133131   3.725   2.967   9.698 -0.8523 -0.9927  0.9589
 7223SOL    HW233132   3.711   3.107   9.704 -0.7252  0.0155 -0.3359
 7224SOL     OW33133   1.381   3.609  14.854  0.6041 -0.6365 -0.1040
 7224SOL    HW133134   1.470   3.588  14.824  0.1589  1.4971 -2.9968
 7224SOL    HW233135   1.404   3.580  14.942  0.1396  1.8624  0.8562
 7225SOL     OW33136   3.106   3.318   4.993  0.3184 -0.1576  0.1060
 7225SOL    HW133137   3.087   3.334   4.900 -0.2757 -0.3055  0.2025
 7225SOL    HW233138   3.184   3.263   4.991 -0.2076 -0.9509  2.3434
 7226SOL     OW33139   0.731   4.341   0.492 -0.2868  0.0026 -0.6507
 7226SOL    HW133140   0.722   4.286   0.414 -1.6743 -1.8172  0.7993
 7226SOL    HW233141   0.678   4.414   0.462 -0.0983 -0.0696 -1.1569
 7227SOL     OW33142   1.259   1.868  15.467 -0.2379 -0.3078 -0.4000
 7227SOL    HW133143   1.184   1.928  15.465  0.7651  0.9729  1.0841
 7227SOL    HW233144   1.322   1.919  15.516 -0.8050  1.1706 -1.2215
 7228SOL     OW33145   3.655   2.151  10.477 -0.1932 -0.0304  0.0755
 7228SOL    HW133146   3.652   2.068  10.524  4.0744 -0.8374 -1.1080
 7228SOL    HW233147   3.623   2.117  10.393  0.1744 -1.7319  0.6160
 7229SOL     OW33148   0.888   4.145  14.264  0.2727 -0.0667  0.5402
 7229SOL    HW133149   0.839   4.100  14.333  1.7167  0.6238  2.0090
 7229SOL    HW233150   0.979   4.150  14.293  0.1703  0.1966  0.8167
 7230SOL     OW33151   2.894   1.123   5.673 -1.0953  0.0781  0.3222
 7230SOL    HW133152   2.950   1.106   5.749 -2.4371 -1.7590  0.9338
 7230SOL    HW233153   2.822   1.061   5.689 -0.9738 -0.0523  0.3674
 7231SOL     OW33154   1.742   2.197   4.967 -0.7803 -0.3260 -0.0021
 7231SOL    HW133155   1.742   2.194   5.063  3.8195  2.9031  0.1205
 7231SOL    HW233156   1.718   2.287   4.947  0.2959 -0.2895 -1.1404
 7232SOL     OW33157   4.559   3.003   2.246 -0.2629  0.1163 -0.2175
 7232SOL    HW133158   4.509   3.074   2.205 -0.4218  0.1550  0.0412
 7232SOL    HW233159   4.593   2.969   2.164 -0.8475 -2.0032  0.4233
 7233SOL     OW33160   2.551   0.995   5.197  0.4239  0.1285 -0.2122
 7233SOL    HW133161   2.515   1.053   5.130 -0.3677 -0.9581 -0.7297
 7233SOL    HW233162   2.540   1.049   5.274 -0.2962 -0.0406 -0.1989
 7234SOL     OW33163   4.204   1.697   7.816 -0.1548 -0.2714  0.5156
 7234SOL    HW133164   4.205   1.635   7.742  1.2706  0.8447 -0.3897
 7234SOL    HW233165   4.116   1.735   7.816 -0.8394 -1.8364  2.7872
 7235SOL     OW33166   1.424   0.576   1.036  0.1626  0.3896 -0.0905
 7235SOL    HW133167   1.361   0.627   1.089 -0.4837 -1.8551  1.2948
 7235SOL    HW233168   1.470   0.645   0.989 -1.7837 -0.0443 -2.6105
 7236SOL     OW33169   3.233   0.477   3.537 -0.4374  0.0792 -0.8186
 7236SOL    HW133170   3.221   0.443   3.448  0.6160 -2.0486 -0.1285
 7236SOL    HW233171   3.149   0.448   3.572 -0.5683 -1.0440 -2.0680
 7237SOL     OW33172   0.393   1.717   6.489 -0.0060 -0.0620 -0.3695
 7237SOL    HW133173   0.438   1.658   6.550  3.5614  0.5690 -2.3910
 7237SOL    HW233174   0.469   1.758   6.447 -1.8019  0.8048 -2.7528
 7238SOL     OW33175   1.041   2.749   9.226  0.7510 -0.4914 -0.4739
 7238SOL    HW133176   1.110   2.687   9.203  0.7232 -0.3497 -0.9438
 7238SOL    HW233177   1.097   2.807   9.278  3.5374 -2.7678 -0.9261
 7239SOL     OW33178   4.390   0.626  17.667  0.2695 -0.1773  0.7150
 7239SOL    HW133179   4.397   0.531  17.660  1.9709 -0.2099  2.6872
 7239SOL    HW233180   4.315   0.641   0.052 -0.2671  1.0623 -0.2798
 7240SOL     OW33181   0.262   3.025   6.590  0.5919 -0.3989 -0.0996
 7240SOL    HW133182   0.290   3.007   6.680  1.9774 -0.6656 -0.5826
 7240SOL    HW233183   0.203   3.099   6.606  1.4289 -0.2330  2.2599
 7241SOL     OW33184   2.637   0.441   8.227  0.2055 -0.4478 -0.0922
 7241SOL    HW133185   2.725   0.438   8.264  0.4205 -1.2128 -0.6420
 7241SOL    HW233186   2.644   0.368   8.165 -1.9614 -0.3558 -0.4615
 7242SOL     OW33187   2.886   2.357  11.925  0.1781  0.5844 -0.5089
 7242SOL    HW133188   2.860   2.388  12.012 -1.7758 -1.0251 -0.5228
 7242SOL    HW233189   2.802   2.379  11.885 -0.3806 -0.8252 -0.1073
 7243SOL     OW33190   0.350   1.085   3.751  0.1480 -0.4461 -0.2951
 7243SOL    HW133191   0.296   1.160   3.725 -1.6150 -1.4969  0.3639
 7243SOL    HW233192   0.307   1.037   3.822  0.7489  1.2896  1.2666
 7244SOL     OW33193   3.227   3.759  17.481  0.0537 -0.3186 -0.2736
 7244SOL    HW133194   3.144   3.792  17.445  2.1884  4.1322 -1.1629
 7244SOL    HW233195   3.258   3.718  17.400 -1.5340 -0.2615 -0.9142
 7245SOL     OW33196   1.273   4.422   9.125 -0.1690 -0.5783 -0.8591
 7245SOL    HW133197   1.203   4.485   9.138 -0.1961 -0.9489  0.7882
 7245SOL    HW233198   1.343   4.483   9.103 -0.6132  0.9023  1.8507
 7246SOL     OW33199   3.525   4.021   7.713  0.4243  0.4914 -0.5947
 7246SOL    HW133200   3.511   4.101   7.764 -1.1300 -0.8068  1.0029
 7246SOL    HW233201   3.444   3.979   7.741  2.8433 -4.2597 -0.7849
 7247SOL     OW33202   1.697   3.670   6.269 -0.6406  0.1272 -0.2604
 7247SOL    HW133203   1.662   3.680   6.181 -0.1484  2.3651 -0.2154
 7247SOL    HW233204   1.651   3.742   6.312  1.7806  2.4059 -1.5344
 7248SOL     OW33205   4.386   4.648  11.742 -0.3078 -0.4508  0.3664
 7248SOL    HW133206   4.292   4.656  11.727  0.0370  1.4346 -0.7422
 7248SOL    HW233207   4.379   4.632  11.836 -2.2195 -0.5195  0.1957
 7249SOL     OW33208   3.274   4.542   8.209 -0.3763 -0.1773  0.5233
 7249SOL    HW133209   3.268   4.598   8.132  1.8323 -1.7334 -0.7950
 7249SOL    HW233210   3.369   4.531   8.215 -0.2537 -0.1842 -1.5536
 7250SOL     OW33211   3.973   3.401   9.227  0.4453 -0.0606 -0.0307
 7250SOL    HW133212   3.930   3.350   9.296  1.3943 -1.5340 -0.5192
 7250SOL    HW233213   3.924   3.369   9.151 -0.3995  2.0662 -0.3707
 7251SOL     OW33214   0.714   2.633   7.980 -0.6446  0.4053  0.1688
 7251SOL    HW133215   0.731   2.598   8.067  0.6867  0.5828 -0.0228
 7251SOL    HW233216   0.772   2.707   7.995  0.1545 -0.3230  0.6450
 7252SOL     OW33217   1.787   4.097   2.118  0.2431  0.2227 -0.2029
 7252SOL    HW133218   1.833   4.050   2.188  0.0829 -1.2367 -1.0811
 7252SOL    HW233219   1.708   4.044   2.120  1.5381 -1.5974  4.3866
 7253SOL     OW33220   4.464   1.618   3.889  0.3904 -0.1725 -0.4982
 7253SOL    HW133221   4.529   1.565   3.844 -1.6400 -2.2499 -0.9989
 7253SOL    HW233222   4.389   1.560   3.876 -0.4254  0.4457  1.3195
 7254SOL     OW33223   1.114   0.452   2.216 -0.0166 -0.2986  0.7285
 7254SOL    HW133224   1.039   0.411   2.173 -1.0199  0.3687  1.8243
 7254SOL    HW233225   1.086   0.512   2.285  2.6138 -0.6506  2.0995
 7255SOL     OW33226   3.086   4.092  10.964  0.1747  0.1941 -0.0455
 7255SOL    HW133227   3.102   4.181  10.996 -0.1424  1.1102 -2.4616
 7255SOL    HW233228   3.131   4.103  10.880  1.7682 -2.3226  0.4739
 7256SOL     OW33229   4.055   3.581   5.482 -0.8029  0.2036 -0.3366
 7256SOL    HW133230   4.084   3.621   5.564 -1.2764 -0.9301  0.3780
 7256SOL    HW233231   4.099   3.646   5.427 -1.5658  0.6351 -0.4284
 7257SOL     OW33232   2.411   1.046   2.830 -0.1887 -0.7651  0.1152
 7257SOL    HW133233   2.424   1.139   2.851 -4.2326 -0.0086 -0.8066
 7257SOL    HW233234   2.490   0.995   2.845 -0.3965 -1.3191 -0.7224
 7258SOL     OW33235   0.015   3.958   7.407 -0.1600  0.4390 -0.1217
 7258SOL    HW133236   4.711   3.866   7.392  1.3971  0.2860 -1.4500
 7258SOL    HW233237   4.682   3.996   7.335 -0.0308  0.7237 -0.0605
 7259SOL     OW33238   2.406   3.299   5.893 -0.5660  0.0807 -0.6337
 7259SOL    HW133239   2.492   3.337   5.911 -0.3365 -0.9485  0.4645
 7259SOL    HW233240   2.416   3.214   5.935 -0.2513  0.7416  0.6202
 7260SOL     OW33241   2.821   2.907   7.357 -0.5770 -0.1038 -0.7563
 7260SOL    HW133242   2.879   2.958   7.301  1.3736 -2.2542 -0.6845
 7260SOL    HW233243   2.757   2.875   7.294 -1.4402 -2.5899  1.3868
 7261SOL     OW33244   4.442   3.661   2.149 -0.3536 -0.4178 -0.2250
 7261SOL    HW133245   4.356   3.690   2.179  0.1384 -2.9599  3.6964
 7261SOL    HW233246   4.463   3.614   2.230 -0.4704 -3.4554 -1.9857
 7262SOL     OW33247   3.957   2.891  11.103  0.3807  0.2598 -0.0159
 7262SOL    HW133248   3.919   2.875  11.190  1.4869 -2.8772 -0.1045
 7262SOL    HW233249   3.878   2.866  11.055 -0.1064  0.1289  0.8400
 7263SOL     OW33250   1.511   1.285  15.352 -0.4582  0.3168  0.0732
 7263SOL    HW133251   1.453   1.220  15.312 -1.2837  0.6832  0.6702
 7263SOL    HW233252   1.567   1.305  15.276  0.5864  1.3083  1.1038
 7264SOL     OW33253   3.422   3.357   8.369 -0.1932  0.3161  0.0600
 7264SOL    HW133254   3.454   3.289   8.427  0.5237  0.1224 -0.5593
 7264SOL    HW233255   3.497   3.416   8.355  0.6051 -0.8252 -0.4184
 7265SOL     OW33256   2.832   4.384   8.641  0.3188  0.0411  0.0320
 7265SOL    HW133257   2.778   4.345   8.573  2.6610 -0.8244 -1.3504
 7265SOL    HW233258   2.871   4.303   8.675 -0.8503 -0.5908 -0.1270
 7266SOL     OW33259   4.030   4.501  11.199 -0.0594  0.4579 -0.1925
 7266SOL    HW133260   3.953   4.499  11.142 -0.4731  0.4135  0.3694
 7266SOL    HW233261   4.089   4.564  11.157  1.8009 -0.8494  0.4869
 7267SOL     OW33262   3.407   1.266   7.324 -0.1394  0.5559 -0.6773
 7267SOL    HW133263   3.447   1.338   7.374  0.2946 -1.5413  2.0030
 7267SOL    HW233264   3.480   1.205   7.323 -0.7222 -0.1513  0.0904
 7268SOL     OW33265   1.698   3.814   4.285 -0.2844 -0.0539 -0.2494
 7268SOL    HW133266   1.672   3.903   4.262 -0.3702  0.4620  1.8269
 7268SOL    HW233267   1.792   3.830   4.291 -0.5376  2.3914 -3.0767
 7269SOL     OW33268   3.693   4.350   9.638 -0.2112  0.0733 -0.3022
 7269SOL    HW133269   3.708   4.368   9.546 -1.0224  1.7884 -0.1048
 7269SOL    HW233270   3.764   4.293   9.668 -0.3866  0.7166  1.3714
 7270SOL     OW33271   2.031   1.900   2.480 -0.0704 -0.0198 -0.1361
 7270SOL    HW133272   2.046   1.987   2.515 -0.9488 -0.4433  1.2825
 7270SOL    HW233273   1.959   1.858   2.526 -0.6644  0.3423 -0.7474
 7271SOL     OW33274   4.622   0.583   6.249  0.6091  0.6028 -0.0929
 7271SOL    HW133275   4.697   0.597   6.191  0.1403 -3.3681 -1.6569
 7271SOL    HW233276   4.598   0.495   6.221 -2.3003  0.9571  1.2610
 7272SOL     OW33277   1.648   4.008   5.258  0.1384  0.7492 -0.1260
 7272SOL    HW133278   1.718   4.022   5.321  0.1680 -2.9235  0.6009
 7272SOL    HW233279   1.667   4.063   5.181  0.8242  4.4162  2.6578
 7273SOL     OW33280   0.095   2.121   6.304 -0.8158  0.7786  0.1207
 7273SOL    HW133281   0.060   2.203   6.269 -3.2234 -0.1749  0.2888
 7273SOL    HW233282   0.182   2.128   6.266 -1.1010 -0.3072 -0.7419
 7274SOL     OW33283   1.730   2.846   5.161 -0.0183 -0.6101  0.5661
 7274SOL    HW133284   1.693   2.765   5.196 -0.6731 -1.0736 -1.2022
 7274SOL    HW233285   1.825   2.830   5.159 -0.3925 -2.5818 -1.4688
 7275SOL     OW33286   2.833   0.121   7.552  0.5414  0.0931  0.0844
 7275SOL    HW133287   2.788   0.040   7.528  1.0409  0.6347 -2.6009
 7275SOL    HW233288   2.759   0.172   7.585  0.4935  0.0791 -0.0028
 7276SOL     OW33289   0.212   0.356   9.374 -0.5204 -0.0196  0.3746
 7276SOL    HW133290   0.246   0.274   9.338 -1.2681  0.7840 -2.0940
 7276SOL    HW233291   0.130   0.350   9.326 -0.5761  0.3474  0.4291
 7277SOL     OW33292   4.153   2.108   7.726 -0.0576 -0.4669 -0.4354
 7277SOL    HW133293   4.236   2.064   7.747 -0.9050 -1.0788  1.6622
 7277SOL    HW233294   4.129   2.054   7.650  1.9411  0.4509 -1.7101
 7278SOL     OW33295   2.392   3.614   7.814 -0.2943 -0.0106  0.1580
 7278SOL    HW133296   2.461   3.629   7.748  1.2222  4.0682  2.6891
 7278SOL    HW233297   2.396   3.519   7.828  1.7683  0.0158 -0.1229
 7279SOL     OW33298   0.662   3.649   4.881 -0.6657 -0.0545  0.4996
 7279SOL    HW133299   0.602   3.721   4.864  0.9044  1.9878  3.6424
 7279SOL    HW233300   0.698   3.680   4.964  1.7422  0.0550 -0.5818
 7280SOL     OW33301   3.610   1.187   2.590 -0.1543  0.2327 -0.2147
 7280SOL    HW133302   3.606   1.151   2.501 -2.2590  2.5635 -1.0581
 7280SOL    HW233303   3.588   1.115   2.650  2.8393 -0.2278  0.3114
 7281SOL     OW33304   1.086   2.981   2.949 -0.4758 -0.4755  0.6847
 7281SOL    HW133305   1.051   3.067   2.972 -0.8652 -0.6528  0.7595
 7281SOL    HW233306   1.048   2.940   3.027 -2.6410  0.7140  0.2614
 7282SOL     OW33307   3.451   1.099   2.364  0.4569  0.7889  0.9123
 7282SOL    HW133308   3.461   1.124   2.272 -2.6463 -1.0048  0.0915
 7282SOL    HW233309   3.364   1.130   2.388 -0.1925  0.8008 -1.5238
 7283SOL     OW33310   4.502   1.258   3.023 -0.0247  0.0627 -0.6040
 7283SOL    HW133311   4.553   1.275   3.103 -1.6976  2.4258 -0.0413
 7283SOL    HW233312   4.451   1.183   3.054 -0.3769 -0.7085 -3.0710
 7284SOL     OW33313   2.290   3.708   6.937 -0.0025 -0.2067 -0.6404
 7284SOL    HW133314   2.234   3.715   6.859  1.3565 -0.3716 -1.6281
 7284SOL    HW233315   2.364   3.767   6.920 -0.1242  0.0100 -0.4160
 7285SOL     OW33316   3.559   4.302   2.734  0.3205 -0.5362 -0.1294
 7285SOL    HW133317   3.565   4.259   2.649  0.6045  1.0807 -0.9128
 7285SOL    HW233318   3.639   4.281   2.783  0.5201 -0.3535 -0.3774
 7286SOL     OW33319   0.808   3.595   3.738  0.2948 -0.5377  0.1418
 7286SOL    HW133320   0.794   3.676   3.690 -0.3128 -0.1943  0.8909
 7286SOL    HW233321   0.781   3.637   3.820 -1.0397  0.3013 -0.7172
 7287SOL     OW33322   3.244   4.405   1.631 -0.1366  0.5792 -0.8661
 7287SOL    HW133323   3.233   4.487   1.583  0.1721 -0.3364 -2.4830
 7287SOL    HW233324   3.316   4.365   1.582  1.4949  1.4671  0.8420
 7288SOL     OW33325   2.614   1.575   2.566 -0.1279  0.3989 -0.0405
 7288SOL    HW133326   2.570   1.659   2.583 -0.5822  0.1400  0.0493
 7288SOL    HW233327   2.610   1.583   2.471  1.6068  0.3393 -0.1156
 7289SOL     OW33328   2.323   3.118   7.319 -0.1401  1.0031  0.5022
 7289SOL    HW133329   2.327   3.028   7.287  1.5910  2.2150 -2.7011
 7289SOL    HW233330   2.250   3.123   7.380 -0.6528  0.2687 -0.0439
 7290SOL     OW33331   0.727   0.646   2.336  0.6189 -0.2610 -0.3329
 7290SOL    HW133332   0.659   0.634   2.270 -0.7797  2.4820  0.6134
 7290SOL    HW233333   0.725   0.555   2.365 -2.7831 -0.1000 -0.0387
 7291SOL     OW33334   3.135   1.569   4.682  0.0196 -0.1570  0.1756
 7291SOL    HW133335   3.195   1.604   4.616 -2.8260  0.0014 -2.3512
 7291SOL    HW233336   3.051   1.611   4.665  0.8389  1.2353 -0.4683
 7292SOL     OW33337   2.312   4.405   8.168  0.0421 -0.4954 -0.5174
 7292SOL    HW133338   2.337   4.372   8.255 -0.9751  1.5374  0.5489
 7292SOL    HW233339   2.382   4.464   8.140  0.0339 -0.0989  0.3092
 7293SOL     OW33340   0.382   0.801   8.923 -0.9164 -0.0864 -0.6679
 7293SOL    HW133341   0.356   0.847   9.002  2.7541  2.2762 -0.8318
 7293SOL    HW233342   0.432   0.725   8.953 -1.2342  0.3683  0.9927
 7294SOL     OW33343   2.687   0.700   0.618  0.6483  0.2966  0.1457
 7294SOL    HW133344   2.657   0.745   0.539  1.0404 -1.2633 -0.8976
 7294SOL    HW233345   2.769   0.659   0.590  1.0456  0.8544  0.5032
 7295SOL     OW33346   1.869   4.479   4.357 -0.1958 -0.1858  0.5693
 7295SOL    HW133347   1.906   4.494   4.444  0.4405  0.0491  0.2580
 7295SOL    HW233348   1.832   4.564   4.332  0.7557  0.3226  0.9076
 7296SOL     OW33349   4.054   0.785   4.185 -0.0347 -0.0660  0.4345
 7296SOL    HW133350   3.966   0.750   4.169 -0.4766  1.3201 -0.1235
 7296SOL    HW233351   4.045   0.793   4.280  0.8254  2.5293  0.2866
 7297SOL     OW33352   0.432   3.893  14.185 -0.0289  0.4183 -0.1358
 7297SOL    HW133353   0.509   3.938  14.151  0.7126 -1.2321 -0.6516
 7297SOL    HW233354   0.405   3.953  14.254 -0.1900  0.6764 -0.4202
 7298SOL     OW33355   3.373   1.698   5.546 -0.2209 -0.2553 -0.2065
 7298SOL    HW133356   3.280   1.705   5.528 -0.8224  1.2551  3.5775
 7298SOL    HW233357   3.369   1.677   5.639  1.0991 -1.6658 -0.4644
 7299SOL     OW33358   1.386   4.078   4.466  0.3349  0.1124 -0.3994
 7299SOL    HW133359   1.336   4.137   4.410  1.2820  3.6708  2.4871
 7299SOL    HW233360   1.403   4.000   4.412  0.0288  0.6439 -1.2741
 7300SOL     OW33361   3.551   1.890   6.199  0.2186 -0.3288  0.3648
 7300SOL    HW133362   3.481   1.950   6.224 -0.2071 -0.6944  0.0548
 7300SOL    HW233363   3.628   1.946   6.196 -0.0062 -0.1048 -1.3923
 7301SOL     OW33364   3.185   2.729   7.414  0.1196 -0.1495  0.1179
 7301SOL    HW133365   3.138   2.649   7.394  0.3113 -0.6465  1.6551
 7301SOL    HW233366   3.140   2.782   7.348 -0.2456 -3.1645 -2.0137
 7302SOL     OW33367   3.824   4.621   8.404  0.2583  0.4890 -0.1737
 7302SOL    HW133368   3.847   4.686   8.470  3.0339 -0.1885 -0.4690
 7302SOL    HW233369   3.879   4.651   8.332  0.4649  0.4659 -0.0267
 7303SOL     OW33370   2.599   0.523   5.167  0.1713 -0.1637  0.0073
 7303SOL    HW133371   2.594   0.431   5.196 -1.3552  0.0074  0.2979
 7303SOL    HW233372   2.693   0.525   5.151  0.1514 -1.7135 -0.2888
 7304SOL     OW33373   4.609   0.602   7.943 -0.3583  0.8678  0.2772
 7304SOL    HW133374   4.612   0.689   7.983 -1.1065  0.5308  1.0831
 7304SOL    HW233375   4.703   0.595   7.926  0.0051  2.5217  1.6181
 7305SOL     OW33376   4.680   0.901  16.967  0.7281  0.3180  0.0400
 7305SOL    HW133377   4.641   0.943  17.044  0.5211 -2.0844  1.2240
 7305SOL    HW233378   4.625   0.941  16.900  0.0827 -1.1040 -0.2599
 7306SOL     OW33379   2.768   2.376  13.734  0.3987  0.0444 -0.6187
 7306SOL    HW133380   2.817   2.455  13.754 -0.6928  0.1576  1.5695
 7306SOL    HW233381   2.821   2.304  13.769  0.9689  1.0930  0.6387
 7307SOL     OW33382   3.863   2.652   6.912  0.5214 -0.4094  0.4157
 7307SOL    HW133383   3.776   2.651   6.872  0.0375  2.2203  1.4537
 7307SOL    HW233384   3.838   2.612   6.996  2.3603  0.0627  1.1791
 7308SOL     OW33385   4.546   3.446   0.700  0.9070  0.6315  0.1012
 7308SOL    HW133386   4.541   3.486   0.614  0.6101  0.2607 -0.0576
 7308SOL    HW233387   4.514   3.520   0.752  0.9949 -1.1766  2.7560
 7309SOL     OW33388   0.649   2.275   1.982 -0.4416  0.4735  0.2868
 7309SOL    HW133389   0.625   2.267   2.074 -0.7263 -1.3152  0.0502
 7309SOL    HW233390   0.622   2.186   1.959  0.5550  0.7816 -2.0495
 7310SOL     OW33391   0.913   3.860   4.170  0.1054  0.4568 -0.6216
 7310SOL    HW133392   0.908   3.912   4.250 -2.0659 -0.7805  0.0263
 7310SOL    HW233393   0.924   3.772   4.205  1.4203  0.6193 -0.6026
 7311SOL     OW33394   4.273   2.326   7.345  0.6202  0.4599  0.3405
 7311SOL    HW133395   4.327   2.372   7.281  1.4027  0.5990  1.1092
 7311SOL    HW233396   4.196   2.300   7.294  1.3041  0.1308 -0.5180
 7312SOL     OW33397   0.294   1.202   6.350 -0.1364 -0.6591 -0.0742
 7312SOL    HW133398   0.237   1.220   6.275 -0.5130  3.3015  1.1546
 7312SOL    HW233399   0.296   1.292   6.385 -0.7367 -0.9794  0.7939
 7313SOL     OW33400   1.035   4.556   7.094  0.3645  0.0453  0.3615
 7313SOL    HW133401   0.966   4.554   7.026  1.4423 -0.5302 -0.7184
 7313SOL    HW233402   1.010   4.473   7.134  0.1291  0.0716  0.2735
 7314SOL     OW33403   3.745   3.221   7.901  0.3807 -0.4968  0.3495
 7314SOL    HW133404   3.832   3.213   7.862  1.3005  1.0784  2.0315
 7314SOL    HW233405   3.707   3.298   7.857 -1.3560 -1.4179  0.2319
 7315SOL     OW33406   3.722   4.134   1.787 -0.2984 -0.0506 -0.2613
 7315SOL    HW133407   3.801   4.084   1.771 -0.6635 -0.2263 -1.4739
 7315SOL    HW233408   3.753   4.193   1.855 -2.1707  1.1689 -0.4528
 7316SOL     OW33409   3.286   3.949   6.431 -0.6125 -0.0665  0.3514
 7316SOL    HW133410   3.237   3.870   6.409 -0.8828  0.3528 -0.5803
 7316SOL    HW233411   3.231   4.017   6.392 -1.1875 -0.6945  0.0670
 7317SOL     OW33412   1.175   3.123   4.204  0.1092  0.5951  0.7001
 7317SOL    HW133413   1.213   3.128   4.292 -0.9129 -0.2734  1.1886
 7317SOL    HW233414   1.253   3.088   4.162  0.3884 -0.9564  2.5045
 7318SOL     OW33415   2.913   0.437   5.292  0.3023 -0.8129 -0.9519
 7318SOL    HW133416   3.003   0.441   5.325  0.5170  0.6165 -1.6738
 7318SOL    HW233417   2.923   0.504   5.224 -2.3933  0.5071 -0.0271
 7319SOL     OW33418   3.456   3.739  11.907  0.8773  0.1509  0.0874
 7319SOL    HW133419   3.533   3.778  11.948  1.6329  0.4989 -1.6490
 7319SOL    HW233420   3.470   3.645  11.915 -1.3110 -0.2445 -0.7167
 7320SOL     OW33421   0.206   2.070   5.851  0.0325  0.1778 -0.3974
 7320SOL    HW133422   0.113   2.090   5.865  0.5011  2.5748 -0.7973
 7320SOL    HW233423   0.196   1.988   5.802 -1.6386  0.4092 -0.4592
 7321SOL     OW33424   0.920   1.927   4.919  0.2368  0.4152  0.6247
 7321SOL    HW133425   0.843   1.914   4.974 -0.4850  0.5592 -0.3411
 7321SOL    HW233426   0.931   1.845   4.869  0.7661  0.0667  1.3126
 7322SOL     OW33427   2.732   0.800   1.905  0.4680 -0.3044 -0.3156
 7322SOL    HW133428   2.710   0.829   1.817  2.6837  0.1417 -0.7318
 7322SOL    HW233429   2.735   0.886   1.948 -0.1955 -1.4222  1.9963
 7323SOL     OW33430   1.489   3.777  15.970 -0.5340  0.2946  0.2667
 7323SOL    HW133431   1.556   3.716  16.001 -0.6833 -0.3270 -0.6136
 7323SOL    HW233432   1.474   3.749  15.879  0.7442 -1.0715  0.4697
 7324SOL     OW33433   4.515   2.235   2.025  0.4835 -0.5040  0.6894
 7324SOL    HW133434   4.576   2.181   2.075 -1.7466 -1.8033  2.0468
 7324SOL    HW233435   4.467   2.154   2.006  1.5918 -0.9768 -0.1107
 7325SOL     OW33436   0.918   1.827   6.252 -0.1538 -1.1511 -0.2274
 7325SOL    HW133437   0.931   1.833   6.158  4.6196  0.6834  0.5640
 7325SOL    HW233438   0.865   1.747   6.263 -0.7048 -0.5924  1.2109
 7326SOL     OW33439   2.867   3.263   1.187  0.1044 -0.1656  0.9901
 7326SOL    HW133440   2.787   3.232   1.143 -0.1034  2.6928 -0.5813
 7326SOL    HW233441   2.858   3.232   1.277  0.5191 -0.8822  0.7887
 7327SOL     OW33442   2.841   0.172   4.249  0.1675  0.5961 -0.6627
 7327SOL    HW133443   2.807   0.177   4.160 -2.1556 -1.6957  0.1124
 7327SOL    HW233444   2.810   0.085   4.273 -1.1022  0.3445 -3.2531
 7328SOL     OW33445   3.541   2.011   1.469 -0.1587  0.4605  0.1893
 7328SOL    HW133446   3.584   2.066   1.534  0.9825  1.6290 -1.5650
 7328SOL    HW233447   3.552   1.927   1.515 -1.7902  0.4117  0.5275
 7329SOL     OW33448   0.548   0.847  16.834  0.1413  0.6231 -0.0056
 7329SOL    HW133449   0.469   0.839  16.781  0.3658 -3.6306  0.3389
 7329SOL    HW233450   0.512   0.903  16.903 -0.2710  1.8481 -1.2122
 7330SOL     OW33451   0.305   2.665   6.485 -0.2321  0.1830 -0.3811
 7330SOL    HW133452   0.374   2.690   6.547 -1.0163  1.8295 -0.1646
 7330SOL    HW233453   0.367   2.654   6.413  0.2444 -0.0167  0.0600
 7331SOL     OW33454   3.215   0.441   8.995 -0.4843 -0.3542 -0.1449
 7331SOL    HW133455   3.292   0.390   9.020 -0.9045  0.1707  2.2495
 7331SOL    HW233456   3.234   0.530   9.026 -0.5849 -0.5971  0.6177
 7332SOL     OW33457   1.423   2.170   9.581  0.0961 -0.2539  0.1631
 7332SOL    HW133458   1.507   2.142   9.617  0.2261  0.3327  0.3111
 7332SOL    HW233459   1.427   2.105   9.510  0.4366  0.7937 -0.7795
 7333SOL     OW33460   0.452   0.672   3.096 -0.0164  0.0660 -0.1187
 7333SOL    HW133461   0.430   0.582   3.120 -0.3284 -0.1890 -1.3321
 7333SOL    HW233462   0.488   0.645   3.011  1.4423 -1.8433  1.1045
 7334SOL     OW33463   2.630   2.280   4.812 -0.2303 -0.1031  0.2679
 7334SOL    HW133464   2.553   2.281   4.756  0.2084 -1.3333 -0.3555
 7334SOL    HW233465   2.593   2.235   4.888  0.2840  0.4773  0.8757
 7335SOL     OW33466   0.359   1.162  14.090  0.9264 -0.2198  0.7065
 7335SOL    HW133467   0.308   1.104  14.147 -2.4863  0.6942 -1.4332
 7335SOL    HW233468   0.297   1.215  14.041  1.9755 -1.9055 -2.4249
 7336SOL     OW33469   3.392   3.980  12.663 -0.0196  0.5012  0.0662
 7336SOL    HW133470   3.364   3.923  12.591 -2.5253  0.6535  0.8989
 7336SOL    HW233471   3.345   4.058  12.632  1.0009  1.0576 -0.0733
 7337SOL     OW33472   3.733   2.291  11.774  0.4505 -0.7956 -0.1784
 7337SOL    HW133473   3.680   2.290  11.854 -1.0292  1.7131 -1.1138
 7337SOL    HW233474   3.664   2.321  11.714  1.4243 -0.2181 -1.0083
 7338SOL     OW33475   1.326   0.851   6.739  0.4806 -0.1564  0.8927
 7338SOL    HW133476   1.293   0.850   6.829  0.4818  0.6062  0.9028
 7338SOL    HW233477   1.418   0.867   6.756  0.2425  2.3438 -0.1372
 7339SOL     OW33478   0.747   0.949   6.545  0.0302  0.0038  0.0998
 7339SOL    HW133479   0.753   0.998   6.628 -3.0830  1.5180 -0.5446
 7339SOL    HW233480   0.653   0.932   6.549  0.3087 -1.6454 -0.4564
 7340SOL     OW33481   4.053   4.215   4.018  0.1119 -0.0164  0.3820
 7340SOL    HW133482   4.116   4.166   3.965  1.9750  0.5167  2.1167
 7340SOL    HW233483   4.041   4.160   4.095 -1.1606 -0.1218  0.1087
 7341SOL     OW33484   1.407   3.737   4.015 -0.1874  0.9399  0.5212
 7341SOL    HW133485   1.360   3.791   3.951 -0.5654 -0.2613 -0.2036
 7341SOL    HW233486   1.353   3.754   4.092 -3.3378  0.9904 -1.6743
 7342SOL     OW33487   2.563   3.221   5.604  0.1945 -0.5824 -0.1530
 7342SOL    HW133488   2.618   3.267   5.540 -0.0902 -2.1450 -1.5429
 7342SOL    HW233489   2.615   3.236   5.683  0.0482 -0.3484 -0.1029
 7343SOL     OW33490   0.776   2.896   6.887 -0.1691  0.1528 -0.7008
 7343SOL    HW133491   0.795   2.816   6.935 -1.3245  1.8585  2.6889
 7343SOL    HW233492   0.777   2.976   6.941  0.3203 -0.2700 -0.0870
 7344SOL     OW33493   0.729   2.086   8.994  0.2744 -0.6919 -0.1949
 7344SOL    HW133494   0.673   2.159   8.965  0.5394 -0.2145  0.4841
 7344SOL    HW233495   0.695   2.001   8.966 -1.5850 -0.0523  0.0871
 7345SOL     OW33496   1.478   1.279   6.787 -0.4705 -0.6155 -0.2065
 7345SOL    HW133497   1.441   1.201   6.828  1.6703 -0.3999  2.1064
 7345SOL    HW233498   1.456   1.259   6.696 -2.7232  1.9039 -0.2009
 7346SOL     OW33499   4.399   0.555  11.582  0.5206 -0.0623  0.0421
 7346SOL    HW133500   4.370   0.538  11.672  1.1271 -0.3861  0.1691
 7346SOL    HW233501   4.483   0.599  11.593  0.3354  0.2705  0.1205
 7347SOL     OW33502   2.040   1.200   3.626  0.3655  0.2043 -0.6885
 7347SOL    HW133503   2.087   1.280   3.601  0.8924 -0.1817 -0.9349
 7347SOL    HW233504   1.956   1.225   3.587  0.4699  1.7046  0.0187
 7348SOL     OW33505   3.274   0.985   3.716  0.1945  0.2575  0.1820
 7348SOL    HW133506   3.262   1.030   3.633 -2.6811 -0.0885  0.4115
 7348SOL    HW233507   3.281   0.894   3.687 -1.9691  0.0332  0.3597
 7349SOL     OW33508   2.732   2.146  10.151 -0.1009 -0.3935  0.3520
 7349SOL    HW133509   2.704   2.205  10.081  1.2515  0.1547  0.2738
 7349SOL    HW233510   2.823   2.129  10.127  0.1713  0.5107  0.7514
 7350SOL     OW33511   3.094   2.481   2.988  0.0341 -0.2806 -0.1896
 7350SOL    HW133512   3.062   2.539   2.919  2.7524 -2.3477 -3.1476
 7350SOL    HW233513   3.152   2.425   2.936  1.7264  0.2041  1.1987
 7351SOL     OW33514   0.850   1.031  12.256 -0.2214  0.7805 -0.0676
 7351SOL    HW133515   0.883   0.957  12.206 -1.1030  2.9469 -3.8250
 7351SOL    HW233516   0.766   1.046  12.212  1.0225  0.7311 -2.4459
 7352SOL     OW33517   3.828   2.304   0.920 -0.8270  0.5160  0.4616
 7352SOL    HW133518   3.886   2.308   0.844 -1.5658 -0.3316 -0.1627
 7352SOL    HW233519   3.899   2.285   0.981  0.6913  1.0846 -1.1335
 7353SOL     OW33520   0.670   3.908   7.404  0.5728  0.2662  0.6182
 7353SOL    HW133521   0.662   3.924   7.498 -1.0474  0.8545  0.3617
 7353SOL    HW233522   0.764   3.921   7.391  0.2303  1.6244 -0.4232
 7354SOL     OW33523   2.661   0.788   6.875 -0.0153  0.1972 -0.6401
 7354SOL    HW133524   2.714   0.784   6.954 -0.3054  0.8993 -0.4060
 7354SOL    HW233525   2.670   0.880   6.849 -0.8766  1.2780  2.8983
 7355SOL     OW33526   1.002   3.269  13.973  0.3261  0.4537  0.0520
 7355SOL    HW133527   1.019   3.291  14.065 -0.2090  0.8028  0.0656
 7355SOL    HW233528   0.915   3.308  13.962  0.0788 -0.6023 -1.6232
 7356SOL     OW33529   0.415   1.293   9.574 -0.3164  0.0258  0.5064
 7356SOL    HW133530   0.506   1.263   9.577  0.1794  1.5313  0.2800
 7356SOL    HW233531   0.354   1.225   9.604 -0.2132 -1.0998 -1.7932
 7357SOL     OW33532   0.314   0.024   6.152  0.0746 -0.2498  0.3085
 7357SOL    HW133533   0.407   0.039   6.135 -0.1981 -0.2763 -1.2029
 7357SOL    HW233534   0.284   0.000   6.064 -2.0874  1.3418  0.6029
 7358SOL     OW33535   1.471   1.512  10.875 -0.0663 -0.6412 -0.0355
 7358SOL    HW133536   1.553   1.486  10.832 -0.2764  0.0083 -0.8262
 7358SOL    HW233537   1.482   1.462  10.956  0.7573  0.5867  0.6094
 7359SOL     OW33538   3.310   2.396   2.029 -0.0228 -0.4550  0.4233
 7359SOL    HW133539   3.297   2.470   1.970  2.2832  0.1372  0.6395
 7359SOL    HW233540   3.394   2.422   2.068 -1.0812  3.2910  0.2272
 7360SOL     OW33541   3.975   2.525   8.587  0.3900  0.0368 -0.7628
 7360SOL    HW133542   3.899   2.566   8.545  0.5117  0.9841 -0.0619
 7360SOL    HW233543   3.946   2.435   8.571 -2.0022  0.1483  3.0917
 7361SOL     OW33544   2.823   2.664   5.195 -1.2243 -0.2680 -0.1895
 7361SOL    HW133545   2.736   2.704   5.200 -0.5900  1.3167 -1.9176
 7361SOL    HW233546   2.821   2.678   5.100 -1.4713  0.1894 -0.1173
 7362SOL     OW33547   4.079   2.339   2.809  0.1364  0.4379 -0.6799
 7362SOL    HW133548   4.120   2.253   2.818 -2.0710 -0.6508 -1.2167
 7362SOL    HW233549   4.122   2.390   2.878 -0.9669 -1.9777  1.7800
 7363SOL     OW33550   4.186   2.446  11.242  0.1914  0.0064 -0.4242
 7363SOL    HW133551   4.098   2.415  11.222 -0.7492  2.7196 -0.5718
 7363SOL    HW233552   4.172   2.536  11.272  1.5341  0.1626 -0.2359
 7364SOL     OW33553   1.707   4.244  11.515  0.0871 -0.0793  0.1720
 7364SOL    HW133554   1.688   4.318  11.457  1.7216 -0.2366 -0.5724
 7364SOL    HW233555   1.790   4.214  11.477  0.1817  1.9572 -1.2156
 7365SOL     OW33556   2.467   2.769  11.938  1.0309 -0.0997 -0.5538
 7365SOL    HW133557   2.441   2.755  12.029  0.1814  2.0478 -0.4659
 7365SOL    HW233558   2.444   2.860  11.921 -1.7525 -0.7951 -0.5258
 7366SOL     OW33559   0.789   0.172   5.978 -0.2043  0.3540 -0.2810
 7366SOL    HW133560   0.815   0.165   6.070 -1.7197  0.9692  0.1932
 7366SOL    HW233561   0.854   0.236   5.948 -0.0478  0.3169 -0.0228
 7367SOL     OW33562   2.329   4.715   0.724 -0.3269 -0.2517 -0.3187
 7367SOL    HW133563   2.353   0.036   0.809  0.0629 -1.1859 -0.0101
 7367SOL    HW233564   2.294   4.629   0.748 -0.7518  0.1475  0.5169
 7368SOL     OW33565   2.715   2.622  11.899  1.1853  0.7308  0.3077
 7368SOL    HW133566   2.711   2.706  11.945  1.8957  0.3023  1.1667
 7368SOL    HW233567   2.658   2.636  11.824 -1.3595 -0.6915  1.9862
 7369SOL     OW33568   1.214   2.948  11.438  0.5248  0.3442 -0.0316
 7369SOL    HW133569   1.186   2.942  11.529  0.6928  0.9217  0.0566
 7369SOL    HW233570   1.310   2.955  11.434  0.5848  0.0206  0.9745
 7370SOL     OW33571   3.688   0.507   9.151 -0.2447  0.2104 -0.2926
 7370SOL    HW133572   3.772   0.526   9.192  0.2176 -2.5797  0.0623
 7370SOL    HW233573   3.680   0.413   9.170  1.1745 -0.2850 -2.1186
 7371SOL     OW33574   3.319   1.597   4.161 -0.2156 -0.4179  0.5436
 7371SOL    HW133575   3.332   1.560   4.073  2.0990 -1.8675  1.5022
 7371SOL    HW233576   3.249   1.661   4.149 -0.0763 -0.1832  1.0115
 7372SOL     OW33577   1.913   1.434  16.534  0.3137 -0.2589  0.3482
 7372SOL    HW133578   1.843   1.474  16.481  1.5476  2.8675  1.0604
 7372SOL    HW233579   1.956   1.514  16.565  1.2565 -1.1013  1.1953
 7373SOL     OW33580   3.433   2.864   1.229 -0.2196  0.1423  0.2160
 7373SOL    HW133581   3.463   2.785   1.186 -1.5890 -1.4037  2.0858
 7373SOL    HW233582   3.407   2.828   1.314 -2.7017  0.4140 -0.4189
 7374SOL     OW33583   3.229   0.397   3.277  0.1488  0.2452  0.2990
 7374SOL    HW133584   3.276   0.443   3.207 -1.2909  2.0507  0.4981
 7374SOL    HW233585   3.212   0.317   3.228  3.2896 -0.8165  0.9427
 7375SOL     OW33586   2.587   1.598   2.278 -0.6641  1.2231  0.1148
 7375SOL    HW133587   2.582   1.505   2.256  1.8791  0.9774  0.5348
 7375SOL    HW233588   2.615   1.638   2.196  0.0084 -1.9654 -1.2262
 7376SOL     OW33589   2.473   4.064  17.143 -0.1560 -0.3937 -0.7710
 7376SOL    HW133590   2.445   4.057  17.234 -0.6291 -0.2438 -0.9050
 7376SOL    HW233591   2.429   3.986  17.108  0.1920 -0.0835 -1.8955
 7377SOL     OW33592   2.750   3.998  14.046  0.2858  0.6852  0.6525
 7377SOL    HW133593   2.724   4.021  13.957 -0.4234  1.2368  1.0034
 7377SOL    HW233594   2.790   4.080  14.074 -0.2618  1.2206 -0.1554
 7378SOL     OW33595   0.111   1.166   7.922 -0.1605  0.3274  0.2860
 7378SOL    HW133596   0.023   1.203   7.909 -0.0161  0.9133  0.9885
 7378SOL    HW233597   0.131   1.185   8.014  0.6975 -2.8230  0.7623
 7379SOL     OW33598   0.938   4.710   0.415  0.2382 -0.0715  0.2546
 7379SOL    HW133599   0.943   0.085   0.391  1.1574  0.6375  3.1399
 7379SOL    HW233600   0.884   0.007   0.492  0.6427 -4.2552  1.3282
 7380SOL     OW33601   3.638   1.203   1.145 -0.7778  0.0708 -0.3198
 7380SOL    HW133602   3.601   1.281   1.104  1.0173 -0.3201 -2.7066
 7380SOL    HW233603   3.558   1.150   1.152 -1.1065  0.8174  1.3892
 7381SOL     OW33604   0.031   0.479   4.674  0.3294  0.0666  0.2558
 7381SOL    HW133605   0.087   0.436   4.737  1.5196  0.2052 -0.7154
 7381SOL    HW233606   0.079   0.561   4.662  1.2064 -0.4735  0.0865
 7382SOL     OW33607   3.735   0.013   8.016 -0.5508 -0.3100  0.3280
 7382SOL    HW133608   3.823   0.032   7.986 -1.2340  1.7672 -0.3237
 7382SOL    HW233609   3.704   4.665   7.953  0.3677 -0.8958  0.4937
 7383SOL     OW33610   2.858   4.381  15.084 -0.3792 -0.1407 -0.2397
 7383SOL    HW133611   2.823   4.469  15.066 -1.0904 -0.3177  0.2933
 7383SOL    HW233612   2.924   4.401  15.151  1.5240  1.1722 -2.4882
 7384SOL     OW33613   1.516   1.784   7.983  0.2291  0.1293  0.4635
 7384SOL    HW133614   1.428   1.782   8.020 -0.6714  2.0531 -1.5618
 7384SOL    HW233615   1.524   1.876   7.960 -1.6171  0.3576  0.7754
 7385SOL     OW33616   4.127   0.281   6.895  0.2422 -0.4408 -0.5217
 7385SOL    HW133617   4.172   0.308   6.975 -1.7673 -2.7064  1.3701
 7385SOL    HW233618   4.036   0.259   6.917  0.0565 -0.8343 -1.7118
 7386SOL     OW33619   3.381   0.716   4.919  0.1970  0.2542 -0.4664
 7386SOL    HW133620   3.421   0.803   4.928 -0.2384  0.4781 -0.6721
 7386SOL    HW233621   3.362   0.696   5.011 -0.8717 -1.2109 -1.0107
 7387SOL     OW33622   2.745   1.277  17.485  0.0158 -0.5532 -0.2384
 7387SOL    HW133623   2.803   1.282  17.409 -1.0147  1.8673 -0.8599
 7387SOL    HW233624   2.724   1.184  17.480 -0.7556 -0.3256 -1.1578
 7388SOL     OW33625   1.342   0.856   7.369 -0.3546 -0.1976  0.1260
 7388SOL    HW133626   1.314   0.939   7.408  0.9270  0.2668  0.0592
 7388SOL    HW233627   1.264   0.812   7.336  1.3744 -1.6352 -2.0276
 7389SOL     OW33628   3.446   0.875   2.592  0.4816  0.2678 -0.0453
 7389SOL    HW133629   3.394   0.809   2.547  0.5774  1.1213 -1.4232
 7389SOL    HW233630   3.447   0.941   2.523 -0.5956 -0.1039 -0.4094
 7390SOL     OW33631   4.018   2.586   6.701  0.0146 -0.7957  0.0918
 7390SOL    HW133632   3.982   2.636   6.774  2.2241 -0.0374  0.6515
 7390SOL    HW233633   3.961   2.606   6.627  0.7753  0.9917 -0.0108
 7391SOL     OW33634   3.809   4.417   7.441  0.1172  0.2904 -0.0357
 7391SOL    HW133635   3.818   4.510   7.423 -0.9802 -0.0161 -2.2747
 7391SOL    HW233636   3.896   4.405   7.478  0.1258  0.9347  0.1463
 7392SOL     OW33637   1.880   0.470   8.063  0.2008 -0.1046  0.4298
 7392SOL    HW133638   1.950   0.406   8.078  0.7036  0.4688  0.5469
 7392SOL    HW233639   1.927   0.546   8.029 -0.5933 -0.2535 -1.0150
 7393SOL     OW33640   4.580   0.257   3.730  0.0511  0.2349 -0.8795
 7393SOL    HW133641   4.519   0.330   3.716 -0.4158  0.4266  2.0488
 7393SOL    HW233642   4.568   0.247   3.825  0.6491  1.0789 -0.7168
 7394SOL     OW33643   4.525   2.165  10.596 -0.7316  0.1250  0.2864
 7394SOL    HW133644   4.464   2.148  10.524  0.1425 -0.7668 -0.2376
 7394SOL    HW233645   4.581   2.089  10.613  0.0156  0.8831  1.2309
 7395SOL     OW33646   4.050   2.985   4.663  0.0251 -0.2449  0.3407
 7395SOL    HW133647   4.025   3.073   4.691  0.9633  0.0835  0.1512
 7395SOL    HW233648   3.990   2.934   4.718  1.1994 -2.1624 -0.1220
 7396SOL     OW33649   3.631   1.078   7.262 -0.1795  0.6816 -0.2662
 7396SOL    HW133650   3.640   1.039   7.349 -1.9490 -0.6820 -0.6964
 7396SOL    HW233651   3.713   1.124   7.247 -0.1447  0.4326 -0.8415
 7397SOL     OW33652   3.725   4.583   6.477 -0.1605 -0.5243 -0.0048
 7397SOL    HW133653   3.756   4.674   6.483  0.6532 -0.8500  0.8469
 7397SOL    HW233654   3.778   4.567   6.399  0.3987  0.8365  0.0929
 7398SOL     OW33655   1.912   1.928   4.708  0.3142  0.0358 -0.2550
 7398SOL    HW133656   1.922   1.879   4.790 -1.5855  0.7244  0.3837
 7398SOL    HW233657   1.820   1.951   4.702  0.5039  0.6509 -0.9211
 7399SOL     OW33658   0.035   0.519   9.198  0.1477  0.7411 -0.5095
 7399SOL    HW133659   0.073   0.540   9.283  0.0036  0.2562 -0.3283
 7399SOL    HW233660   0.043   0.606   9.159 -1.3383  0.7042 -0.8783
 7400SOL     OW33661   3.525   4.490  11.079  0.2355  0.1666  0.4151
 7400SOL    HW133662   3.486   4.483  11.166 -0.9641 -0.0559 -0.1487
 7400SOL    HW233663   3.459   4.526  11.020  0.7995  0.0030 -0.3180
 7401SOL     OW33664   1.670   0.652   7.683  0.8527 -0.5128 -0.4871
 7401SOL    HW133665   1.721   0.572   7.673 -1.5458 -1.9680 -0.9325
 7401SOL    HW233666   1.683   0.689   7.596 -1.5141  0.0847 -0.6044
 7402SOL     OW33667   4.212   2.218   0.614  0.1259  0.2473  0.1097
 7402SOL    HW133668   4.124   2.180   0.616 -0.8214  2.4811  0.9165
 7402SOL    HW233669   4.257   2.154   0.670  0.0143  0.2526  0.2047
 7403SOL     OW33670   4.223   0.175   7.658  0.3898  0.6014 -0.1734
 7403SOL    HW133671   4.156   0.198   7.723  0.9180 -2.0397  1.2984
 7403SOL    HW233672   4.168   0.178   7.579 -0.8314  0.3639  0.6727
 7404SOL     OW33673   0.699   4.646   1.771  0.0465  0.0757  0.3013
 7404SOL    HW133674   0.692   0.024   1.763 -0.7178 -0.0206 -0.1127
 7404SOL    HW233675   0.609   4.615   1.769  0.3658 -0.8069 -0.3155
 7405SOL     OW33676   3.961   0.029   8.899 -0.2627  0.0122  0.6064
 7405SOL    HW133677   3.920   0.032   8.813 -0.0017 -1.9332  0.4154
 7405SOL    HW233678   3.996   4.658   8.906  0.5375  0.1621 -1.4411
 7406SOL     OW33679   3.728   1.536   9.293  0.2669  0.0155  0.3482
 7406SOL    HW133680   3.744   1.443   9.278  1.0429  0.1206  0.4793
 7406SOL    HW233681   3.764   1.537   9.381 -2.6080 -0.7503  1.5260
 7407SOL     OW33682   4.023   3.307   6.351 -0.4757 -0.0253 -0.3313
 7407SOL    HW133683   3.950   3.366   6.369 -0.9525 -0.2940 -1.3986
 7407SOL    HW233684   4.041   3.278   6.440 -0.2054 -1.5830 -0.8881
 7408SOL     OW33685   2.142   1.677   5.773 -0.2976 -0.1277  1.3020
 7408SOL    HW133686   2.049   1.697   5.785 -0.0241  0.8050  1.8891
 7408SOL    HW233687   2.144   1.604   5.835 -0.1734 -1.0331  0.2273
 7409SOL     OW33688   3.342   4.571   1.113  0.2532 -0.7781 -0.4851
 7409SOL    HW133689   3.271   4.525   1.067 -1.1750 -0.7184  1.6706
 7409SOL    HW233690   3.296   4.634   1.168  1.9231  0.9168 -1.0106
 7410SOL     OW33691   4.061   2.961  15.909  0.4501  0.4974 -0.2661
 7410SOL    HW133692   4.126   3.021  15.872  0.3075 -0.6809 -2.4431
 7410SOL    HW233693   4.075   2.976  16.002 -2.2380  3.5813 -0.3527
 7411SOL     OW33694   2.056   0.523   1.582  0.0066 -0.5072 -0.0732
 7411SOL    HW133695   2.078   0.452   1.521  3.1843  1.1661 -0.8558
 7411SOL    HW233696   2.037   0.594   1.521 -0.8871 -0.6166  0.0752
 7412SOL     OW33697   3.325   1.581   7.755  0.0682  0.6602 -0.7072
 7412SOL    HW133698   3.307   1.672   7.733  1.1423  1.1924  0.5924
 7412SOL    HW233699   3.263   1.530   7.703 -0.0743 -0.1962  0.2843
 7413SOL     OW33700   1.298   0.961   2.862 -0.0735  0.4476 -0.0883
 7413SOL    HW133701   1.287   0.872   2.827 -0.7161 -0.9338  3.5913
 7413SOL    HW233702   1.207   0.987   2.856 -0.0908 -0.2142 -2.4029
 7414SOL     OW33703   0.437   2.251   6.971 -0.4255 -0.6171  0.3152
 7414SOL    HW133704   0.406   2.281   6.886  0.7206 -0.9372 -0.2131
 7414SOL    HW233705   0.504   2.318   6.984 -0.7703 -0.2484  0.1820
 7415SOL     OW33706   0.685   4.301   4.882  0.0164  0.0087 -0.3317
 7415SOL    HW133707   0.629   4.314   4.959  1.2831 -1.7661  0.9041
 7415SOL    HW233708   0.713   4.212   4.903 -1.2280 -0.6336 -1.4348
 7416SOL     OW33709   0.666   3.157   7.769  0.4520  0.2670  0.5496
 7416SOL    HW133710   0.662   3.149   7.864  1.5483  0.0880  0.5763
 7416SOL    HW233711   0.647   3.065   7.750 -2.6724  1.2482 -1.1446
 7417SOL     OW33712   4.143   0.079  10.416 -0.0513  0.7548 -0.6124
 7417SOL    HW133713   4.116   4.706  10.399  1.2868  0.6378 -2.0694
 7417SOL    HW233714   4.063   0.118  10.451  0.5009 -1.2499  3.0104
 7418SOL     OW33715   2.133   2.617   2.436 -0.0937  0.0710  0.5066
 7418SOL    HW133716   2.055   2.563   2.450 -0.6854  1.0092  0.9176
 7418SOL    HW233717   2.172   2.593   2.352 -0.9275 -1.3978  0.5419
 7419SOL     OW33718   0.709   0.331   4.961 -0.3547  0.3154 -0.5193
 7419SOL    HW133719   0.804   0.326   4.952 -0.2377 -0.6795  1.2516
 7419SOL    HW233720   0.701   0.287   5.045 -1.2574 -0.2580 -0.9094
 7420SOL     OW33721   0.997   1.118   3.888  0.2787 -0.3153  0.2118
 7420SOL    HW133722   1.086   1.107   3.856  1.0306 -1.6243  2.7685
 7420SOL    HW233723   0.999   1.040   3.944 -0.7591 -0.2562  0.3275
 7421SOL     OW33724   1.305   4.481   6.000  0.0493 -0.0644  0.2829
 7421SOL    HW133725   1.236   4.419   6.024  1.3604 -2.3426 -1.7923
 7421SOL    HW233726   1.276   4.491   5.909  1.0744  1.0241  0.0679
 7422SOL     OW33727   4.132   4.323   8.174 -0.0184  0.1393  0.3279
 7422SOL    HW133728   4.085   4.251   8.132  0.2024  1.4450 -2.1383
 7422SOL    HW233729   4.175   4.270   8.241 -0.7044  1.1825  1.5984
 7423SOL     OW33730   0.558   0.517   3.656 -0.0100  0.1631  0.9443
 7423SOL    HW133731   0.573   0.604   3.618 -0.2887 -0.7763 -1.2703
 7423SOL    HW233732   0.515   0.469   3.586 -0.4722 -1.2607  2.2097
 7424SOL     OW33733   1.770   1.372  11.784 -0.1907 -0.1645  0.2853
 7424SOL    HW133734   1.779   1.457  11.827  2.0442  1.0659 -2.6184
 7424SOL    HW233735   1.835   1.330  11.839 -0.5201  0.9285  1.5035
 7425SOL     OW33736   3.762   0.591   2.013  0.6894 -0.1009  0.0918
 7425SOL    HW133737   3.809   0.615   2.092  1.8143  1.6745 -1.1174
 7425SOL    HW233738   3.697   0.532   2.051 -0.7850  0.8300 -0.9733
 7426SOL     OW33739   0.544   2.677  11.588 -0.4349  0.2630  0.5188
 7426SOL    HW133740   0.581   2.594  11.558 -1.0345 -0.3399  1.4502
 7426SOL    HW233741   0.464   2.656  11.635  0.5026 -2.8474  0.7044
 7427SOL     OW33742   2.175   3.849  11.548  0.0306 -0.2888 -0.2814
 7427SOL    HW133743   2.196   3.788  11.619  0.4193  2.3658  1.8800
 7427SOL    HW233744   2.136   3.790  11.484  0.1168 -0.2527 -0.3670
 7428SOL     OW33745   3.535   3.522   7.445  0.0900 -0.0497 -0.0439
 7428SOL    HW133746   3.470   3.540   7.512 -0.1650  2.8105 -1.0458
 7428SOL    HW233747   3.481   3.499   7.369  0.7763 -2.4081  0.1928
 7429SOL     OW33748   2.042   3.981   3.356  0.0253  0.3238  0.1605
 7429SOL    HW133749   1.992   4.016   3.431 -1.3330 -0.0877 -0.5605
 7429SOL    HW233750   2.122   3.957   3.402 -0.0257  0.4266  0.3047
 7430SOL     OW33751   0.603   0.007  15.125 -0.2642 -0.0396  0.0601
 7430SOL    HW133752   0.624   0.060  15.202 -0.2125 -0.3199  0.2359
 7430SOL    HW233753   0.592   0.084  15.069 -2.8121  0.1576  0.8645
 7431SOL     OW33754   0.445   4.527   6.809 -0.1157 -0.9276 -0.0504
 7431SOL    HW133755   0.405   4.457   6.860 -2.2786  0.2222 -0.1684
 7431SOL    HW233756   0.526   4.490   6.775  0.1873 -2.9277  2.8398
 7432SOL     OW33757   0.222   2.808   3.951 -0.2965 -0.4087 -0.6597
 7432SOL    HW133758   0.210   2.897   3.982 -1.7521 -0.1478 -1.9567
 7432SOL    HW233759   0.130   2.780   3.945 -0.8043  1.0951  0.3147
 7433SOL     OW33760   1.416   2.196  14.547  0.6334  0.5480  0.6632
 7433SOL    HW133761   1.440   2.106  14.525  2.1399  1.1359 -0.0609
 7433SOL    HW233762   1.328   2.189  14.510  1.1570  3.2109 -1.1363
 7434SOL     OW33763   2.093   1.509   6.288  0.0787  0.0896  0.3327
 7434SOL    HW133764   2.033   1.462   6.231 -0.1470 -0.8938  1.3886
 7434SOL    HW233765   2.033   1.542   6.355 -0.9002 -1.4855  0.2119
 7435SOL     OW33766   4.652   0.350   7.696  0.1481  0.2609 -0.0756
 7435SOL    HW133767   4.582   0.302   7.741  1.3979 -1.6572 -0.1861
 7435SOL    HW233768   0.011   0.306   7.731  0.8825  2.1009  0.6187
 7436SOL     OW33769   0.345   0.294   5.470  0.5138 -0.0595 -0.5826
 7436SOL    HW133770   0.430   0.295   5.427  1.2615  2.0084  0.9385
 7436SOL    HW233771   0.302   0.221   5.426 -0.0394 -0.2647  0.2973
 7437SOL     OW33772   1.421   1.065   9.419 -0.3288  0.1370  0.6328
 7437SOL    HW133773   1.438   1.133   9.485  1.9567  0.3786 -0.2112
 7437SOL    HW233774   1.440   0.988   9.473 -0.0823  0.0239  0.3826
 7438SOL     OW33775   3.960   1.806  10.948  0.4917  0.3828  0.8192
 7438SOL    HW133776   4.012   1.857  11.010  0.4920  0.8288  0.4517
 7438SOL    HW233777   3.962   1.720  10.989  2.6770  0.3243  0.5615
 7439SOL     OW33778   3.943   3.804   3.662 -0.0467  0.1334  0.3038
 7439SOL    HW133779   3.975   3.791   3.573  2.1202 -2.0259  1.3948
 7439SOL    HW233780   3.850   3.799   3.640  0.4391 -2.4023 -1.1645
 7440SOL     OW33781   2.700   2.179   5.214 -0.4145  0.6869 -0.0281
 7440SOL    HW133782   2.658   2.137   5.138 -0.3241 -1.9298  1.3675
 7440SOL    HW233783   2.748   2.102   5.246 -0.2981  0.5134 -0.6088
 7441SOL     OW33784   0.680   3.688  15.700  0.0559  0.4438 -0.4241
 7441SOL    HW133785   0.639   3.631  15.634 -0.5839  2.0369 -1.3802
 7441SOL    HW233786   0.674   3.777  15.666 -1.1213  1.3684  2.1692
 7442SOL     OW33787   3.581   1.570  15.033  0.1058  0.2948 -0.1473
 7442SOL    HW133788   3.537   1.490  15.005 -1.7482  1.7522 -1.3742
 7442SOL    HW233789   3.609   1.605  14.948 -0.0999  1.7849  0.3896
 7443SOL     OW33790   0.485   3.686   6.140 -0.5138 -0.3079  0.2559
 7443SOL    HW133791   0.439   3.704   6.222 -0.4074  0.5619  0.1250
 7443SOL    HW233792   0.473   3.591   6.137 -3.7214  0.1494 -1.0163
 7444SOL     OW33793   3.215   2.606   5.701  0.2850  0.5194  0.6738
 7444SOL    HW133794   3.144   2.591   5.638  0.0143  1.6924  0.6944
 7444SOL    HW233795   3.190   2.542   5.768 -1.4761  1.5133  0.9678
 7445SOL     OW33796   2.214   0.196   6.993 -0.0313 -0.2363  0.4739
 7445SOL    HW133797   2.154   0.122   6.989  0.1920 -0.2564 -2.5818
 7445SOL    HW233798   2.236   0.191   6.900  0.8531  2.7032  0.5327
 7446SOL     OW33799   3.539   3.328  14.899  0.1028  0.0378 -0.8924
 7446SOL    HW133800   3.632   3.318  14.880  0.3367  0.8666 -0.1862
 7446SOL    HW233801   3.508   3.237  14.895  1.3384 -0.5229  2.2689
 7447SOL     OW33802   2.722   2.695   8.846  0.2572  0.3215 -0.1347
 7447SOL    HW133803   2.720   2.779   8.801  1.3867 -0.2588 -1.2870
 7447SOL    HW233804   2.761   2.710   8.932  0.7541 -0.0131 -0.2975
 7448SOL     OW33805   4.671   3.736   0.899  0.7768 -0.5167  0.0163
 7448SOL    HW133806   4.586   3.721   0.859  1.9815  0.7775 -3.0419
 7448SOL    HW233807   4.714   3.656   0.867 -0.2487 -1.2432  0.4548
 7449SOL     OW33808   0.951   2.839   8.938  0.6700 -0.3741 -0.1892
 7449SOL    HW133809   0.976   2.778   9.008 -0.6346  0.1129  0.7095
 7449SOL    HW233810   1.023   2.901   8.942 -0.4030  0.8099  0.7703
 7450SOL     OW33811   0.835   4.227   3.098 -0.5517 -0.1927  0.2461
 7450SOL    HW133812   0.851   4.133   3.105 -1.6862 -0.2285  2.3667
 7450SOL    HW233813   0.832   4.234   3.002  0.7980 -0.1323  0.2075
 7451SOL     OW33814   2.719   0.927   7.551  0.8872  0.3243 -0.3322
 7451SOL    HW133815   2.813   0.941   7.536  1.1601 -1.0894  0.0511
 7451SOL    HW233816   2.718   0.854   7.613  1.0911  1.0881  0.5688
 7452SOL     OW33817   1.099   3.284  15.340 -0.4539  0.1225  0.3585
 7452SOL    HW133818   1.148   3.331  15.273 -1.2170 -0.0946 -0.3552
 7452SOL    HW233819   1.134   3.317  15.422 -0.0287  2.5205 -0.7804
 7453SOL     OW33820   0.088   1.834  15.320  0.3796  0.0624  0.3512
 7453SOL    HW133821   0.109   1.885  15.398 -0.5699 -0.5294  0.9853
 7453SOL    HW233822   0.067   1.906  15.261 -1.0791 -0.8597 -0.2366
 7454SOL     OW33823   3.553   3.785   3.883 -0.3355  0.2447  0.3566
 7454SOL    HW133824   3.571   3.792   3.789  1.3744  2.0386  0.8119
 7454SOL    HW233825   3.490   3.713   3.888 -1.2594  1.1040  1.2292
 7455SOL     OW33826   2.168   2.528   6.653 -0.0911 -0.0995 -0.4639
 7455SOL    HW133827   2.205   2.548   6.739  2.3360 -0.6117 -1.3979
 7455SOL    HW233828   2.117   2.449   6.671 -0.6964  0.4438  0.2315
 7456SOL     OW33829   2.695   1.287   6.085 -0.7696  0.2164  0.0488
 7456SOL    HW133830   2.666   1.375   6.061 -0.2372  1.1141  2.6423
 7456SOL    HW233831   2.672   1.244   6.003 -1.7080  0.8757 -0.0331
 7457SOL     OW33832   1.506   0.175   1.891 -0.2073  0.1126  0.4393
 7457SOL    HW133833   1.485   0.083   1.906  0.0738 -0.0366 -0.0979
 7457SOL    HW233834   1.582   0.183   1.833 -0.5271  2.8510  0.4057
 7458SOL     OW33835   1.152   4.036   2.886  0.2767  0.0635 -0.3769
 7458SOL    HW133836   1.198   4.041   2.970 -1.8485  0.2467  0.7557
 7458SOL    HW233837   1.161   4.124   2.849 -0.1633 -0.0879 -0.8400
 7459SOL     OW33838   1.388   2.340   5.098  0.6771 -0.2223 -0.1329
 7459SOL    HW133839   1.297   2.347   5.071 -0.1616 -0.1100  2.6556
 7459SOL    HW233840   1.403   2.253   5.061  3.0937 -0.1285  0.6025
 7460SOL     OW33841   1.696   1.701  11.507 -0.0446  0.6033  0.4363
 7460SOL    HW133842   1.726   1.614  11.533  0.4732  0.8955  0.8100
 7460SOL    HW233843   1.608   1.706  11.543 -0.4965 -0.5484 -0.5060
 7461SOL     OW33844   3.556   1.025  12.090  0.0109 -0.0870 -0.2273
 7461SOL    HW133845   3.646   1.057  12.080  0.3264 -1.6138 -2.2788
 7461SOL    HW233846   3.517   1.039  12.004 -0.5383 -0.7832 -0.0797
 7462SOL     OW33847   1.777   2.079   3.961 -0.5049  0.3368 -0.0351
 7462SOL    HW133848   1.809   2.044   3.878 -0.4506 -0.8089  0.4682
 7462SOL    HW233849   1.732   1.999   3.989 -1.2599 -0.0380 -2.3986
 7463SOL     OW33850   0.005   3.852   4.693  0.2458  0.9611 -0.1025
 7463SOL    HW133851   0.032   3.891   4.610  2.5736 -0.3814  0.0304
 7463SOL    HW233852   4.674   3.779   4.656 -0.3054  0.0275  2.4427
 7464SOL     OW33853   1.760   4.173   1.695  0.2439  0.8595 -0.0264
 7464SOL    HW133854   1.731   4.082   1.704 -0.4415  1.0315 -0.5529
 7464SOL    HW233855   1.729   4.207   1.779  1.4492 -2.2649  1.6860
 7465SOL     OW33856   3.944   0.348  15.995 -0.1212  0.4056  0.2877
 7465SOL    HW133857   3.978   0.437  15.983  2.0748 -0.5316 -0.3595
 7465SOL    HW233858   4.022   0.296  15.981  0.4772  1.5602 -0.6627
 7466SOL     OW33859   3.441   2.871   2.298  0.3606  0.1488 -0.0799
 7466SOL    HW133860   3.527   2.835   2.318  0.2944 -0.3484 -0.6953
 7466SOL    HW233861   3.400   2.784   2.295 -0.9498  0.6779  2.1140
 7467SOL     OW33862   4.389   4.603   7.419 -0.0210 -0.2650 -0.7995
 7467SOL    HW133863   4.451   4.650   7.475 -1.7649  1.0287  0.0594
 7467SOL    HW233864   4.344   4.542   7.477 -0.7640  0.1674 -0.9292
 7468SOL     OW33865   1.321   2.554   8.128  0.5478  0.1489  0.6043
 7468SOL    HW133866   1.322   2.645   8.159 -1.8600 -0.2153  1.7534
 7468SOL    HW233867   1.391   2.553   8.063 -0.9591  1.6793 -1.0435
 7469SOL     OW33868   3.168   3.871   5.091  0.4464 -0.0040 -0.1577
 7469SOL    HW133869   3.168   3.940   5.024  0.4630 -0.4681 -0.6348
 7469SOL    HW233870   3.091   3.825   5.059  1.0302 -0.9113 -0.2671
 7470SOL     OW33871   4.619   1.466   6.158  0.2886 -0.0852 -0.6199
 7470SOL    HW133872   4.677   1.509   6.095  0.5081 -0.9427 -1.0115
 7470SOL    HW233873   4.531   1.487   6.126  0.0997 -2.0643 -1.4258
 7471SOL     OW33874   0.940   1.649   5.181 -0.4143 -0.0504  0.1667
 7471SOL    HW133875   0.893   1.658   5.098 -0.2934 -1.8870 -0.1070
 7471SOL    HW233876   1.030   1.672   5.158  0.2266 -1.9734  0.7187
 7472SOL     OW33877   1.324   2.183  15.419 -0.9125  0.2866 -0.1678
 7472SOL    HW133878   1.317   2.262  15.473  2.6035  0.1967  0.4557
 7472SOL    HW233879   1.289   2.205  15.333 -1.1331 -2.2416 -0.7222
 7473SOL     OW33880   2.211   1.807   0.605 -0.0850 -0.4380 -0.0373
 7473SOL    HW133881   2.230   1.900   0.600 -1.9155  0.0206  1.7133
 7473SOL    HW233882   2.241   1.774   0.520 -0.3361 -2.0587  0.4905
 7474SOL     OW33883   0.137   2.392  13.530 -0.2794  0.3326  0.2754
 7474SOL    HW133884   0.112   2.476  13.568  0.4625 -0.2582  2.0313
 7474SOL    HW233885   0.228   2.414  13.507 -0.9166  1.6484 -1.0023
 7475SOL     OW33886   2.484   3.938   5.231 -0.4365 -0.1745 -0.5467
 7475SOL    HW133887   2.440   3.870   5.282  1.2208  0.1797  1.4126
 7475SOL    HW233888   2.553   3.950   5.297  1.2166  1.4047 -2.5935
 7476SOL     OW33889   3.562   1.930   7.085 -0.1414  0.7562  0.7151
 7476SOL    HW133890   3.563   1.998   7.153 -0.5872  0.3953  1.0801
 7476SOL    HW233891   3.615   1.867   7.135  3.0886  1.6407 -1.6017
 7477SOL     OW33892   1.178   0.549   7.384  0.5004 -0.0749 -0.8553
 7477SOL    HW133893   1.179   0.472   7.327 -2.4529 -0.2922 -0.6521
 7477SOL    HW233894   1.219   0.518   7.465  0.4351  0.0480 -0.7750
 7478SOL     OW33895   3.604   2.829   0.060 -0.0804  0.1010 -0.0089
 7478SOL    HW133896   3.528   2.777   0.086 -0.8186  0.6798 -1.0126
 7478SOL    HW233897   3.668   2.769   0.098 -2.6215 -1.7902  1.2659
 7479SOL     OW33898   2.499   2.335   6.748  0.0501 -0.9506  0.2980
 7479SOL    HW133899   2.451   2.253   6.733 -3.8539  1.5940 -1.0198
 7479SOL    HW233900   2.475   2.385   6.670  0.7831 -0.2144  0.5462
 7480SOL     OW33901   2.955   4.683   2.716 -0.2396  0.8075 -0.3496
 7480SOL    HW133902   2.860   4.693   2.714 -0.0892  1.6412 -3.3462
 7480SOL    HW233903   2.964   4.611   2.654  1.4248  3.0960 -2.7579
 7481SOL     OW33904   2.488   3.298   5.233 -0.4353  0.4704  0.4169
 7481SOL    HW133905   2.448   3.379   5.201 -0.0889  0.9988  1.3333
 7481SOL    HW233906   2.439   3.285   5.315 -0.4455 -0.1174  0.3204
 7482SOL     OW33907   1.127   2.347   7.166 -0.1421  0.8077 -0.7610
 7482SOL    HW133908   1.086   2.433   7.176 -0.8878  0.8011 -3.6315
 7482SOL    HW233909   1.054   2.285   7.165  0.5579 -0.0276  0.1115
 7483SOL     OW33910   2.746   3.676   8.510 -0.2060  0.1030  0.1615
 7483SOL    HW133911   2.756   3.601   8.568 -2.9516 -0.8947 -0.6449
 7483SOL    HW233912   2.718   3.747   8.568 -2.3356  0.3419 -1.1437
 7484SOL     OW33913   0.741   3.319   1.087  0.6270 -0.3736 -0.3509
 7484SOL    HW133914   0.651   3.343   1.068  0.3694 -0.4154  0.7936
 7484SOL    HW233915   0.741   3.239   1.035 -0.6843  1.0086 -2.4822
 7485SOL     OW33916   4.534   4.458  16.684 -0.3011 -0.6915 -0.2539
 7485SOL    HW133917   4.615   4.407  16.674  2.0605  3.0581 -0.4111
 7485SOL    HW233918   4.471   4.387  16.671  0.8878 -1.4394 -2.0798
 7486SOL     OW33919   3.694   2.397   3.236 -0.2254 -0.5572 -0.0515
 7486SOL    HW133920   3.683   2.348   3.318 -1.9331  0.9017  0.5809
 7486SOL    HW233921   3.716   2.327   3.175 -0.5453 -1.3922  0.7949
 7487SOL     OW33922   3.361   1.628   4.894 -0.0829  0.1663  0.3822
 7487SOL    HW133923   3.368   1.540   4.857 -2.0394  0.0008  0.3928
 7487SOL    HW233924   3.453   1.655   4.894  0.2484 -0.9614  0.0257
 7488SOL     OW33925   0.851   1.938   3.479 -0.2039  0.7650  0.3303
 7488SOL    HW133926   0.943   1.923   3.504 -0.8047 -0.4207  1.8196
 7488SOL    HW233927   0.845   1.902   3.391  0.5599  0.8121  0.2562
 7489SOL     OW33928   3.310   4.176   6.685 -0.0550  0.0339 -0.1046
 7489SOL    HW133929   3.232   4.225   6.659 -0.8370  0.1208  2.3961
 7489SOL    HW233930   3.293   4.151   6.776  0.0698  1.7817  0.3894
 7490SOL     OW33931   1.887   4.679   8.898  0.3599 -0.8193 -0.7046
 7490SOL    HW133932   1.975   4.715   8.890 -0.1348  0.7739  1.3523
 7490SOL    HW233933   1.899   4.603   8.955  2.2547 -0.2635 -0.3434
 7491SOL     OW33934   2.711   3.834   5.326  0.3418 -0.1882 -0.4488
 7491SOL    HW133935   2.783   3.774   5.344  1.6973  0.8692 -2.3013
 7491SOL    HW233936   2.646   3.769   5.300 -0.3512  1.0339 -1.7625
 7492SOL     OW33937   2.067   1.692  15.421 -0.1400 -0.0730 -0.0166
 7492SOL    HW133938   2.056   1.619  15.361 -0.0847  0.0605 -0.1871
 7492SOL    HW233939   2.021   1.666  15.501  0.3756 -2.3914 -0.4792
 7493SOL     OW33940   1.572   0.455  12.294  0.3263 -0.1803 -0.0286
 7493SOL    HW133941   1.645   0.513  12.273  0.6208 -0.6860 -0.4196
 7493SOL    HW233942   1.624   0.375  12.299 -0.7121 -0.7099  2.5929
 7494SOL     OW33943   1.882   3.889   3.059 -0.0553  0.0391 -0.2751
 7494SOL    HW133944   1.802   3.837   3.049 -1.1418  2.1687 -2.5799
 7494SOL    HW233945   1.938   3.849   2.993  1.1563  1.7647 -0.2739
 7495SOL     OW33946   0.433   3.388   7.486 -0.3400 -0.5900  0.1231
 7495SOL    HW133947   0.527   3.376   7.469  0.0981  0.3001  1.9742
 7495SOL    HW233948   0.407   3.399   7.394  1.2776 -0.9365 -0.3823
 7496SOL     OW33949   2.633   2.119  17.159 -0.7627  0.0034  0.0216
 7496SOL    HW133950   2.546   2.155  17.144 -1.1656 -1.4482 -1.1672
 7496SOL    HW233951   2.623   2.057  17.231 -1.4626 -0.0130 -0.0867
 7497SOL     OW33952   3.941   3.536   2.175  0.1618  0.4521  0.5727
 7497SOL    HW133953   3.993   3.481   2.232 -1.3317 -0.2366  1.2738
 7497SOL    HW233954   3.917   3.482   2.100  1.5037 -0.1848  0.6018
 7498SOL     OW33955   4.668   0.182   1.864  0.4575 -0.5429  0.4077
 7498SOL    HW133956   4.605   0.125   1.820  0.8597 -1.0434  0.4805
 7498SOL    HW233957   0.038   0.146   1.849  0.3075 -0.1033 -1.5176
 7499SOL     OW33958   1.661   3.797  16.801 -1.2557  0.3628 -0.0988
 7499SOL    HW133959   1.667   3.808  16.896 -0.6072  0.5948 -0.1667
 7499SOL    HW233960   1.718   3.866  16.768 -0.5590 -1.6693 -3.1714
 7500SOL     OW33961   1.305   4.560  14.998  0.1112 -0.4543 -0.1355
 7500SOL    HW133962   1.346   4.477  14.975  0.6887 -0.2947  0.2959
 7500SOL    HW233963   1.295   4.548  15.092  0.5050 -1.3888 -0.2198
 7501SOL     OW33964   0.447   4.295   8.453 -0.2832 -0.4321  0.0238
 7501SOL    HW133965   0.540   4.312   8.465 -0.2081 -1.8076  1.4113
 7501SOL    HW233966   0.420   4.260   8.538 -1.4098 -1.6560 -0.8390
 7502SOL     OW33967   4.633   4.129   5.224 -0.1010  0.3881 -0.2678
 7502SOL    HW133968   4.541   4.146   5.203 -0.3843  0.5780  1.1917
 7502SOL    HW233969   4.666   4.109   5.136 -2.0849 -0.4412 -0.8290
 7503SOL     OW33970   1.217   3.214   3.573 -0.4320  0.2398 -0.1810
 7503SOL    HW133971   1.184   3.235   3.660 -0.2739  2.4415 -0.6436
 7503SOL    HW233972   1.310   3.206   3.592 -0.5473  0.8855  0.6816
 7504SOL     OW33973   2.502   0.434   2.420  0.4556 -0.0164  0.4440
 7504SOL    HW133974   2.466   0.456   2.334 -3.0668 -0.0599  1.9187
 7504SOL    HW233975   2.589   0.474   2.414  0.0324  1.2324  2.4079
 7505SOL     OW33976   2.027   3.173   3.486 -0.3821 -0.4747 -0.1413
 7505SOL    HW133977   2.051   3.165   3.394  1.8205 -1.2861  0.4930
 7505SOL    HW233978   2.109   3.204   3.524 -0.1436 -1.7594  0.3917
 7506SOL     OW33979   3.205   2.559   8.463 -0.0785  0.7356 -0.5648
 7506SOL    HW133980   3.238   2.648   8.478  1.4882 -0.0316  0.5019
 7506SOL    HW233981   3.275   2.508   8.503 -1.9461 -1.9538 -0.7356
 7507SOL     OW33982   2.297   1.188   0.343 -0.5230 -0.1519  0.1954
 7507SOL    HW133983   2.296   1.266   0.399 -0.9144 -0.1327  0.1619
 7507SOL    HW233984   2.331   1.230   0.264  0.1338 -0.6158  0.2284
 7508SOL     OW33985   1.925   3.660  12.946 -0.0946  0.2377  0.5640
 7508SOL    HW133986   1.862   3.731  12.954  0.8463  1.3662 -1.8693
 7508SOL    HW233987   1.993   3.689  13.007  2.2463 -2.6948 -0.6332
 7509SOL     OW33988   4.586   3.807   3.191  0.0225  0.1530  0.4103
 7509SOL    HW133989   4.601   3.901   3.189 -0.7793  0.2737  0.2362
 7509SOL    HW233990   4.503   3.815   3.237  0.3435 -2.3734  1.4377
 7510SOL     OW33991   3.891   4.236   0.693 -0.2493 -0.2097 -0.5342
 7510SOL    HW133992   3.885   4.331   0.701  1.4692 -0.1304 -0.1160
 7510SOL    HW233993   3.907   4.233   0.598 -0.4923  1.7986 -0.6218
 7511SOL     OW33994   3.770   0.067   9.413 -0.5112  0.2098 -0.3204
 7511SOL    HW133995   3.768   4.708   9.357 -2.0180 -1.0288  1.4318
 7511SOL    HW233996   3.857   0.058   9.452 -0.3773  1.9712 -0.2119
 7512SOL     OW33997   3.168   3.028   8.934  0.5171 -0.7010  0.4062
 7512SOL    HW133998   3.106   2.963   8.966 -0.9501  1.7110  2.4567
 7512SOL    HW233999   3.208   3.071   9.010 -2.3672  0.1467  1.4397
 7513SOL     OW34000   2.174   0.031  14.610 -0.3163 -0.3459 -0.8346
 7513SOL    HW134001   2.247   0.082  14.645  0.3981 -1.0355 -1.3201
 7513SOL    HW234002   2.097   0.049  14.663  0.2228  0.0216 -0.1819
 7514SOL     OW34003   0.778   2.023  15.434  0.0566  0.1935 -0.7582
 7514SOL    HW134004   0.806   2.101  15.386  0.9356 -0.6124 -1.5652
 7514SOL    HW234005   0.712   1.990  15.372  2.5810 -0.4562 -3.1031
 7515SOL     OW34006   1.079   4.616   2.161  0.0121  0.1304 -0.5161
 7515SOL    HW134007   1.052   4.536   2.116 -2.5492 -0.0485  1.3427
 7515SOL    HW234008   0.997   4.655   2.189  1.2510  1.3046  1.5360
 7516SOL     OW34009   1.863   3.302  16.113 -0.1675  0.2214  0.0219
 7516SOL    HW134010   1.864   3.244  16.037 -0.1492  1.5643 -1.0105
 7516SOL    HW234011   1.769   3.313  16.127  0.3695  1.7002  2.4939
 7517SOL     OW34012   4.603   4.702   5.000 -0.2755  0.3622 -0.0253
 7517SOL    HW134013   4.677   0.011   5.055 -0.9622 -0.5212  1.3243
 7517SOL    HW234014   4.626   0.034   4.921 -1.7445  1.3604  0.1845
 7518SOL     OW34015   0.787   0.825   5.524 -0.1687  0.1060 -0.3226
 7518SOL    HW134016   0.782   0.911   5.483  0.2567  0.9311  1.3265
 7518SOL    HW234017   0.867   0.785   5.490  0.2890  1.4319 -0.7752
 7519SOL     OW34018   0.511   1.480  16.550 -0.2551  0.3415 -0.2242
 7519SOL    HW134019   0.507   1.415  16.480  2.0446 -1.6044  1.4459
 7519SOL    HW234020   0.448   1.544  16.516 -0.2112  0.2915 -0.4005
 7520SOL     OW34021   0.756   3.832   3.589  0.5780  0.0874 -0.0021
 7520SOL    HW134022   0.712   3.791   3.514 -0.7224  0.3846  0.6013
 7520SOL    HW234023   0.690   3.881   3.637 -1.2197  0.1801 -2.5317
 7521SOL     OW34024   3.847   3.290   5.234 -0.3852  0.1843  0.0218
 7521SOL    HW134025   3.805   3.205   5.234  0.2701 -0.1470 -1.3717
 7521SOL    HW234026   3.774   3.351   5.222 -0.0547  0.8959  1.5938
 7522SOL     OW34027   1.430   4.526   5.321 -0.2449 -0.2425 -0.3935
 7522SOL    HW134028   1.436   4.620   5.306  2.2004 -0.2051  0.8679
 7522SOL    HW234029   1.365   4.518   5.391 -0.2018  1.2167 -0.1873
 7523SOL     OW34030   1.730   3.533  10.023  0.0521 -0.0236  0.2904
 7523SOL    HW134031   1.683   3.460  10.063  0.1392 -0.1385  0.1828
 7523SOL    HW234032   1.685   3.611  10.055 -0.9656 -0.0476 -1.0617
 7524SOL     OW34033   1.144   2.407   5.215  0.4268  0.4084 -0.6140
 7524SOL    HW134034   1.083   2.455   5.271  0.7936  0.7188 -0.4785
 7524SOL    HW234035   1.220   2.463   5.232  0.1342  0.4919  0.4019
 7525SOL     OW34036   4.313   1.464   6.746  0.0583 -0.1902  0.2479
 7525SOL    HW134037   4.233   1.517   6.748 -0.2724 -0.6457 -1.3390
 7525SOL    HW234038   4.266   1.380   6.740 -1.9948  1.0467 -0.8771
 7526SOL     OW34039   2.556   2.717  17.136  0.1430 -0.2032  0.3697
 7526SOL    HW134040   2.647   2.743  17.153  0.6575 -1.8895  0.1934
 7526SOL    HW234041   2.503   2.782  17.183 -0.8220 -0.8193  0.1383
 7527SOL     OW34042   4.510   4.174   0.526 -0.3322 -0.1552  0.3414
 7527SOL    HW134043   4.515   4.210   0.614 -1.5773 -0.3536  0.4853
 7527SOL    HW234044   4.568   4.098   0.523  0.5372  0.5397 -0.4682
 7528SOL     OW34045   1.198   2.914   9.017  0.2715  0.8304  0.0650
 7528SOL    HW134046   1.270   2.910   8.955 -0.5253 -3.2010 -0.6125
 7528SOL    HW234047   1.232   2.862   9.090 -1.5194 -0.5839 -0.0893
 7529SOL     OW34048   0.007   3.299   0.856 -0.2236  0.1430  0.1083
 7529SOL    HW134049   4.704   3.205   0.864 -1.7464  0.6794  2.4943
 7529SOL    HW234050   4.647   3.326   0.806 -0.6259  0.1058  0.7090
 7530SOL     OW34051   1.716   4.671   8.240  0.1412 -0.0120  0.5962
 7530SOL    HW134052   1.755   0.036   8.211  2.6189 -0.3501  3.0042
 7530SOL    HW234053   1.797   4.630   8.271 -0.1195 -0.4647  0.6877
 7531SOL     OW34054   0.092   0.546   5.781 -0.4258  0.6052 -0.0447
 7531SOL    HW134055   0.126   0.547   5.692 -1.1057 -0.9254 -0.3262
 7531SOL    HW234056   0.152   0.482   5.820 -3.4416 -2.7386 -0.8971
 7532SOL     OW34057   2.578   2.513   3.622 -0.3643  0.3956  0.5118
 7532SOL    HW134058   2.511   2.555   3.569  2.5449  0.8068 -2.8958
 7532SOL    HW234059   2.555   2.557   3.704 -2.1462 -1.1235  0.7976
 7533SOL     OW34060   2.793   1.746  10.187  0.3371  0.2738 -0.2357
 7533SOL    HW134061   2.823   1.687  10.257  1.2869  0.6216 -0.3390
 7533SOL    HW234062   2.819   1.694  10.111  1.2436  0.8679 -0.3358
 7534SOL     OW34063   2.873   1.326   2.887 -0.0476 -0.2556  0.4884
 7534SOL    HW134064   2.885   1.344   2.981  0.3958 -1.4897  0.6728
 7534SOL    HW234065   2.886   1.232   2.897  0.4130 -0.3504 -1.0736
 7535SOL     OW34066   0.133   0.776   8.781  0.0472 -0.0214 -0.6299
 7535SOL    HW134067   0.217   0.805   8.816 -0.0648  1.3268 -1.4843
 7535SOL    HW234068   0.133   0.801   8.689 -2.0317  0.5261 -0.4920
 7536SOL     OW34069   3.994   4.560   3.603 -0.3109  0.0043  0.4201
 7536SOL    HW134070   3.990   4.553   3.698  2.5111  0.8423  0.5948
 7536SOL    HW234071   4.088   4.556   3.587 -0.4622 -1.1844 -0.1820
 7537SOL     OW34072   1.368   4.125   3.804 -0.4589 -0.2296  0.4345
 7537SOL    HW134073   1.376   4.198   3.743 -0.0614 -0.4861  0.1782
 7537SOL    HW234074   1.400   4.160   3.887 -3.1073  0.1991  1.2810
 7538SOL     OW34075   1.396   4.706   3.388  0.0659 -0.6649 -0.2855
 7538SOL    HW134076   1.466   0.030   3.337  1.6471 -0.1959  2.2941
 7538SOL    HW234077   1.316   0.023   3.349 -0.9489 -1.2707  1.2869
 7539SOL     OW34078   3.259   1.959   1.149 -0.4964 -0.1477  0.2377
 7539SOL    HW134079   3.309   2.031   1.187  1.8838 -1.5416 -0.2336
 7539SOL    HW234080   3.224   1.927   1.233  1.7647 -2.0096  0.4860
 7540SOL     OW34081   4.108   2.327  10.240 -0.1679 -0.4604  0.2268
 7540SOL    HW134082   4.117   2.362  10.328 -0.1236 -1.5893  0.6706
 7540SOL    HW234083   4.191   2.291  10.210 -0.5016 -1.6904  0.7806
 7541SOL     OW34084   1.948   1.696  16.311  0.5833  0.4813  0.0301
 7541SOL    HW134085   1.871   1.641  16.324 -0.2348  1.7253  0.4664
 7541SOL    HW234086   1.932   1.729  16.223 -0.3054 -0.7405 -0.2661
 7542SOL     OW34087   0.484   0.302   8.302 -0.7292  0.1732 -0.1588
 7542SOL    HW134088   0.539   0.336   8.231  1.1718  0.3678  1.4280
 7542SOL    HW234089   0.501   0.369   8.367  2.5240 -0.5187 -0.2937
 7543SOL     OW34090   1.116   4.122   5.004 -0.5972 -0.0869 -0.1153
 7543SOL    HW134091   1.212   4.115   5.008 -0.6496 -0.8174  0.0141
 7543SOL    HW234092   1.098   4.173   4.925  1.3081 -0.4766 -0.8037
 7544SOL     OW34093   1.622   1.723  14.451 -0.2656  0.5983 -0.4645
 7544SOL    HW134094   1.600   1.695  14.540  1.5569  0.1741 -0.1618
 7544SOL    HW234095   1.545   1.777  14.432 -2.4287 -1.3017  2.7559
 7545SOL     OW34096   2.030   1.930   8.329  0.0590 -0.8892 -0.5998
 7545SOL    HW134097   1.947   1.975   8.317 -0.7483 -1.8806  1.3560
 7545SOL    HW234098   2.053   1.921   8.236  0.1213 -0.4707 -0.6246
 7546SOL     OW34099   4.087   0.342   5.358  0.0761 -0.4161  0.0287
 7546SOL    HW134100   4.110   0.249   5.363 -1.0127 -0.6596  0.3865
 7546SOL    HW234101   4.108   0.349   5.265  3.2070  0.0021  0.7754
 7547SOL     OW34102   2.081   1.931   9.776  0.1683  0.5113  0.5498
 7547SOL    HW134103   1.991   1.899   9.786  0.3242 -0.1353 -0.1329
 7547SOL    HW234104   2.119   1.882   9.704  2.4967  0.4131  1.8654
 7548SOL     OW34105   0.458   1.463  14.782 -0.7147  0.1715  0.2879
 7548SOL    HW134106   0.414   1.546  14.764  1.1737  1.2549  0.5771
 7548SOL    HW234107   0.480   1.428  14.695  0.9410 -0.3112  0.8920
 7549SOL     OW34108   4.060   1.596  13.971 -0.3967  0.1114  0.0788
 7549SOL    HW134109   4.027   1.515  14.010 -1.8644  1.1312  0.9212
 7549SOL    HW234110   4.053   1.559  13.883  1.8301  0.9927 -0.4764
 7550SOL     OW34111   1.949   4.401   8.553  0.7369  0.3212 -0.1661
 7550SOL    HW134112   1.998   4.463   8.498  2.6359 -0.4459  0.6335
 7550SOL    HW234113   2.023   4.372   8.608  0.9595  0.9185 -0.1458
 7551SOL     OW34114   4.282   4.636   7.133  0.3177  0.5323  0.3941
 7551SOL    HW134115   4.344   4.630   7.206  0.6976  2.0743  0.2126
 7551SOL    HW234116   4.195   4.628   7.172  0.7298  3.7916  2.0461
 7552SOL     OW34117   2.500   0.321   5.976  0.6346 -0.0151  0.1868
 7552SOL    HW134118   2.415   0.296   5.940  0.0386 -1.3475  2.4851
 7552SOL    HW234119   2.510   0.414   5.958  1.6183  0.2662  2.1869
 7553SOL     OW34120   4.270   4.324  16.348  0.3871  0.0140  0.3411
 7553SOL    HW134121   4.349   4.346  16.299 -0.5546 -0.8571 -1.5868
 7553SOL    HW234122   4.253   4.398  16.406 -0.1044  0.4279 -0.3301
 7554SOL     OW34123   3.746   4.566  16.457 -0.2591 -0.0122 -0.2878
 7554SOL    HW134124   3.686   4.554  16.383 -1.9302  0.6851  0.9470
 7554SOL    HW234125   3.694   4.527  16.527 -2.0630  1.5148 -0.7688
 7555SOL     OW34126   4.601   2.597   9.839 -0.2839 -0.2720 -0.2036
 7555SOL    HW134127   4.696   2.594   9.846 -0.3049  0.2525  0.3019
 7555SOL    HW234128   4.569   2.589   9.929  2.0445  2.2371  0.8685
 7556SOL     OW34129   3.307   4.449   8.517  0.3156 -0.3954 -0.3557
 7556SOL    HW134130   3.340   4.537   8.531 -2.1079  0.2909  1.0421
 7556SOL    HW234131   3.212   4.462   8.527  0.4772 -0.1446  0.8801
 7557SOL     OW34132   4.625   4.406  12.172  0.3065  0.3787  0.0433
 7557SOL    HW134133   4.558   4.368  12.116  0.4246  2.0105 -1.1898
 7557SOL    HW234134   4.687   4.334  12.178 -1.8203 -1.3269  1.6875
 7558SOL     OW34135   3.230   4.132   4.217 -0.2747  0.2760  0.4254
 7558SOL    HW134136   3.306   4.151   4.162 -1.3152  0.1249 -1.0656
 7558SOL    HW234137   3.167   4.193   4.179 -0.2126 -0.2811 -0.5534
 7559SOL     OW34138   1.755   1.093  16.720  0.2174  0.3783  0.1864
 7559SOL    HW134139   1.698   1.069  16.647 -0.6160 -0.6562  1.1615
 7559SOL    HW234140   1.825   1.122  16.662 -0.5881  1.5900 -0.1790
 7560SOL     OW34141   1.121   3.868   7.150  0.4589  0.6734  0.2302
 7560SOL    HW134142   1.041   3.920   7.147 -0.4881 -0.9655 -3.2786
 7560SOL    HW234143   1.089   3.787   7.109 -0.3373  0.7344  0.7305
 7561SOL     OW34144   3.536   4.002   8.184 -0.1877 -0.3493  0.2017
 7561SOL    HW134145   3.497   4.010   8.271 -0.7747  0.8007 -0.1671
 7561SOL    HW234146   3.463   3.968   8.132  0.2359 -2.1623  0.7969
 7562SOL     OW34147   4.630   0.892  15.698 -1.0987  0.2293 -0.3798
 7562SOL    HW134148   4.613   0.980  15.664 -0.8243 -0.0188 -1.1638
 7562SOL    HW234149   0.001   0.866  15.673 -0.3667  3.0461 -0.7243
 7563SOL     OW34150   2.359   2.774  12.192 -0.2384 -0.4458  0.0289
 7563SOL    HW134151   2.447   2.767  12.230 -0.4957  1.2287  0.9451
 7563SOL    HW234152   2.312   2.710  12.245 -2.0140  0.5998 -0.2899
 7564SOL     OW34153   4.147   4.032   2.713  0.4246  0.1790  0.1321
 7564SOL    HW134154   4.091   3.978   2.656  0.2159 -1.5105  1.9409
 7564SOL    HW234155   4.228   3.983   2.702 -0.3826 -1.3324  0.9076
 7565SOL     OW34156   4.262   2.183  13.738  0.2933  0.4241 -0.1832
 7565SOL    HW134157   4.319   2.226  13.802 -1.1116 -2.7134  3.1344
 7565SOL    HW234158   4.184   2.220  13.779 -0.2679  0.9050 -1.6746
 7566SOL     OW34159   2.945   2.914   7.789 -0.3400 -0.1085 -0.5503
 7566SOL    HW134160   3.027   2.923   7.739  0.5111 -2.4844  0.4148
 7566SOL    HW234161   2.959   2.995   7.837 -0.9550  0.7642 -1.8396
 7567SOL     OW34162   4.504   3.370   3.718  0.2879 -0.2960  0.4178
 7567SOL    HW134163   4.577   3.368   3.780 -0.3677  0.3542  1.2263
 7567SOL    HW234164   4.436   3.408   3.774 -0.8556 -1.7379 -0.0055
 7568SOL     OW34165   4.446   4.016   2.768  0.3495 -0.6641  0.1240
 7568SOL    HW134166   4.434   4.026   2.674 -1.6409  0.0450  0.4631
 7568SOL    HW234167   4.419   4.102   2.802 -1.7749 -0.8502 -1.1320
 7569SOL     OW34168   2.889   2.052   7.265 -0.0086 -0.4323  0.0140
 7569SOL    HW134169   2.854   2.081   7.180  0.3671 -4.5500 -1.5185
 7569SOL    HW234170   2.923   2.135   7.299 -1.7498 -0.2170  1.2055
 7570SOL     OW34171   3.725   3.374   7.593  0.3952 -0.3317  0.4235
 7570SOL    HW134172   3.721   3.288   7.552  0.7277 -0.4579  0.6559
 7570SOL    HW234173   3.659   3.425   7.546  0.3027 -1.1105 -0.2863
 7571SOL     OW34174   4.438   0.680   7.260  0.7558  0.1976 -0.2705
 7571SOL    HW134175   4.422   0.620   7.333 -0.5212 -0.1840 -0.8647
 7571SOL    HW234176   4.483   0.631   7.192 -2.0028 -0.7338 -1.4354
 7572SOL     OW34177   4.237   3.290   7.163 -0.0035  0.0123  0.6201
 7572SOL    HW134178   4.289   3.334   7.230  0.6353  1.4562 -0.8121
 7572SOL    HW234179   4.166   3.242   7.206 -1.4136  3.0166  1.6422
 7573SOL     OW34180   1.773   3.464  11.905  0.3833  0.1047 -0.2374
 7573SOL    HW134181   1.718   3.516  11.963 -0.0289 -0.0236 -0.5064
 7573SOL    HW234182   1.749   3.498  11.818 -1.0540  1.0921  0.5580
 7574SOL     OW34183   0.275   4.046   7.397 -0.2178 -0.0282  0.0040
 7574SOL    HW134184   0.314   4.022   7.481  0.4246  2.7838  0.5058
 7574SOL    HW234185   0.200   3.988   7.387 -0.3859  0.5273 -1.9723
 7575SOL     OW34186   2.053   0.193  11.654  0.0491  0.0815  0.2105
 7575SOL    HW134187   2.015   0.204  11.566 -1.0828 -0.3853  0.6353
 7575SOL    HW234188   2.128   0.137  11.634 -0.3653 -0.8870  1.4235
 7576SOL     OW34189   3.468   0.870  10.517  0.1303 -0.2840  0.3524
 7576SOL    HW134190   3.484   0.839  10.606  0.0420  0.5694  0.6638
 7576SOL    HW234191   3.405   0.941  10.528 -0.3634 -0.9467  1.8017
 7577SOL     OW34192   0.712   0.513   5.579  0.5411 -0.0313 -0.5488
 7577SOL    HW134193   0.765   0.584   5.544 -0.4099  1.3783  0.8765
 7577SOL    HW234194   0.740   0.497   5.669 -0.4756 -1.9716 -0.5642
 7578SOL     OW34195   4.477   3.452   8.150 -0.8401  0.6762  0.4280
 7578SOL    HW134196   4.410   3.405   8.099  0.8490 -0.7420 -0.4608
 7578SOL    HW234197   4.479   3.411   8.237  0.1227 -1.4889 -0.6017
 7579SOL     OW34198   3.834   1.130   1.956 -0.1445 -0.0152  0.1755
 7579SOL    HW134199   3.892   1.065   1.996 -0.8043 -0.2247  0.7792
 7579SOL    HW234200   3.830   1.090   1.869 -0.7744  1.5668 -0.5155
 7580SOL     OW34201   2.561   3.428  12.618  0.0488  0.1527  0.4300
 7580SOL    HW134202   2.546   3.368  12.545  0.3708  1.7019 -0.9089
 7580SOL    HW234203   2.511   3.502  12.586 -2.1188 -0.9849  1.1982
 7581SOL     OW34204   2.809   0.538   2.390  0.5849 -0.1401 -0.1907
 7581SOL    HW134205   2.877   0.472   2.400  1.3937  0.9133  1.3970
 7581SOL    HW234206   2.815   0.545   2.295 -0.7339  1.0991 -0.1851
 7582SOL     OW34207   3.762   2.829   2.581  0.2127  0.4684 -0.2223
 7582SOL    HW134208   3.699   2.821   2.509  2.0173  1.4997 -1.9116
 7582SOL    HW234209   3.750   2.919   2.613  0.0705  0.6704 -0.8411
 7583SOL     OW34210   2.170   0.849   5.293 -0.6110  0.2857 -0.1887
 7583SOL    HW134211   2.263   0.824   5.289 -0.5901  0.2582  0.4822
 7583SOL    HW234212   2.153   0.878   5.203 -0.8898  1.8653  0.3918
 7584SOL     OW34213   0.310   0.849  15.390  0.1153 -0.7718  0.0143
 7584SOL    HW134214   0.395   0.827  15.351 -0.1983 -0.9094 -0.6003
 7584SOL    HW234215   0.325   0.886  15.476  1.9972  0.9970 -1.0783
 7585SOL     OW34216   0.027   1.106   8.579 -0.1701 -0.0122 -0.2823
 7585SOL    HW134217   0.040   1.168   8.651 -0.5296 -0.0446 -0.1866
 7585SOL    HW234218   4.654   1.122   8.553 -1.3644 -1.9807  2.5226
 7586SOL     OW34219   3.650   1.618   8.520  0.1326 -0.2320  0.4039
 7586SOL    HW134220   3.602   1.641   8.441 -0.4030  1.8055  1.3126
 7586SOL    HW234221   3.680   1.531   8.497 -0.5455 -1.0558  2.6074
 7587SOL     OW34222   1.404   0.778   3.265 -0.5040 -0.1368 -0.0621
 7587SOL    HW134223   1.432   0.850   3.321  4.2726 -2.2550  0.3470
 7587SOL    HW234224   1.487   0.740   3.234 -0.2099  0.8658 -0.4875
 7588SOL     OW34225   4.366   1.450   4.620 -0.2837  0.2746  0.5316
 7588SOL    HW134226   4.370   1.459   4.525 -1.8551  1.4145  0.5651
 7588SOL    HW234227   4.457   1.436   4.645  0.0456  2.8667  0.8016
 7589SOL     OW34228   1.639   1.962   3.039 -0.5315  0.2622  0.3932
 7589SOL    HW134229   1.681   1.918   2.965 -0.0617 -0.0541  0.8485
 7589SOL    HW234230   1.554   1.992   3.006 -0.3015  0.6404  0.1576
 7590SOL     OW34231   1.486   2.486   0.770 -0.2381  0.5754 -0.1327
 7590SOL    HW134232   1.425   2.548   0.810  1.4349  2.0345  0.1677
 7590SOL    HW234233   1.467   2.413   0.828  1.0074  0.9404  0.7344
 7591SOL     OW34234   3.402   1.531   2.086 -0.7320 -0.0182  0.0921
 7591SOL    HW134235   3.382   1.531   2.180  3.1438  1.0455  0.9470
 7591SOL    HW234236   3.398   1.625   2.070  0.2440  0.2583  1.3791
 7592SOL     OW34237   2.435   2.640   8.645  0.5491 -0.0996 -0.2466
 7592SOL    HW134238   2.414   2.646   8.552  0.4564 -1.6862 -0.3262
 7592SOL    HW234239   2.356   2.675   8.687  1.8692  1.2116  1.1528
 7593SOL     OW34240   0.828   2.442   4.208  0.2040 -0.4037 -0.1798
 7593SOL    HW134241   0.803   2.531   4.182  0.9619 -0.1987 -0.2235
 7593SOL    HW234242   0.889   2.463   4.279 -1.4556 -1.8179  1.6550
 7594SOL     OW34243   2.439   3.458  13.472  0.4844 -0.1808 -0.5483
 7594SOL    HW134244   2.476   3.475  13.385  0.5783  0.4474 -0.3854
 7594SOL    HW234245   2.487   3.521  13.525 -1.1985  0.6499 -0.0357
 7595SOL     OW34246   4.135   0.597   3.751  0.1563 -0.0919  0.2828
 7595SOL    HW134247   4.051   0.641   3.763  0.8555  1.0371  1.0198
 7595SOL    HW234248   4.161   0.618   3.661 -0.4561  1.1447  0.3986
 7596SOL     OW34249   1.603   0.123   9.198 -0.6014 -0.0380  0.0537
 7596SOL    HW134250   1.583   0.070   9.275  1.4140 -1.4708 -0.3973
 7596SOL    HW234251   1.639   0.204   9.233  2.4036 -1.3273 -0.0120
 7597SOL     OW34252   4.702   1.833  11.204  0.5354 -0.0466  0.0312
 7597SOL    HW134253   0.055   1.888  11.169  0.4767 -0.0258 -0.0565
 7597SOL    HW234254   0.030   1.777  11.266  1.4184 -0.0663 -0.6263
 7598SOL     OW34255   3.123   3.621   6.124  0.5913  0.5126 -0.4344
 7598SOL    HW134256   3.090   3.585   6.042  0.1300 -0.3909  0.1433
 7598SOL    HW234257   3.059   3.691   6.139 -1.0562 -0.6866 -1.8488
 7599SOL     OW34258   0.799   4.096   1.565 -0.0589 -0.6492  0.2238
 7599SOL    HW134259   0.817   4.048   1.646  0.8606 -1.0643 -0.2306
 7599SOL    HW234260   0.774   4.033   1.498 -1.0339 -1.1826  1.0965
 7600SOL     OW34261   2.697   2.880  10.089 -0.0694  0.1027 -0.1852
 7600SOL    HW134262   2.714   2.927  10.171  1.1747 -1.2839  0.3582
 7600SOL    HW234263   2.762   2.810  10.094  1.2908  1.3664 -0.0801
 7601SOL     OW34264   1.594   1.381   5.217 -0.1513  0.2358  0.2994
 7601SOL    HW134265   1.625   1.411   5.302 -0.9789 -0.2118  0.7590
 7601SOL    HW234266   1.643   1.298   5.222 -2.2592 -0.9326  1.4735
 7602SOL     OW34267   4.246   4.555   4.142 -0.0830  0.1462 -0.0258
 7602SOL    HW134268   4.269   4.535   4.051 -0.6770 -0.8000  0.0288
 7602SOL    HW234269   4.157   4.521   4.144 -0.0719 -0.0647 -2.6949
 7603SOL     OW34270   4.295   4.707   5.988 -0.6205 -0.0991 -0.0081
 7603SOL    HW134271   4.255   0.071   5.957  0.3743 -0.5829 -2.5330
 7603SOL    HW234272   4.223   4.644   5.979 -0.5288 -0.2367  0.2326
 7604SOL     OW34273   3.463   2.900  10.423  0.6543 -0.2852  0.5700
 7604SOL    HW134274   3.371   2.875  10.417  0.7576 -0.4160 -0.3541
 7604SOL    HW234275   3.480   2.868  10.512 -0.0301 -0.3600  0.6711
 7605SOL     OW34276   0.108   3.026   5.196 -0.1058 -0.2162 -0.3069
 7605SOL    HW134277   0.065   3.024   5.281  1.2470  2.9344  0.4576
 7605SOL    HW234278   0.074   3.105   5.152 -1.5797 -0.3086  0.6564
 7606SOL     OW34279   2.663   0.973   6.244  0.0744 -0.0336 -0.3861
 7606SOL    HW134280   2.719   1.049   6.229  2.0930 -1.9918 -2.6437
 7606SOL    HW234281   2.656   0.949   6.152  0.8782  1.9147 -0.9656
 7607SOL     OW34282   3.674   3.443   4.372  0.1218  0.4916 -0.1610
 7607SOL    HW134283   3.618   3.462   4.297 -0.3706 -1.3253 -0.2585
 7607SOL    HW234284   3.614   3.477   4.438 -0.5138 -4.3669  1.8246
 7608SOL     OW34285   1.234   1.109   3.780 -0.2808  0.3956  0.1035
 7608SOL    HW134286   1.210   1.090   3.689 -1.2252 -0.3947  0.5302
 7608SOL    HW234287   1.278   1.194   3.774 -2.8150  1.6362 -0.5292
 7609SOL     OW34288   4.684   3.317  11.865  0.9177  0.5598 -0.6583
 7609SOL    HW134289   4.685   3.248  11.931  3.6976  1.9394  0.7483
 7609SOL    HW234290   0.027   3.269  11.808  0.3767 -0.1568 -0.6335
 7610SOL     OW34291   1.724   2.719   3.558 -0.0688  0.0906 -0.5504
 7610SOL    HW134292   1.751   2.805   3.526 -3.0087  1.1109 -0.3602
 7610SOL    HW234293   1.799   2.668   3.531  1.7559  2.9904 -0.9327
 7611SOL     OW34294   0.609   1.808   6.335  0.2306  0.1523 -0.1117
 7611SOL    HW134295   0.649   1.724   6.315  1.5753  0.7365  0.1497
 7611SOL    HW234296   0.548   1.823   6.262 -2.0559 -2.6284  1.2326
 7612SOL     OW34297   1.148   0.834  17.484 -0.5631  0.5480 -0.2601
 7612SOL    HW134298   1.055   0.832  17.506 -0.7454  1.7981 -0.9152
 7612SOL    HW234299   1.178   0.745  17.503  1.6866  0.9120 -2.0934
 7613SOL     OW34300   2.868   3.445   9.840  0.1368 -0.1414  0.0100
 7613SOL    HW134301   2.839   3.473   9.754  0.8419 -1.8631 -0.7987
 7613SOL    HW234302   2.952   3.399   9.829  1.0902  1.4054  0.8344
 7614SOL     OW34303   0.546   4.458   5.081  0.1337 -0.0066 -0.2982
 7614SOL    HW134304   0.637   4.481   5.059 -0.2422  2.4452  0.6923
 7614SOL    HW234305   0.561   4.450   5.175  1.3580  1.2657 -0.3787
 7615SOL     OW34306   3.894   2.261   7.356 -0.3669  0.0081 -0.0917
 7615SOL    HW134307   3.931   2.348   7.341 -0.5209  0.1494  0.3484
 7615SOL    HW234308   3.856   2.260   7.444 -0.7649  1.7958 -0.2437
 7616SOL     OW34309   3.612   1.679   5.223 -0.2076 -0.2659 -0.0378
 7616SOL    HW134310   3.615   1.753   5.162  1.5429  0.0541  0.4298
 7616SOL    HW234311   3.687   1.707   5.276 -0.7217  1.7257 -0.3757
 7617SOL     OW34312   2.554   4.689   5.126  0.5098  0.2799 -0.4571
 7617SOL    HW134313   2.540   4.604   5.167  1.3277 -0.9964 -2.8138
 7617SOL    HW234314   2.481   4.686   5.064 -0.4880 -0.4250  0.7540
 7618SOL     OW34315   4.094   2.713   5.581 -1.2319 -0.1969  0.3582
 7618SOL    HW134316   4.051   2.695   5.497  1.5798 -1.8409 -0.7108
 7618SOL    HW234317   4.078   2.630   5.625 -3.6635  0.0442 -0.0654
 7619SOL     OW34318   1.256   3.149   2.515 -0.2035 -0.2934  0.1716
 7619SOL    HW134319   1.215   3.192   2.440  0.2998 -0.3546 -0.1375
 7619SOL    HW234320   1.298   3.078   2.466  2.4690  0.5615  1.2604
 7620SOL     OW34321   2.706   4.428  13.599 -0.0614  0.4066  0.2817
 7620SOL    HW134322   2.796   4.425  13.566  0.5550  0.1381  1.9882
 7620SOL    HW234323   2.719   4.435  13.693  2.9323  0.8125 -0.1715
 7621SOL     OW34324   4.495   0.146  11.498 -0.6409 -0.5955  0.1369
 7621SOL    HW134325   4.559   0.142  11.569 -1.9427  0.6566  1.3696
 7621SOL    HW234326   4.476   0.239  11.487  0.4858 -0.3952 -0.0867
 7622SOL     OW34327   3.533   4.096  11.238 -0.3971 -0.2419 -0.1462
 7622SOL    HW134328   3.616   4.050  11.252  0.3948  1.3956  0.5279
 7622SOL    HW234329   3.542   4.135  11.151 -1.1398  0.1391 -0.0540
 7623SOL     OW34330   1.200   2.862  11.170  0.1845  0.3757 -0.0972
 7623SOL    HW134331   1.221   2.852  11.263  0.7549  0.4251 -0.2240
 7623SOL    HW234332   1.116   2.907  11.166  0.0121  0.0988  0.4035
 7624SOL     OW34333   2.526   2.320  12.619  0.0610  0.4463  0.6371
 7624SOL    HW134334   2.442   2.356  12.647 -0.9054 -0.8381 -0.6054
 7624SOL    HW234335   2.507   2.227  12.623  1.1453  0.0702 -2.3769
 7625SOL     OW34336   4.655   1.929  10.691  0.7602 -0.3149 -0.2584
 7625SOL    HW134337   4.670   1.836  10.676 -2.0804 -0.5954 -1.3245
 7625SOL    HW234338   4.599   1.927  10.769  0.3952 -0.2766 -0.5222
 7626SOL     OW34339   1.948   3.213   6.775  0.1668 -0.1460  0.2822
 7626SOL    HW134340   1.885   3.258   6.718  2.4637  0.0725 -2.0855
 7626SOL    HW234341   1.979   3.141   6.720 -1.5460 -0.0652 -0.8056
 7627SOL     OW34342   0.120   1.535  11.685  0.1473  0.1996 -0.6256
 7627SOL    HW134343   0.099   1.449  11.650  2.2573 -0.2861 -0.7020
 7627SOL    HW234344   0.185   1.512  11.751  0.0051 -0.0361 -0.5695
 7628SOL     OW34345   2.636   3.436   7.257  0.4184  0.3615  0.2510
 7628SOL    HW134346   2.656   3.444   7.164 -1.0264  0.4922 -0.0463
 7628SOL    HW234347   2.604   3.347   7.244  2.1662  0.1657 -2.6178
 7629SOL     OW34348   0.732   3.784   5.115 -0.2002  0.2046  0.2378
 7629SOL    HW134349   0.775   3.861   5.078 -2.9111  0.5130 -2.2991
 7629SOL    HW234350   0.733   3.806   5.208 -0.5934  1.6668 -0.0943
 7630SOL     OW34351   2.377   2.408   7.771 -0.2658 -0.0284  0.8369
 7630SOL    HW134352   2.346   2.419   7.681 -0.7607  2.0455  1.2632
 7630SOL    HW234353   2.451   2.351   7.753 -0.4543  0.2989 -0.9656
 7631SOL     OW34354   1.345   4.270  11.868  0.0820 -0.2827  0.5038
 7631SOL    HW134355   1.435   4.272  11.835 -0.3896  0.9351 -0.6893
 7631SOL    HW234356   1.300   4.267  11.784 -2.8625 -0.9869  2.1232
 7632SOL     OW34357   3.270   1.541   2.649 -0.1472 -0.6817  0.2236
 7632SOL    HW134358   3.251   1.448   2.661 -1.3933 -0.2950  1.1734
 7632SOL    HW234359   3.290   1.571   2.737  0.0786 -0.8029  0.2141
 7633SOL     OW34360   0.456   0.468   9.246  0.2195 -0.6514 -0.0964
 7633SOL    HW134361   0.389   0.481   9.313  0.8530  1.2658  0.1545
 7633SOL    HW234362   0.532   0.469   9.304 -0.8155  0.0760  1.2475
 7634SOL     OW34363   2.441   3.203  14.600  0.2759  0.4035 -0.3484
 7634SOL    HW134364   2.377   3.134  14.581  0.9873 -0.4398  0.3258
 7634SOL    HW234365   2.496   3.160  14.665  1.1536  2.8485  0.5381
 7635SOL     OW34366   3.435   1.341   8.191 -0.8157  0.3720 -0.1699
 7635SOL    HW134367   3.413   1.355   8.283  0.3587  0.0744  0.1552
 7635SOL    HW234368   3.378   1.402   8.144 -1.6558 -0.7630 -0.6163
 7636SOL     OW34369   2.807   2.069   5.445  0.0416 -0.4567  0.3642
 7636SOL    HW134370   2.747   1.995   5.447 -4.4191  3.1022 -0.4125
 7636SOL    HW234371   2.746   2.143   5.445  0.8615  0.2202 -0.7053
 7637SOL     OW34372   3.875   2.686   0.016 -0.7254 -0.3841  0.3194
 7637SOL    HW134373   3.924   2.608  17.662  0.3859  1.0870 -1.8730
 7637SOL    HW234374   3.842   2.717  17.605  2.1216  0.1705 -0.6051
 7638SOL     OW34375   4.390   1.455   7.768 -0.4071 -0.1445 -0.0776
 7638SOL    HW134376   4.347   1.408   7.840  0.6988  0.5566  1.0250
 7638SOL    HW234377   4.385   1.543   7.805  0.8989 -0.7905  1.5854
 7639SOL     OW34378   3.961   1.053   0.046  0.0581  0.2309 -0.7905
 7639SOL    HW134379   4.043   1.011   0.070 -0.0087  0.5483  0.0172
 7639SOL    HW234380   3.928   1.081   0.132  1.0812 -1.6646  0.2104
 7640SOL     OW34381   2.203   0.529  12.869  0.3652  0.1258  0.4059
 7640SOL    HW134382   2.138   0.477  12.916  0.7744 -0.3707  0.4222
 7640SOL    HW234383   2.201   0.605  12.926 -0.9564 -0.0872  0.6420
 7641SOL     OW34384   2.393   3.337   7.806  0.2810 -0.1198  0.2538
 7641SOL    HW134385   2.371   3.259   7.857 -0.1407 -0.5536 -0.6023
 7641SOL    HW234386   2.443   3.294   7.738 -2.8450  0.7623 -2.6243
 7642SOL     OW34387   3.436   0.316   6.799  0.1616 -0.6171  0.5727
 7642SOL    HW134388   3.379   0.239   6.794 -1.4102  0.4449  2.2948
 7642SOL    HW234389   3.461   0.324   6.707  0.1072  0.5543  0.6532
 7643SOL     OW34390   4.138   3.214  16.349 -0.2886 -0.3179 -0.1441
 7643SOL    HW134391   4.094   3.182  16.427  0.0149  1.5818  0.8257
 7643SOL    HW234392   4.065   3.263  16.312 -0.0214 -0.9918 -1.5558
 7644SOL     OW34393   2.663   2.097   5.749  0.2878  0.0501  0.2121
 7644SOL    HW134394   2.610   2.146   5.686 -0.5028 -1.0486  0.0373
 7644SOL    HW234395   2.731   2.066   5.690 -0.9332 -4.2126  1.0800
 7645SOL     OW34396   3.592   0.902   4.776 -0.4168 -0.1482  0.0909
 7645SOL    HW134397   3.549   0.964   4.717 -0.4594 -0.4167 -0.1605
 7645SOL    HW234398   3.555   0.824   4.735  0.3222 -0.0857 -0.6912
 7646SOL     OW34399   2.640   3.486   5.531  0.5390  0.1703  0.1442
 7646SOL    HW134400   2.662   3.513   5.620  2.4244 -1.1325  0.0799
 7646SOL    HW234401   2.718   3.497   5.477 -0.4328  1.9891 -0.8696
 7647SOL     OW34402   3.155   3.780  14.471  0.0113  0.0015  0.6652
 7647SOL    HW134403   3.224   3.775  14.537 -0.9319  0.4069  1.6776
 7647SOL    HW234404   3.083   3.749  14.526 -1.4596  1.9221 -0.1682
 7648SOL     OW34405   2.724   1.586   3.043  0.2073 -0.2424 -0.6190
 7648SOL    HW134406   2.781   1.576   2.967  1.6713  2.0510  0.1799
 7648SOL    HW234407   2.643   1.539   3.023 -0.6199 -0.0175  2.2675
 7649SOL     OW34408   1.757   0.966   8.156  0.0888  0.2364 -0.3772
 7649SOL    HW134409   1.666   0.950   8.133 -0.3731  0.1782  1.5004
 7649SOL    HW234410   1.804   0.950   8.074 -3.1004 -0.0425 -2.1309
 7650SOL     OW34411   0.982   4.498   7.737  0.2958  0.0711 -0.7996
 7650SOL    HW134412   1.015   4.571   7.685 -1.6417  0.9783 -0.7381
 7650SOL    HW234413   1.067   4.456   7.748  0.1537 -0.3829 -1.3987
 7651SOL     OW34414   3.572   2.279   4.602  0.5322 -0.1728 -0.0814
 7651SOL    HW134415   3.646   2.249   4.655  1.1001  1.4693  0.0435
 7651SOL    HW234416   3.516   2.201   4.595 -1.4563  1.2616 -0.0834
 7652SOL     OW34417   0.843   2.264   7.134  0.0998  0.1723  0.3710
 7652SOL    HW134418   0.832   2.206   7.208  1.3639 -1.8608 -1.0418
 7652SOL    HW234419   0.823   2.202   7.064 -1.3303  0.6045  0.3897
 7653SOL     OW34420   0.163   1.627   8.465  0.7914  0.7872 -0.1553
 7653SOL    HW134421   0.169   1.691   8.536 -0.7167 -0.0509  0.7405
 7653SOL    HW234422   0.217   1.555   8.498  0.6175  1.4362  1.5703
 7654SOL     OW34423   1.774   4.475  17.061  0.0793  0.5387  0.0738
 7654SOL    HW134424   1.685   4.451  17.085 -0.0707 -0.5854 -1.6534
 7654SOL    HW234425   1.828   4.466  17.140  0.0318 -1.7218 -0.1522
 7655SOL     OW34426   2.773   4.303   0.434  0.1534 -0.1887  0.0988
 7655SOL    HW134427   2.821   4.381   0.462 -2.4013  0.0885  3.8224
 7655SOL    HW234428   2.754   4.262   0.519  0.1194  0.3983  0.3815
 7656SOL     OW34429   3.436   2.244  10.661  0.6157 -0.1883 -0.4316
 7656SOL    HW134430   3.448   2.336  10.683  0.7658 -0.4517  0.5648
 7656SOL    HW234431   3.508   2.233  10.598 -0.5504  1.5586 -2.0755
 7657SOL     OW34432   4.661   3.440   1.108  0.4444 -0.0106 -0.0940
 7657SOL    HW134433   4.570   3.420   1.085  0.6801 -1.0330 -0.1206
 7657SOL    HW234434   4.711   3.395   1.040 -0.7150 -1.8235  0.2440
 7658SOL     OW34435   0.250   2.486   5.821  0.3321 -0.3511 -0.2415
 7658SOL    HW134436   0.274   2.472   5.913 -0.1157  1.0940  0.0938
 7658SOL    HW234437   0.163   2.524   5.826  0.2531 -0.7620  1.4018
 7659SOL     OW34438   3.776   1.570   1.949  0.3733 -0.0180 -0.6359
 7659SOL    HW134439   3.791   1.516   2.027 -2.1644  0.2419  0.0143
 7659SOL    HW234440   3.754   1.513   1.876  0.2651  0.1185 -0.7097
 7660SOL     OW34441   0.129   3.297   5.017 -0.2819  0.0848 -0.0923
 7660SOL    HW134442   0.055   3.355   5.001 -2.0014 -2.0478  0.1196
 7660SOL    HW234443   0.202   3.359   5.013 -1.7860  1.8860 -0.0572
 7661SOL     OW34444   2.668   3.582   9.106 -0.0023  0.0578 -0.6787
 7661SOL    HW134445   2.715   3.557   9.026  0.1458 -0.8737 -0.3009
 7661SOL    HW234446   2.600   3.515   9.109  2.4861 -2.4041  0.0110
 7662SOL     OW34447   0.755   4.444   5.941 -0.4564 -0.1820  0.3027
 7662SOL    HW134448   0.759   4.412   5.851  0.4813  2.3536 -0.5651
 7662SOL    HW234449   0.722   4.531   5.919  0.3225 -0.1884 -0.9097
 7663SOL     OW34450   3.348   1.405  12.109  0.6762 -0.0016  0.5956
 7663SOL    HW134451   3.437   1.417  12.076  1.2696  0.1480  2.2605
 7663SOL    HW234452   3.306   1.361  12.035 -0.1617  3.4342 -0.9740
 7664SOL     OW34453   3.347   1.956   5.275 -0.0286 -0.2755  0.9652
 7664SOL    HW134454   3.312   1.991   5.357  1.3501  1.6281  0.7260
 7664SOL    HW234455   3.317   1.865   5.286  0.9478 -0.7184 -0.1836
 7665SOL     OW34456   3.663   4.189   7.288 -0.1178 -0.1968 -0.9078
 7665SOL    HW134457   3.671   4.106   7.334  0.9055  0.6868  0.5173
 7665SOL    HW234458   3.719   4.244   7.343 -0.7219  0.1184 -0.6089
 7666SOL     OW34459   3.145   1.949  15.397  0.1335 -0.8967 -0.1893
 7666SOL    HW134460   3.238   1.944  15.377 -0.2130  0.0628 -2.0279
 7666SOL    HW234461   3.139   2.041  15.423 -2.3249 -1.1996  0.3564
 7667SOL     OW34462   1.231   4.502   7.939 -0.5701 -0.2053  0.2906
 7667SOL    HW134463   1.196   4.558   8.008 -1.2783  0.2679 -0.4658
 7667SOL    HW234464   1.253   4.564   7.870 -0.7750  0.9525  1.2569
 7668SOL     OW34465   0.051   1.236   6.143  0.2610  0.4973 -0.2428
 7668SOL    HW134466   4.701   1.192   6.194  0.6953  0.7427  0.5433
 7668SOL    HW234467   0.007   1.321   6.135 -0.7007 -0.1081 -1.3338
 7669SOL     OW34468   2.234   1.558   7.157 -0.0687  0.6141  0.2658
 7669SOL    HW134469   2.209   1.483   7.103  0.1650  1.6999 -1.3556
 7669SOL    HW234470   2.150   1.564   7.203  0.9020 -0.6332  2.2034
 7670SOL     OW34471   2.916   4.060   0.758 -0.2627  0.1417  0.4206
 7670SOL    HW134472   2.892   3.983   0.809 -0.2663  0.2258  0.5445
 7670SOL    HW234473   3.009   4.036   0.755  0.0456  1.3235  0.5335
 7671SOL     OW34474   4.695   4.438   1.628  0.0793  0.3413  0.8290
 7671SOL    HW134475   4.668   4.400   1.712  0.2784 -0.5854  0.4685
 7671SOL    HW234476   4.626   4.406   1.571  1.0572  1.1442 -0.8017
 7672SOL     OW34477   3.499   1.326  14.955  0.3403 -0.1199 -0.0765
 7672SOL    HW134478   3.530   1.252  14.904  1.4870  0.3481 -0.0612
 7672SOL    HW234479   3.410   1.291  14.962 -0.7500  2.4294 -1.4894
 7673SOL     OW34480   3.000   3.643  16.339 -0.1677 -0.4835 -0.2516
 7673SOL    HW134481   3.076   3.689  16.304  0.0779  0.3795  1.4630
 7673SOL    HW234482   2.930   3.702  16.311 -0.0650 -1.6313 -2.9537
 7674SOL     OW34483   3.294   1.896   4.439 -0.4160  0.1075 -0.2665
 7674SOL    HW134484   3.244   1.926   4.515 -1.1903  0.3015 -0.8400
 7674SOL    HW234485   3.332   1.813   4.467  0.3099  0.3847 -0.4547
 7675SOL     OW34486   3.985   3.537  12.591 -0.3227 -0.1854 -0.3170
 7675SOL    HW134487   4.070   3.512  12.554  2.1362  2.8639  3.2385
 7675SOL    HW234488   4.022   3.578  12.670 -3.6455  2.3276 -0.0612
 7676SOL     OW34489   1.427   4.614   1.937  0.1624  0.2018 -0.1865
 7676SOL    HW134490   1.519   4.597   1.916 -0.2993 -1.4237 -0.9302
 7676SOL    HW234491   1.406   4.549   2.004  0.4325  0.3052 -0.0034
 7677SOL     OW34492   3.199   3.026   2.650  0.6107 -0.0383 -0.2279
 7677SOL    HW134493   3.219   3.095   2.714  0.3360  0.8745 -1.1386
 7677SOL    HW234494   3.179   2.953   2.709 -0.5553  0.6966  0.2998
 7678SOL     OW34495   0.439   4.553   8.102  0.2080 -0.3350  0.1182
 7678SOL    HW134496   0.424   4.632   8.153  0.8861  0.9068 -1.6059
 7678SOL    HW234497   0.384   4.564   8.024  0.6408  0.6760 -0.0372
 7679SOL     OW34498   4.209   1.033   7.278  0.3645  0.0401  0.4310
 7679SOL    HW134499   4.294   1.077   7.281  1.4863 -2.0096 -1.5406
 7679SOL    HW234500   4.217   0.988   7.194  2.0238  2.2530 -0.5936
 7680SOL     OW34501   4.542   3.558  12.170 -0.5621 -0.1116 -0.0960
 7680SOL    HW134502   4.564   3.467  12.190  1.1231 -0.4665 -3.5441
 7680SOL    HW234503   4.481   3.549  12.097 -1.7073 -2.1988  1.1054
 7681SOL     OW34504   3.072   4.060  15.334  0.1845  0.5060 -0.3465
 7681SOL    HW134505   3.085   3.965  15.338 -1.3795  0.3862  1.8670
 7681SOL    HW234506   3.125   4.106  15.269  0.6146  0.5379  0.0174
 7682SOL     OW34507   3.053   3.402   0.966  0.4874 -0.0772 -0.3770
 7682SOL    HW134508   2.966   3.373   0.939  0.5226  0.0924 -0.6735
 7682SOL    HW234509   3.079   3.449   0.887  1.5626 -0.0964 -0.0343
 7683SOL     OW34510   0.624   0.667  10.080 -0.4806 -0.4089 -0.6039
 7683SOL    HW134511   0.549   0.653  10.137 -0.7429  2.2802 -0.2879
 7683SOL    HW234512   0.685   0.708  10.141 -1.4011 -1.8424  1.2844
 7684SOL     OW34513   1.893   4.570   9.694  0.0967 -0.1672 -0.2736
 7684SOL    HW134514   1.977   4.543   9.732  0.6676  0.4710 -1.0788
 7684SOL    HW234515   1.883   4.656   9.733  0.0041 -1.1813  1.9257
 7685SOL     OW34516   3.582   4.142   4.494 -0.0200  0.2260  1.0316
 7685SOL    HW134517   3.647   4.072   4.505  0.3635  0.6558  1.4695
 7685SOL    HW234518   3.599   4.176   4.406  0.4417 -2.7531 -0.0506
 7686SOL     OW34519   0.677   3.840  11.985  0.5073  0.2526 -0.0161
 7686SOL    HW134520   0.593   3.826  11.940  0.5142 -1.1215  0.3988
 7686SOL    HW234521   0.738   3.847  11.912  0.9028 -1.8245  0.1151
 7687SOL     OW34522   3.072   0.103   7.864  0.1395 -0.2298  0.0156
 7687SOL    HW134523   3.019   0.030   7.831  0.4802 -1.3209  1.8803
 7687SOL    HW234524   3.061   0.169   7.796 -2.8075 -1.7232 -0.9880
 7688SOL     OW34525   1.905   3.804  12.162  0.3526  0.1354 -0.0759
 7688SOL    HW134526   1.946   3.772  12.242  0.0740 -1.0171 -0.3972
 7688SOL    HW234527   1.834   3.860  12.195 -0.9361 -1.5512  0.0158
 7689SOL     OW34528   2.116   0.685   7.066 -0.1492 -0.0129  0.1115
 7689SOL    HW134529   2.186   0.620   7.059  0.9871  1.4961 -2.6530
 7689SOL    HW234530   2.088   0.676   6.975 -0.2255  2.7997 -0.1194
 7690SOL     OW34531   2.178   1.648  10.756  0.6341 -0.5741  0.0412
 7690SOL    HW134532   2.266   1.612  10.767  0.8599 -0.0423 -0.0025
 7690SOL    HW234533   2.198   1.738  10.780  2.8009 -1.2418  0.7642
 7691SOL     OW34534   3.957   4.003   3.230 -0.0838  0.3715 -0.2027
 7691SOL    HW134535   4.013   4.052   3.170 -0.3761  0.8797 -0.0593
 7691SOL    HW234536   3.905   3.949   3.172 -0.3159  0.6085 -0.2155
 7692SOL     OW34537   2.852   1.720  16.976 -0.0690  0.0200  0.6951
 7692SOL    HW134538   2.942   1.707  16.947 -0.5098  0.7846 -1.0047
 7692SOL    HW234539   2.841   1.815  16.982 -1.0520 -0.0371 -0.2887
 7693SOL     OW34540   1.313   1.404   3.788 -0.2564  0.0839  0.2231
 7693SOL    HW134541   1.233   1.393   3.736 -1.0313  0.0411  1.4104
 7693SOL    HW234542   1.363   1.468   3.737 -0.3661  1.0643  1.3217
 7694SOL     OW34543   3.650   4.418  16.683  0.0179 -0.4039 -0.3107
 7694SOL    HW134544   3.635   4.510  16.707 -1.0840 -0.9708  1.1124
 7694SOL    HW234545   3.716   4.396  16.749  0.3057  3.4070  0.6776
 7695SOL     OW34546   3.891   1.020   8.463 -0.5628  0.2004 -0.3666
 7695SOL    HW134547   3.796   1.030   8.452 -0.5070  1.6627  0.5105
 7695SOL    HW234548   3.910   1.084   8.394 -1.3807  0.8118 -0.0179
 7696SOL     OW34549   0.116   2.635   4.653  0.0623  0.7957  0.4080
 7696SOL    HW134550   0.181   2.698   4.683  1.4295 -1.4175  2.0712
 7696SOL    HW234551   0.151   2.556   4.694  2.1922  1.4446 -0.1888
 7697SOL     OW34552   2.569   4.020   4.315 -0.2640  0.0763  0.4436
 7697SOL    HW134553   2.599   4.035   4.405  0.7245 -1.7267  0.3983
 7697SOL    HW234554   2.638   4.072   4.274  0.1395  0.9544  2.2382
 7698SOL     OW34555   1.633   2.267   6.622  0.5541 -0.3062 -0.8039
 7698SOL    HW134556   1.626   2.359   6.645 -2.8976 -0.1843 -2.4425
 7698SOL    HW234557   1.685   2.232   6.694  0.2093  0.8621  0.0171
 7699SOL     OW34558   4.328   3.560   0.022  0.2040 -0.1854  0.3142
 7699SOL    HW134559   4.346   3.519   0.107 -1.4505  1.0509  1.2565
 7699SOL    HW234560   4.238   3.532   0.010  0.1613 -0.7636  2.0689
 7700SOL     OW34561   2.406   0.542   9.115 -0.6969 -0.5240 -0.1623
 7700SOL    HW134562   2.484   0.566   9.166  1.4227 -2.2619 -2.5940
 7700SOL    HW234563   2.395   0.624   9.068  1.4992  0.3692  0.8933
 7701SOL     OW34564   0.260   4.190  13.985 -0.4651 -0.7851  0.1314
 7701SOL    HW134565   0.198   4.237  14.042  1.9628 -1.3562  3.2632
 7701SOL    HW234566   0.206   4.124  13.942  0.6017 -0.4435 -1.7468
 7702SOL     OW34567   3.127   4.107  10.040  0.1910 -0.2531 -0.0261
 7702SOL    HW134568   3.048   4.107  10.095  1.4672 -2.1088  1.7929
 7702SOL    HW234569   3.111   4.191   9.997  1.2074 -0.7956 -1.4469
 7703SOL     OW34570   1.132   0.529  17.137 -0.1783 -0.0087 -0.0062
 7703SOL    HW134571   1.208   0.550  17.191  0.8305  2.5725 -2.4106
 7703SOL    HW234572   1.112   0.620  17.116  0.0174 -0.1364 -0.7474
 7704SOL     OW34573   4.561   0.881  13.434 -0.0322  0.3802  0.7565
 7704SOL    HW134574   4.515   0.884  13.518  2.0652 -1.4718  1.9570
 7704SOL    HW234575   4.595   0.792  13.432  1.2019  0.8297  1.9285
 7705SOL     OW34576   1.364   0.785   3.860 -0.1681  0.3717 -0.0946
 7705SOL    HW134577   1.447   0.819   3.825 -0.5740  0.4662 -0.9749
 7705SOL    HW234578   1.333   0.861   3.910 -0.4940  0.7755 -0.9074
 7706SOL     OW34579   0.265   1.354   5.225 -0.3177  0.3602  0.0114
 7706SOL    HW134580   0.315   1.426   5.263  0.7709 -0.1049 -0.5422
 7706SOL    HW234581   0.319   1.286   5.265 -0.5374 -1.2269 -2.3408
 7707SOL     OW34582   2.269   3.471   8.182  0.2451 -0.5497 -0.0288
 7707SOL    HW134583   2.280   3.551   8.234  2.8664  1.1313 -3.1335
 7707SOL    HW234584   2.356   3.453   8.145  0.1576 -1.4972  0.2354
 7708SOL     OW34585   0.671   1.221   9.564 -0.1300  0.0574  0.3888
 7708SOL    HW134586   0.709   1.308   9.569  1.1454 -0.5638  1.5762
 7708SOL    HW234587   0.685   1.200   9.656 -0.0553  0.2768  0.4255
 7709SOL     OW34588   1.443   0.609  13.272 -0.1179  0.2957  0.4620
 7709SOL    HW134589   1.362   0.593  13.321 -0.6804  1.0172 -0.2259
 7709SOL    HW234590   1.508   0.606  13.342  1.9614 -0.6695 -1.5156
 7710SOL     OW34591   3.817   1.317   6.569  0.9620  0.0628  0.3204
 7710SOL    HW134592   3.830   1.292   6.660 -2.0362 -0.9635  0.4679
 7710SOL    HW234593   3.885   1.268   6.522 -0.4562  0.5281 -2.1973
 7711SOL     OW34594   3.962   2.901   6.814 -0.3368  0.9015 -0.1968
 7711SOL    HW134595   3.919   2.822   6.847 -0.2038  0.6946 -0.5196
 7711SOL    HW234596   3.887   2.957   6.797  0.0972  1.4699 -0.2333
 7712SOL     OW34597   0.667   4.043   7.747  0.0070  0.3068 -0.6444
 7712SOL    HW134598   0.757   4.019   7.723 -0.9466 -1.3078 -2.5878
 7712SOL    HW234599   0.666   4.132   7.782  1.1067  0.6752 -1.5338
 7713SOL     OW34600   3.441   3.706  13.396  0.9039  0.2911 -0.0047
 7713SOL    HW134601   3.451   3.775  13.462 -1.3384  1.1304 -0.5396
 7713SOL    HW234602   3.520   3.719  13.344  1.8593 -0.0167  1.3678
 7714SOL     OW34603   0.644   2.371   6.806  0.1993  0.0808  0.7047
 7714SOL    HW134604   0.603   2.407   6.727 -1.0222  1.3538  1.9295
 7714SOL    HW234605   0.667   2.281   6.781  0.5818  0.3652  0.0408
 7715SOL     OW34606   2.483   2.876   7.629 -0.6025 -0.4466 -0.2714
 7715SOL    HW134607   2.442   2.961   7.644 -0.5453 -0.8012  1.9653
 7715SOL    HW234608   2.561   2.874   7.683 -0.2676  0.1428 -0.7383
 7716SOL     OW34609   3.263   0.664   9.144  0.0555  0.2945 -0.6944
 7716SOL    HW134610   3.312   0.620   9.213 -1.8191 -0.4842  0.1420
 7716SOL    HW234611   3.180   0.692   9.183  1.2595 -1.2038  2.9876
 7717SOL     OW34612   3.234   4.038  11.261 -0.0465 -0.2320 -0.1207
 7717SOL    HW134613   3.327   4.056  11.278 -0.5532  1.1616  1.2109
 7717SOL    HW234614   3.206   4.024  11.351 -1.2061 -1.1031 -0.6189
 7718SOL     OW34615   4.650   1.068   8.224 -0.1995  0.6112 -0.2088
 7718SOL    HW134616   4.555   1.068   8.234 -0.1064 -1.3153  0.5736
 7718SOL    HW234617   4.648   1.150   8.174 -0.0845  1.3672  1.0279
 7719SOL     OW34618   2.732   1.418   5.727 -0.3919  0.1893 -0.1328
 7719SOL    HW134619   2.690   1.333   5.733  0.2298 -0.0271  1.2571
 7719SOL    HW234620   2.780   1.417   5.810  1.2432  1.0814 -1.0596
 7720SOL     OW34621   1.939   2.747  10.093 -0.1273 -0.1017  0.1962
 7720SOL    HW134622   1.923   2.676  10.155 -1.8034 -0.1588 -0.3095
 7720SOL    HW234623   1.876   2.731  10.022 -2.5443  1.6025  1.9737
 7721SOL     OW34624   2.788   3.340   2.401  0.4119 -0.1730 -0.6239
 7721SOL    HW134625   2.719   3.403   2.384 -0.9133 -1.2681  0.7626
 7721SOL    HW234626   2.858   3.391   2.359 -0.6287  2.4698  0.8921
 7722SOL     OW34627   1.843   2.637   4.697  0.4040 -0.2830 -0.4274
 7722SOL    HW134628   1.858   2.678   4.612  4.3637  1.0927  0.9399
 7722SOL    HW234629   1.779   2.700   4.728  1.8022  0.6539  0.5306
 7723SOL     OW34630   2.022   3.145   1.168  0.8273  0.1465 -0.4871
 7723SOL    HW134631   2.028   3.131   1.263 -0.8325 -2.3135 -0.7513
 7723SOL    HW234632   1.941   3.194   1.153  0.7845  0.3237  0.3324
 7724SOL     OW34633   1.102   1.847   1.268  0.2418 -0.2053 -0.1098
 7724SOL    HW134634   1.015   1.859   1.231  1.4194  1.4743 -2.3325
 7724SOL    HW234635   1.083   1.847   1.362 -0.2604 -2.9636 -0.2380
 7725SOL     OW34636   2.647   2.972  12.568 -0.0628 -0.1382 -0.2605
 7725SOL    HW134637   2.573   2.915  12.588  0.0702  0.5265  2.1182
 7725SOL    HW234638   2.612   3.046  12.519 -1.0576  0.0031  0.6881
 7726SOL     OW34639   1.882   3.176   8.306 -0.2725  0.1666 -0.4532
 7726SOL    HW134640   1.892   3.083   8.284  0.9171  0.3795 -0.8125
 7726SOL    HW234641   1.910   3.182   8.397 -1.2697 -0.0767 -0.1255
 7727SOL     OW34642   2.132   4.221   2.705  0.2954  0.5094 -0.0405
 7727SOL    HW134643   2.062   4.273   2.745  1.5251  2.3344 -0.2573
 7727SOL    HW234644   2.211   4.268   2.732 -0.3884  1.5649  0.1501
 7728SOL     OW34645   0.316   0.978  15.644  0.0647  0.3530  0.6794
 7728SOL    HW134646   0.306   1.025  15.726 -1.8974  1.2503 -0.0711
 7728SOL    HW234647   0.408   1.002  15.629  0.2298  0.1479  1.3580
 7729SOL     OW34648   2.925   1.983  13.142 -0.2591  0.2752 -0.6379
 7729SOL    HW134649   2.885   1.913  13.091  1.9826 -0.4962 -1.3389
 7729SOL    HW234650   2.862   1.995  13.213  1.8494  1.5028  1.0089
 7730SOL     OW34651   2.830   0.196   5.976  0.2979  0.3054 -0.0021
 7730SOL    HW134652   2.766   0.211   6.046 -0.1489 -3.5109  0.4188
 7730SOL    HW234653   2.806   0.116   5.929  1.1868  0.4337 -0.6767
 7731SOL     OW34654   3.381   0.558   7.370  0.4707 -0.4102 -0.1545
 7731SOL    HW134655   3.349   0.535   7.457 -1.7678 -1.2907 -1.2180
 7731SOL    HW234656   3.383   0.654   7.374  1.8376 -0.5115  1.3860
 7732SOL     OW34657   0.637   3.631   0.232 -0.1732  0.1469 -0.7700
 7732SOL    HW134658   0.553   3.610   0.190 -1.5035 -0.4185  2.1113
 7732SOL    HW234659   0.695   3.626   0.157 -0.3295 -1.5677 -0.7850
 7733SOL     OW34660   0.904   3.483  14.653  0.3315 -0.0936 -0.8612
 7733SOL    HW134661   0.857   3.559  14.688  0.0641 -1.0832  0.8863
 7733SOL    HW234662   0.995   3.505  14.672  1.1757 -2.7382 -1.8961
 7734SOL     OW34663   2.065   0.886  15.955 -0.5951 -0.1944  0.1275
 7734SOL    HW134664   2.155   0.911  15.975 -0.8614  0.4528  0.5001
 7734SOL    HW234665   2.079   0.816  15.890 -1.7691 -1.1883  0.9525
 7735SOL     OW34666   1.556   2.198  10.645  0.2479 -0.2874  0.1626
 7735SOL    HW134667   1.581   2.111  10.612 -2.0317 -1.0981  0.5350
 7735SOL    HW234668   1.527   2.246  10.567  1.0338  0.4638  0.3354
 7736SOL     OW34669   0.065   3.033  10.541 -0.4016  0.1539 -0.1307
 7736SOL    HW134670   0.059   3.125  10.567 -1.0983  0.0738  0.0020
 7736SOL    HW234671   0.065   3.031  10.445  0.4207  0.5751 -0.1420
 7737SOL     OW34672   4.476   4.510   2.749  0.1592  0.7583  0.0475
 7737SOL    HW134673   4.390   4.490   2.713  0.7948  1.9218 -2.1701
 7737SOL    HW234674   4.513   4.561   2.676  0.2821 -1.4598 -1.4496
 7738SOL     OW34675   4.400   2.273   2.287  0.4974 -0.0409  0.4729
 7738SOL    HW134676   4.347   2.352   2.279 -2.0254 -1.9543 -1.5309
 7738SOL    HW234677   4.405   2.253   2.194 -1.0338  0.9395  0.1762
 7739SOL     OW34678   2.001   3.659   3.508 -0.0666 -0.8559  0.1828
 7739SOL    HW134679   1.960   3.579   3.541 -1.6004  1.0333  2.9005
 7739SOL    HW234680   1.998   3.709   3.590 -1.0063 -0.8755  0.1594
 7740SOL     OW34681   3.157   2.654  13.883  0.6351  0.4162 -0.2483
 7740SOL    HW134682   3.207   2.729  13.851  0.5315  0.3528 -0.5643
 7740SOL    HW234683   3.097   2.702  13.940  1.9247  2.0553 -0.2727
 7741SOL     OW34684   2.830   4.396   3.010  0.0388  0.6401  0.5852
 7741SOL    HW134685   2.904   4.375   2.953 -1.0693 -2.0644  0.1545
 7741SOL    HW234686   2.780   4.461   2.961  1.4930 -0.3729 -2.2515
 7742SOL     OW34687   0.204   4.091   8.373 -0.3068  0.1726 -0.1106
 7742SOL    HW134688   0.206   4.064   8.281  0.2502 -2.3691  0.6702
 7742SOL    HW234689   0.298   4.088   8.392 -0.3112 -2.4044 -0.5565
 7743SOL     OW34690   3.040   0.278   4.393  0.1238 -0.0416  0.3225
 7743SOL    HW134691   2.984   0.317   4.460 -0.0974  0.3965 -0.1100
 7743SOL    HW234692   2.969   0.242   4.339 -0.2296  1.3851 -0.1730
 7744SOL     OW34693   3.225   4.610   5.365  1.3120 -0.2642  0.1249
 7744SOL    HW134694   3.320   4.602   5.369  1.1507 -1.4636  1.8370
 7744SOL    HW234695   3.217   4.541   5.299 -2.9843 -1.4047  1.7979
 7745SOL     OW34696   4.686   0.433   5.447  0.0249 -0.0791 -0.5856
 7745SOL    HW134697   0.024   0.510   5.448 -0.7381  0.4407  1.3683
 7745SOL    HW234698   4.705   0.374   5.520  0.4681  3.0122  1.7813
 7746SOL     OW34699   0.331   2.119   4.328  0.0745  0.2521  0.2853
 7746SOL    HW134700   0.295   2.030   4.328 -0.0671  0.3084  0.4332
 7746SOL    HW234701   0.300   2.138   4.239  1.9323 -0.2260 -0.4573
 7747SOL     OW34702   4.658   3.766   4.940 -0.6683 -0.2768  0.2508
 7747SOL    HW134703   4.606   3.840   4.971 -1.4194  0.1670 -2.0279
 7747SOL    HW234704   4.688   3.795   4.854 -0.7330 -3.7619 -0.9534
 7748SOL     OW34705   3.575   1.692   5.996 -0.0362 -0.6091 -0.6334
 7748SOL    HW134706   3.541   1.614   6.041 -0.3492 -0.5904 -0.8423
 7748SOL    HW234707   3.568   1.757   6.067  0.4716 -1.1251 -0.1078
 7749SOL     OW34708   1.204   2.388  15.797 -0.4571 -0.9063 -0.3989
 7749SOL    HW134709   1.113   2.375  15.825 -0.8417  0.3931 -1.0184
 7749SOL    HW234710   1.193   2.455  15.729  1.6369  0.8452  0.9812
 7750SOL     OW34711   3.656   4.426   0.451 -0.5428 -0.0468  0.3825
 7750SOL    HW134712   3.591   4.466   0.393 -0.1164 -0.5158 -0.4026
 7750SOL    HW234713   3.610   4.358   0.500  1.0831  0.3438  2.4678
 7751SOL     OW34714   1.246   2.802  13.787  0.1460  0.8021  0.1126
 7751SOL    HW134715   1.209   2.790  13.700  0.5742  0.1392  0.0175
 7751SOL    HW234716   1.210   2.727  13.834  1.9656  0.2889  0.7044
 7752SOL     OW34717   2.604   4.371  14.340 -0.4701  0.2506  0.5424
 7752SOL    HW134718   2.632   4.318  14.266 -0.1966  0.4404  0.5095
 7752SOL    HW234719   2.690   4.408  14.357 -0.5403  0.3533  0.6776
 7753SOL     OW34720   2.221   2.971   3.269 -0.0421 -0.0396  0.2345
 7753SOL    HW134721   2.250   2.956   3.178 -3.2209  1.1559 -0.9748
 7753SOL    HW234722   2.200   3.065   3.264 -0.3784 -0.2478 -2.4872
 7754SOL     OW34723   4.250   0.377   3.299  0.2411  0.2176  0.4892
 7754SOL    HW134724   4.316   0.330   3.350  0.3369 -0.5773 -0.3623
 7754SOL    HW234725   4.184   0.388   3.367 -1.6209 -0.9379 -1.1327
 7755SOL     OW34726   3.981   4.583   3.877  0.8469 -0.5729  0.0869
 7755SOL    HW134727   4.034   4.528   3.934 -1.0105 -2.3306  0.1010
 7755SOL    HW234728   4.025   4.668   3.889 -2.5845  1.4840 -1.8895
 7756SOL     OW34729   1.977   4.070  12.421 -0.6393  0.3920  0.5295
 7756SOL    HW134730   1.947   4.000  12.478 -1.5474  1.0251  0.8355
 7756SOL    HW234731   1.953   4.144  12.478 -0.5814 -0.7566  2.0670
 7757SOL     OW34732   1.016   1.891  11.423  0.4459  0.7417 -0.2519
 7757SOL    HW134733   1.031   1.857  11.512 -2.7659  1.8042  0.6799
 7757SOL    HW234734   0.993   1.983  11.435  1.4185  0.8062  1.2069
 7758SOL     OW34735   4.594   4.133   6.595 -0.2786  0.2097 -0.3716
 7758SOL    HW134736   4.528   4.161   6.659  2.1209  0.2707  2.0723
 7758SOL    HW234737   4.540   4.136   6.516  3.1993 -1.1287 -2.7877
 7759SOL     OW34738   2.982   0.314   3.616  1.1692 -0.1446 -0.0453
 7759SOL    HW134739   2.965   0.361   3.535  2.5013 -0.6053 -0.5912
 7759SOL    HW234740   3.045   0.251   3.581 -0.3335 -1.6400 -0.0653
 7760SOL     OW34741   1.230   3.815  15.484  0.8879 -0.3669  0.0029
 7760SOL    HW134742   1.274   3.870  15.419  1.8075 -1.0750  0.0308
 7760SOL    HW234743   1.290   3.824  15.558  1.2334  0.7782 -0.4134
 7761SOL     OW34744   3.556   0.744   3.137 -0.2449  0.0931 -0.6675
 7761SOL    HW134745   3.548   0.673   3.073  0.6922 -1.0484  0.4859
 7761SOL    HW234746   3.615   0.800   3.085  0.7070 -1.5748 -1.3799
 7762SOL     OW34747   4.152   1.407   3.148 -0.5199  0.4554  0.1878
 7762SOL    HW134748   4.207   1.329   3.148 -2.9020 -1.2119 -0.0907
 7762SOL    HW234749   4.074   1.356   3.170  1.5687 -2.6957  0.3551
 7763SOL     OW34750   3.477   2.208  13.850 -0.1061  0.3659 -0.3532
 7763SOL    HW134751   3.455   2.299  13.867  0.5817  0.4592  0.0657
 7763SOL    HW234752   3.440   2.197  13.763 -2.4371 -2.4457  0.9746
 7764SOL     OW34753   2.442   3.602  11.843 -0.4469 -0.5653 -0.7726
 7764SOL    HW134754   2.406   3.683  11.879 -0.1277 -0.9998  0.5251
 7764SOL    HW234755   2.369   3.553  11.804  0.7320 -2.6369 -0.3866
 7765SOL     OW34756   4.445   0.756   3.653  0.0826  0.0513 -0.1294
 7765SOL    HW134757   4.403   0.821   3.710  0.0103  0.2026 -0.3543
 7765SOL    HW234758   4.532   0.795   3.661  1.2609 -2.2561 -1.9611
 7766SOL     OW34759   2.003   2.548   6.156  0.0341  0.2976  0.3046
 7766SOL    HW134760   1.948   2.566   6.232  1.8991  0.0149  1.7275
 7766SOL    HW234761   1.983   2.456   6.137  3.0931 -0.1832 -0.7272
 7767SOL     OW34762   1.814   2.075   8.234  0.0611  0.3269  0.4525
 7767SOL    HW134763   1.784   2.152   8.186 -0.3461  0.9149  1.6301
 7767SOL    HW234764   1.736   2.020   8.244 -0.9410  1.5422 -0.7793
 7768SOL     OW34765   0.431   1.551   3.356 -0.2787  0.3362  0.0564
 7768SOL    HW134766   0.445   1.457   3.363 -1.4539  0.1566 -0.0526
 7768SOL    HW234767   0.458   1.568   3.266 -0.8746 -1.3698 -0.4393
 7769SOL     OW34768   1.326   2.595   5.239  0.5106 -0.2712  0.5695
 7769SOL    HW134769   1.379   2.531   5.191  1.6587  0.1709  1.2391
 7769SOL    HW234770   1.379   2.675   5.234 -0.5919  0.3910 -0.4223
 7770SOL     OW34771   1.068   3.256   5.976 -0.2485  0.5105 -0.1446
 7770SOL    HW134772   1.015   3.320   6.023  0.8540  2.5088 -1.6150
 7770SOL    HW234773   1.006   3.198   5.932  0.1460  1.4192 -1.8993
 7771SOL     OW34774   1.949   0.638   6.740  0.4082  0.1233  0.8804
 7771SOL    HW134775   1.944   0.635   6.645  0.0100 -0.2251  0.9134
 7771SOL    HW234776   2.043   0.637   6.758  0.7953 -2.8116 -1.4564
 7772SOL     OW34777   2.435   4.666   7.157 -0.0178  0.4325 -0.3209
 7772SOL    HW134778   2.348   4.705   7.144 -0.2066 -0.6825 -2.4224
 7772SOL    HW234779   2.437   4.606   7.083  1.9202  1.1511 -0.8446
 7773SOL     OW34780   0.363   1.210   7.815 -0.5609 -0.0131 -0.0891
 7773SOL    HW134781   0.277   1.194   7.854 -1.0212 -0.0611 -1.1435
 7773SOL    HW234782   0.367   1.135   7.756 -0.0463  0.2951 -0.4437
 7774SOL     OW34783   3.554   0.397  12.502 -0.5231  0.1433 -0.6239
 7774SOL    HW134784   3.589   0.423  12.588 -2.1232 -0.0471  0.0824
 7774SOL    HW234785   3.599   0.462  12.448  1.3692 -2.5180 -2.2246
 7775SOL     OW34786   0.707   4.031   4.897 -0.3255  0.3607 -0.2450
 7775SOL    HW134787   0.720   4.023   4.803  1.6500 -0.0193  0.0670
 7775SOL    HW234788   0.644   3.963   4.919  1.9584 -0.5942  3.3555
 7776SOL     OW34789   0.962   1.997   2.980  0.0249 -0.4999 -0.0387
 7776SOL    HW134790   1.056   2.010   2.988 -0.2254  1.0603  0.2505
 7776SOL    HW234791   0.957   1.918   2.925 -2.8816 -0.8208  0.6787
 7777SOL     OW34792   0.058   2.765   0.587  0.0718  0.1258 -0.4459
 7777SOL    HW134793   0.034   2.699   0.522  0.8760 -1.3313  0.7268
 7777SOL    HW234794   0.150   2.788   0.577  0.0099 -0.2542 -1.8720
 7778SOL     OW34795   2.315   1.423   6.169 -0.0976  0.3240 -0.4391
 7778SOL    HW134796   2.228   1.442   6.205 -0.6638 -0.4442 -1.4324
 7778SOL    HW234797   2.329   1.331   6.191 -0.8839 -0.0933 -1.7377
 7779SOL     OW34798   3.993   0.157   7.506  0.1456 -0.6401 -0.3413
 7779SOL    HW134799   3.952   0.219   7.566  4.5932  2.4133 -0.4644
 7779SOL    HW234800   3.932   0.086   7.485 -2.0831  0.8125  1.1467
 7780SOL     OW34801   3.224   0.220  11.198  0.0032 -0.3246  0.0545
 7780SOL    HW134802   3.185   0.280  11.261  1.2055  0.6317 -0.1136
 7780SOL    HW234803   3.180   0.136  11.214  0.8564 -0.2532  2.6591
 7781SOL     OW34804   0.332   3.629  15.134  0.3914  0.4208 -0.4659
 7781SOL    HW134805   0.406   3.642  15.075 -0.1569 -0.1929 -1.2930
 7781SOL    HW234806   0.369   3.582  15.209  2.6288 -0.2234 -1.9910
 7782SOL     OW34807   0.259   1.945   7.175  0.0366 -0.0040 -0.0604
 7782SOL    HW134808   0.253   1.850   7.184  1.8202 -0.2595 -1.6180
 7782SOL    HW234809   0.217   1.984   7.252  1.9395 -0.9808  1.4744
 7783SOL     OW34810   1.686   4.428   2.862 -0.0996 -0.0100 -0.1110
 7783SOL    HW134811   1.630   4.354   2.884  0.5218 -0.9213 -1.6105
 7783SOL    HW234812   1.703   4.433   2.768 -0.0433 -0.1675 -0.1096
 7784SOL     OW34813   4.477   4.350   0.026 -0.3732 -0.0879  0.0014
 7784SOL    HW134814   4.381   4.351   0.030 -0.2357  0.1693  2.9869
 7784SOL    HW234815   4.483   4.394  17.615  0.8515  1.3508  0.8423
 7785SOL     OW34816   1.173   0.128   3.341  0.0224 -0.1976 -0.3203
 7785SOL    HW134817   1.109   0.063   3.312  0.2164 -0.7863  0.5799
 7785SOL    HW234818   1.118   0.206   3.344 -1.3460 -1.1329 -1.0189
 7786SOL     OW34819   1.524   0.837   9.197 -0.0121 -0.2407  0.2974
 7786SOL    HW134820   1.498   0.912   9.251  0.3801  0.2216 -0.1630
 7786SOL    HW234821   1.610   0.840   9.239  0.2978 -1.0623 -0.3034
 7787SOL     OW34822   3.096   0.505   8.376  0.7306 -0.3323  1.1075
 7787SOL    HW134823   3.032   0.435   8.386  1.2422 -1.0231 -0.4738
 7787SOL    HW234824   3.145   0.470   8.301 -0.8701 -0.1679 -0.0204
 7788SOL     OW34825   2.019   3.696  10.886  0.0915 -0.7492  0.0161
 7788SOL    HW134826   1.939   3.678  10.837 -0.6669  1.2321  0.4967
 7788SOL    HW234827   2.022   3.623  10.947  1.4031  0.6811  1.6636
 7789SOL     OW34828   4.165   4.043   7.213 -0.3327 -0.6943  0.2067
 7789SOL    HW134829   4.149   4.036   7.307 -0.5059  1.6463  0.3545
 7789SOL    HW234830   4.201   3.958   7.190 -4.0633 -2.4333  0.7792
 7790SOL     OW34831   2.471   0.132   2.379 -0.3779  0.1077  0.0416
 7790SOL    HW134832   2.442   0.215   2.418 -3.0178 -0.1966 -1.2132
 7790SOL    HW234833   2.463   0.071   2.452 -0.6735  0.3171  0.1856
 7791SOL     OW34834   3.320   4.230   8.747 -0.1730  0.3472  0.2020
 7791SOL    HW134835   3.282   4.167   8.808  0.3645 -0.0784  0.0962
 7791SOL    HW234836   3.264   4.302   8.775  0.3491  0.6181  0.5639
 7792SOL     OW34837   0.523   3.191   8.573 -0.2722 -0.1523 -0.0435
 7792SOL    HW134838   0.467   3.120   8.542  1.5007 -0.7909 -1.7756
 7792SOL    HW234839   0.572   3.151   8.645  1.0469 -0.7662 -1.2842
 7793SOL     OW34840   0.480   3.154   2.157  0.1479 -0.4036 -0.2260
 7793SOL    HW134841   0.407   3.198   2.114  1.5062  1.3218 -0.7582
 7793SOL    HW234842   0.455   3.062   2.162  0.9084 -0.6630 -1.2794
 7794SOL     OW34843   1.549   4.353   6.469 -0.4068  0.1773 -0.1242
 7794SOL    HW134844   1.513   4.426   6.519 -1.4840  0.1298 -0.8269
 7794SOL    HW234845   1.537   4.280   6.530  1.8652 -0.4061 -0.3839
 7795SOL     OW34846   4.527   0.825   6.101  0.6920 -0.6237 -0.3133
 7795SOL    HW134847   4.523   0.761   6.172 -1.2967  1.0450  1.1019
 7795SOL    HW234848   4.599   0.785   6.052  1.2770  1.4469 -1.1474
 7796SOL     OW34849   2.446   2.364   8.676  0.1578  0.3067 -0.3952
 7796SOL    HW134850   2.386   2.394   8.608 -1.3697  0.3686  0.9895
 7796SOL    HW234851   2.427   2.270   8.669  0.3749  0.3230 -1.2335
 7797SOL     OW34852   4.595   3.539   2.734 -0.2420 -0.3599  0.1116
 7797SOL    HW134853   4.648   3.612   2.701 -0.8467  0.3375  0.6909
 7797SOL    HW234854   4.598   3.548   2.829  0.9100 -0.4069  0.0781
 7798SOL     OW34855   4.674   1.613   6.401  0.3181 -0.2174 -0.1523
 7798SOL    HW134856   4.617   1.623   6.477 -0.1734  0.5098 -0.6115
 7798SOL    HW234857   4.616   1.574   6.335  0.5152  0.5664 -0.7991
 7799SOL     OW34858   3.424   2.155   9.888 -0.1386  0.1308  0.4077
 7799SOL    HW134859   3.431   2.251   9.895 -0.5260  0.1273  0.8551
 7799SOL    HW234860   3.514   2.125   9.876 -0.1636  0.4234 -0.5045
 7800SOL     OW34861   0.144   1.634   0.209  0.0534 -0.4684 -0.3903
 7800SOL    HW134862   0.197   1.669   0.281 -2.3766  0.2463  1.0595
 7800SOL    HW234863   0.102   1.717   0.185  0.2821 -0.2291  0.0304
 7801SOL     OW34864   1.675   0.331   4.783  0.2520 -0.0157 -0.3325
 7801SOL    HW134865   1.621   0.343   4.704 -0.4232 -3.3018 -0.3856
 7801SOL    HW234866   1.667   0.413   4.831  0.3578  0.3880 -1.0068
 7802SOL     OW34867   3.106   2.740   2.143 -0.1130  0.1450 -0.4915
 7802SOL    HW134868   3.029   2.705   2.098  0.9971 -0.2360 -2.0948
 7802SOL    HW234869   3.164   2.720   2.069  2.7735  1.1654  1.5282
 7803SOL     OW34870   1.236   2.371   7.449  0.5521  0.5646  0.1870
 7803SOL    HW134871   1.163   2.339   7.502  0.8671  0.2535  0.4361
 7803SOL    HW234872   1.188   2.383   7.367  2.3279 -3.7766 -1.5210
 7804SOL     OW34873   4.106   3.956   7.544 -0.2011 -0.3537  0.0440
 7804SOL    HW134874   4.201   3.949   7.553 -0.1232 -0.2156 -0.6635
 7804SOL    HW234875   4.073   3.872   7.574 -0.6995 -0.4471 -0.7786
 7805SOL     OW34876   3.127   3.709   0.835 -0.4549 -0.4622  0.4128
 7805SOL    HW134877   3.119   3.804   0.824 -1.8006 -0.6130  0.0313
 7805SOL    HW234878   3.110   3.680   0.745 -0.3213  0.2993  0.1436
 7806SOL     OW34879   0.876   4.337   3.437 -0.1628 -0.0311  0.3470
 7806SOL    HW134880   0.896   4.259   3.385  1.4382  0.1951  0.6357
 7806SOL    HW234881   0.925   4.304   3.512  0.6193  1.9948  0.7285
 7807SOL     OW34882   2.685   2.462  14.360  0.3693 -0.3979  0.1630
 7807SOL    HW134883   2.770   2.505  14.361 -0.6110  1.4939  1.2099
 7807SOL    HW234884   2.631   2.525  14.312 -0.3872 -1.3311 -0.2138
 7808SOL     OW34885   4.510   2.585   0.667  0.4175  1.2707  0.2523
 7808SOL    HW134886   4.566   2.651   0.706 -1.9502  2.6906  1.2975
 7808SOL    HW234887   4.503   2.603   0.574  0.9640  2.2082  0.3932
 7809SOL     OW34888   0.033   4.497   9.200 -0.6043 -0.4558 -0.3871
 7809SOL    HW134889   4.665   4.528   9.168 -2.3457 -3.5063  1.3686
 7809SOL    HW234890   0.089   4.559   9.153 -0.2374 -0.2524  0.3161
 7810SOL     OW34891   1.150   2.656   6.364  0.0607 -0.1113  0.0062
 7810SOL    HW134892   1.148   2.578   6.308  0.3345 -0.6939  0.8069
 7810SOL    HW234893   1.155   2.612   6.449  0.6139  1.3808  0.7479
 7811SOL     OW34894   1.249   1.812  12.436 -0.1888  0.0131 -0.5860
 7811SOL    HW134895   1.297   1.895  12.432  2.0385 -1.2681 -0.0212
 7811SOL    HW234896   1.170   1.836  12.485  0.4069  1.6612 -0.4164
 7812SOL     OW34897   2.127   1.663   8.393  0.3052 -0.3415 -0.1356
 7812SOL    HW134898   2.101   1.755   8.400 -1.8781 -0.9277 -0.4920
 7812SOL    HW234899   2.054   1.614   8.431  1.8223 -1.5572  1.2484
 7813SOL     OW34900   1.619   3.785   3.682 -0.1396  0.1183 -0.4575
 7813SOL    HW134901   1.582   3.737   3.756 -0.9439  0.6049 -0.5440
 7813SOL    HW234902   1.575   3.739   3.611 -0.8479  0.9380 -0.5543
 7814SOL     OW34903   4.585   2.770   9.598 -0.2160 -0.5070 -0.1789
 7814SOL    HW134904   4.621   2.749   9.684 -0.0493 -0.3267 -0.2048
 7814SOL    HW234905   4.517   2.823   9.640  0.1438  0.0739 -0.3312
 7815SOL     OW34906   2.690   2.544  12.692 -0.3476  0.1245  0.1317
 7815SOL    HW134907   2.762   2.494  12.731 -1.3414  1.2607  3.4131
 7815SOL    HW234908   2.629   2.473  12.672  1.5950 -1.3931 -0.3641
 7816SOL     OW34909   4.629   0.073  11.733 -0.7071  0.0626  0.2326
 7816SOL    HW134910   4.561   0.006  11.725  0.4435 -1.2046  1.1130
 7816SOL    HW234911   4.665   0.061  11.821 -0.9917  0.0978  0.3531
 7817SOL     OW34912   0.903   2.853   2.806 -0.0570 -0.0104  0.3111
 7817SOL    HW134913   0.894   2.894   2.720  0.9121 -0.6842 -0.1089
 7817SOL    HW234914   0.979   2.900   2.839  0.1888 -1.1940  1.4326
 7818SOL     OW34915   3.781   1.777   2.296  0.4021  0.3994 -0.3831
 7818SOL    HW134916   3.762   1.823   2.378  0.4854 -1.6340  0.7745
 7818SOL    HW234917   3.739   1.695   2.322  1.8807  0.0195  0.7828
 7819SOL     OW34918   0.008   1.255   7.094 -0.3866 -0.2381 -0.1071
 7819SOL    HW134919   4.696   1.241   7.184  0.7052  1.5073  0.5178
 7819SOL    HW234920   4.644   1.272   7.046  0.3753  0.6235 -1.0982
 7820SOL     OW34921   0.408   2.281  15.700 -0.6895 -0.3511 -0.3314
 7820SOL    HW134922   0.329   2.230  15.682 -1.2504  0.7226 -0.8746
 7820SOL    HW234923   0.384   2.351  15.639  0.5127 -0.1819 -0.6058
 7821SOL     OW34924   0.132   2.191   2.544 -0.1208  0.8553  0.0128
 7821SOL    HW134925   0.178   2.170   2.463  0.1506  0.0015  0.3820
 7821SOL    HW234926   0.191   2.256   2.583 -1.2263  0.9023  1.5940
 7822SOL     OW34927   0.073   2.835   9.166  0.0094 -0.3985 -0.1256
 7822SOL    HW134928   4.707   2.846   9.211  0.5227  1.5484  0.3683
 7822SOL    HW234929   0.090   2.742   9.180 -0.3332 -0.3954  0.3313
 7823SOL     OW34930   2.626   2.079  13.474  0.6836  0.2408 -0.6640
 7823SOL    HW134931   2.710   2.034  13.469 -0.5354 -2.1152  0.3468
 7823SOL    HW234932   2.580   2.034  13.545 -0.5805  0.4643 -1.3533
 7824SOL     OW34933   1.128   1.540   7.010  1.0500  0.2630  0.0267
 7824SOL    HW134934   1.131   1.502   7.098 -1.0433 -0.7316 -0.3286
 7824SOL    HW234935   1.212   1.519   6.969  1.6948  0.3542  1.2917
 7825SOL     OW34936   2.543   2.317   4.310  0.4531 -0.0886 -0.2594
 7825SOL    HW134937   2.528   2.321   4.404  0.5300  1.1738 -0.2972
 7825SOL    HW234938   2.544   2.222   4.295 -0.8042 -0.0652 -0.4659
 7826SOL     OW34939   3.239   1.206  14.985  0.1431 -0.2194 -0.2453
 7826SOL    HW134940   3.271   1.118  15.003 -0.4794 -0.3571  0.1781
 7826SOL    HW234941   3.144   1.199  14.985  0.1832 -0.4396  1.9855
 7827SOL     OW34942   2.521   2.738   2.813 -0.2635 -0.4747 -0.0105
 7827SOL    HW134943   2.498   2.741   2.720  0.0308  0.0640 -0.0660
 7827SOL    HW234944   2.612   2.769   2.815 -0.2861 -0.3961 -0.2025
 7828SOL     OW34945   3.391   0.830  16.113 -0.8038 -0.1907 -0.3278
 7828SOL    HW134946   3.455   0.896  16.139 -0.4215 -0.7914  0.2336
 7828SOL    HW234947   3.382   0.866  16.025 -1.9086 -1.8135 -0.8821
 7829SOL     OW34948   4.418   4.321   5.644 -0.1596  0.5346 -0.0044
 7829SOL    HW134949   4.379   4.404   5.673 -0.3055  0.6209 -0.4513
 7829SOL    HW234950   4.478   4.294   5.714 -0.5862 -1.5158 -0.4428
 7830SOL     OW34951   3.770   0.946   5.180  0.5825  0.2902 -0.3774
 7830SOL    HW134952   3.765   0.974   5.088 -1.7140 -2.3518 -1.0537
 7830SOL    HW234953   3.684   0.979   5.206  0.7142  0.2624  0.0900
 7831SOL     OW34954   3.600   1.280  12.313 -0.1966 -0.6116 -0.0106
 7831SOL    HW134955   3.677   1.228  12.290  0.0338  0.1061 -0.8390
 7831SOL    HW234956   3.556   1.278  12.228  0.9128  0.4856 -0.6061
 7832SOL     OW34957   0.576   4.105   6.799 -0.0423 -0.3871  0.1122
 7832SOL    HW134958   0.492   4.135   6.766 -0.3020  0.7463  1.8248
 7832SOL    HW234959   0.624   4.106   6.716  3.1209 -1.1767  1.9171
 7833SOL     OW34960   2.208   3.826   5.004  0.2368  0.2955  0.0931
 7833SOL    HW134961   2.162   3.792   5.081  1.4513  0.1193  0.7450
 7833SOL    HW234962   2.215   3.752   4.944 -0.2302 -0.8435  1.4313
 7834SOL     OW34963   2.960   0.008  10.637 -0.3966  0.7002 -0.1884
 7834SOL    HW134964   2.975   0.025  10.730 -0.3730  1.2414 -0.2877
 7834SOL    HW234965   3.028   0.068  10.606  0.7322  0.2103  1.3331
 7835SOL     OW34966   2.123   2.512   4.102 -0.2550  0.8543 -0.1001
 7835SOL    HW134967   2.068   2.549   4.033 -0.0876  0.4160 -0.4690
 7835SOL    HW234968   2.063   2.455   4.148  0.0779  1.0102  0.5330
 7836SOL     OW34969   2.990   4.563   7.839 -0.0028 -0.5446 -0.6272
 7836SOL    HW134970   3.066   4.504   7.836  1.0570  0.8109 -0.3340
 7836SOL    HW234971   2.912   4.511   7.856  1.4479 -2.1946  1.0274
 7837SOL     OW34972   3.473   1.359   0.745  0.2352 -0.3438 -0.5375
 7837SOL    HW134973   3.492   1.302   0.821 -1.4909  0.6169  0.6118
 7837SOL    HW234974   3.399   1.311   0.708 -1.1794 -0.1040  1.9549
 7838SOL     OW34975   1.309   2.350  10.651  0.9851  0.3244  0.7589
 7838SOL    HW134976   1.320   2.445  10.645  0.7402  0.3995  1.4077
 7838SOL    HW234977   1.367   2.325  10.723  0.3689  1.2185  1.5678
 7839SOL     OW34978   3.283   1.790   2.213 -0.0257  0.0241 -0.1454
 7839SOL    HW134979   3.348   1.857   2.233  2.0712 -1.1865 -2.7184
 7839SOL    HW234980   3.229   1.850   2.161  0.2670 -0.3189 -0.8410
 7840SOL     OW34981   4.257   1.328   7.957 -0.2128  0.0321  0.6059
 7840SOL    HW134982   4.255   1.236   7.931 -0.2278  0.5494 -1.2591
 7840SOL    HW234983   4.248   1.330   8.052  0.0381 -0.5463  0.6370
 7841SOL     OW34984   3.350   2.059   3.810 -0.1350  0.2723 -0.3524
 7841SOL    HW134985   3.284   1.994   3.787 -0.4990  0.5904 -0.1951
 7841SOL    HW234986   3.428   2.003   3.816 -0.7515 -0.2079  3.1516
 7842SOL     OW34987   1.216   2.613   4.930  0.6947 -0.5523 -0.0506
 7842SOL    HW134988   1.166   2.532   4.918 -2.2291  0.9299  2.1359
 7842SOL    HW234989   1.149   2.662   4.977 -0.5647 -0.2547 -2.1307
 7843SOL     OW34990   3.733   3.549   9.375  0.5145 -0.0605  0.5257
 7843SOL    HW134991   3.746   3.457   9.396 -0.5050  0.0368  1.5911
 7843SOL    HW234992   3.821   3.569   9.342  0.4149 -1.2330 -0.3960
 7844SOL     OW34993   4.031   0.950   2.037 -0.0723  0.2254 -0.3334
 7844SOL    HW134994   4.108   0.946   1.981  0.2252 -1.0598  0.1615
 7844SOL    HW234995   4.047   0.897   2.115 -0.3510  1.7457  0.7369
 7845SOL     OW34996   2.642   0.657   4.919  0.1006  0.0734  0.6035
 7845SOL    HW134997   2.617   0.748   4.901  0.6697  0.2052  0.4983
 7845SOL    HW234998   2.640   0.661   5.014  0.2846  0.0654  0.6071
 7846SOL     OW34999   0.646   0.237  14.972  0.8210 -0.3109 -0.0824
 7846SOL    HW135000   0.705   0.291  15.024 -1.0908 -0.4843  2.2653
 7846SOL    HW235001   0.599   0.310  14.931  0.8908 -1.1769 -1.7340
 7847SOL     OW35002   1.128   1.695   9.548  0.8459 -0.4913  0.2007
 7847SOL    HW135003   1.213   1.726   9.577  0.0038  1.9428  0.0533
 7847SOL    HW235004   1.074   1.709   9.626 -2.0801 -0.0353 -1.9094
 7848SOL     OW35005   3.879   1.376   4.721 -0.5615  0.1560 -0.1762
 7848SOL    HW135006   3.870   1.375   4.816  2.3204  0.5985  0.1070
 7848SOL    HW235007   3.789   1.369   4.690 -0.6686  0.2490  0.1212
 7849SOL     OW35008   3.444   4.038   4.976 -0.0080 -0.1572 -0.0715
 7849SOL    HW135009   3.440   4.044   4.880 -0.7080  0.8807  0.0290
 7849SOL    HW235010   3.352   4.054   4.995 -0.3240 -3.1462  0.8044
 7850SOL     OW35011   3.120   4.574   2.450 -0.2474  0.4619 -0.2954
 7850SOL    HW135012   3.043   4.525   2.479  0.1865 -0.2796 -0.4130
 7850SOL    HW235013   3.149   4.511   2.384 -2.0577  0.2192 -0.8671
 7851SOL     OW35014   2.111   0.039   7.204  0.1398 -0.2100  0.2496
 7851SOL    HW135015   2.027   0.051   7.160  0.9752 -0.5717 -1.4657
 7851SOL    HW235016   2.106   0.103   7.275 -0.4384  0.0010  0.0145
 7852SOL     OW35017   2.667   0.865  11.639  0.2619  0.0212  0.3352
 7852SOL    HW135018   2.722   0.796  11.603 -2.9597 -2.0358 -0.6164
 7852SOL    HW235019   2.648   0.909  11.557  2.3395 -0.1155 -0.2176
 7853SOL     OW35020   4.651   2.622   0.912 -0.1343 -0.4392 -0.2780
 7853SOL    HW135021   4.693   2.538   0.896 -0.6501 -0.8222  0.3377
 7853SOL    HW235022   4.607   2.606   0.996  0.8982 -0.8308  0.1799
 7854SOL     OW35023   2.929   2.978   9.579 -0.4905 -0.8735 -0.5873
 7854SOL    HW135024   2.923   2.963   9.485  1.8179 -1.1610 -0.6867
 7854SOL    HW235025   3.000   3.042   9.582  1.4195 -2.9922 -1.2025
 7855SOL     OW35026   0.760   0.095  13.248  0.5939 -0.1658 -0.4153
 7855SOL    HW135027   0.837   0.102  13.191  0.8206 -1.4426 -0.2735
 7855SOL    HW235028   0.781   0.157  13.317 -1.3934  0.3544 -0.2750
 7856SOL     OW35029   1.716   4.349   2.595 -0.2903 -0.0791  0.9364
 7856SOL    HW135030   1.711   4.267   2.545  1.9596  2.1192 -2.9260
 7856SOL    HW235031   1.807   4.344   2.623  0.0799  1.6116  0.0592
 7857SOL     OW35032   4.122   4.092   1.296  0.5354  0.2076 -0.3959
 7857SOL    HW135033   4.211   4.095   1.332 -0.1487 -0.5781  1.4010
 7857SOL    HW235034   4.080   4.024   1.348  3.7201 -0.7496  0.8911
 7858SOL     OW35035   3.792   2.045   2.409 -0.2706 -0.3467  0.3740
 7858SOL    HW135036   3.847   2.043   2.331 -1.4606  2.3785 -0.5357
 7858SOL    HW235037   3.852   2.063   2.481  0.3138 -1.3695  0.1426
 7859SOL     OW35038   0.134   4.663  11.924  0.2464  0.0173 -0.5004
 7859SOL    HW135039   0.175   4.592  11.974  2.3365  0.9439 -0.8618
 7859SOL    HW235040   0.206   0.009  11.918  1.5575 -1.0872  3.7003
 7860SOL     OW35041   1.591   2.256  17.012 -0.1826  0.4236  0.0083
 7860SOL    HW135042   1.510   2.257  17.063  1.2537  3.6753  2.1760
 7860SOL    HW235043   1.602   2.162  16.994  1.6387  0.6589 -0.0680
 7861SOL     OW35044   1.777   0.973   3.057  0.0596  0.0496 -0.8124
 7861SOL    HW135045   1.846   1.025   3.015  0.9472  0.2248  0.8676
 7861SOL    HW235046   1.695   0.979   3.008  0.8013 -1.4697 -2.2292
 7862SOL     OW35047   2.068   0.232   8.568  0.4673 -0.2916  0.4066
 7862SOL    HW135048   1.996   0.205   8.511  1.2113 -1.1879 -0.0929
 7862SOL    HW235049   2.033   0.312   8.610  1.3984  0.4577 -0.2509
 7863SOL     OW35050   2.978   0.652   3.823 -0.1216 -0.1243 -0.1774
 7863SOL    HW135051   3.057   0.704   3.807  0.8746 -1.2831  0.9741
 7863SOL    HW235052   2.909   0.685   3.765  0.0980 -0.4002 -0.5873
 7864SOL     OW35053   4.611   1.250   7.434 -0.2332  0.5892  0.7256
 7864SOL    HW135054   4.671   1.295   7.494  2.3020 -2.7770  0.7756
 7864SOL    HW235055   4.659   1.167   7.426  0.8518  1.5074 -2.1308
 7865SOL     OW35056   0.707   2.333   6.209 -0.7037  1.1706  0.1828
 7865SOL    HW135057   0.691   2.302   6.120 -0.7592 -2.3313  1.4320
 7865SOL    HW235058   0.762   2.261   6.241 -1.0833  1.2599  1.0367
 7866SOL     OW35059   0.816   1.746   1.534  0.6221 -0.1426 -0.0251
 7866SOL    HW135060   0.893   1.793   1.503  1.3986 -0.3381  1.6131
 7866SOL    HW235061   0.765   1.738   1.453  1.5909 -0.0279 -0.6547
 7867SOL     OW35062   0.127   1.530   7.963  0.2021  1.0177 -0.4074
 7867SOL    HW135063   0.176   1.519   7.882  2.0800  3.7912  0.3510
 7867SOL    HW235064   0.196   1.574   8.014  0.5244 -0.5510  0.5350
 7868SOL     OW35065   3.175   1.089   3.966 -0.2896 -0.1140  0.0286
 7868SOL    HW135066   3.080   1.085   3.952 -0.1159  3.1950 -2.0948
 7868SOL    HW235067   3.214   1.035   3.898 -1.8991 -0.2871 -0.7778
 7869SOL     OW35068   1.437   2.568   6.999 -0.1237 -0.0988  0.0880
 7869SOL    HW135069   1.355   2.552   6.953  0.3279 -0.0151 -0.7495
 7869SOL    HW235070   1.417   2.543   7.089 -0.2440  0.4878  0.2238
 7870SOL     OW35071   4.444   4.212   1.363  0.0627 -0.0884  0.1302
 7870SOL    HW135072   4.502   4.137   1.358 -0.8645 -0.6427 -1.9957
 7870SOL    HW235073   4.451   4.234   1.456 -2.3938 -0.2761  0.3503
 7871SOL     OW35074   4.209   4.641  14.008  0.2141 -0.1828  0.0515
 7871SOL    HW135075   4.275   4.586  14.050  0.8851  1.0041  0.5472
 7871SOL    HW235076   4.142   4.655  14.075 -1.2001  0.3534 -1.4824
 7872SOL     OW35077   4.020   4.549  10.496  0.2656 -0.0349  0.2525
 7872SOL    HW135078   3.988   4.502  10.573  4.1109  0.2785  2.0260
 7872SOL    HW235079   4.036   4.474  10.439 -1.6722  1.4805 -2.2989
 7873SOL     OW35080   1.345   1.733   7.223 -0.0428 -0.1812  0.0457
 7873SOL    HW135081   1.314   1.802   7.282 -0.1420 -1.3025  1.3176
 7873SOL    HW235082   1.357   1.780   7.141 -0.9150 -1.4725 -0.8401
 7874SOL     OW35083   4.004   0.404  10.686 -0.2757 -0.6042 -0.0012
 7874SOL    HW135084   4.056   0.401  10.766 -0.0336 -0.7753 -0.1644
 7874SOL    HW235085   3.916   0.410  10.722 -0.8368 -4.6767 -0.7776
 7875SOL     OW35086   0.408   1.351   1.930 -0.3248 -0.0606  0.0601
 7875SOL    HW135087   0.411   1.269   1.980  1.9968 -0.1446 -0.2106
 7875SOL    HW235088   0.485   1.399   1.960  0.1656 -1.3890  0.9107
 7876SOL     OW35089   2.999   3.485   2.338 -0.3785 -0.0773 -0.3281
 7876SOL    HW135090   3.037   3.570   2.361 -2.3980  1.3055 -2.1017
 7876SOL    HW235091   3.013   3.434   2.418 -0.0870  1.7130  0.7571
 7877SOL     OW35092   2.030   4.239   3.022 -0.1983  0.2953  0.4141
 7877SOL    HW135093   2.102   4.213   3.079  0.7866 -0.4117 -1.1574
 7877SOL    HW235094   1.961   4.259   3.086 -1.5246 -0.9665 -0.6258
 7878SOL     OW35095   3.064   3.259   6.770 -0.6359  0.1398 -0.4527
 7878SOL    HW135096   2.977   3.293   6.790 -0.8126 -2.3686  3.2604
 7878SOL    HW235097   3.091   3.203   6.844  0.2740 -1.4602 -1.9978
 7879SOL     OW35098   4.343   0.529  17.352 -0.1759 -0.0277 -0.5716
 7879SOL    HW135099   4.329   0.435  17.367 -0.1204  0.3363  1.8900
 7879SOL    HW235100   4.411   0.524  17.285  0.3004  1.8635 -0.2248
 7880SOL     OW35101   0.940   2.541   2.956  0.2327  0.1565 -0.1650
 7880SOL    HW135102   0.883   2.483   2.905  1.0406 -0.9209  0.1408
 7880SOL    HW235103   0.915   2.526   3.047 -1.2539 -1.1148 -0.7788
 7881SOL     OW35104   1.619   2.131  15.842  0.1108 -0.0399  0.6355
 7881SOL    HW135105   1.531   2.116  15.875 -0.9252  2.8461 -0.7663
 7881SOL    HW235106   1.591   2.099  15.756 -0.1484 -1.3489  1.2130
 7882SOL     OW35107   0.498   4.180   2.957  0.2137 -0.0404 -0.4549
 7882SOL    HW135108   0.496   4.109   2.893 -0.6452  0.6546 -1.1885
 7882SOL    HW235109   0.406   4.203   2.961 -0.6131 -3.9724  2.6837
 7883SOL     OW35110   4.612   3.064   6.120 -0.2371 -1.3113 -0.3289
 7883SOL    HW135111   4.636   3.042   6.029  1.4127 -0.2364 -0.1608
 7883SOL    HW235112   4.518   3.078   6.125  0.3203  1.0712  3.2187
 7884SOL     OW35113   2.781   2.692   6.997  0.1961 -0.1292 -0.0612
 7884SOL    HW135114   2.717   2.635   6.954  0.3200 -0.1988 -0.1540
 7884SOL    HW235115   2.817   2.630   7.059  1.8360 -1.1067 -2.0059
 7885SOL     OW35116   3.464   2.008   7.774  0.0744  0.3347  0.6705
 7885SOL    HW135117   3.435   2.062   7.847  1.2899  0.7668  0.8344
 7885SOL    HW235118   3.559   2.003   7.787  0.0690 -2.9651 -0.5025
 7886SOL     OW35119   1.977   0.494   8.667 -0.2999 -0.0320 -0.4489
 7886SOL    HW135120   1.886   0.498   8.695  0.7285 -0.1046  2.9738
 7886SOL    HW235121   2.012   0.489   8.756 -1.0685  1.0465 -0.0847
 7887SOL     OW35122   4.010   4.594  16.525 -0.1077 -0.1225  0.1116
 7887SOL    HW135123   3.917   4.596  16.505  0.1332 -1.2855 -1.1444
 7887SOL    HW235124   4.014   4.681  16.565  1.4466 -0.3476  0.4699
 7888SOL     OW35125   1.961   2.967  12.322  0.5260 -0.2791 -0.6371
 7888SOL    HW135126   2.035   2.916  12.355  0.7589  0.3303 -0.2295
 7888SOL    HW235127   1.996   3.056  12.330 -0.2319 -0.0694  0.2485
 7889SOL     OW35128   2.413   0.016  16.522 -0.4890  0.2844 -0.4134
 7889SOL    HW135129   2.366   0.082  16.471  1.1360  1.0182 -0.9749
 7889SOL    HW235130   2.352   4.661  16.536  1.5307 -1.2137  0.6292
 7890SOL     OW35131   2.652   1.098  11.942 -0.2374  0.2801  0.0715
 7890SOL    HW135132   2.655   1.136  12.030 -1.5402 -1.0562  0.6869
 7890SOL    HW235133   2.662   1.178  11.891  1.0054  0.0730 -0.0241
 7891SOL     OW35134   1.883   2.835   7.919 -0.1109  0.0641 -0.3230
 7891SOL    HW135135   1.934   2.772   7.868 -1.4528 -1.5607  0.3117
 7891SOL    HW235136   1.853   2.776   7.989 -1.1862  2.1749  0.9777
 7892SOL     OW35137   0.575   0.233  15.542 -0.0939 -0.3972  0.0073
 7892SOL    HW135138   0.518   0.168  15.582 -0.8135 -0.3285 -0.9180
 7892SOL    HW235139   0.641   0.183  15.494  1.1359  0.6426  0.5970
 7893SOL     OW35140   4.214   3.765   5.916  0.0805 -0.0758  0.0464
 7893SOL    HW135141   4.300   3.737   5.885  1.3021 -0.3500  3.6094
 7893SOL    HW235142   4.184   3.687   5.964 -1.1198  1.2314  1.4562
 7894SOL     OW35143   2.286   4.043   7.109 -0.3228 -0.0937  0.4923
 7894SOL    HW135144   2.221   4.008   7.170 -0.5631  0.9488  0.8438
 7894SOL    HW235145   2.330   4.123   7.139 -1.2626  1.1819 -1.4980
 7895SOL     OW35146   0.012   1.936   1.911  0.1172 -0.0503 -0.6008
 7895SOL    HW135147   0.038   1.851   1.876 -2.1506  0.0446 -2.5172
 7895SOL    HW235148   4.639   1.923   1.938 -0.2078  1.3774 -0.9906
 7896SOL     OW35149   0.532   0.609   9.040  0.3467  1.1418  0.3152
 7896SOL    HW135150   0.484   0.559   9.106  0.5535 -0.8302 -1.0387
 7896SOL    HW235151   0.621   0.574   9.033 -0.7876 -1.3200 -1.8725
 7897SOL     OW35152   3.010   2.188   6.988  0.3209 -0.2252 -0.3605
 7897SOL    HW135153   2.954   2.116   6.959 -0.4474 -0.3750  1.5079
 7897SOL    HW235154   3.093   2.145   7.008  0.2817  0.4652  1.2763
 7898SOL     OW35155   2.121   1.914   6.831 -0.4291  0.0046  0.1577
 7898SOL    HW135156   2.185   1.868   6.885 -1.3736 -1.4618  0.0365
 7898SOL    HW235157   2.158   2.002   6.843 -0.3097  0.2128 -1.8308
 7899SOL     OW35158   4.427   0.071  17.547 -0.6011 -0.1362  0.4497
 7899SOL    HW135159   4.424   4.696  17.521 -2.6614 -0.0946  0.5602
 7899SOL    HW235160   4.399   0.110  17.464 -2.4125  3.5391  2.7754
 7900SOL     OW35161   2.454   2.643   2.528 -0.1436 -0.0815 -0.2466
 7900SOL    HW135162   2.416   2.562   2.494 -1.6154 -0.7831  3.0301
 7900SOL    HW235163   2.492   2.690   2.453 -0.5579 -1.6892 -1.4602
 7901SOL     OW35164   4.123   0.899   8.615 -0.3273 -0.2284 -0.3021
 7901SOL    HW135165   4.052   0.888   8.679 -1.5047  1.0248 -1.3645
 7901SOL    HW235166   4.075   0.951   8.550 -0.2510 -1.2528 -1.1798
 7902SOL     OW35167   3.189   0.879   2.209 -0.0405 -0.3618  0.1158
 7902SOL    HW135168   3.102   0.888   2.247 -0.4993 -0.7200 -0.8577
 7902SOL    HW235169   3.188   0.950   2.145 -1.5744 -0.4336  0.0725
 7903SOL     OW35170   1.536   1.269   2.989 -0.0745  0.3532  0.3503
 7903SOL    HW135171   1.569   1.226   3.068  1.3281  2.0939  0.7071
 7903SOL    HW235172   1.528   1.206   2.917  0.0919 -1.1748  1.6565
 7904SOL     OW35173   2.096   4.368   5.899 -0.5568  0.2377 -0.1215
 7904SOL    HW135174   2.082   4.284   5.943  0.4185 -1.3110 -2.7485
 7904SOL    HW235175   2.015   4.412   5.926 -1.2356 -0.8569 -0.3666
 7905SOL     OW35176   3.791   3.665   1.877 -0.3673 -0.4271  0.1310
 7905SOL    HW135177   3.781   3.599   1.809  0.2590 -2.2353  1.8053
 7905SOL    HW235178   3.750   3.616   1.948  1.3275  1.2385  2.2469
 7906SOL     OW35179   0.134   0.324   3.059 -0.4143 -0.2922 -0.0195
 7906SOL    HW135180   0.111   0.412   3.028  0.5250 -1.1380 -3.1305
 7906SOL    HW235181   0.090   0.275   2.989 -1.0158 -0.0572  0.1970
 7907SOL     OW35182   1.728   0.275  10.050 -0.0349  0.7046  0.3084
 7907SOL    HW135183   1.757   0.339  10.114  0.3815  0.0452  0.7823
 7907SOL    HW235184   1.765   0.190  10.076  1.3804  1.7380  1.6650
 7908SOL     OW35185   1.470   0.443  10.186 -0.5894  0.1941 -0.1996
 7908SOL    HW135186   1.468   0.400  10.101  0.5136 -1.6475  0.7072
 7908SOL    HW235187   1.565   0.439  10.196 -0.7194 -1.8604  0.2217
 7909SOL     OW35188   4.053   1.169  12.157 -0.2229  0.5219 -0.0623
 7909SOL    HW135189   4.053   1.260  12.130  2.9236  0.5719  0.0425
 7909SOL    HW235190   4.118   1.179  12.227 -1.1464  2.7683  0.4509
 7910SOL     OW35191   3.560   0.483   2.160  0.0027  0.0213 -0.6176
 7910SOL    HW135192   3.570   0.549   2.229  0.4317 -0.1241 -0.5446
 7910SOL    HW235193   3.466   0.477   2.140  0.0524  1.7325 -1.3004
 7911SOL     OW35194   4.637   2.813   1.225  0.2554  0.3124 -0.1062
 7911SOL    HW135195   4.651   2.824   1.319  2.6513  0.6306 -0.5020
 7911SOL    HW235196   4.637   2.717   1.224  0.7326  0.3270 -3.5068
 7912SOL     OW35197   0.029   1.301   1.151  0.4925 -0.4573  0.0345
 7912SOL    HW135198   0.097   1.238   1.173  0.5135 -0.3146  0.3863
 7912SOL    HW235199   0.007   1.270   1.063  0.6502 -0.1551 -0.1111
 7913SOL     OW35200   2.594   1.864   5.470  0.2440 -0.7371  0.0313
 7913SOL    HW135201   2.595   1.773   5.501  3.7051 -0.2304  1.4546
 7913SOL    HW235202   2.506   1.875   5.436  0.0554  1.3273  1.2055
 7914SOL     OW35203   2.831   2.540   5.934  0.3916  0.0004  0.0037
 7914SOL    HW135204   2.802   2.463   5.983 -2.5335  0.5471 -0.8622
 7914SOL    HW235205   2.849   2.597   6.009 -1.5377 -1.7167  1.7614
 7915SOL     OW35206   2.662   4.250   5.319 -0.4286  0.2679 -0.3946
 7915SOL    HW135207   2.737   4.246   5.378 -0.2805  0.9023 -0.5305
 7915SOL    HW235208   2.612   4.175   5.350 -0.7017 -0.2701 -2.1104
 7916SOL     OW35209   1.006   0.121  17.046  0.0547 -0.3870  0.6043
 7916SOL    HW135210   0.994   0.034  17.085  1.1648  0.0804  1.9802
 7916SOL    HW235211   1.101   0.122  17.040  0.0767  1.0624  1.3014
 7917SOL     OW35212   0.152   1.399   2.034  0.4799 -0.4929  0.3747
 7917SOL    HW135213   0.245   1.380   2.026  0.0599 -2.4947  0.1790
 7917SOL    HW235214   0.161   1.458   2.109 -1.5489 -0.8144  0.8774
 7918SOL     OW35215   0.316   2.495  10.074 -0.0447  0.4684 -0.1531
 7918SOL    HW135216   0.392   2.448  10.108  1.7774  1.5403 -2.7406
 7918SOL    HW235217   0.326   2.576  10.124 -1.3894  0.5429 -0.0031
 7919SOL     OW35218   4.140   3.790  17.297 -0.0073 -0.3255 -0.5021
 7919SOL    HW135219   4.162   3.795  17.390 -1.6235  2.6629 -0.2771
 7919SOL    HW235220   4.110   3.880  17.286  0.7097 -0.0831 -0.4720
 7920SOL     OW35221   1.156   2.910   1.666 -0.3333 -0.5407 -0.0083
 7920SOL    HW135222   1.216   2.930   1.737 -0.1229 -1.2709  0.0272
 7920SOL    HW235223   1.208   2.843   1.621 -1.1739  0.2749 -2.1929
 7921SOL     OW35224   0.704   4.132   3.735  0.4854  0.4378 -0.5827
 7921SOL    HW135225   0.641   4.062   3.755  0.8651  0.8700  2.2090
 7921SOL    HW235226   0.675   4.154   3.647  1.1746  0.6509 -0.7570
 7922SOL     OW35227   3.574   3.108  10.284 -0.3630  0.1643  0.0845
 7922SOL    HW135228   3.560   3.034  10.344 -1.8216  0.8967  0.6485
 7922SOL    HW235229   3.542   3.184  10.332  0.4740 -0.3166  1.3932
 7923SOL     OW35230   3.974   1.729   9.264 -0.0825 -0.1774  0.7255
 7923SOL    HW135231   4.013   1.789   9.327 -1.6424  1.4412  0.1467
 7923SOL    HW235232   3.894   1.698   9.307 -1.5714 -0.3415 -2.1232
 7924SOL     OW35233   1.231   0.346   7.923  0.0845 -0.7185  0.0690
 7924SOL    HW135234   1.165   0.280   7.948 -1.5873  0.4693 -1.1980
 7924SOL    HW235235   1.184   0.425   7.949 -3.2003 -2.2774 -1.0878
 7925SOL     OW35236   2.370   1.136   7.441 -0.2238  0.0749 -0.0778
 7925SOL    HW135237   2.370   1.155   7.347  0.3868 -1.9685 -0.4827
 7925SOL    HW235238   2.424   1.213   7.460  1.3470 -0.5702 -1.8630
 7926SOL     OW35239   0.040   1.919   5.694  0.3827 -0.8100  0.0792
 7926SOL    HW135240   4.674   1.965   5.689  0.5145 -0.3659  1.9002
 7926SOL    HW235241   0.007   1.831   5.714 -0.3851 -0.8270 -1.2570
 7927SOL     OW35242   3.604   1.278  10.958  0.4585 -0.0857 -0.7741
 7927SOL    HW135243   3.670   1.212  10.936 -0.5743 -1.0402 -1.0110
 7927SOL    HW235244   3.661   1.350  10.987  0.5569 -0.0719 -1.0007
 7928SOL     OW35245   3.744   0.271   2.132  0.5130 -0.4765 -0.6005
 7928SOL    HW135246   3.696   0.354   2.137  0.9028 -0.3267  0.7268
 7928SOL    HW235247   3.789   0.277   2.216 -0.4942 -0.4323 -0.0549
 7929SOL     OW35248   0.949   0.780   1.367  0.1569  0.1324 -0.0082
 7929SOL    HW135249   0.956   0.702   1.311  1.5882  1.2000 -1.2946
 7929SOL    HW235250   0.860   0.804   1.340  1.5676  3.5015 -1.5435
 7930SOL     OW35251   0.194   3.378  17.378 -0.3324  0.2843  0.0527
 7930SOL    HW135252   0.140   3.300  17.367 -1.4039  0.7785  1.7522
 7930SOL    HW235253   0.124   3.444  17.380 -1.1231 -0.5898  1.8312
 7931SOL     OW35254   0.591   4.541   3.729 -0.1624 -0.3599 -0.4034
 7931SOL    HW135255   0.676   4.515   3.692 -0.6003 -1.5163 -0.5682
 7931SOL    HW235256   0.617   4.622   3.773  1.3810 -0.3974 -1.2112
 7932SOL     OW35257   1.637   0.312  11.996  0.1603 -0.4845  0.3771
 7932SOL    HW135258   1.611   0.245  12.060  1.1092 -1.4245 -0.2275
 7932SOL    HW235259   1.661   0.388  12.048  0.6026  1.2724 -2.3754
 7933SOL     OW35260   2.117   2.709   7.800  0.7620  0.0284  0.0157
 7933SOL    HW135261   2.145   2.655   7.726  1.2005  0.5173 -0.1761
 7933SOL    HW235262   2.113   2.649   7.874 -2.2570  2.8226  2.0998
 7934SOL     OW35263   1.735   0.593   4.946  0.1247 -0.5853  0.1930
 7934SOL    HW135264   1.795   0.613   5.018  1.4171 -0.7928 -0.8246
 7934SOL    HW235265   1.784   0.620   4.868  0.4046  0.1181  0.6116
 7935SOL     OW35266   3.980   1.785   7.232  0.3066 -0.4205  0.0215
 7935SOL    HW135267   4.031   1.729   7.174  1.8121  1.6906 -0.6807
 7935SOL    HW235268   3.989   1.740   7.316  1.2239  1.3603  0.8893
 7936SOL     OW35269   2.194   3.674   3.969 -0.2271 -0.2432  0.6819
 7936SOL    HW135270   2.116   3.649   4.019 -1.8845  1.3482 -1.1223
 7936SOL    HW235271   2.263   3.682   4.035  0.0674 -2.4969  0.6456
 7937SOL     OW35272   2.113   2.099  11.588  0.1108  0.3211 -0.4906
 7937SOL    HW135273   2.050   2.070  11.522  1.6073 -0.9822 -1.3509
 7937SOL    HW235274   2.127   2.188  11.556  1.3008 -0.2879 -1.6703
 7938SOL     OW35275   0.786   2.621   2.695  0.0698 -0.0002 -0.0119
 7938SOL    HW135276   0.834   2.692   2.737  0.5061  0.0513 -0.5871
 7938SOL    HW235277   0.845   2.546   2.696  0.0558  0.0781  3.4636
 7939SOL     OW35278   2.895   3.529   5.138 -0.4508  0.1455  0.3296
 7939SOL    HW135279   2.835   3.455   5.134  0.0040 -0.1527 -0.8834
 7939SOL    HW235280   2.978   3.482   5.148 -0.2190  0.7946  1.4977
 7940SOL     OW35281   3.013   1.039   7.595  0.4878  0.0446  0.2071
 7940SOL    HW135282   3.105   1.061   7.608  0.8263 -2.2340  1.6365
 7940SOL    HW235283   3.008   0.961   7.651  0.4513 -1.5483 -2.0256
 7941SOL     OW35284   1.829   4.199   4.306  0.6316 -0.3809  0.3199
 7941SOL    HW135285   1.840   4.294   4.306 -0.3822 -0.2646 -0.7674
 7941SOL    HW235286   1.918   4.169   4.322  1.6567  0.9711 -2.8699
 7942SOL     OW35287   1.678   3.681   7.068 -0.4493 -0.0807 -0.1159
 7942SOL    HW135288   1.756   3.629   7.051  0.2085  0.9670 -0.3311
 7942SOL    HW235289   1.649   3.692   6.977  0.5930  2.0878 -0.1965
 7943SOL     OW35290   4.396   1.580   5.396 -0.2321  0.2942  1.0560
 7943SOL    HW135291   4.485   1.562   5.426  0.0118 -0.1743  0.0643
 7943SOL    HW235292   4.376   1.644   5.464 -1.3734 -0.0579  1.0417
 7944SOL     OW35293   1.818   3.195  12.539 -0.1037  0.3533 -0.0974
 7944SOL    HW135294   1.780   3.115  12.502 -0.4516  0.5104 -0.0805
 7944SOL    HW235295   1.853   3.240  12.462  0.4610 -1.6365 -1.0012
 7945SOL     OW35296   3.073   1.998   6.182 -0.3117 -0.3181  0.1865
 7945SOL    HW135297   3.062   2.018   6.089 -0.7438  0.6757  0.4558
 7945SOL    HW235298   2.998   2.041   6.222  1.6051  1.5928  1.6915
 7946SOL     OW35299   2.655   1.348   1.143  0.5051 -0.6304 -0.0581
 7946SOL    HW135300   2.700   1.315   1.064 -1.8293 -1.5008 -1.0124
 7946SOL    HW235301   2.714   1.417   1.173  2.4422 -2.0050 -0.6753
 7947SOL     OW35302   4.080   4.406   6.078  0.2363 -0.1892  0.6851
 7947SOL    HW135303   4.173   4.425   6.078  0.8546 -3.2106 -0.4255
 7947SOL    HW235304   4.062   4.435   6.167 -2.0688  1.1796 -0.2107
 7948SOL     OW35305   1.097   0.568   8.927  0.2181  0.0329  0.3578
 7948SOL    HW135306   1.101   0.493   8.868  2.3247  0.7093 -0.3782
 7948SOL    HW235307   1.003   0.582   8.923  0.4974  2.1550  1.0712
 7949SOL     OW35308   1.447   0.194   6.626  0.1124 -0.3282  0.8079
 7949SOL    HW135309   1.496   0.112   6.633  0.4790 -0.0853  1.0429
 7949SOL    HW235310   1.510   0.250   6.671  0.5181 -0.7906  0.8186
 7950SOL     OW35311   4.021   2.526   4.449 -0.0193  0.0748 -0.1422
 7950SOL    HW135312   3.964   2.594   4.412 -0.5937 -0.3666 -0.0703
 7950SOL    HW235313   4.097   2.576   4.478 -1.2553  1.7104  0.2314
 7951SOL     OW35314   1.115   2.609   3.303  0.6100 -0.4869  0.5712
 7951SOL    HW135315   1.174   2.626   3.376 -0.1100 -0.4797  1.1540
 7951SOL    HW235316   1.060   2.538   3.337  0.0823  0.8490  2.5070
 7952SOL     OW35317   2.206   0.347   1.065 -0.0846  0.1160 -0.6416
 7952SOL    HW135318   2.163   0.333   1.150  0.7478  0.3131 -0.1921
 7952SOL    HW235319   2.297   0.324   1.082  0.5832  3.1925 -0.1391
 7953SOL     OW35320   1.259   3.820  16.101  0.2597 -0.5456 -0.1744
 7953SOL    HW135321   1.345   3.803  16.063  0.4568 -1.0577  0.5159
 7953SOL    HW235322   1.211   3.860  16.028  1.9885 -0.7982 -1.4464
 7954SOL     OW35323   4.100   3.861   3.414  0.2156  0.4967 -0.5951
 7954SOL    HW135324   4.099   3.798   3.342  1.9539 -0.0123 -0.1806
 7954SOL    HW235325   4.072   3.940   3.367  0.3948  0.8333 -0.1365
 7955SOL     OW35326   2.690   3.704   3.601  0.3307 -0.0305  0.4872
 7955SOL    HW135327   2.661   3.639   3.665  1.0434 -0.7784  0.0507
 7955SOL    HW235328   2.695   3.654   3.519  1.3695  1.9220 -0.6488
 7956SOL     OW35329   2.546   1.458   4.292 -0.3982 -0.3745 -0.7781
 7956SOL    HW135330   2.464   1.475   4.245 -0.6385  0.3937 -0.0767
 7956SOL    HW235331   2.545   1.362   4.294  1.8137 -0.4168 -2.6110
 7957SOL     OW35332   1.284   2.374   8.353  0.1470 -0.0352 -0.0287
 7957SOL    HW135333   1.318   2.407   8.269  0.1407 -0.0208 -0.0255
 7957SOL    HW235334   1.289   2.451   8.408  1.8872  0.4197 -0.8268
 7958SOL     OW35335   3.831   2.642  14.926 -0.3272  0.5221 -0.6346
 7958SOL    HW135336   3.816   2.590  15.005 -2.0063  3.0532  0.7093
 7958SOL    HW235337   3.920   2.668  14.946 -1.1128  1.5652  1.4985
 7959SOL     OW35338   0.523   1.371   5.670 -0.1854 -0.0220 -0.1788
 7959SOL    HW135339   0.598   1.428   5.689  0.5380 -0.5427 -1.4856
 7959SOL    HW235340   0.561   1.289   5.700 -0.0355 -0.1202 -0.6391
 7960SOL     OW35341   2.468   3.157   7.578 -0.5040  0.1481  0.0379
 7960SOL    HW135342   2.449   3.093   7.510 -0.6387  1.0951 -0.8112
 7960SOL    HW235343   2.562   3.174   7.582 -0.4456 -0.1518 -0.0221
 7961SOL     OW35344   3.275   2.326  10.221  0.5783  0.2492  0.0793
 7961SOL    HW135345   3.331   2.248  10.222  3.5729  2.3907  0.7311
 7961SOL    HW235346   3.241   2.337  10.310 -2.8766 -0.7827 -1.1298
 7962SOL     OW35347   1.619   1.024   8.498  0.3795  0.4372 -0.1556
 7962SOL    HW135348   1.594   0.954   8.438  1.3070  0.4977 -0.6221
 7962SOL    HW235349   1.704   1.054   8.465 -0.1362  1.6590 -0.3717
 7963SOL     OW35350   3.711   4.171  16.186  0.1417 -0.3079 -0.5546
 7963SOL    HW135351   3.674   4.134  16.266 -1.0593  1.1910 -0.4088
 7963SOL    HW235352   3.781   4.222  16.227  1.4344 -3.3019  0.9891
 7964SOL     OW35353   0.335   0.502   6.723  0.5040  0.4240  0.4492
 7964SOL    HW135354   0.362   0.489   6.814  0.2919 -1.1240  0.3011
 7964SOL    HW235355   0.289   0.418   6.713  0.4029  0.7294 -1.6816
 7965SOL     OW35356   1.602   4.424   8.419 -0.7556 -0.1264 -0.7410
 7965SOL    HW135357   1.648   4.458   8.343  1.1404 -2.6281 -0.6971
 7965SOL    HW235358   1.519   4.472   8.412  0.6819  2.5697  0.4310
 7966SOL     OW35359   0.513   2.584   8.436 -0.2153 -0.4194 -0.1146
 7966SOL    HW135360   0.419   2.566   8.429  0.2750 -2.6881 -0.5669
 7966SOL    HW235361   0.525   2.567   8.529 -0.0888  0.4950  0.0433
 7967SOL     OW35362   1.161   2.866  13.051  0.2300 -0.4058  0.0527
 7967SOL    HW135363   1.123   2.840  13.135  2.1128 -0.5797  0.8570
 7967SOL    HW235364   1.116   2.949  13.040 -0.8069 -1.1556 -1.2597
 7968SOL     OW35365   1.810   0.075   9.828  0.1410 -0.1212 -0.3657
 7968SOL    HW135366   1.814   0.166   9.799  0.3429 -0.5265 -1.6031
 7968SOL    HW235367   1.836   0.080   9.920  0.1246  1.0843 -0.4212
 7969SOL     OW35368   4.419   3.764   3.519  0.1859 -0.2851  0.0701
 7969SOL    HW135369   4.403   3.681   3.474  0.2563  0.3137 -1.0537
 7969SOL    HW235370   4.514   3.760   3.532  0.1744 -1.2029 -0.1219
 7970SOL     OW35371   4.010   3.558   2.654 -0.3658  0.0638  0.2808
 7970SOL    HW135372   4.045   3.534   2.740  0.5207 -0.2764 -0.1788
 7970SOL    HW235373   3.922   3.527   2.677 -1.0449  0.6804 -1.4837
 7971SOL     OW35374   2.096   3.722   6.742 -0.0345  0.1092 -0.2010
 7971SOL    HW135375   2.108   3.714   6.647 -0.2962 -1.5723 -0.0891
 7971SOL    HW235376   2.002   3.733   6.752  0.1129 -0.0407  1.3433
 7972SOL     OW35377   2.653   3.994  11.071  0.0477  0.2943  0.1149
 7972SOL    HW135378   2.688   4.074  11.031 -2.0638  0.2051 -1.8775
 7972SOL    HW235379   2.570   3.988  11.024 -0.3707  2.0972  0.5924
 7973SOL     OW35380   4.429   2.089   7.746  0.4322 -0.4053  0.8341
 7973SOL    HW135381   4.491   2.070   7.817  1.8259  2.7127  0.4293
 7973SOL    HW235382   4.414   2.183   7.751  2.8219  0.1782 -2.8301
 7974SOL     OW35383   0.279   0.233   7.064  0.6976 -0.0938 -0.5260
 7974SOL    HW135384   0.293   0.178   6.988  1.4153 -1.5557  0.6696
 7974SOL    HW235385   0.308   0.317   7.029  0.5990  0.6120  1.0490
 7975SOL     OW35386   2.262   4.512   0.906  0.0723  0.0140 -0.6602
 7975SOL    HW135387   2.194   4.466   0.955  1.2042 -0.9233  0.0244
 7975SOL    HW235388   2.300   4.434   0.866 -3.1348 -0.8546 -1.9816
 7976SOL     OW35389   0.402   1.944   0.456 -0.4020 -0.4438 -0.0423
 7976SOL    HW135390   0.365   1.856   0.467 -0.4106 -0.4305  0.0366
 7976SOL    HW235391   0.364   1.990   0.530 -3.4591 -0.4846 -1.6153
 7977SOL     OW35392   0.934   3.572   8.690 -0.5334  0.8002 -0.0863
 7977SOL    HW135393   0.899   3.639   8.748 -0.7779 -1.9905  2.9808
 7977SOL    HW235394   0.852   3.524   8.679 -0.1486  0.4714 -1.5405
 7978SOL     OW35395   0.780   4.665   2.134 -0.0422 -0.6243 -0.2438
 7978SOL    HW135396   0.768   4.570   2.146  0.8179 -0.7687 -0.5006
 7978SOL    HW235397   0.725   4.678   2.056  1.1303  3.2799 -0.4183
 7979SOL     OW35398   1.899   0.908   4.706  0.0100  0.3564 -0.5146
 7979SOL    HW135399   1.844   0.862   4.643  0.0657  0.8367 -0.9103
 7979SOL    HW235400   1.847   0.983   4.733  0.5390  0.7380 -0.5575
 7980SOL     OW35401   2.296   0.514   2.566  0.3172  0.2405  0.1347
 7980SOL    HW135402   2.307   0.445   2.631 -0.2830  0.2736  0.2685
 7980SOL    HW235403   2.370   0.494   2.508 -0.2368 -0.0838 -0.4476
 7981SOL     OW35404   1.720   4.413   8.090  0.9162  0.1173 -0.5491
 7981SOL    HW135405   1.712   4.506   8.112  1.2683  0.3056 -1.1932
 7981SOL    HW235406   1.665   4.399   8.012 -1.3099 -1.0795  1.2596
 7982SOL     OW35407   1.823   2.353  12.043 -0.3175  0.2264 -0.1516
 7982SOL    HW135408   1.878   2.275  12.054  0.7438  0.9590 -0.2364
 7982SOL    HW235409   1.769   2.337  12.121  1.7450 -0.2468  1.1790
 7983SOL     OW35410   2.749   4.601  12.415  0.2290  0.1976  0.4126
 7983SOL    HW135411   2.816   4.554  12.365  0.3425 -1.7813  2.4203
 7983SOL    HW235412   2.714   4.530  12.470 -0.6215 -0.7210 -1.2823
 7984SOL     OW35413   2.015   2.298   2.709 -0.1396  0.0370  0.2066
 7984SOL    HW135414   2.077   2.329   2.775  1.0695 -1.6813 -0.1341
 7984SOL    HW235415   1.937   2.313   2.763 -0.1278  1.0168 -0.0504
 7985SOL     OW35416   4.027   4.481   3.231  0.0945  0.2761 -0.3946
 7985SOL    HW135417   4.012   4.388   3.248  0.7146  0.7907  2.9339
 7985SOL    HW235418   4.118   4.486   3.202  0.2602 -0.2830  0.0287
 7986SOL     OW35419   2.048   2.127  12.303  0.3835  0.7458  0.9031
 7986SOL    HW135420   1.964   2.114  12.348 -0.5060 -0.4099 -1.0562
 7986SOL    HW235421   2.012   2.120  12.214 -0.9691 -0.4934  1.5308
 7987SOL     OW35422   1.115   4.515   0.496  0.2026  0.2978  0.1686
 7987SOL    HW135423   1.183   4.559   0.546  0.2215 -0.2184  0.5914
 7987SOL    HW235424   1.054   4.585   0.474 -0.0820  0.1002  0.3289
 7988SOL     OW35425   4.390   0.435   3.667  0.1837  0.8649  0.0219
 7988SOL    HW135426   4.296   0.427   3.649  0.3357 -2.4475  0.7258
 7988SOL    HW235427   4.391   0.526   3.697 -3.9990  1.1357 -0.6292
 7989SOL     OW35428   2.755   2.452   9.266  0.1775 -0.4004  0.8191
 7989SOL    HW135429   2.749   2.359   9.287  0.0019 -0.7182 -0.6082
 7989SOL    HW235430   2.823   2.472   9.331  1.5026  2.5749 -1.4423
 7990SOL     OW35431   3.003   4.299  15.555 -0.3650  0.0362  0.4404
 7990SOL    HW135432   2.967   4.362  15.617  1.1972 -0.1073  1.4763
 7990SOL    HW235433   2.923   4.276  15.507 -0.5334  1.2133  0.1471
 7991SOL     OW35434   2.709   4.716   8.282 -0.3277  0.2330 -0.2491
 7991SOL    HW135435   2.777   4.652   8.298 -0.1499  0.3849 -0.4046
 7991SOL    HW235436   2.690   0.028   8.371 -0.6635  1.1902 -0.6364
 7992SOL     OW35437   0.564   1.168  16.889  0.4131 -0.5280 -0.0167
 7992SOL    HW135438   0.546   1.139  16.800 -0.4232 -0.3126  0.0870
 7992SOL    HW235439   0.517   1.094  16.927 -3.4334  1.9356 -0.0061
 7993SOL     OW35440   2.047   4.175   5.277 -0.2140  0.6109  0.2143
 7993SOL    HW135441   2.141   4.157   5.276 -0.5417 -1.0724 -0.6896
 7993SOL    HW235442   2.031   4.207   5.189  1.3113  0.8052  0.0089
 7994SOL     OW35443   0.176   3.966   6.451  0.0782  0.7494 -0.3579
 7994SOL    HW135444   0.134   4.019   6.383  1.1160 -2.0696 -3.1596
 7994SOL    HW235445   0.210   4.033   6.510  0.2519  0.2374  0.1125
 7995SOL     OW35446   0.715   4.706   3.143  0.0166  0.1313  0.8207
 7995SOL    HW135447   0.771   0.064   3.124 -0.4264  0.2399 -0.0564
 7995SOL    HW235448   0.633   0.037   3.141 -0.4982 -0.7674  0.4350
 7996SOL     OW35449   3.715   2.586   0.952  0.2945 -0.2457  0.0376
 7996SOL    HW135450   3.733   2.650   0.884 -1.0191  1.7484  1.5918
 7996SOL    HW235451   3.716   2.502   0.906 -0.6058  0.0303 -0.4818
 7997SOL     OW35452   0.739   3.421  13.991  0.1915 -0.5926  0.0769
 7997SOL    HW135453   0.666   3.428  13.930  0.4053  0.2201 -0.0895
 7997SOL    HW235454   0.728   3.502  14.041  1.6902 -1.9612  2.5955
 7998SOL     OW35455   1.136   2.031   5.044  0.1762  0.4748  0.1646
 7998SOL    HW135456   1.221   2.046   5.003 -0.2374 -0.0199 -0.8710
 7998SOL    HW235457   1.092   1.987   4.971 -1.5152 -1.6524  2.4687
 7999SOL     OW35458   1.193   0.527   1.360  0.0839 -0.6442 -0.1708
 7999SOL    HW135459   1.117   0.552   1.412  1.3806  1.7200  0.5790
 7999SOL    HW235460   1.161   0.489   1.278 -2.0007  0.1233  0.2721
 8000SOL     OW35461   2.438   3.826   4.068  1.1233 -0.3763  0.0123
 8000SOL    HW135462   2.525   3.841   4.033  1.0305 -0.0183 -0.0665
 8000SOL    HW235463   2.452   3.823   4.163  1.8943 -2.6238 -0.1702
 8001SOL     OW35464   3.307   2.314   5.371 -0.0273 -0.3961 -0.2059
 8001SOL    HW135465   3.304   2.309   5.275 -0.7099 -2.3710 -0.0787
 8001SOL    HW235466   3.216   2.294   5.392  0.0448 -1.7327 -1.1584
 8002SOL     OW35467   1.011   1.887   3.746 -0.3006  0.6186 -0.1468
 8002SOL    HW135468   1.058   1.958   3.704  0.3682  1.5993  2.2263
 8002SOL    HW235469   0.923   1.921   3.734 -0.3126 -0.0204 -1.8522
 8003SOL     OW35470   0.339   3.565   8.005  0.2180  0.2924 -0.6224
 8003SOL    HW135471   0.331   3.612   7.921  1.2006 -1.3375 -1.6177
 8003SOL    HW235472   0.355   3.474   7.983  0.2791  0.4893 -1.3937
 8004SOL     OW35473   4.314   0.138   2.259  0.1881  0.0619 -0.0717
 8004SOL    HW135474   4.353   0.051   2.250 -2.7378 -1.3428  0.5120
 8004SOL    HW235475   4.252   0.152   2.187  2.5360  3.6898 -1.3799
 8005SOL     OW35476   0.500   2.800   5.765 -0.8007  0.1500 -0.0207
 8005SOL    HW135477   0.544   2.817   5.682 -0.0070 -0.3075  0.3045
 8005SOL    HW235478   0.514   2.707   5.780 -0.4015 -0.0009 -1.3182
 8006SOL     OW35479   0.077   0.521   3.782 -0.6061  0.2640  0.0026
 8006SOL    HW135480   0.093   0.452   3.846  0.2183  0.3322 -0.1322
 8006SOL    HW235481   0.156   0.575   3.791 -0.3562 -0.4140  1.8693
 8007SOL     OW35482   4.282   1.737   0.232  0.2151  0.1626  0.8224
 8007SOL    HW135483   4.302   1.715   0.141 -0.0832 -1.7276  1.2174
 8007SOL    HW235484   4.357   1.691   0.271  0.8038  2.2861  2.2399
 8008SOL     OW35485   0.455   0.870  10.946  0.0783  0.0981  0.1459
 8008SOL    HW135486   0.463   0.923  11.025 -0.0891 -0.3766  0.4870
 8008SOL    HW235487   0.544   0.856  10.916 -0.2321 -0.1608 -0.6528
 8009SOL     OW35488   4.208   3.789  17.564 -0.2748 -0.2789  0.0758
 8009SOL    HW135489   4.159   3.833  17.633  1.0483 -0.3141  1.0410
 8009SOL    HW235490   4.255   3.714  17.602 -0.4835  0.5686  2.0136
 8010SOL     OW35491   1.209   3.532   7.466  0.3059  0.1269 -0.5760
 8010SOL    HW135492   1.285   3.499   7.514 -0.6207 -0.5388  0.4474
 8010SOL    HW235493   1.247   3.600   7.412 -2.7537  0.3037 -2.5134
 8011SOL     OW35494   0.983   0.065   1.729  0.2516  0.5748 -0.1208
 8011SOL    HW135495   1.068   0.033   1.758  0.4703  1.2076 -0.0706
 8011SOL    HW235496   0.923   0.007   1.775  0.7110  0.1404 -0.0745
 8012SOL     OW35497   3.447   0.282   0.203 -0.3867  0.2400  0.1985
 8012SOL    HW135498   3.431   0.362   0.252  1.3593  1.3275 -0.9908
 8012SOL    HW235499   3.373   0.282   0.143 -0.5466 -1.0060  0.4039
 8013SOL     OW35500   3.157   2.801   1.040  0.1934  0.7170 -0.3165
 8013SOL    HW135501   3.237   2.802   1.092 -1.5015 -2.2741  2.3457
 8013SOL    HW235502   3.104   2.735   1.084  0.1256  0.1227 -1.2774
 8014SOL     OW35503   4.693   1.991   4.132  0.7109  0.6193 -0.1239
 8014SOL    HW135504   4.698   1.919   4.194  0.6763  0.8249  0.1183
 8014SOL    HW235505   0.046   2.048   4.164 -0.1442  1.7133 -0.2063
 8015SOL     OW35506   0.431   2.651  17.091 -0.2309  0.9662  0.0590
 8015SOL    HW135507   0.453   2.736  17.054  2.9147  0.2860  0.2972
 8015SOL    HW235508   0.353   2.642  17.037 -0.2705  1.0450  0.1039
 8016SOL     OW35509   2.531   1.552   6.836 -0.1961  0.4911 -0.7829
 8016SOL    HW135510   2.533   1.520   6.926  0.3892 -0.2427 -1.0538
 8016SOL    HW235511   2.580   1.634   6.844 -0.0934  0.3167  0.3221
 8017SOL     OW35512   0.678   2.882   5.952 -0.3293  0.2385 -0.3012
 8017SOL    HW135513   0.645   2.915   6.036  0.3063 -2.1938  0.9025
 8017SOL    HW235514   0.597   2.858   5.906 -0.0658  1.8131 -1.6093
 8018SOL     OW35515   2.124   0.332   1.356 -0.2298 -0.3926 -0.5517
 8018SOL    HW135516   2.164   0.266   1.412  0.0224  0.7558  0.6293
 8018SOL    HW235517   2.041   0.290   1.331 -1.1197  2.3752 -2.3343
 8019SOL     OW35518   3.841   1.170  11.952  0.2496 -0.1400  0.4508
 8019SOL    HW135519   3.929   1.192  11.982  0.3943  1.8287 -1.4405
 8019SOL    HW235520   3.854   1.142  11.862 -2.0304 -0.1757  0.1234
 8020SOL     OW35521   4.465   1.137   8.523 -0.0589 -0.4777  0.1698
 8020SOL    HW135522   4.432   1.064   8.576  1.0907 -0.8278  0.4223
 8020SOL    HW235523   4.383   1.161   8.481 -0.0813  1.5107  1.3311
 8021SOL     OW35524   0.663   0.360   6.206 -0.3608 -0.5097  0.1283
 8021SOL    HW135525   0.747   0.357   6.251  0.1729 -1.9279 -0.9894
 8021SOL    HW235526   0.617   0.428   6.256  0.2120  1.5033 -2.0845
 8022SOL     OW35527   3.215   3.983   0.887 -0.7210  0.5414 -0.2735
 8022SOL    HW135528   3.262   3.961   0.968 -0.3033  1.7857 -0.1720
 8022SOL    HW235529   3.268   4.060   0.866 -0.8152  0.7846  0.3893
 8023SOL     OW35530   3.454   4.095   1.903  0.5261 -0.1092 -0.0820
 8023SOL    HW135531   3.526   4.122   1.846  0.4372 -1.4436 -0.8186
 8023SOL    HW235532   3.395   4.170   1.893  1.9693  1.0604  0.0863
 8024SOL     OW35533   0.739   3.935   5.355 -0.0416 -0.6338  0.0279
 8024SOL    HW135534   0.808   3.999   5.340 -0.0505 -0.4962  0.5672
 8024SOL    HW235535   0.761   3.915   5.446 -0.7349 -0.0407  0.3253
 8025SOL     OW35536   1.763   1.417  13.606  0.4588 -0.1648 -0.8581
 8025SOL    HW135537   1.723   1.402  13.520  1.6890  0.4821 -1.5271
 8025SOL    HW235538   1.702   1.475  13.652  2.2207  1.4446 -0.5643
 8026SOL     OW35539   3.431   2.506  10.727 -0.3598 -0.3603 -0.2021
 8026SOL    HW135540   3.414   2.596  10.698  1.1981 -0.5753 -1.7802
 8026SOL    HW235541   3.368   2.504  10.799 -0.0870 -1.5825  0.0012
 8027SOL     OW35542   0.304   1.186   7.400 -0.1053 -0.1708  0.5421
 8027SOL    HW135543   0.373   1.209   7.463  0.3653  0.3508 -0.1604
 8027SOL    HW235544   0.338   1.103   7.368  1.2008 -0.0029  1.4666
 8028SOL     OW35545   4.341   4.130   4.214  0.2074 -0.2043 -1.0062
 8028SOL    HW135546   4.412   4.081   4.256  1.2125  1.3776 -0.8767
 8028SOL    HW235547   4.282   4.059   4.188 -1.2936  0.4107  0.7349
 8029SOL     OW35548   4.476   3.973   4.988  0.2275  0.6069  0.1946
 8029SOL    HW135549   4.430   3.983   4.904  0.8350  2.3714  0.0608
 8029SOL    HW235550   4.417   4.014   5.051 -1.3775 -2.2399  0.5601
 8030SOL     OW35551   1.834   4.451   5.950 -0.2800 -0.5796 -0.1402
 8030SOL    HW135552   1.749   4.441   5.991  0.3390  2.5823  1.9178
 8030SOL    HW235553   1.819   4.431   5.858 -0.8349  0.1007 -0.1990
 8031SOL     OW35554   3.659   2.351   5.408  0.7584 -0.7618 -0.0428
 8031SOL    HW135555   3.732   2.296   5.437  1.4129  0.7031  1.0645
 8031SOL    HW235556   3.665   2.332   5.314  0.9800 -0.0701 -0.1668
 8032SOL     OW35557   0.206   2.206   9.056  0.1582  0.6353  0.2604
 8032SOL    HW135558   0.165   2.244   9.134 -2.0809  1.2483 -1.1939
 8032SOL    HW235559   0.298   2.210   9.081  0.5647 -1.0967 -0.9938
 8033SOL     OW35560   3.033   1.840  11.623 -0.0184 -0.3405  0.7774
 8033SOL    HW135561   3.069   1.835  11.535  0.7190 -2.1957  1.1967
 8033SOL    HW235562   3.107   1.822  11.682 -0.3170  0.7327  1.4934
 8034SOL     OW35563   4.463   0.077  13.760 -0.1107 -0.2450  0.2503
 8034SOL    HW135564   4.461   0.141  13.831  1.7218 -1.1664  1.1256
 8034SOL    HW235565   4.474   0.129  13.680  0.0680  0.1189  0.5110
 8035SOL     OW35566   0.820   2.996   8.318 -0.2901 -0.1534 -0.0937
 8035SOL    HW135567   0.836   2.907   8.284 -0.1624  0.4696 -1.6859
 8035SOL    HW235568   0.744   3.017   8.264 -0.4109  0.0739  0.1672
 8036SOL     OW35569   2.972   3.278   5.995  0.0062  0.5194 -0.1518
 8036SOL    HW135570   3.045   3.338   5.987  0.6297 -0.2008  0.1661
 8036SOL    HW235571   2.965   3.246   5.905  0.5273  1.1619 -0.4186
 8037SOL     OW35572   1.743   3.393   1.293 -0.2994 -0.0313  0.2412
 8037SOL    HW135573   1.736   3.326   1.362 -1.9499  0.4591  0.5317
 8037SOL    HW235574   1.732   3.340   1.214  0.5885  2.4241 -1.5297
 8038SOL     OW35575   1.722   3.483   8.595 -0.0892 -0.1157 -0.6611
 8038SOL    HW135576   1.786   3.451   8.531 -0.0939 -1.8705  0.2222
 8038SOL    HW235577   1.686   3.545   8.531 -0.1908  1.2212  0.7020
 8039SOL     OW35578   2.542   1.983  13.713  0.1461 -0.2265 -0.0465
 8039SOL    HW135579   2.479   1.913  13.725  0.3082 -0.4746 -0.6845
 8039SOL    HW235580   2.590   1.980  13.796 -0.2466 -1.1495  0.1374
 8040SOL     OW35581   2.626   3.924   2.711 -0.2206 -0.4621 -0.4240
 8040SOL    HW135582   2.581   3.901   2.792 -0.3027  2.0616  0.2510
 8040SOL    HW235583   2.708   3.958   2.747  0.3042 -1.3545 -0.7662
 8041SOL     OW35584   0.914   2.717   7.027  0.1523  0.2928  0.8142
 8041SOL    HW135585   0.981   2.758   7.082 -0.8067  0.2439  2.0160
 8041SOL    HW235586   0.875   2.653   7.087 -0.2944 -0.7509 -0.5817
 8042SOL     OW35587   3.134   2.157   2.358 -1.0173  0.1376 -0.6068
 8042SOL    HW135588   3.142   2.062   2.355 -1.5214  0.1306 -1.5666
 8042SOL    HW235589   3.062   2.159   2.421 -0.7565  2.1611 -0.3775
 8043SOL     OW35590   0.121   1.802  16.727  0.1197  0.2914 -0.0527
 8043SOL    HW135591   0.147   1.810  16.636 -1.1975 -1.4235 -0.5849
 8043SOL    HW235592   0.161   1.719  16.752  2.2055  1.4275  0.3758
 8044SOL     OW35593   1.617   1.919   8.222 -0.0777 -0.0573  0.2391
 8044SOL    HW135594   1.553   1.954   8.160 -1.5442  0.5178  2.0564
 8044SOL    HW235595   1.566   1.892   8.299 -2.4832 -1.7728 -1.9267
 8045SOL     OW35596   2.505   2.459   9.553 -0.7301  0.8609 -0.3596
 8045SOL    HW135597   2.578   2.519   9.568 -0.5108  0.5409 -0.1333
 8045SOL    HW235598   2.442   2.517   9.511  0.3540  1.2483 -1.4483
 8046SOL     OW35599   2.862   4.303   6.763  0.5142  0.3880 -0.0024
 8046SOL    HW135600   2.950   4.333   6.744 -0.1102  1.9794 -0.3676
 8046SOL    HW235601   2.814   4.385   6.771 -1.2541 -0.4018 -2.6183
 8047SOL     OW35602   1.356   4.698   9.324  0.1415  0.0087  0.4382
 8047SOL    HW135603   1.298   0.035   9.272  0.9705  0.4314 -0.0284
 8047SOL    HW235604   1.293   4.646   9.375 -1.9415  2.0982 -0.0265
 8048SOL     OW35605   3.680   3.125   2.051 -0.2180  0.0655  0.2505
 8048SOL    HW135606   3.618   3.140   2.122  1.6276  2.2315  1.4150
 8048SOL    HW235607   3.667   3.203   1.998 -1.2574  0.5691  1.2630
 8049SOL     OW35608   2.413   1.205   6.734 -0.1141 -0.6371  0.0586
 8049SOL    HW135609   2.345   1.187   6.669 -0.5195  0.6018  0.1517
 8049SOL    HW235610   2.394   1.166   6.819  2.3226 -0.9187  0.4908
 8050SOL     OW35611   1.430   2.488   4.790  0.1657  0.2344  0.0639
 8050SOL    HW135612   1.502   2.506   4.850  0.3516  1.8226 -0.6209
 8050SOL    HW235613   1.362   2.519   4.850 -0.1355  0.8764 -0.6005
 8051SOL     OW35614   0.255   1.970   5.165  0.0457  0.1344 -0.4872
 8051SOL    HW135615   0.241   2.051   5.214 -1.9567  0.0211 -0.8488
 8051SOL    HW235616   0.173   1.922   5.181  0.4380  0.1549  1.5752
 8052SOL     OW35617   4.530   4.661   1.401  0.3966 -0.5718  0.4997
 8052SOL    HW135618   4.499   4.595   1.462 -0.7609 -1.7992 -1.3957
 8052SOL    HW235619   4.585   4.603   1.349 -1.0074 -1.0608 -0.4355
 8053SOL     OW35620   2.875   2.439   4.810 -0.0842 -0.7780 -1.1006
 8053SOL    HW135621   2.791   2.395   4.820 -0.8584  1.2059  1.1526
 8053SOL    HW235622   2.853   2.533   4.812  0.2909 -0.6935 -1.0548
 8054SOL     OW35623   3.400   1.230   5.443  0.4024 -0.3697  0.4157
 8054SOL    HW135624   3.450   1.280   5.507 -2.6695  2.1304  0.8268
 8054SOL    HW235625   3.312   1.266   5.449  0.2861 -0.5520 -0.1771
 8055SOL     OW35626   4.112   3.446   0.696  0.3389  0.3970  0.0726
 8055SOL    HW135627   4.186   3.396   0.660  0.9511  0.9577  0.5681
 8055SOL    HW235628   4.069   3.469   0.613  0.0239  1.7377  0.6177
 8056SOL     OW35629   3.960   3.961   2.183 -0.2205 -0.8631 -0.1085
 8056SOL    HW135630   3.908   3.897   2.232 -1.2315 -0.6026 -0.8426
 8056SOL    HW235631   3.933   3.950   2.092  0.8420  1.5544 -0.6935
 8057SOL     OW35632   3.428   4.121   9.806  0.6644 -0.3381 -0.3407
 8057SOL    HW135633   3.381   4.057   9.859 -0.2980 -0.1501 -0.9672
 8057SOL    HW235634   3.469   4.064   9.741 -0.0622 -1.2290 -0.0258
 8058SOL     OW35635   2.489   0.399   3.485  0.2844  0.0736 -0.2490
 8058SOL    HW135636   2.430   0.443   3.424  3.7556  1.4124 -2.6140
 8058SOL    HW235637   2.534   0.475   3.523  0.6268 -0.7199  0.9447
 8059SOL     OW35638   0.404   0.370  14.664 -0.0749  0.2010 -0.5256
 8059SOL    HW135639   0.401   0.415  14.579 -0.9568 -0.1371 -0.6792
 8059SOL    HW235640   0.332   0.404  14.718  0.8761 -1.1954  1.6041
 8060SOL     OW35641   4.429   3.120  11.408 -0.0028 -0.5335 -0.2910
 8060SOL    HW135642   4.476   3.090  11.485  1.1906  0.9157 -0.4574
 8060SOL    HW235643   4.478   3.200  11.388  2.1749 -0.9849  3.3975
 8061SOL     OW35644   1.103   4.294   4.756 -0.2021  0.1822  0.2379
 8061SOL    HW135645   1.063   4.373   4.791  0.6996  0.4115  0.7502
 8061SOL    HW235646   1.158   4.323   4.684 -0.3997  0.1876  0.0899
 8062SOL     OW35647   3.682   3.430   8.326 -0.6226  0.1761  0.5105
 8062SOL    HW135648   3.724   3.366   8.384 -2.4018  1.0443  2.7882
 8062SOL    HW235649   3.746   3.440   8.256 -0.5022 -0.8272  0.4642
 8063SOL     OW35650   0.345   0.525  10.231  0.4553  0.2029  0.1681
 8063SOL    HW135651   0.354   0.617  10.256 -3.1974  0.5158  0.3659
 8063SOL    HW235652   0.253   0.500  10.236 -0.0327  1.6916 -1.3116
 8064SOL     OW35653   1.257   1.070   4.430 -0.0188 -0.1704 -0.2795
 8064SOL    HW135654   1.182   1.025   4.470  0.5472 -1.4742 -0.6706
 8064SOL    HW235655   1.311   0.995   4.404  1.8745  1.6432 -1.5262
 8065SOL     OW35656   2.326   0.288   7.560  0.3287  0.1343  0.2092
 8065SOL    HW135657   2.374   0.344   7.499 -1.2318 -0.4317 -1.5099
 8065SOL    HW235658   2.378   0.301   7.639  1.0793  1.0456 -0.4366
 8066SOL     OW35659   0.305   1.467  11.461  0.3744  0.7367  0.1573
 8066SOL    HW135660   0.336   1.439  11.547 -0.1817  0.9113  0.4127
 8066SOL    HW235661   0.251   1.544  11.475  0.3038  0.6249  0.4995
 8067SOL     OW35662   4.253   3.191   0.167  0.1752 -0.1702  0.2190
 8067SOL    HW135663   4.244   3.176   0.073 -1.7167  2.4828 -0.0171
 8067SOL    HW235664   4.245   3.101   0.198  1.4267 -0.5542 -0.5835
 8068SOL     OW35665   2.230   2.674   6.008  0.3936  0.3649  0.1302
 8068SOL    HW135666   2.266   2.587   6.027 -1.9956 -1.1444 -2.2685
 8068SOL    HW235667   2.147   2.669   6.054  0.8330  0.9017  0.9728
 8069SOL     OW35668   1.231   0.119   5.676 -0.1064 -0.1504 -0.2607
 8069SOL    HW135669   1.271   0.115   5.763 -0.7517  0.2465  0.0545
 8069SOL    HW235670   1.307   0.126   5.618  0.0352  0.4758 -0.0042
 8070SOL     OW35671   3.702   2.164   4.018 -0.0584 -0.5487  0.2940
 8070SOL    HW135672   3.756   2.241   4.035 -1.4865 -0.7202  5.7000
 8070SOL    HW235673   3.622   2.206   3.987  0.4832 -1.0740 -1.8098
 8071SOL     OW35674   4.683   2.149   2.872  0.5382 -0.5858  0.1286
 8071SOL    HW135675   0.053   2.110   2.865  1.5752  1.1416  3.1539
 8071SOL    HW235676   4.707   2.221   2.931  1.1668  0.2628 -1.1518
 8072SOL     OW35677   2.312   2.692   4.414 -0.0050 -0.1819 -0.3302
 8072SOL    HW135678   2.255   2.617   4.431  0.0460 -0.3401 -0.8608
 8072SOL    HW235679   2.291   2.706   4.322  1.6199 -0.6239 -0.7637
 8073SOL     OW35680   3.241   3.216  14.913 -0.3223  0.7925  0.3539
 8073SOL    HW135681   3.160   3.176  14.943  0.9861 -0.8817  1.6377
 8073SOL    HW235682   3.266   3.163  14.838 -0.5663  0.8624  0.2256
 8074SOL     OW35683   1.861   3.939   8.350  0.1543 -0.1167  0.2472
 8074SOL    HW135684   1.819   4.001   8.290 -0.1859 -0.4234  0.1645
 8074SOL    HW235685   1.920   3.881   8.302  0.5017  1.3480 -1.1270
 8075SOL     OW35686   2.990   2.015   1.125 -0.0724  0.1539 -0.1961
 8075SOL    HW135687   2.964   2.098   1.084 -2.0143  0.8251  2.3715
 8075SOL    HW235688   3.084   2.027   1.117  0.1640 -0.2826  1.8645
 8076SOL     OW35689   1.051   0.028   8.869 -0.2679 -0.2446  0.3815
 8076SOL    HW135690   1.085   4.681   8.807  2.2003 -0.0163  1.5053
 8076SOL    HW235691   1.092   0.107   8.832  1.5089 -1.8115 -0.9805
 8077SOL     OW35692   1.881   4.080   0.903 -0.2914 -0.1125 -0.3194
 8077SOL    HW135693   1.857   4.110   0.991  0.5373 -0.8868  0.1757
 8077SOL    HW235694   1.814   4.113   0.843  0.0310 -1.4220 -1.3910
 8078SOL     OW35695   3.136   3.177   7.202 -0.2503 -0.4362 -0.1681
 8078SOL    HW135696   3.123   3.146   7.113  1.2233  3.2478 -1.6565
 8078SOL    HW235697   3.231   3.183   7.207 -0.1132 -1.0304 -2.1909
 8079SOL     OW35698   1.728   1.128   5.222 -0.3572 -0.3173 -0.4472
 8079SOL    HW135699   1.788   1.075   5.170 -0.8536 -1.8509  0.5702
 8079SOL    HW235700   1.749   1.091   5.308  0.5408 -0.3790 -0.6919
 8080SOL     OW35701   2.013   0.673   7.912  0.9441 -0.2673 -0.2106
 8080SOL    HW135702   2.060   0.721   7.980  0.6454 -0.8319  0.3922
 8080SOL    HW235703   2.073   0.659   7.840  1.2072  1.4923 -0.3423
 8081SOL     OW35704   0.473   3.589   3.683  0.1408  0.0094  0.2334
 8081SOL    HW135705   0.544   3.576   3.621 -0.3283 -0.0841 -0.2850
 8081SOL    HW235706   0.396   3.592   3.626  1.4461  0.5080 -1.4821
 8082SOL     OW35707   1.955   3.173   5.390  0.1728 -0.7033 -0.4216
 8082SOL    HW135708   1.896   3.102   5.417 -1.4081  0.3775 -1.0433
 8082SOL    HW235709   1.952   3.237   5.462 -1.9387 -1.4876  0.2012
 8083SOL     OW35710   2.034   1.641   2.654  0.0853  0.7203  0.4038
 8083SOL    HW135711   1.991   1.559   2.681 -1.7611  1.1048 -1.3111
 8083SOL    HW235712   1.968   1.709   2.640 -0.5669 -0.0621 -0.3749
 8084SOL     OW35713   4.307   3.336   2.950 -0.1242 -0.3857 -0.7144
 8084SOL    HW135714   4.353   3.365   3.028 -2.0231  0.0216  0.2680
 8084SOL    HW235715   4.296   3.243   2.971 -0.8194 -0.3047 -0.7042
 8085SOL     OW35716   2.567   0.825   9.204 -0.3918  0.4092  0.1394
 8085SOL    HW135717   2.479   0.834   9.166 -0.6014  1.5468  0.8665
 8085SOL    HW235718   2.606   0.912   9.190 -2.0718  1.1497  0.0533
 8086SOL     OW35719   2.353   3.696   6.557 -0.3517 -0.2887 -0.2214
 8086SOL    HW135720   2.446   3.689   6.535 -0.8483  1.7667 -2.9389
 8086SOL    HW235721   2.357   3.649   6.640 -1.1189  0.5359  0.2878
 8087SOL     OW35722   2.692   3.493  10.330  0.0205  0.1782 -0.0820
 8087SOL    HW135723   2.685   3.462  10.239  0.8064 -0.3620  0.0397
 8087SOL    HW235724   2.788   3.493  10.328  0.0259 -1.8734  0.1304
 8088SOL     OW35725   0.382   1.612   1.846  0.3505 -0.1965 -0.6783
 8088SOL    HW135726   0.403   1.519   1.850 -2.2873 -0.7900 -0.6189
 8088SOL    HW235727   0.423   1.644   1.926 -2.3993 -1.3123  1.1626
 8089SOL     OW35728   0.433   1.692   8.689  0.7061 -0.0709  0.4809
 8089SOL    HW135729   0.520   1.664   8.715  0.4681  1.3136  2.7684
 8089SOL    HW235730   0.446   1.771   8.636  0.1953  0.5798  1.3212
 8090SOL     OW35731   0.023   0.780  12.707 -0.5486 -0.2792 -0.3946
 8090SOL    HW135732   4.697   0.805  12.789  1.5987  0.7805  0.4330
 8090SOL    HW235733   0.092   0.845  12.695 -1.1972  0.6334  0.7504
 8091SOL     OW35734   4.326   2.537   2.273 -0.3071 -0.3789 -0.1868
 8091SOL    HW135735   4.271   2.554   2.349  1.2485 -0.7093  1.0253
 8091SOL    HW235736   4.318   2.625   2.237 -2.6007  0.3846  2.2574
 8092SOL     OW35737   4.627   2.662   8.080  0.2016  0.2527  0.0523
 8092SOL    HW135738   4.582   2.619   8.153  0.4976  1.4453  0.9440
 8092SOL    HW235739   4.627   2.749   8.121 -2.1653  1.2047 -2.0037
 8093SOL     OW35740   0.919   0.343  17.199  0.3982  0.1031 -0.3678
 8093SOL    HW135741   0.950   0.275  17.138  2.1334  1.2306 -0.7387
 8093SOL    HW235742   0.984   0.411  17.182  0.4104 -0.1508 -1.3640
 8094SOL     OW35743   1.841   2.046  14.898 -0.4634 -0.2875  0.2015
 8094SOL    HW135744   1.815   2.138  14.912 -2.0080 -0.6334 -0.3554
 8094SOL    HW235745   1.931   2.052  14.865 -0.9169  0.3293 -0.9431
 8095SOL     OW35746   2.578   4.366   9.549 -0.8291  0.2459  0.3789
 8095SOL    HW135747   2.518   4.362   9.474 -0.0005 -0.8630 -0.2197
 8095SOL    HW235748   2.564   4.448   9.597 -0.7408 -0.7513  2.1040
 8096SOL     OW35749   3.927   1.058   4.649 -0.2039  0.1278  0.0734
 8096SOL    HW135750   3.920   1.147   4.613 -0.3386  0.6393  1.3603
 8096SOL    HW235751   3.994   1.065   4.716 -0.4122  0.9261  0.2026
 8097SOL     OW35752   2.503   4.488   3.134 -0.3006  0.3901 -0.0014
 8097SOL    HW135753   2.413   4.460   3.149  0.2316 -0.7724  0.9934
 8097SOL    HW235754   2.487   4.582   3.147 -0.5776  0.3209  0.1723
 8098SOL     OW35755   0.555   0.666   4.240 -0.1822  0.0802  1.0673
 8098SOL    HW135756   0.601   0.582   4.244 -3.5321 -1.7904  1.1604
 8098SOL    HW235757   0.555   0.681   4.145  1.7028 -0.7009  0.9361
 8099SOL     OW35758   1.723   1.614  15.453 -0.8320 -0.0964 -0.0519
 8099SOL    HW135759   1.785   1.619  15.526  1.2530 -0.1628 -1.8158
 8099SOL    HW235760   1.763   1.548  15.396 -0.6967  0.9653 -1.2073
 8100SOL     OW35761   1.391   1.042   3.125 -0.1616  0.3679 -0.2809
 8100SOL    HW135762   1.458   0.980   3.096  0.6166  0.9719  0.2009
 8100SOL    HW235763   1.330   1.030   3.052  0.3983  0.5449 -0.7862
 8101SOL     OW35764   0.889   2.202   9.615  0.0893  0.0892 -0.6923
 8101SOL    HW135765   0.982   2.193   9.634  0.3831  2.6889 -0.8556
 8101SOL    HW235766   0.869   2.271   9.679  0.9349  0.7204 -1.1201
 8102SOL     OW35767   4.428   1.927  13.449  0.1085 -0.0701 -0.0807
 8102SOL    HW135768   4.496   1.892  13.390  0.7127  0.7488  0.1142
 8102SOL    HW235769   4.357   1.864  13.438  0.6365 -0.5756 -0.6002
 8103SOL     OW35770   3.370   0.185   7.303 -0.2815 -0.4035  0.0652
 8103SOL    HW135771   3.357   0.131   7.381 -1.7204 -0.3744 -0.1635
 8103SOL    HW235772   3.456   0.224   7.320 -1.2995  1.3497  1.2114
 8104SOL     OW35773   4.541   1.048   7.798 -0.1404  0.0192 -0.0795
 8104SOL    HW135774   4.624   1.004   7.783 -0.7765 -1.3467  0.3618
 8104SOL    HW235775   4.562   1.136   7.829 -0.1245 -0.3985  1.1022
 8105SOL     OW35776   0.646   4.090   8.786  0.4006  0.1823  0.7302
 8105SOL    HW135777   0.671   4.152   8.718  1.6219 -1.1212 -0.0004
 8105SOL    HW235778   0.734   4.067   8.817  0.0896 -1.6252  0.2272
 8106SOL     OW35779   1.135   3.399   7.137  0.1926  0.4076  0.2702
 8106SOL    HW135780   1.062   3.348   7.174 -0.7252  0.4120 -1.5032
 8106SOL    HW235781   1.211   3.341   7.139  0.0688  0.3599  2.7926
 8107SOL     OW35782   0.152   3.117   8.197  0.5190  0.6336 -0.2407
 8107SOL    HW135783   0.147   3.091   8.289 -1.9852  2.0961  0.0504
 8107SOL    HW235784   0.065   3.152   8.176 -0.0754 -0.5368  0.3040
 8108SOL     OW35785   0.405   0.391  12.825  0.4868  0.8138  0.3523
 8108SOL    HW135786   0.411   0.463  12.761 -3.6532 -0.2091 -1.1911
 8108SOL    HW235787   0.318   0.408  12.859 -0.0832 -0.7749 -0.3119
 8109SOL     OW35788   2.436   1.683  10.169 -0.1732 -0.3599  0.5229
 8109SOL    HW135789   2.466   1.707  10.257  0.0979  1.5578 -0.0929
 8109SOL    HW235790   2.478   1.756  10.124 -1.4279  0.0926  0.1117
 8110SOL     OW35791   3.774   2.624   3.337  0.0519 -0.0563 -0.0746
 8110SOL    HW135792   3.752   2.542   3.293 -2.8521  0.3628  0.5593
 8110SOL    HW235793   3.708   2.625   3.407  1.8817 -2.6693  1.6746
 8111SOL     OW35794   3.291   2.528   6.495 -0.2767 -0.3348  0.2420
 8111SOL    HW135795   3.279   2.440   6.530  0.9613 -0.0045  1.4749
 8111SOL    HW235796   3.203   2.567   6.494 -0.2128 -0.1984 -0.1156
 8112SOL     OW35797   3.613   2.597   6.825 -0.0013 -0.2641 -0.1270
 8112SOL    HW135798   3.583   2.654   6.755 -0.0783 -1.6668 -1.2313
 8112SOL    HW235799   3.597   2.512   6.785 -2.3807  1.3582 -2.6024
 8113SOL     OW35800   3.048   1.781  15.599  0.0877 -0.3170  0.2703
 8113SOL    HW135801   3.131   1.740  15.623  1.1791  1.6752 -0.0555
 8113SOL    HW235802   3.081   1.830  15.523 -0.0810 -0.6976 -0.0516
 8114SOL     OW35803   2.716   3.782   7.155  0.1513 -0.1362  0.3739
 8114SOL    HW135804   2.661   3.765   7.231 -0.9732 -0.6169 -0.5371
 8114SOL    HW235805   2.686   3.869   7.131 -0.7023 -0.0298  1.8650
 8115SOL     OW35806   3.267   2.062   7.065  0.4224  0.1068  0.2030
 8115SOL    HW135807   3.336   2.125   7.045  0.5790  0.4920  2.0158
 8115SOL    HW235808   3.289   2.052   7.157 -0.2052  1.8095  0.5452
 8116SOL     OW35809   1.372   1.052   4.705 -0.8751 -0.0975 -0.0587
 8116SOL    HW135810   1.355   1.011   4.620  0.2947 -1.4152  0.3252
 8116SOL    HW235811   1.299   1.106   4.734 -1.1138 -0.7963  0.6629
 8117SOL     OW35812   0.786   0.521   5.861 -0.2531  0.0887 -0.4383
 8117SOL    HW135813   0.859   0.473   5.899  0.3206  1.4279  0.1440
 8117SOL    HW235814   0.802   0.610   5.892 -1.2675  0.6271 -1.4182
 8118SOL     OW35815   4.714   3.396   3.916 -0.9626  0.5662  0.3189
 8118SOL    HW135816   0.076   3.398   3.862  0.2089 -0.7740  2.0178
 8118SOL    HW235817   4.679   3.484   3.901 -0.5184  0.8156  0.7447
 8119SOL     OW35818   2.818   2.998   9.019  0.2500  0.4461 -0.0328
 8119SOL    HW135819   2.851   2.932   9.079  0.0892  0.2785 -0.1274
 8119SOL    HW235820   2.726   2.991   9.045 -0.6467 -1.6804 -3.8267
 8120SOL     OW35821   1.784   2.984  15.197  0.3817  0.3192 -0.1264
 8120SOL    HW135822   1.807   3.008  15.287 -0.3728 -0.8531  0.3710
 8120SOL    HW235823   1.810   3.067  15.157 -0.8990  0.0774 -1.4530
 8121SOL     OW35824   0.209   4.656  13.604 -0.5092  0.5281 -0.0385
 8121SOL    HW135825   0.151   4.581  13.592  0.7245 -0.4636  0.2650
 8121SOL    HW235826   0.150   0.012  13.589  0.3043  0.9620 -1.1148
 8122SOL     OW35827   3.952   3.907   2.547 -0.4202 -0.7272  0.4985
 8122SOL    HW135828   3.927   3.849   2.474  1.7104  0.1703 -0.9337
 8122SOL    HW235829   3.872   3.894   2.599  0.3923  0.8814  2.1191
 8123SOL     OW35830   1.050   4.076   6.724  0.2024  0.1818  0.4178
 8123SOL    HW135831   1.002   4.021   6.786 -0.4488 -2.9396 -2.8156
 8123SOL    HW235832   0.983   4.117   6.671 -1.4172 -2.8591  0.0904
 8124SOL     OW35833   2.597   3.229   1.090  0.8494 -0.0755 -0.1878
 8124SOL    HW135834   2.599   3.134   1.103 -0.5722  0.0788  1.2151
 8124SOL    HW235835   2.524   3.262   1.143  1.2290  0.7640 -0.1893
 8125SOL     OW35836   2.128   2.587   7.222  0.0257 -0.1101 -0.1877
 8125SOL    HW135837   2.079   2.583   7.140 -1.4455 -2.3525  0.8000
 8125SOL    HW235838   2.073   2.648   7.272  0.6292  1.0147 -0.9018
 8126SOL     OW35839   2.383   1.685   6.194 -0.3998  0.5885  0.0447
 8126SOL    HW135840   2.373   1.592   6.212  1.1398  0.3640 -0.2411
 8126SOL    HW235841   2.443   1.713   6.263  0.4688  0.7398 -0.7695
 8127SOL     OW35842   4.212   2.733   2.714 -0.8393  0.2428 -0.1058
 8127SOL    HW135843   4.269   2.794   2.762 -2.9945  0.3646  2.3353
 8127SOL    HW235844   4.161   2.696   2.786 -2.8087  1.0324 -1.1200
 8128SOL     OW35845   3.155   0.373   5.420  0.5670 -0.0051  0.0829
 8128SOL    HW135846   3.123   0.283   5.429  3.4174 -1.1567 -1.4198
 8128SOL    HW235847   3.249   0.361   5.410  0.5510 -1.4314  1.6515
 8129SOL     OW35848   4.629   0.365  11.771  0.2492  0.2426  0.1402
 8129SOL    HW135849   4.598   0.275  11.785  0.6703 -0.3359 -2.5842
 8129SOL    HW235850   4.707   0.360  11.716 -0.0662  1.4138 -0.3978
 8130SOL     OW35851   1.810   2.656  11.472  0.0658 -0.3762 -0.0336
 8130SOL    HW135852   1.732   2.605  11.495 -0.0710  0.1976  0.7675
 8130SOL    HW235853   1.859   2.668  11.553 -0.6695  1.4562  0.1375
 8131SOL     OW35854   2.897   1.101   5.002 -0.0268  0.5129 -0.4888
 8131SOL    HW135855   2.920   1.186   4.964  0.9810  1.0123  1.2583
 8131SOL    HW235856   2.809   1.087   4.966 -0.1898  0.5603 -0.1092
 8132SOL     OW35857   0.616   1.110   9.323  0.2291  0.7732 -0.0271
 8132SOL    HW135858   0.705   1.093   9.291  0.0224  2.0612 -1.3117
 8132SOL    HW235859   0.637   1.169   9.396  2.1203  0.3256 -0.2044
 8133SOL     OW35860   1.589   4.488   9.584 -1.0654  0.5756 -0.3057
 8133SOL    HW135861   1.559   4.431   9.513  0.4444  0.2184 -0.6771
 8133SOL    HW235862   1.685   4.479   9.585 -1.4137 -3.2412  0.9060
 8134SOL     OW35863   2.829   1.946   4.208 -0.2559  0.2648 -0.3717
 8134SOL    HW135864   2.865   1.879   4.265  0.7461 -0.8247 -2.2755
 8134SOL    HW235865   2.872   2.019   4.252 -0.9402 -0.2026  1.0655
 8135SOL     OW35866   2.436   3.189  11.621 -0.3959 -0.1301 -0.5520
 8135SOL    HW135867   2.356   3.141  11.597 -0.7602 -0.0306  0.4574
 8135SOL    HW235868   2.416   3.283  11.615 -0.4159 -0.1386 -0.6159
 8136SOL     OW35869   1.890   3.766   7.357 -0.2360  0.2168  0.4352
 8136SOL    HW135870   1.835   3.744   7.282  0.9011  0.2316 -0.3843
 8136SOL    HW235871   1.950   3.692   7.356 -0.5070  0.0315 -1.4685
 8137SOL     OW35872   4.466   0.837  13.694 -0.0057  0.6951  0.0057
 8137SOL    HW135873   4.540   0.826  13.753 -0.5985  2.1262  1.0230
 8137SOL    HW235874   4.393   0.805  13.748 -0.5625 -1.8348 -2.2332
 8138SOL     OW35875   3.051   0.996  13.296  0.6059  0.4459  0.2596
 8138SOL    HW135876   3.132   0.992  13.246 -0.1064 -2.0739 -0.7438
 8138SOL    HW235877   3.051   0.904  13.324 -0.8626 -0.0374 -1.2806
 8139SOL     OW35878   0.347   4.018   2.287 -0.8667 -0.0026 -0.1602
 8139SOL    HW135879   0.270   4.056   2.329  1.3042  2.2025  1.8680
 8139SOL    HW235880   0.319   3.931   2.260  0.6688  0.1732 -2.3065
 8140SOL     OW35881   1.236   2.192   8.718  0.3816  0.0290 -0.1243
 8140SOL    HW135882   1.151   2.237   8.715  0.4264  0.0424 -1.1774
 8140SOL    HW235883   1.219   2.107   8.678  0.3595  0.5778 -1.2702
 8141SOL     OW35884   1.980   0.200   4.521  0.0320  0.2005 -0.1727
 8141SOL    HW135885   2.035   0.160   4.588  2.2025  0.5787 -1.7290
 8141SOL    HW235886   2.049   0.234   4.463 -1.3286  2.5824 -0.4203
 8142SOL     OW35887   0.155   0.565  16.647  0.4510 -0.4766 -0.1344
 8142SOL    HW135888   0.111   0.606  16.722 -0.4490  0.4501 -1.1745
 8142SOL    HW235889   0.229   0.515  16.683  0.8631  1.6527  1.9923
 8143SOL     OW35890   2.835   0.677  11.518  0.0200 -0.3075 -0.0443
 8143SOL    HW135891   2.892   0.723  11.456 -1.0093 -0.3438 -1.0134
 8143SOL    HW235892   2.889   0.598  11.513 -0.6511 -0.7678 -0.0711
 8144SOL     OW35893   1.716   3.639   5.116 -0.3298  0.1014 -0.3540
 8144SOL    HW135894   1.740   3.653   5.024  0.5360 -1.5013 -0.3735
 8144SOL    HW235895   1.653   3.569   5.101 -0.5617  0.3616 -0.6135
 8145SOL     OW35896   0.737   0.080   7.910 -0.2970  0.4013 -0.0786
 8145SOL    HW135897   0.672   0.111   7.974 -1.7649 -1.3724 -0.7195
 8145SOL    HW235898   0.753   4.708   7.939  1.1438  1.6035  2.8190
 8146SOL     OW35899   3.022   1.189  10.556  0.4004 -0.2323  0.0221
 8146SOL    HW135900   3.043   1.280  10.536  1.2083  0.0771  2.3046
 8146SOL    HW235901   3.112   1.160  10.572  0.9742  0.9457 -1.0789
 8147SOL     OW35902   1.566   2.354  10.397 -0.0674  0.0697 -0.3854
 8147SOL    HW135903   1.637   2.338  10.335 -0.7545 -0.6412 -0.9986
 8147SOL    HW235904   1.596   2.425  10.454  0.7712  0.4489 -1.3148
 8148SOL     OW35905   2.363   2.052   6.972  0.2847 -0.7612  0.2606
 8148SOL    HW135906   2.319   2.063   7.057 -4.5840 -1.8124 -2.1271
 8148SOL    HW235907   2.399   1.966   6.993  3.0447 -0.3767 -3.0165
 8149SOL     OW35908   2.687   4.567  10.050 -0.0685  0.4386  0.0567
 8149SOL    HW135909   2.763   4.542   9.997  0.0464  0.4928  0.1958
 8149SOL    HW235910   2.713   4.659  10.058  0.6756  0.2930 -0.6297
 8150SOL     OW35911   1.572   1.742   2.031  0.0289 -0.5286 -0.0774
 8150SOL    HW135912   1.613   1.760   2.115  2.6975 -2.8802 -0.8825
 8150SOL    HW235913   1.631   1.787   1.970  0.2143 -0.4481  0.1645
 8151SOL     OW35914   2.811   4.189   3.667  0.6051 -0.2576  0.1596
 8151SOL    HW135915   2.844   4.224   3.584 -1.5767 -1.6092 -1.2635
 8151SOL    HW235916   2.894   4.182   3.714  0.6217  2.8990  0.6088
 8152SOL     OW35917   3.025   0.845   1.040 -0.4743  0.0970  0.0116
 8152SOL    HW135918   3.023   0.832   0.946  1.6990 -0.4573  0.0485
 8152SOL    HW235919   3.084   0.920   1.044  0.3370 -0.4915 -0.9760
 8153SOL     OW35920   3.282   0.190   2.338  0.3951  0.5270 -0.4606
 8153SOL    HW135921   3.194   0.229   2.345  0.2361 -0.1379  1.1445
 8153SOL    HW235922   3.286   0.200   2.243 -1.7049 -1.9909 -0.8287
 8154SOL     OW35923   1.421   3.189   6.742  0.2175  0.4860 -0.0584
 8154SOL    HW135924   1.343   3.160   6.694  0.1384 -0.8996  0.9157
 8154SOL    HW235925   1.429   3.132   6.819  0.5484  1.3186  0.5355
 8155SOL     OW35926   0.247   3.517   3.534 -1.1245  0.0974  0.6448
 8155SOL    HW135927   0.195   3.572   3.475 -0.1191  0.1505 -0.1816
 8155SOL    HW235928   0.294   3.462   3.471 -0.6800  0.4058  0.7138
 8156SOL     OW35929   3.986   4.708   8.215 -0.1569  0.0160 -0.5788
 8156SOL    HW135930   4.077   4.695   8.242  0.2149 -1.3587 -2.4562
 8156SOL    HW235931   3.993   4.712   8.119 -0.7804 -0.5953 -0.6503
 8157SOL     OW35932   3.467   2.392   0.678 -0.0347  0.0615  0.2522
 8157SOL    HW135933   3.551   2.401   0.633 -0.7577 -0.4557 -1.1952
 8157SOL    HW235934   3.478   2.322   0.742  1.8276  0.0381 -0.0997
 8158SOL     OW35935   4.640   0.441   1.990  0.7184 -0.0769  0.5363
 8158SOL    HW135936   4.714   0.478   1.942  1.3794 -0.6336  1.1310
 8158SOL    HW235937   4.644   0.353   1.953  1.2246  0.2586 -0.1962
 8159SOL     OW35938   1.680   0.432   9.847  0.4967  0.2340 -0.2197
 8159SOL    HW135939   1.755   0.410   9.792 -0.4706  0.7322 -1.7254
 8159SOL    HW235940   1.717   0.375   9.915  1.7055  0.8583 -0.3579
 8160SOL     OW35941   4.213   1.870   3.719 -0.1192  0.1340  0.0595
 8160SOL    HW135942   4.244   1.950   3.677  0.5323 -0.5240 -0.7144
 8160SOL    HW235943   4.262   1.799   3.677 -0.3678  1.2663 -2.1045
 8161SOL     OW35944   3.817   0.791  16.074 -0.1380 -0.0766 -0.8769
 8161SOL    HW135945   3.782   0.880  16.079  0.1544 -0.1019  1.5620
 8161SOL    HW235946   3.898   0.794  16.126  0.2990 -1.4723 -1.4830
 8162SOL     OW35947   4.284   1.924   7.267 -0.1662 -0.5886  0.3363
 8162SOL    HW135948   4.219   1.986   7.234  1.4380  2.2061  2.3888
 8162SOL    HW235949   4.257   1.838   7.236  0.2917 -0.7343  0.3404
 8163SOL     OW35950   3.064   1.691  13.690 -0.2224 -0.3952  0.6588
 8163SOL    HW135951   3.085   1.679  13.597  0.5815  3.2704  0.3567
 8163SOL    HW235952   3.009   1.769  13.683  0.5736  0.3025  2.1104
 8164SOL     OW35953   0.514   1.397   8.092  0.1484  0.4335  0.5929
 8164SOL    HW135954   0.439   1.342   8.114 -0.2469  1.3008  1.4099
 8164SOL    HW235955   0.515   1.386   7.997 -2.8448  0.2860  0.6004
 8165SOL     OW35956   1.830   1.230   4.569  0.1524 -0.1022 -0.8529
 8165SOL    HW135957   1.802   1.175   4.643  3.1544  0.5437  0.7787
 8165SOL    HW235958   1.748   1.239   4.521 -0.5928 -0.5347  0.3468
 8166SOL     OW35959   0.551   3.317  16.944 -0.7807 -0.0153 -0.0396
 8166SOL    HW135960   0.572   3.256  16.873  1.3692  0.3509  0.2804
 8166SOL    HW235961   0.525   3.400  16.903 -0.5606 -0.3608 -0.8870
 8167SOL     OW35962   3.222   2.995   6.178  0.0923 -0.0751  0.4039
 8167SOL    HW135963   3.256   2.915   6.137 -2.0340 -0.3175 -0.8917
 8167SOL    HW235964   3.279   3.058   6.135 -0.4031 -1.3551 -2.1388
 8168SOL     OW35965   4.466   1.066   6.985  0.2243 -0.2449  0.2517
 8168SOL    HW135966   4.436   0.990   6.936 -0.5838  0.9382 -1.1025
 8168SOL    HW235967   4.510   1.025   7.059  0.3819  0.2627  0.4442
 8169SOL     OW35968   3.745   1.400   2.162  0.6860  0.0473  0.9217
 8169SOL    HW135969   3.743   1.306   2.179  1.8349  0.1860  1.8777
 8169SOL    HW235970   3.706   1.438   2.241 -1.7428 -0.8351  0.1463
 8170SOL     OW35971   3.804   2.621   8.105  0.4623 -0.5998  0.4573
 8170SOL    HW135972   3.743   2.636   8.178 -1.3768 -2.4885 -0.7163
 8170SOL    HW235973   3.838   2.533   8.122  2.2660 -0.0600 -0.3519
 8171SOL     OW35974   0.545   3.346   8.354  0.6472 -0.1601  0.3072
 8171SOL    HW135975   0.469   3.388   8.314  1.7017  2.1935  0.7538
 8171SOL    HW235976   0.513   3.306   8.435 -1.1774 -0.2045 -0.4449
 8172SOL     OW35977   1.202   3.376  15.109 -0.0390  0.2386  1.0055
 8172SOL    HW135978   1.291   3.396  15.083 -0.7241  2.3738  0.3168
 8172SOL    HW235979   1.206   3.289  15.069  1.3288  1.6800 -1.9682
 8173SOL     OW35980   3.648   2.711  15.731  0.6114 -0.5833 -0.3734
 8173SOL    HW135981   3.613   2.629  15.697  1.8934 -0.6157 -1.6473
 8173SOL    HW235982   3.703   2.728  15.654  1.7360 -0.9617  0.3514
 8174SOL     OW35983   2.525   1.762   0.414  0.4333  0.5132  0.8367
 8174SOL    HW135984   2.468   1.715   0.353  0.2866 -2.4551  3.2525
 8174SOL    HW235985   2.539   1.846   0.371  1.5680 -0.3874 -0.5676
 8175SOL     OW35986   1.470   2.330   8.738 -0.2351 -0.1863 -0.7184
 8175SOL    HW135987   1.455   2.422   8.760 -1.5824 -0.2589 -1.3389
 8175SOL    HW235988   1.383   2.292   8.728 -1.0919  1.6077  0.0837
 8176SOL     OW35989   1.958   2.585   7.011  0.5000 -0.0567  0.3405
 8176SOL    HW135990   1.937   2.559   6.921  2.2562  0.1259 -0.1237
 8176SOL    HW235991   1.896   2.656   7.028  0.2402 -0.2677  0.2726
 8177SOL     OW35992   0.202   0.063   3.245  0.3346 -0.0079  0.3072
 8177SOL    HW135993   0.135   0.022   3.299 -0.5136  0.6341 -0.2752
 8177SOL    HW235994   0.174   0.154   3.246 -2.5983 -0.9080 -0.0280
 8178SOL     OW35995   4.091   3.078   8.363  0.2901  0.4403 -0.1300
 8178SOL    HW135996   4.099   3.006   8.425 -0.1534  0.7823  0.3203
 8178SOL    HW235997   4.153   3.143   8.395 -0.8693  2.1096 -1.2437
 8179SOL     OW35998   2.455   4.611   6.880  0.4179 -0.5902 -0.1307
 8179SOL    HW135999   2.441   4.666   6.804  3.2780  3.0481  2.0007
 8179SOL    HW236000   2.369   4.569   6.887 -0.2892  0.5261 -2.2033
 8180SOL     OW36001   1.866   2.658   8.756 -0.1649 -0.3883  0.9092
 8180SOL    HW136002   1.904   2.741   8.730  1.0200 -1.4360 -0.7199
 8180SOL    HW236003   1.886   2.600   8.682 -0.0180  0.1896  0.5020
 8181SOL     OW36004   0.931   2.978   0.184  0.4571 -0.6936  0.3682
 8181SOL    HW136005   0.882   2.985   0.267  1.2192  1.1055  0.6433
 8181SOL    HW236006   0.877   2.912   0.140 -0.0901 -1.1846  1.7629
 8182SOL     OW36007   1.511   1.262  16.020  0.0075 -0.1206 -0.3475
 8182SOL    HW136008   1.445   1.329  16.009  1.1647  1.1120  0.2232
 8182SOL    HW236009   1.486   1.209  15.944  0.4958  0.9351 -1.2500
 8183SOL     OW36010   0.373   3.736   2.236 -0.1741 -0.0645 -0.0579
 8183SOL    HW136011   0.330   3.702   2.315 -0.9463 -2.5055 -1.5481
 8183SOL    HW236012   0.468   3.730   2.249  0.1384  2.0332 -1.3485
 8184SOL     OW36013   3.074   4.434   7.161 -0.0846 -0.3184  0.2066
 8184SOL    HW136014   3.062   4.427   7.255  2.3637 -0.3971  0.5143
 8184SOL    HW236015   3.142   4.366   7.155  2.8079  2.5908 -0.1201
 8185SOL     OW36016   0.994   0.644   2.481  0.9238  0.1839  0.1616
 8185SOL    HW136017   1.008   0.727   2.527 -0.2388 -0.8070  2.2867
 8185SOL    HW236018   0.915   0.664   2.431  0.6408  0.4586  0.7191
 8186SOL     OW36019   1.714   3.000   3.179 -0.6503  0.1717  0.2061
 8186SOL    HW136020   1.693   3.085   3.140 -0.9330  0.4369  0.9359
 8186SOL    HW236021   1.734   2.949   3.101  0.5817  1.4367 -0.3076
 8187SOL     OW36022   3.664   3.736   5.477  0.3404  0.0474 -0.0498
 8187SOL    HW136023   3.705   3.796   5.539  0.6641 -2.2993  2.0013
 8187SOL    HW236024   3.598   3.799   5.447  0.0674 -0.0751  0.2993
 8188SOL     OW36025   4.595   0.084   0.129  0.0149 -0.0847 -0.1210
 8188SOL    HW136026   4.545   0.037   0.062 -0.0628  0.6480 -0.5801
 8188SOL    HW236027   4.680   0.076   0.085 -0.6081 -2.5192 -0.8845
 8189SOL     OW36028   3.686   3.479  17.251 -0.1682 -0.2077  0.6323
 8189SOL    HW136029   3.763   3.425  17.269  1.6230  1.3381 -2.4062
 8189SOL    HW236030   3.676   3.469  17.156  0.1865 -2.2108  0.7952
 8190SOL     OW36031   1.834   0.162   6.317  0.2264  0.5020 -0.4857
 8190SOL    HW136032   1.809   0.165   6.225  3.2330  1.2141 -1.2767
 8190SOL    HW236033   1.750   0.132   6.351  0.8497 -0.0050  0.5797
 8191SOL     OW36034   3.209   0.056   4.396 -0.0892  0.3199 -0.2725
 8191SOL    HW136035   3.159   4.716   4.337  0.4399  0.6002 -0.9967
 8191SOL    HW236036   3.160   0.136   4.378 -0.4134  0.0210 -0.7458
 8192SOL     OW36037   0.024   3.054  10.263  0.6890 -0.3241  0.4181
 8192SOL    HW136038   0.073   3.132  10.238  1.2753 -0.9891 -0.5251
 8192SOL    HW236039   4.653   3.083  10.242  1.2670  0.7165 -0.6152
 8193SOL     OW36040   1.164   0.001  12.919 -0.1673  0.9217  0.0852
 8193SOL    HW136041   1.144   4.692  12.830 -0.2056  0.1429  0.3239
 8193SOL    HW236042   1.074   0.019  12.947 -0.6998  1.2778 -1.8500
 8194SOL     OW36043   3.128   2.333   4.874 -0.5581  0.3479  0.2803
 8194SOL    HW136044   3.041   2.370   4.860  0.2103  1.3947 -1.6940
 8194SOL    HW236045   3.111   2.294   4.960  2.8137  0.3083  0.9268
 8195SOL     OW36046   2.298   0.836   3.204 -0.1636  0.2345  0.2229
 8195SOL    HW136047   2.249   0.816   3.284 -1.2737  1.3869 -0.1639
 8195SOL    HW236048   2.242   0.854   3.128  2.6264 -0.7057 -2.0683
 8196SOL     OW36049   2.546   4.609  15.572 -0.4317 -0.5397 -0.4877
 8196SOL    HW136050   2.453   4.591  15.560 -0.4878 -0.5357 -0.0749
 8196SOL    HW236051   2.550   4.697  15.609 -0.9034 -0.2207 -1.1924
 8197SOL     OW36052   1.542   1.937  15.565  0.3236  0.1326 -0.6260
 8197SOL    HW136053   1.569   1.873  15.499  1.6946  1.0214 -0.9291
 8197SOL    HW236054   1.508   1.883  15.636 -1.7879  1.9358 -0.3010
 8198SOL     OW36055   4.192   4.119  11.534 -0.2091  0.4976 -0.0589
 8198SOL    HW136056   4.228   4.141  11.620 -1.2141  1.2578  0.1767
 8198SOL    HW236057   4.252   4.150  11.466 -0.8221  0.6242 -0.5464
 8199SOL     OW36058   2.218   2.314   7.568  0.1316  0.6490  0.0340
 8199SOL    HW136059   2.147   2.258   7.538 -1.0043  1.9492  0.2575
 8199SOL    HW236060   2.191   2.400   7.536 -0.5599  0.0649 -0.9556
 8200SOL     OW36061   2.934   2.866   3.337 -0.0128  0.3850  0.0619
 8200SOL    HW136062   2.964   2.775   3.345 -2.2190 -0.5296 -2.0550
 8200SOL    HW236063   2.930   2.894   3.428  4.1343  0.2293  0.2993
 8201SOL     OW36064   3.734   4.615  10.815  0.1927  0.3916 -0.7313
 8201SOL    HW136065   3.653   4.662  10.834 -0.2959  0.1200 -2.1442
 8201SOL    HW236066   3.761   4.660  10.736  1.9881  0.3369 -0.1472
 8202SOL     OW36067   1.429   4.321   3.594 -0.1524  0.2106 -0.6535
 8202SOL    HW136068   1.451   4.411   3.571 -0.0787  1.2079  3.2713
 8202SOL    HW236069   1.512   4.283   3.567 -0.0930  2.1631 -3.1976
 8203SOL     OW36070   0.560   3.761  13.425 -0.6750  0.5705  0.0412
 8203SOL    HW136071   0.526   3.763  13.514  2.9948 -0.0847  1.4652
 8203SOL    HW236072   0.634   3.822  13.426 -0.5998  0.4535  1.0331
 8204SOL     OW36073   2.534   1.879  14.345  0.1915 -0.4194 -0.1932
 8204SOL    HW136074   2.576   1.902  14.428  0.0260  0.0081 -0.2302
 8204SOL    HW236075   2.450   1.917  14.369  1.5382  2.4310 -0.0726
 8205SOL     OW36076   3.893   3.284  17.270 -0.2026 -0.3856 -0.4986
 8205SOL    HW136077   3.906   3.285  17.176  1.1877  0.3193 -0.2997
 8205SOL    HW236078   3.827   3.215  17.273 -1.6220  1.0227  0.6074
 8206SOL     OW36079   1.777   2.806   2.566  0.2838 -0.3489 -0.3416
 8206SOL    HW136080   1.748   2.783   2.654 -1.0171 -0.3805 -0.7758
 8206SOL    HW236081   1.863   2.764   2.568 -0.0136 -1.0102 -1.3598
 8207SOL     OW36082   0.457   4.641  17.395  0.0011  0.0448 -0.8434
 8207SOL    HW136083   0.440   4.576  17.327  0.6012  0.2642 -1.2027
 8207SOL    HW236084   0.432   0.005  17.351  1.0502  0.6926 -0.2326
 8208SOL     OW36085   2.733   4.342   4.178 -0.3449 -0.5072  0.2075
 8208SOL    HW136086   2.732   4.327   4.084  1.1235 -1.3410  0.3170
 8208SOL    HW236087   2.639   4.341   4.195 -0.0711 -1.0634  1.6998
 8209SOL     OW36088   3.894   0.542   1.181 -0.0508 -0.0468  0.1458
 8209SOL    HW136089   3.924   0.573   1.267 -2.1345  0.2637  0.7624
 8209SOL    HW236090   3.966   0.482   1.160  1.4681  2.3611 -1.6417
 8210SOL     OW36091   2.770   3.047   6.755 -0.1394  0.3927  0.2250
 8210SOL    HW136092   2.755   3.108   6.827  0.3901  1.4652 -0.5732
 8210SOL    HW236093   2.710   2.977   6.781 -1.8302  1.3704 -1.0298
 8211SOL     OW36094   4.443   0.196   8.785 -0.4033  0.3587 -0.1547
 8211SOL    HW136095   4.532   0.219   8.811 -0.4379  0.6866 -0.3161
 8211SOL    HW236096   4.446   0.127   8.720 -0.6039 -0.5013  0.7496
 8212SOL     OW36097   0.322   4.605   4.066  0.3503 -0.7653 -0.5659
 8212SOL    HW136098   0.270   4.603   4.147 -0.1845 -2.8179 -0.9640
 8212SOL    HW236099   0.278   4.530   4.026  1.0270 -1.2863 -0.3333
 8213SOL     OW36100   2.038   4.389   8.156  0.0613  0.0456 -0.4301
 8213SOL    HW136101   2.133   4.378   8.153  0.3550  2.6959 -1.3239
 8213SOL    HW236102   2.010   4.370   8.066  2.2022 -2.7690 -0.5005
 8214SOL     OW36103   4.605   2.523   1.212 -0.0806  0.2369 -0.4145
 8214SOL    HW136104   4.541   2.533   1.283  0.3603  1.8106 -0.2483
 8214SOL    HW236105   4.651   2.451   1.256  0.9131  1.0102 -0.2114
 8215SOL     OW36106   3.133   0.922  15.697  0.0232  0.2313 -0.1185
 8215SOL    HW136107   3.111   1.014  15.711 -0.4717 -0.1742  1.7566
 8215SOL    HW236108   3.054   0.874  15.719 -0.9163  1.1368 -1.4521
 8216SOL     OW36109   1.100   4.344   5.202  0.3223 -0.6816 -0.3716
 8216SOL    HW136110   1.138   4.421   5.160 -0.3052 -1.8926 -3.1789
 8216SOL    HW236111   1.129   4.274   5.143 -1.2196 -0.9480 -0.8162
 8217SOL     OW36112   0.853   1.224  14.428  0.2823  0.2717  0.0527
 8217SOL    HW136113   0.923   1.289  14.421  0.0842  0.1969 -2.7092
 8217SOL    HW236114   0.784   1.269  14.476 -1.5351  0.2625 -2.5172
 8218SOL     OW36115   0.462   1.404   6.169  0.3373 -0.4038  0.1933
 8218SOL    HW136116   0.460   1.317   6.130 -0.3003  0.2074 -1.1365
 8218SOL    HW236117   0.549   1.402   6.210 -0.0707  2.5236  1.1877
 8219SOL     OW36118   3.333   4.550   6.577  0.1561 -0.4845  0.3645
 8219SOL    HW136119   3.321   4.475   6.519 -1.5403  1.1818 -1.4182
 8219SOL    HW236120   3.428   4.550   6.587  0.1429  0.6539  0.4286
 8220SOL     OW36121   0.304   1.126   3.040  0.0759  0.0423  0.3187
 8220SOL    HW136122   0.270   1.162   2.958 -0.9058  0.8502  1.0730
 8220SOL    HW236123   0.351   1.050   3.007  3.2408  2.6655 -1.2196
 8221SOL     OW36124   2.818   0.969   5.985  0.5081  0.2173  0.7299
 8221SOL    HW136125   2.778   0.951   5.900  0.6423  0.5601  0.5985
 8221SOL    HW236126   2.896   1.022   5.968  0.5993 -0.4077 -0.8337
 8222SOL     OW36127   3.067   3.740   6.811 -0.2041  0.5254  0.1029
 8222SOL    HW136128   3.027   3.790   6.882 -0.9961  1.5150 -1.0329
 8222SOL    HW236129   3.133   3.802   6.778  1.3060 -0.4437  1.2840
 8223SOL     OW36130   1.761   0.456  11.024 -0.5807 -0.4074  0.4585
 8223SOL    HW136131   1.855   0.449  11.007 -0.0143  1.9022  2.7682
 8223SOL    HW236132   1.750   0.547  11.049 -1.1156 -0.3302 -0.0627
 8224SOL     OW36133   1.927   0.009   4.788  0.0291  0.0058  0.4462
 8224SOL    HW136134   1.956   4.679   4.866  1.1110  3.0139  1.8873
 8224SOL    HW236135   1.917   4.652   4.729  1.4727 -2.7014  3.5673
 8225SOL     OW36136   3.630   0.625   7.283 -0.0406  0.2681  0.1498
 8225SOL    HW136137   3.551   0.585   7.320 -0.0329  1.1176  1.0945
 8225SOL    HW236138   3.702   0.606   7.343  2.2838 -0.5128 -2.9476
 8226SOL     OW36139   0.269   1.688   4.134 -0.6949  0.1070 -0.5187
 8226SOL    HW136140   0.355   1.648   4.121  0.0597  1.3048  0.7996
 8226SOL    HW236141   0.208   1.618   4.109 -1.0799  0.1876  0.1675
 8227SOL     OW36142   1.309   4.631   0.654  0.4689  0.4267  0.5694
 8227SOL    HW136143   1.384   4.595   0.703  0.5603  0.3329  0.3601
 8227SOL    HW236144   1.317   0.008   0.667  1.9247  0.2113  1.2448
 8228SOL     OW36145   2.717   3.547   7.936  0.4424  0.1850 -0.0565
 8228SOL    HW136146   2.791   3.529   7.994 -0.7649 -1.2075  1.0529
 8228SOL    HW236147   2.648   3.532   8.001  0.0051 -2.2649 -1.0718
 8229SOL     OW36148   4.225   3.328   6.183  0.9411  0.5127  0.4962
 8229SOL    HW136149   4.158   3.372   6.131  3.0039  1.1669 -1.6431
 8229SOL    HW236150   4.178   3.313   6.264  0.0244 -2.0651 -0.5222
 8230SOL     OW36151   0.265   0.002   8.760 -0.1131  0.2642 -0.5100
 8230SOL    HW136152   0.208   4.678   8.695  1.7420 -1.6780 -0.8975
 8230SOL    HW236153   0.339   4.660   8.745  0.3049  0.6654 -0.0579
 8231SOL     OW36154   3.416   1.392  12.476 -0.7102  0.2166  0.6395
 8231SOL    HW136155   3.465   1.393  12.558  1.2612  2.8523 -0.5478
 8231SOL    HW236156   3.465   1.340  12.412  0.5810  0.2723  1.5872
 8232SOL     OW36157   3.757   2.043  10.063 -0.3818  0.0049 -0.5219
 8232SOL    HW136158   3.733   1.971  10.120 -1.4385 -0.3547 -1.4337
 8232SOL    HW236159   3.851   2.044  10.082 -0.6037  0.8203  0.5270
 8233SOL     OW36160   2.941   1.424   2.548 -0.0370  0.4625 -0.0472
 8233SOL    HW136161   2.954   1.481   2.472  0.5914 -1.1565 -1.1540
 8233SOL    HW236162   2.867   1.375   2.510  1.4337 -2.0381  0.3214
 8234SOL     OW36163   4.565   4.672   5.883  0.7774  0.0211 -0.2105
 8234SOL    HW136164   4.594   4.589   5.921 -0.6513 -0.7385 -0.7359
 8234SOL    HW236165   4.476   4.675   5.918  1.3754 -0.0728  1.3086
 8235SOL     OW36166   2.847   0.330   1.816 -0.9047 -0.2653 -0.3313
 8235SOL    HW136167   2.827   0.309   1.725  0.0597 -0.9007 -0.4041
 8235SOL    HW236168   2.764   0.345   1.861  0.5896  0.9297  2.0360
 8236SOL     OW36169   1.561   1.975  16.943  0.1837 -0.3823  0.5947
 8236SOL    HW136170   1.515   1.898  16.976 -0.4064  0.3326  1.4362
 8236SOL    HW236171   1.496   2.023  16.893 -0.2803  0.5415  2.0720
 8237SOL     OW36172   2.487   2.411   0.615  0.6656  0.0369 -0.0736
 8237SOL    HW136173   2.423   2.352   0.654 -1.2471  0.1083 -3.1095
 8237SOL    HW236174   2.437   2.492   0.623 -0.4068 -0.6120 -0.2119
 8238SOL     OW36175   0.708   3.910   1.381 -0.4653  0.4603 -0.5866
 8238SOL    HW136176   0.636   3.876   1.433 -0.3054 -0.2555 -0.8299
 8238SOL    HW236177   0.742   3.837   1.328  1.2322 -0.1659  1.3222
 8239SOL     OW36178   3.324   3.563   0.948  0.0036  0.0432  0.1626
 8239SOL    HW136179   3.354   3.533   0.862 -0.6232  0.0219 -0.0428
 8239SOL    HW236180   3.270   3.638   0.926 -2.5083 -1.7316  0.2985
 8240SOL     OW36181   0.292   2.553   7.397 -0.3890  0.4545  0.1397
 8240SOL    HW136182   0.310   2.558   7.303  3.1872 -1.1313  0.7345
 8240SOL    HW236183   0.375   2.514   7.425 -0.7409  0.6083  1.3964
 8241SOL     OW36184   3.500   4.320   1.052 -0.4615  0.3463  0.3099
 8241SOL    HW136185   3.445   4.284   0.983 -0.2241 -1.7217  1.2055
 8241SOL    HW236186   3.434   4.367   1.101  0.3926  1.1898  0.6507
 8242SOL     OW36187   1.433   1.438  14.015  0.0017  0.3678  0.5972
 8242SOL    HW136188   1.407   1.515  14.066  1.0220  2.1307 -1.5122
 8242SOL    HW236189   1.364   1.436  13.949  1.8186 -0.8397 -1.3023
 8243SOL     OW36190   4.704   2.178   1.597 -0.3203 -0.2584 -0.2166
 8243SOL    HW136191   4.636   2.119   1.630 -1.3065  1.0291  0.0082
 8243SOL    HW236192   0.066   2.124   1.607  1.4109  2.3073 -0.2184
 8244SOL     OW36193   1.231   2.693  11.911 -0.4150  0.3999  0.8976
 8244SOL    HW136194   1.137   2.710  11.910 -0.7903 -1.7101  1.2787
 8244SOL    HW236195   1.237   2.601  11.937  2.4904  1.2154  3.1381
 8245SOL     OW36196   3.699   2.205  10.851 -0.3023  0.5594  0.3136
 8245SOL    HW136197   3.604   2.201  10.854 -0.4242  1.7636 -1.7283
 8245SOL    HW236198   3.700   2.291  10.808 -1.9949  0.3488 -0.1463
 8246SOL     OW36199   3.961   2.579   1.383  0.7827  0.0351 -0.3762
 8246SOL    HW136200   3.924   2.626   1.309 -3.8966 -1.4176  1.0284
 8246SOL    HW236201   3.925   2.491   1.370  0.1234  0.4652 -1.4922
 8247SOL     OW36202   1.305   4.443   2.534 -0.1950 -0.5067 -0.2865
 8247SOL    HW136203   1.258   4.518   2.571  0.5512 -1.4107  2.5578
 8247SOL    HW236204   1.368   4.487   2.477  1.3962 -2.2812  0.0955
 8248SOL     OW36205   1.553   4.580   5.781  0.1960  0.1167  0.3160
 8248SOL    HW136206   1.588   4.492   5.767  0.2757  0.2333 -0.2284
 8248SOL    HW236207   1.637   4.626   5.775  0.6046 -0.5163  1.0986
 8249SOL     OW36208   2.812   4.549   9.639  0.2703  0.4028  0.5189
 8249SOL    HW136209   2.895   4.592   9.660  0.0008  1.3881 -0.5052
 8249SOL    HW236210   2.849   4.497   9.568 -3.5801 -0.6113 -0.7051
 8250SOL     OW36211   4.557   1.122  16.859 -0.0402  0.5753  0.4926
 8250SOL    HW136212   4.481   1.119  16.801  1.7076 -0.3457 -1.7459
 8250SOL    HW236213   4.538   1.207  16.899 -0.1134  1.0522 -0.5503
 8251SOL     OW36214   3.941   2.265   8.543 -0.0205  0.0758 -0.1722
 8251SOL    HW136215   3.851   2.243   8.566 -0.8895  0.3734 -3.2327
 8251SOL    HW236216   3.973   2.175   8.547  0.4581  0.3613  2.1987
 8252SOL     OW36217   2.993   3.580   6.606  0.0834 -0.3089 -0.1839
 8252SOL    HW136218   2.961   3.508   6.659 -3.1422  1.4956  0.3285
 8252SOL    HW236219   3.001   3.648   6.673  4.0564 -0.4594 -0.5197
 8253SOL     OW36220   1.644   3.138   0.768 -0.5059  0.1815 -0.1072
 8253SOL    HW136221   1.629   3.051   0.806  0.1244  0.0876 -0.0713
 8253SOL    HW236222   1.722   3.126   0.713 -0.0523 -0.0736  0.5911
 8254SOL     OW36223   3.194   1.356   6.212 -0.1902 -0.1625  0.1481
 8254SOL    HW136224   3.255   1.304   6.160  0.0506  1.2459 -0.9694
 8254SOL    HW236225   3.114   1.333   6.166 -0.0600  0.5801 -0.4413
 8255SOL     OW36226   3.628   3.790   3.625  0.1120 -0.1137  0.0125
 8255SOL    HW136227   3.642   3.831   3.540  1.0641  1.2830  0.8400
 8255SOL    HW236228   3.597   3.704   3.595  0.5227 -0.1987 -0.1721
 8256SOL     OW36229   3.282   1.345   5.170 -0.3561  0.2409  0.0562
 8256SOL    HW136230   3.300   1.268   5.117 -2.8433 -0.9229  0.8900
 8256SOL    HW236231   3.357   1.359   5.228 -2.5775 -0.0691  2.9963
 8257SOL     OW36232   4.540   4.550   8.396  0.5425  0.6409 -0.5115
 8257SOL    HW136233   4.590   4.474   8.369  0.7745 -0.2107  2.4024
 8257SOL    HW236234   4.454   4.519   8.425  1.4485 -1.7608 -0.3968
 8258SOL     OW36235   1.113   3.661   3.891  0.2424  0.2868  0.4473
 8258SOL    HW136236   1.029   3.666   3.937  0.8176  0.9064  1.4456
 8258SOL    HW236237   1.135   3.753   3.880  2.6486  0.0649  3.5178
 8259SOL     OW36238   4.420   2.012   5.730 -0.1016 -0.2957 -0.0798
 8259SOL    HW136239   4.421   2.097   5.686  2.2974 -0.0403  0.4988
 8259SOL    HW236240   4.379   2.041   5.812  0.2315 -1.8571  0.6348
 8260SOL     OW36241   1.948   1.408  15.921 -0.7060 -0.0440  0.3028
 8260SOL    HW136242   1.920   1.500  15.923 -0.6350 -0.0217  0.2568
 8260SOL    HW236243   2.038   1.422  15.950  0.0643 -0.2622 -1.9760
 8261SOL     OW36244   4.454   2.628  15.081  0.1194  0.4093  0.6786
 8261SOL    HW136245   4.544   2.597  15.092  0.5287  1.5697  0.5955
 8261SOL    HW236246   4.428   2.599  14.994  1.4145  0.7460  0.1808
 8262SOL     OW36247   1.903   2.172   2.507 -0.0554 -0.2792 -0.3352
 8262SOL    HW136248   1.826   2.123   2.533 -0.0681  0.7262  1.5288
 8262SOL    HW236249   1.912   2.237   2.578  1.0392 -0.7364 -0.0447
 8263SOL     OW36250   0.689   4.530   7.950  0.3346  0.2825  0.0233
 8263SOL    HW136251   0.610   4.548   8.001  0.2165 -0.4994  0.1200
 8263SOL    HW236252   0.654   4.496   7.868 -0.8929  1.7060 -0.0434
 8264SOL     OW36253   2.894   3.362   5.477 -0.0363 -0.1781  0.4462
 8264SOL    HW136254   2.872   3.308   5.402  0.7447  2.0951 -1.4333
 8264SOL    HW236255   2.988   3.343   5.474 -0.0995 -0.4497  0.2888
 8265SOL     OW36256   3.921   3.235   2.424  0.2032  0.4685  0.3438
 8265SOL    HW136257   3.980   3.190   2.484  0.3488 -1.5152 -1.2929
 8265SOL    HW236258   3.877   3.157   2.390 -1.8443  0.5746  2.7327
 8266SOL     OW36259   1.000   2.820  13.273 -0.0475  0.0697 -0.1875
 8266SOL    HW136260   0.945   2.763  13.219  0.6770 -1.2739  0.4879
 8266SOL    HW236261   0.933   2.874  13.314  1.3239  1.6020  0.0128
 8267SOL     OW36262   1.888   0.501  16.837  0.1073 -0.1607 -0.0521
 8267SOL    HW136263   1.908   0.439  16.767 -0.0590 -1.5023  1.1055
 8267SOL    HW236264   1.836   0.449  16.897 -0.9689 -0.0867 -0.9339
 8268SOL     OW36265   0.537   3.193   4.454  0.5397 -0.1668 -0.2715
 8268SOL    HW136266   0.455   3.204   4.502 -0.0812  2.9067 -2.0417
 8268SOL    HW236267   0.518   3.226   4.367 -1.6294 -0.1328  0.2179
 8269SOL     OW36268   0.905   0.075  11.264 -0.3747 -0.4050  0.5996
 8269SOL    HW136269   0.925   4.700  11.276 -1.3129 -0.6589  0.2514
 8269SOL    HW236270   0.811   0.061  11.277 -0.8622  0.0380 -2.4476
 8270SOL     OW36271   0.724   2.134   3.077  0.2532 -0.3687  0.7193
 8270SOL    HW136272   0.796   2.104   3.020 -1.3900  0.7653 -1.9413
 8270SOL    HW236273   0.668   2.056   3.071  2.1740 -1.7012  0.1518
 8271SOL     OW36274   3.582   1.145   5.208 -0.3800 -0.6722 -0.4592
 8271SOL    HW136275   3.537   1.161   5.291 -0.8017 -0.5850 -0.7026
 8271SOL    HW236276   3.600   1.234   5.177 -0.1253 -0.3415  0.6487
 8272SOL     OW36277   1.861   1.069  12.963  0.0188 -0.1126  0.2686
 8272SOL    HW136278   1.811   1.145  12.933 -0.7147 -1.3227 -1.5616
 8272SOL    HW236279   1.900   1.107  13.042 -1.3665  1.4224  0.2232
 8273SOL     OW36280   3.532   4.392   1.694  0.2571  1.2983 -0.3290
 8273SOL    HW136281   3.552   4.482   1.716  1.7357  0.9069 -0.1096
 8273SOL    HW236282   3.469   4.357   1.757  1.5374 -2.0436 -0.8784
 8274SOL     OW36283   1.100   2.922   5.931 -0.3901 -1.0437 -0.0412
 8274SOL    HW136284   1.034   2.874   5.981 -1.8605 -0.4193 -1.3949
 8274SOL    HW236285   1.178   2.902   5.984 -0.3485 -0.9630 -0.0722
 8275SOL     OW36286   1.183   4.556   9.478 -0.3098 -0.4979 -0.1456
 8275SOL    HW136287   1.106   4.500   9.478  0.4664 -1.5446 -0.4760
 8275SOL    HW236288   1.198   4.569   9.572  0.4928 -0.2224 -0.3082
 8276SOL     OW36289   0.206   0.794   2.657  0.3089 -0.1932 -0.1202
 8276SOL    HW136290   0.259   0.788   2.577  1.8666  1.9956  0.7268
 8276SOL    HW236291   0.122   0.766   2.621 -0.2599  0.8916  0.3411
 8277SOL     OW36292   4.536   2.513   3.432 -0.5441  0.4410  0.1838
 8277SOL    HW136293   4.573   2.557   3.355 -0.0391 -1.7525 -0.8319
 8277SOL    HW236294   4.460   2.567   3.451  0.5549  1.8137  0.7228
 8278SOL     OW36295   4.051   2.834  16.332  0.0047  0.1425 -0.2772
 8278SOL    HW136296   4.128   2.826  16.388 -0.1161 -0.1560 -0.1523
 8278SOL    HW236297   4.041   2.739  16.317  1.0942  0.1476 -1.0948
 8279SOL     OW36298   4.170   4.637   5.133  0.3081 -0.2757  0.3806
 8279SOL    HW136299   4.207   4.711   5.085  0.8207 -1.3155 -0.8272
 8279SOL    HW236300   4.087   4.627   5.086 -0.4351 -0.8547  1.8071
 8280SOL     OW36301   0.286   1.664   2.763  0.5618 -0.5376 -0.1646
 8280SOL    HW136302   0.251   1.583   2.800  1.0267  0.1171  1.6732
 8280SOL    HW236303   0.345   1.693   2.832  2.8520 -1.4901 -1.6849
 8281SOL     OW36304   4.282   1.232  11.259 -0.2240 -0.2768 -0.1950
 8281SOL    HW136305   4.225   1.183  11.199 -0.3801  1.0659 -1.1372
 8281SOL    HW236306   4.365   1.189  11.238 -1.6035 -3.1414  0.1797
 8282SOL     OW36307   2.008   1.234  16.252 -0.2760 -0.0202  0.0019
 8282SOL    HW136308   1.939   1.223  16.186  0.2227 -0.5086 -0.4417
 8282SOL    HW236309   2.085   1.251  16.197  0.0312 -1.9884 -0.1910
 8283SOL     OW36310   1.519   2.982  10.421  0.0271 -0.4294 -0.4408
 8283SOL    HW136311   1.447   2.931  10.383  0.4841  0.0779 -1.9460
 8283SOL    HW236312   1.515   3.052  10.357 -0.5909 -0.8558 -0.8781
 8284SOL     OW36313   0.454   0.394   3.961 -1.0855  0.0528  0.5364
 8284SOL    HW136314   0.395   0.469   3.973 -1.1127 -0.3665  3.0494
 8284SOL    HW236315   0.396   0.329   3.920 -1.1559  0.8911 -0.7175
 8285SOL     OW36316   2.701   0.152   3.385 -0.5610 -0.2879  0.1423
 8285SOL    HW136317   2.689   0.204   3.305  0.4630 -3.6393 -2.1535
 8285SOL    HW236318   2.615   0.148   3.427 -0.6337  1.8008  0.2089
 8286SOL     OW36319   1.449   4.564  17.293 -0.2925  0.2603  0.3711
 8286SOL    HW136320   1.457   4.586  17.200  0.4947 -0.9066  0.1646
 8286SOL    HW236321   1.487   4.476  17.292  1.6203  1.0760 -0.0070
 8287SOL     OW36322   0.819   0.516   3.145  0.2851 -0.1229  0.3291
 8287SOL    HW136323   0.902   0.564   3.145 -0.6287  1.4575  0.2165
 8287SOL    HW236324   0.776   0.556   3.221 -1.0695 -1.2730  0.1682
 8288SOL     OW36325   0.959   3.709  16.191 -0.4147  0.6841 -0.4914
 8288SOL    HW136326   0.959   3.801  16.167  2.2471  0.7744 -0.1195
 8288SOL    HW236327   0.929   3.706  16.282  0.2488 -1.1428 -0.3365
 8289SOL     OW36328   0.103   4.443   3.723 -0.0883 -0.0367 -0.1296
 8289SOL    HW136329   0.171   4.496   3.681 -0.1936 -2.1273 -2.9263
 8289SOL    HW236330   0.094   4.496   3.802  1.1932  0.4354 -0.2927
 8290SOL     OW36331   0.232   2.731   8.378 -0.4629 -0.0703  0.1247
 8290SOL    HW136332   0.253   2.651   8.330 -0.6769 -0.3195  0.4444
 8290SOL    HW236333   0.211   2.703   8.467 -1.0882 -1.3560 -0.4263
 8291SOL     OW36334   0.948   4.339   4.481 -0.4263 -0.5260  0.0138
 8291SOL    HW136335   0.951   4.393   4.402 -0.4964 -0.0599  0.3263
 8291SOL    HW236336   1.025   4.365   4.531 -1.5284 -1.6140  2.2929
 8292SOL     OW36337   1.119   3.859  12.126  0.0238  0.0861 -0.0735
 8292SOL    HW136338   1.037   3.902  12.103  0.3048  0.9814  0.5949
 8292SOL    HW236339   1.171   3.892  12.053 -0.4132  0.4826 -0.2093
 8293SOL     OW36340   1.609   4.393  11.316  0.2642 -0.1874  0.0514
 8293SOL    HW136341   1.626   4.482  11.286 -0.6938  0.2132  0.6972
 8293SOL    HW236342   1.586   4.353  11.232 -1.3318  1.0749 -0.0984
 8294SOL     OW36343   4.127   2.435   5.710  0.4559  0.1476 -0.3532
 8294SOL    HW136344   4.188   2.443   5.636  1.0610  0.9730  0.2372
 8294SOL    HW236345   4.188   2.450   5.782 -0.5020  1.9295  0.0927
 8295SOL     OW36346   4.373   0.682   8.845 -0.3574  0.1150 -0.1203
 8295SOL    HW136347   4.293   0.629   8.852 -1.2099  1.3414 -0.7195
 8295SOL    HW236348   4.430   0.626   8.792  1.4429  1.3881  0.4606
 8296SOL     OW36349   4.228   2.091   2.841 -0.1571  0.2904  0.0412
 8296SOL    HW136350   4.248   2.037   2.765  0.6333 -0.1066  0.5231
 8296SOL    HW236351   4.313   2.134   2.851  0.2577 -0.2554 -1.1495
 8297SOL     OW36352   3.988   1.791   8.479 -0.2022 -0.3421 -0.0436
 8297SOL    HW136353   4.011   1.722   8.542  2.0000  0.4189 -0.0389
 8297SOL    HW236354   4.052   1.766   8.412  0.1403 -1.5109  0.7080
 8298SOL     OW36355   3.163   1.947   8.869  0.0335 -0.1342  0.3526
 8298SOL    HW136356   3.213   1.866   8.875  2.4213  1.3716  0.4459
 8298SOL    HW236357   3.216   1.993   8.804  0.4929 -1.5771 -0.2705
 8299SOL     OW36358   3.697   3.745   7.392  0.0680  0.0690  0.3368
 8299SOL    HW136359   3.641   3.678   7.432  0.0476 -1.0748 -1.6033
 8299SOL    HW236360   3.642   3.785   7.324  1.8160  1.5105 -0.2446
 8300SOL     OW36361   4.466   0.367   5.052  0.0566 -0.5082 -0.0803
 8300SOL    HW136362   4.438   0.452   5.087 -0.9236 -0.9680  0.2751
 8300SOL    HW236363   4.560   0.373   5.064 -0.1398  1.1239  0.6788
 8301SOL     OW36364   0.131   0.833   2.234 -0.2106  0.3579 -0.1806
 8301SOL    HW136365   0.076   0.832   2.156 -0.8737  0.3719  0.2811
 8301SOL    HW236366   0.205   0.884   2.200 -1.2835  0.7787 -1.8472
 8302SOL     OW36367   4.408   3.249   6.441 -0.0729 -0.0609 -0.3784
 8302SOL    HW136368   4.495   3.283   6.423  0.1435  0.5770  1.8752
 8302SOL    HW236369   4.358   3.327   6.463 -0.6440 -0.2537 -0.9761
 8303SOL     OW36370   3.928   0.242   4.696  0.7090 -0.0079  0.0546
 8303SOL    HW136371   3.883   0.158   4.693  0.5026  0.1829 -2.3242
 8303SOL    HW236372   4.012   0.213   4.660  0.0890 -0.2748 -1.1648
 8304SOL     OW36373   1.967   0.254   0.338  0.2254  0.3053 -0.2574
 8304SOL    HW136374   1.971   0.262   0.433 -0.9083  1.3879 -0.3005
 8304SOL    HW236375   1.939   0.344   0.320  1.5036  0.5767 -0.8446
 8305SOL     OW36376   4.477   4.188   5.947 -0.1446  0.1441  0.4317
 8305SOL    HW136377   4.384   4.176   5.928  0.2827  1.9593 -2.6900
 8305SOL    HW236378   4.497   4.111   6.000 -2.1439 -2.3748 -2.4588
 8306SOL     OW36379   4.539   0.354   6.034  0.1829  0.0940 -0.7794
 8306SOL    HW136380   4.454   0.333   6.073  0.4724  0.7509  0.2180
 8306SOL    HW236381   4.523   0.371   5.942 -2.9616 -4.1971 -1.0084
 8307SOL     OW36382   0.781   2.069   2.697 -0.9151 -0.5305 -0.6254
 8307SOL    HW136383   0.847   2.080   2.629 -1.0711  0.3286 -0.6448
 8307SOL    HW236384   0.831   1.997   2.735  0.3076  1.6925  2.0220
 8308SOL     OW36385   1.737   3.970   3.836  0.0949  0.4289  0.5371
 8308SOL    HW136386   1.686   3.905   3.787  1.3593 -0.0097 -0.2083
 8308SOL    HW236387   1.792   3.919   3.896 -0.0884 -1.0322 -0.5436
 8309SOL     OW36388   2.944   4.545  14.142 -0.8599  0.8674 -0.1561
 8309SOL    HW136389   2.899   4.521  14.223 -1.4913 -1.0194 -1.0444
 8309SOL    HW236390   3.001   4.615  14.173 -0.0773  0.4303 -0.6052
 8310SOL     OW36391   0.517   4.287   4.251 -0.4379  0.8347 -0.8179
 8310SOL    HW136392   0.499   4.244   4.334 -0.0087  1.0497 -0.6086
 8310SOL    HW236393   0.510   4.379   4.276  0.8257  0.8952 -0.6501
 8311SOL     OW36394   3.075   2.023   7.934  0.0262 -0.1427 -0.0429
 8311SOL    HW136395   3.060   2.088   8.003  0.1655 -1.2754  1.0583
 8311SOL    HW236396   3.067   2.082   7.859 -2.9297 -2.0400 -1.2431
 8312SOL     OW36397   2.610   4.708   0.272 -0.1432 -0.0713 -0.2286
 8312SOL    HW136398   2.545   4.670   0.331 -0.1176  2.5385  1.4641
 8312SOL    HW236399   2.690   4.667   0.304  0.2477 -0.1227 -1.2581
 8313SOL     OW36400   1.203   1.624  16.052  0.1506  0.4100 -0.1098
 8313SOL    HW136401   1.189   1.695  15.990 -0.7943  1.5455  1.4099
 8313SOL    HW236402   1.216   1.674  16.133 -2.1837 -1.3159  1.3391
 8314SOL     OW36403   2.969   2.899   5.473  0.4169 -0.4710 -0.2608
 8314SOL    HW136404   2.969   2.918   5.567 -0.6693 -0.8143 -0.1949
 8314SOL    HW236405   2.920   2.817   5.476  1.2750 -0.9586  0.3369
 8315SOL     OW36406   2.018   3.264   8.563 -0.3956  0.7543  0.1867
 8315SOL    HW136407   2.043   3.351   8.593  1.3493  0.3293 -0.0050
 8315SOL    HW236408   2.095   3.248   8.508  0.2667  2.1128  0.7194
 8316SOL     OW36409   0.758   1.743   3.680 -0.5675  0.4783 -0.0945
 8316SOL    HW136410   0.682   1.729   3.623  1.4831 -3.4471 -1.8824
 8316SOL    HW236411   0.756   1.836   3.702  1.3908  1.1069 -2.6130
 8317SOL     OW36412   3.228   4.498   3.185  0.0974  0.0195  0.3808
 8317SOL    HW136413   3.240   4.561   3.114 -2.3713 -1.9386 -1.7878
 8317SOL    HW236414   3.135   4.478   3.171  0.6158 -3.2401  1.4595
 8318SOL     OW36415   3.322   1.231   6.013  0.0014  0.6101  0.2245
 8318SOL    HW136416   3.311   1.270   5.926  0.9204 -0.1548 -0.2384
 8318SOL    HW236417   3.372   1.152   5.994 -0.1283  0.6798 -0.4040
 8319SOL     OW36418   0.702   2.295  13.205  0.9069 -0.7104  0.0115
 8319SOL    HW136419   0.610   2.277  13.185  0.9007 -0.6012 -0.0600
 8319SOL    HW236420   0.689   2.358  13.277 -0.6641 -0.9346 -0.0786
 8320SOL     OW36421   1.144   1.565   1.268 -0.3375 -0.1966 -0.1956
 8320SOL    HW136422   1.070   1.555   1.328 -2.1296  0.3855 -2.2908
 8320SOL    HW236423   1.150   1.660   1.258  1.2009 -0.1575  1.1679
 8321SOL     OW36424   2.573   1.703   6.416 -0.2892  0.0044 -0.1609
 8321SOL    HW136425   2.667   1.715   6.399 -0.2681 -0.7447 -0.5722
 8321SOL    HW236426   2.559   1.611   6.396 -1.1740  0.1623 -0.2615
 8322SOL     OW36427   0.272   1.678   7.215 -0.5544 -0.2812  0.7851
 8322SOL    HW136428   0.310   1.591   7.225  1.8173  0.7595  0.7595
 8322SOL    HW236429   0.178   1.664   7.200 -0.2498 -2.6168  1.0427
 8323SOL     OW36430   4.638   4.212   7.670 -0.1639  0.6126 -0.3628
 8323SOL    HW136431   4.665   4.121   7.664 -1.7683  0.1919 -1.2294
 8323SOL    HW236432   4.601   4.223   7.758  0.3271  1.9370 -0.3275
 8324SOL     OW36433   3.408   3.199  12.198 -0.1483 -0.1979  0.3286
 8324SOL    HW136434   3.337   3.219  12.260  1.2150  1.7412  1.2583
 8324SOL    HW236435   3.434   3.108  12.213  0.1614 -0.3327 -1.0563
 8325SOL     OW36436   0.021   3.543   7.741  0.2307  0.1546  0.1615
 8325SOL    HW136437   0.073   3.473   7.782  0.8989  1.2129  1.1173
 8325SOL    HW236438   4.676   3.564   7.810 -0.0239 -2.8683  0.8391
 8326SOL     OW36439   0.350   3.177   2.431  0.4422 -0.1088  0.4793
 8326SOL    HW136440   0.303   3.094   2.425  0.7491 -0.1520 -1.1237
 8326SOL    HW236441   0.397   3.178   2.348 -0.7268 -1.0137 -0.1916
 8327SOL     OW36442   4.294   1.281   2.216  0.0707  0.0973 -0.4129
 8327SOL    HW136443   4.250   1.318   2.293 -0.6824  0.2532 -0.9202
 8327SOL    HW236444   4.363   1.233   2.262  0.3113 -0.2602 -1.1479
 8328SOL     OW36445   1.214   2.411  11.783  0.0783  0.0693 -0.3234
 8328SOL    HW136446   1.231   2.494  11.738 -0.1904  0.9856  1.2722
 8328SOL    HW236447   1.224   2.348  11.712 -2.2805 -0.9027  0.2197
 8329SOL     OW36448   4.323   3.495   1.452  0.4668  0.2921 -0.5887
 8329SOL    HW136449   4.287   3.574   1.493  1.5359  0.8600 -0.7365
 8329SOL    HW236450   4.389   3.530   1.391  0.5711 -0.4643 -0.9166
 8330SOL     OW36451   3.270   1.729  17.267 -0.2130  0.0446 -0.5777
 8330SOL    HW136452   3.174   1.732  17.268 -0.1641  1.6557  0.0844
 8330SOL    HW236453   3.292   1.690  17.352 -0.7988  0.0797 -0.4098
 8331SOL     OW36454   3.838   0.211   3.854  0.3589  1.0908 -0.4710
 8331SOL    HW136455   3.805   0.261   3.929  0.5822  0.5541 -0.0130
 8331SOL    HW236456   3.769   0.150   3.830  0.6595  0.0237  1.3944
 8332SOL     OW36457   3.507   0.107   6.075 -0.3303 -0.4675 -0.1349
 8332SOL    HW136458   3.421   0.077   6.106  0.7244 -3.4862 -0.1456
 8332SOL    HW236459   3.560   0.027   6.074 -0.9924 -0.9204  0.1710
 8333SOL     OW36460   1.577   0.481   0.572  0.7046  0.2493 -0.5731
 8333SOL    HW136461   1.504   0.542   0.560 -0.9115 -1.2858  1.4410
 8333SOL    HW236462   1.633   0.539   0.623  0.1112 -1.1601  1.6454
 8334SOL     OW36463   1.221   2.502   6.850 -0.2342 -0.4478  0.1614
 8334SOL    HW136464   1.126   2.516   6.856 -0.1053 -0.3945  2.2372
 8334SOL    HW236465   1.230   2.452   6.769  0.7083 -0.5627  0.3474
 8335SOL     OW36466   0.002   4.330   4.860 -0.1309 -0.2833  0.2520
 8335SOL    HW136467   0.045   4.390   4.799 -1.4440 -1.7836 -2.1236
 8335SOL    HW236468   4.627   4.349   4.847 -0.4532 -2.8330 -0.9626
 8336SOL     OW36469   0.260   2.828   4.790 -0.3325  0.1876  0.3677
 8336SOL    HW136470   0.228   2.914   4.817 -2.2835 -0.1664 -0.7897
 8336SOL    HW236471   0.355   2.842   4.788 -0.4278  0.8055  0.0034
 8337SOL     OW36472   1.136   3.132  13.781 -0.2069 -0.5096  0.0749
 8337SOL    HW136473   1.221   3.170  13.807 -1.4981  1.6143  1.2489
 8337SOL    HW236474   1.080   3.144  13.857 -1.0557 -0.3757 -0.5739
 8338SOL     OW36475   1.659   3.676   8.391 -0.5043 -0.1319  0.3804
 8338SOL    HW136476   1.638   3.623   8.314  0.5682 -0.2931  0.1899
 8338SOL    HW236477   1.675   3.764   8.357  0.5870  0.0955  1.4928
 8339SOL     OW36478   4.486   3.946  11.470  0.4631 -0.0786 -0.4477
 8339SOL    HW136479   4.413   3.939  11.532  1.4910 -1.8579  0.5438
 8339SOL    HW236480   4.467   4.027  11.423  1.6342  0.2687 -0.3207
 8340SOL     OW36481   1.593   0.048  13.495  0.2991  0.5559  0.4050
 8340SOL    HW136482   1.561   4.708  13.426  0.6092 -1.5882  2.0103
 8340SOL    HW236483   1.629   4.689  13.541 -2.2596 -1.1955 -0.4833
 8341SOL     OW36484   3.642   2.200  15.799 -0.5177  0.2628  0.4106
 8341SOL    HW136485   3.592   2.128  15.759 -0.7798  0.9694 -0.5319
 8341SOL    HW236486   3.713   2.161  15.848 -0.2404  0.6195  0.2956
 8342SOL     OW36487   2.097   4.054  13.229  0.0166 -0.1964  0.0570
 8342SOL    HW136488   2.070   4.033  13.140  0.4564  0.9711 -0.3418
 8342SOL    HW236489   2.149   4.133  13.218 -1.7972  1.3128  2.2333
 8343SOL     OW36490   3.922   1.604  16.254 -0.2146  0.6828  0.1222
 8343SOL    HW136491   3.830   1.606  16.227 -1.2969  0.6459  3.7950
 8343SOL    HW236492   3.907   1.593  16.348  0.3208 -1.4219 -0.0412
 8344SOL     OW36493   1.508   1.569  15.070 -0.3268  0.1044 -0.7721
 8344SOL    HW136494   1.538   1.659  15.079 -0.3488  0.1575 -1.2253
 8344SOL    HW236495   1.595   1.529  15.081  0.4815  1.5570 -1.8955
 8345SOL     OW36496   4.658   0.718   5.271  0.1641  0.9462 -0.0235
 8345SOL    HW136497   4.574   0.676   5.256  1.9715 -1.7296 -2.5883
 8345SOL    HW236498   4.634   0.808   5.294  2.3513  1.5508 -0.1410
 8346SOL     OW36499   3.900   1.005   7.636  0.2058  0.2133 -0.1255
 8346SOL    HW136500   3.934   1.052   7.712  0.2104 -2.0607  1.2715
 8346SOL    HW236501   3.972   1.014   7.574  0.7443 -1.4645  0.2773
 8347SOL     OW36502   2.011   1.437   4.162  0.5752  0.0289  0.6579
 8347SOL    HW136503   2.103   1.444   4.186  1.1257  0.6902 -1.6508
 8347SOL    HW236504   1.961   1.451   4.242  2.5535  4.5987  1.0707
 8348SOL     OW36505   1.334   0.370  11.955 -0.5288  0.9218 -0.1211
 8348SOL    HW136506   1.424   0.379  11.924  0.2282 -1.2474  1.5272
 8348SOL    HW236507   1.315   0.276  11.948 -0.4491  1.0088 -1.5425
 8349SOL     OW36508   3.917   2.815   0.279 -0.0920  0.6076  0.6598
 8349SOL    HW136509   3.857   2.791   0.209  0.0267 -1.8948  1.4131
 8349SOL    HW236510   3.934   2.910   0.277  0.9196  0.4120  0.1188
 8350SOL     OW36511   1.975   0.433  10.860  0.7425  0.3588  0.2014
 8350SOL    HW136512   2.062   0.469  10.876  0.4562  0.3262  1.8623
 8350SOL    HW236513   1.980   0.339  10.875 -0.0589 -0.1538 -2.7817
 8351SOL     OW36514   1.371   2.110   4.951 -0.3374 -0.1858  0.2929
 8351SOL    HW136515   1.454   2.080   4.989  0.4714  0.8029 -0.6872
 8351SOL    HW236516   1.401   2.111   4.860  1.1243 -1.1704  0.7519
 8352SOL     OW36517   0.065   4.445   3.099 -0.7894  0.5278 -0.8490
 8352SOL    HW136518   0.072   4.525   3.047  1.3746  1.6428  1.1859
 8352SOL    HW236519   0.075   4.382   3.028  0.9935  0.6695 -0.7025
 8353SOL     OW36520   3.517   4.608   7.815  0.3622 -0.3582  0.1363
 8353SOL    HW136521   3.440   4.652   7.851 -1.7300 -1.7450 -2.6372
 8353SOL    HW236522   3.487   4.518   7.804 -0.7811  0.1353 -0.8001
 8354SOL     OW36523   3.671   0.027   4.661  0.1877  0.1615 -0.1693
 8354SOL    HW136524   3.604   0.055   4.599  2.1535  0.4902 -2.1374
 8354SOL    HW236525   3.674   0.095   4.728  0.3723  0.5428 -0.5614
 8355SOL     OW36526   2.282   4.086   5.078 -0.5620  0.0707 -0.2583
 8355SOL    HW136527   2.248   3.999   5.055 -0.2166 -0.1025 -0.1117
 8355SOL    HW236528   2.363   4.065   5.124 -0.8608 -2.2434 -0.7537
 8356SOL     OW36529   0.279   3.068   3.467 -0.0804  0.0029  0.0978
 8356SOL    HW136530   0.217   3.042   3.399 -0.2732  0.3705  0.1326
 8356SOL    HW236531   0.362   3.055   3.420 -0.9471  1.1794 -1.7749
 8357SOL     OW36532   2.989   4.463   5.478  0.6299  0.5609 -0.4024
 8357SOL    HW136533   3.082   4.481   5.460  0.9539 -1.7692 -1.0418
 8357SOL    HW236534   2.969   4.457   5.384  2.0675  1.3293 -0.7641
 8358SOL     OW36535   3.993   3.160   2.101 -0.1153 -0.5464 -0.4507
 8358SOL    HW136536   3.899   3.147   2.086 -0.3219 -1.5172  1.5100
 8358SOL    HW236537   4.014   3.224   2.034 -0.9320  1.1629  0.9325
 8359SOL     OW36538   3.293   4.520   5.077 -0.0782 -0.2961 -0.1391
 8359SOL    HW136539   3.283   4.475   4.993 -0.1673  1.1166 -0.8887
 8359SOL    HW236540   3.380   4.556   5.058  0.1582 -1.5379 -1.3747
 8360SOL     OW36541   0.598   2.935  10.538 -0.1670  0.5506  0.5661
 8360SOL    HW136542   0.583   2.872  10.468  2.8825  0.8498 -0.3663
 8360SOL    HW236543   0.507   2.945  10.567 -0.2201  2.0318 -0.1321
 8361SOL     OW36544   2.141   3.748   7.834  0.4494 -0.1437 -0.1686
 8361SOL    HW136545   2.137   3.773   7.742  1.8230 -0.9777 -0.4475
 8361SOL    HW236546   2.226   3.704   7.838  1.0654  1.1983  1.5715
 8362SOL     OW36547   2.664   0.011   8.844 -0.0712 -0.6234  0.1470
 8362SOL    HW136548   2.581   0.002   8.892  0.1542  1.9634  1.0113
 8362SOL    HW236549   2.700   0.079   8.901 -1.8382  0.4672 -0.0334
 8363SOL     OW36550   1.379   1.034   5.487  0.1660  0.4462 -0.3977
 8363SOL    HW136551   1.457   1.011   5.437 -0.6645  0.0624 -1.5198
 8363SOL    HW236552   1.405   1.024   5.578 -2.1049 -0.1380  0.1887
 8364SOL     OW36553   2.899   1.398  16.918  0.2011 -0.5627 -0.4566
 8364SOL    HW136554   2.938   1.315  16.945  0.2276 -0.6936 -0.9144
 8364SOL    HW236555   2.970   1.448  16.877  0.1116 -0.5573 -0.6040
 8365SOL     OW36556   0.068   3.273   1.836  0.6206 -0.0852 -0.0841
 8365SOL    HW136557   4.705   3.221   1.840  1.3483 -1.2661 -0.7066
 8365SOL    HW236558   0.046   3.350   1.783  1.4214 -0.6618 -1.2645
 8366SOL     OW36559   1.799   3.085   7.885  0.4941 -0.3438 -0.3275
 8366SOL    HW136560   1.838   2.998   7.897  0.3125 -0.6163 -1.7019
 8366SOL    HW236561   1.864   3.151   7.910  0.3092 -1.8350  4.1497
 8367SOL     OW36562   1.781   0.623   5.411 -0.2302 -0.0629 -0.7212
 8367SOL    HW136563   1.744   0.581   5.333 -0.4579 -0.6797 -0.2813
 8367SOL    HW236564   1.800   0.543   5.460 -2.7495 -0.0589  0.2448
 8368SOL     OW36565   2.677   3.534   3.361  0.1185 -0.0676 -0.3851
 8368SOL    HW136566   2.653   3.479   3.287 -3.6598  0.3590  0.4905
 8368SOL    HW236567   2.651   3.620   3.327 -0.7061 -0.2438 -0.1987
 8369SOL     OW36568   1.287   2.976   3.782 -0.2972 -0.2898  0.0264
 8369SOL    HW136569   1.373   2.934   3.787 -0.6180 -1.1582 -1.5421
 8369SOL    HW236570   1.324   3.064   3.769 -1.0006  0.3362  2.3752
 8370SOL     OW36571   3.506   1.429   2.872  0.5557 -0.1750 -0.1623
 8370SOL    HW136572   3.531   1.379   2.951 -2.6500 -1.0796  0.2603
 8370SOL    HW236573   3.454   1.501   2.907  2.2298  0.4554  1.0432
 8371SOL     OW36574   0.905   2.185   8.031  0.1963  0.1079  0.1256
 8371SOL    HW136575   0.842   2.256   8.020 -2.9638 -2.6295  0.5714
 8371SOL    HW236576   0.985   2.234   8.016  1.4395 -2.1705 -0.7072
 8372SOL     OW36577   0.650   2.599   5.179 -0.0383  0.5498  0.3425
 8372SOL    HW136578   0.619   2.568   5.264 -1.9433  0.4937 -0.3712
 8372SOL    HW236579   0.706   2.531   5.141 -0.8915  0.4599 -0.7633
 8373SOL     OW36580   0.091   0.042  17.649 -0.0963 -0.6870  0.1645
 8373SOL    HW136581   0.154   0.106  17.615  0.2108  0.1354  2.3264
 8373SOL    HW236582   0.110   4.685  17.591 -3.1637  0.5279 -2.4007
 8374SOL     OW36583   4.122   3.043  14.063  0.1563  0.7295  0.1633
 8374SOL    HW136584   4.190   2.998  14.013  1.6637  0.4452  2.4237
 8374SOL    HW236585   4.057   3.065  13.997  1.9035  0.5755 -1.5912
 8375SOL     OW36586   4.276   3.430   5.300  0.0846  0.4315 -0.5547
 8375SOL    HW136587   4.227   3.357   5.337  1.7114 -1.8286 -2.9381
 8375SOL    HW236588   4.203   3.490   5.282 -1.5666 -1.2311  0.6232
 8376SOL     OW36589   1.052   2.232   6.708 -0.5956  0.0035  0.0573
 8376SOL    HW136590   1.015   2.300   6.764  0.8762  0.9793 -0.1576
 8376SOL    HW236591   1.018   2.250   6.621 -1.3526 -0.0232  0.3452
 8377SOL     OW36592   4.578   1.864   3.563  0.2930 -0.6269  0.0087
 8377SOL    HW136593   4.509   1.930   3.559 -0.2337 -1.1887 -0.1446
 8377SOL    HW236594   4.653   1.917   3.592 -0.7735  0.8961 -0.0076
 8378SOL     OW36595   2.106   3.885   8.760 -0.2955 -0.4253  0.2731
 8378SOL    HW136596   2.047   3.951   8.722 -2.1725 -1.8396  0.7252
 8378SOL    HW236597   2.049   3.810   8.744 -0.1669 -0.3813 -0.3826
 8379SOL     OW36598   2.685   3.301   5.943  0.0255  0.1055  0.5189
 8379SOL    HW136599   2.733   3.301   5.861  1.5818 -0.4705  1.4286
 8379SOL    HW236600   2.748   3.359   5.986 -0.2814  1.1455 -0.4385
 8380SOL     OW36601   2.059   3.319   6.268 -0.0977  0.0506 -0.2058
 8380SOL    HW136602   2.126   3.304   6.335 -1.2489  1.3730  1.2466
 8380SOL    HW236603   1.980   3.281   6.305  0.2640  0.0113  0.5197
 8381SOL     OW36604   4.502   1.691  11.464 -0.2704  0.3195  0.3059
 8381SOL    HW136605   4.433   1.684  11.398  0.5052 -0.9105 -0.3674
 8381SOL    HW236606   4.479   1.772  11.510  0.2973 -0.2422  1.6026
 8382SOL     OW36607   4.150   2.019  10.272 -0.1928 -0.3961 -1.0047
 8382SOL    HW136608   4.102   1.938  10.292 -2.1908  1.2547  0.7832
 8382SOL    HW236609   4.076   2.070  10.305  1.3439  1.3233 -0.2854
 8383SOL     OW36610   0.523   1.500  10.245  0.1195  0.4746 -0.2752
 8383SOL    HW136611   0.459   1.459  10.303 -0.8255  1.5996 -0.5272
 8383SOL    HW236612   0.594   1.502  10.309  0.6400  1.0494 -0.8657
 8384SOL     OW36613   3.814   0.310   7.665 -0.0235  0.0779  0.3522
 8384SOL    HW136614   3.814   0.314   7.761 -2.0046 -1.2554  0.3940
 8384SOL    HW236615   3.774   0.225   7.649  0.6266 -0.1219 -0.1925
 8385SOL     OW36616   4.398   1.190   5.783  0.2807  0.4313 -0.1916
 8385SOL    HW136617   4.404   1.161   5.692 -2.6726  0.3310 -0.3471
 8385SOL    HW236618   4.463   1.141   5.833  0.1473  1.2774  0.8119
 8386SOL     OW36619   0.161   0.591   1.881  0.2611 -0.2170  0.0721
 8386SOL    HW136620   0.250   0.560   1.860  0.5217 -0.2713  1.2454
 8386SOL    HW236621   0.122   0.573   1.796  0.8258 -0.3130 -0.1700
 8387SOL     OW36622   3.850   1.350   1.211  0.2429  0.3438  0.6874
 8387SOL    HW136623   3.808   1.418   1.264 -2.3884 -0.9642  0.2821
 8387SOL    HW236624   3.769   1.308   1.181  0.9791  0.0140 -0.7998
 8388SOL     OW36625   3.340   3.555   2.245  0.0598  0.7878 -0.0525
 8388SOL    HW136626   3.277   3.620   2.276  1.3991  0.7060  2.8689
 8388SOL    HW236627   3.288   3.488   2.199 -1.4113  2.7453 -1.2297
 8389SOL     OW36628   1.275   4.665   7.421  0.3123  0.5044 -0.4501
 8389SOL    HW136629   1.315   0.031   7.445 -0.6275  0.4586  1.2171
 8389SOL    HW236630   1.279   4.667   7.325  0.4794 -4.0714 -0.5720
 8390SOL     OW36631   2.538   3.051   5.107 -0.3393 -0.3575  0.0945
 8390SOL    HW136632   2.572   3.004   5.183 -0.2332 -1.3892 -0.5888
 8390SOL    HW236633   2.499   3.118   5.163 -0.2241  2.4371 -3.1828
 8391SOL     OW36634   2.383   2.114   2.158 -0.3139  0.5311 -0.2798
 8391SOL    HW136635   2.327   2.154   2.091 -1.4654 -0.3307  0.1815
 8391SOL    HW236636   2.467   2.099   2.115  1.3210  2.6195  2.2145
 8392SOL     OW36637   3.669   1.443   8.086 -0.3979 -0.5457  0.3823
 8392SOL    HW136638   3.710   1.399   8.011  1.8392  2.2792 -0.0653
 8392SOL    HW236639   3.593   1.388   8.106 -1.5904  1.2486  0.7530
 8393SOL     OW36640   3.407   1.076   1.761  0.1901  0.7149  0.4942
 8393SOL    HW136641   3.386   1.103   1.672 -0.5542  1.1397  0.7947
 8393SOL    HW236642   3.446   1.154   1.800 -2.1956  1.6048  1.0740
 8394SOL     OW36643   3.472   3.479  11.952  0.6774  0.0322 -0.0833
 8394SOL    HW136644   3.406   3.424  11.910  0.1430  0.4828  0.1699
 8394SOL    HW236645   3.495   3.424  12.026  0.0478 -1.4225 -0.9826
 8395SOL     OW36646   0.867   0.827   6.996 -0.0442 -0.2522  0.4073
 8395SOL    HW136647   0.927   0.809   6.923  2.4088 -1.4823  2.7020
 8395SOL    HW236648   0.934   0.834   7.065  1.3101 -0.5533 -0.8746
 8396SOL     OW36649   1.688   1.179   8.884 -0.3984  0.4031 -0.3392
 8396SOL    HW136650   1.614   1.191   8.944  0.7656 -0.2974  1.2141
 8396SOL    HW236651   1.740   1.116   8.933  0.6444  0.1435 -1.7672
 8397SOL     OW36652   3.902   1.816   4.800 -0.0617  0.3421  0.0924
 8397SOL    HW136653   3.916   1.872   4.724  1.3531  0.3210  0.3307
 8397SOL    HW236654   3.935   1.736   4.760 -1.4279  0.4269 -1.1928
 8398SOL     OW36655   1.327   0.224   6.996 -0.1479  0.4358  0.1134
 8398SOL    HW136656   1.262   0.291   6.973 -0.2601 -0.7767 -3.0383
 8398SOL    HW236657   1.403   0.282   7.009 -3.0641  3.9955  1.5151
 8399SOL     OW36658   4.136   0.814  15.758  0.0544  0.1322  0.1756
 8399SOL    HW136659   4.168   0.898  15.724  1.3024 -1.0040 -1.4871
 8399SOL    HW236660   4.149   0.762  15.679 -0.4295  0.1729  0.0681
 8400SOL     OW36661   1.067   3.993  15.947 -0.4937 -0.2176  0.1945
 8400SOL    HW136662   1.000   4.050  15.984  0.7373  0.3298  1.5853
 8400SOL    HW236663   1.013   3.927  15.903 -1.9225  1.3413 -0.3729
 8401SOL     OW36664   2.587   3.498   9.480 -0.2191 -0.4165 -0.6390
 8401SOL    HW136665   2.518   3.534   9.535 -0.0211  0.5327 -1.0188
 8401SOL    HW236666   2.606   3.573   9.424  0.8228 -1.6566 -1.9679
 8402SOL     OW36667   0.681   0.370   2.402 -0.2514 -0.2774 -0.8280
 8402SOL    HW136668   0.591   0.402   2.392 -0.1320  0.1564 -0.4967
 8402SOL    HW236669   0.684   0.288   2.354  2.4165 -0.5646 -0.1706
 8403SOL     OW36670   1.246   4.269   6.856  0.3615 -0.2723  0.2474
 8403SOL    HW136671   1.165   4.240   6.813  0.7896 -1.2901  0.1348
 8403SOL    HW236672   1.250   4.204   6.926 -1.2176 -0.4269  0.1960
 8404SOL     OW36673   2.531   0.348  17.204  0.5702  0.6372  0.4887
 8404SOL    HW136674   2.500   0.272  17.154  3.3984  0.0350 -0.3914
 8404SOL    HW236675   2.549   0.304  17.287 -1.3866 -0.1118  0.5037
 8405SOL     OW36676   0.732   1.633   7.045 -0.4471  0.1243 -0.4066
 8405SOL    HW136677   0.690   1.576   6.980  2.0230 -1.0115 -0.9828
 8405SOL    HW236678   0.817   1.639   7.002 -0.7207  3.4366 -0.4937
 8406SOL     OW36679   2.243   0.254   6.386  0.4763 -0.0758 -0.0159
 8406SOL    HW136680   2.166   0.203   6.408 -0.5611  0.4525 -2.4204
 8406SOL    HW236681   2.311   0.199   6.425  2.2641  1.2477 -1.2675
 8407SOL     OW36682   1.514   3.953  12.121 -0.1753 -0.3086  0.6849
 8407SOL    HW136683   1.561   3.987  12.045 -1.3834  0.6206  0.3702
 8407SOL    HW236684   1.557   3.998  12.194  0.1124  2.3175 -1.0728
 8408SOL     OW36685   3.250   4.398   5.899 -0.5437 -0.1064 -0.3528
 8408SOL    HW136686   3.286   4.474   5.853 -0.2028 -0.2713 -0.3638
 8408SOL    HW236687   3.326   4.388   5.956 -0.9824 -0.8813  0.0996
 8409SOL     OW36688   2.765   0.712  17.287 -0.3853  0.0937  0.6757
 8409SOL    HW136689   2.762   0.646  17.356  1.0097 -0.5440  0.1254
 8409SOL    HW236690   2.675   0.707  17.255 -0.6068  0.0784  1.3036
 8410SOL     OW36691   3.170   4.206   9.715  0.9184  0.3065  0.0501
 8410SOL    HW136692   3.182   4.114   9.688 -2.1168 -0.2657  0.6416
 8410SOL    HW236693   3.221   4.210   9.795 -1.6257 -0.1057  1.6867
 8411SOL     OW36694   0.294   2.518   7.125 -0.2828  0.2078 -0.2105
 8411SOL    HW136695   0.328   2.581   7.062  0.3273  3.0101  2.9484
 8411SOL    HW236696   0.199   2.525   7.109 -0.0677  5.9533  1.0307
 8412SOL     OW36697   3.571   2.235  12.030 -0.4825  0.1863 -0.2432
 8412SOL    HW136698   3.528   2.158  11.991  0.5646 -0.1938 -0.6619
 8412SOL    HW236699   3.654   2.197  12.060 -1.1505 -1.2707 -0.2354
 8413SOL     OW36700   1.812   4.552   6.396 -0.0592  0.3175  0.1913
 8413SOL    HW136701   1.862   4.524   6.320 -1.5396  1.3053 -1.1364
 8413SOL    HW236702   1.780   4.473   6.440 -0.2262  0.1426 -0.2499
 8414SOL     OW36703   2.030   2.991  10.027  0.0110  0.4391 -0.2416
 8414SOL    HW136704   2.004   2.910  10.070  1.1658 -0.1529 -0.6469
 8414SOL    HW236705   2.082   3.031  10.096 -0.3361 -0.5276  0.5813
 8415SOL     OW36706   2.552   4.637   4.629 -0.2686 -0.8151  0.0846
 8415SOL    HW136707   2.520   4.674   4.547  1.7827 -1.5937 -1.0709
 8415SOL    HW236708   2.503   4.556   4.615 -1.0128 -0.1997 -0.8113
 8416SOL     OW36709   0.276   0.664   6.414 -0.0459  0.3037  0.2001
 8416SOL    HW136710   0.206   0.626   6.361  2.8377  0.6170 -3.8052
 8416SOL    HW236711   0.308   0.742   6.368  0.4976  1.8362  3.1935
 8417SOL     OW36712   3.328   2.738   6.714 -0.2352  0.1377 -0.1005
 8417SOL    HW136713   3.335   2.834   6.719 -1.9198  0.1398  2.0820
 8417SOL    HW236714   3.281   2.721   6.632 -2.0956  2.8699  0.4200
 8418SOL     OW36715   2.685   1.957   4.485  0.3924 -0.6625 -0.2303
 8418SOL    HW136716   2.665   1.926   4.574  1.1870  1.4927  0.6947
 8418SOL    HW236717   2.721   1.875   4.451 -3.7496 -1.7558 -2.0286
 8419SOL     OW36718   4.337   0.771  17.460 -0.1267 -0.6543 -0.4976
 8419SOL    HW136719   4.361   0.738  17.546  0.0738 -0.2572 -0.4008
 8419SOL    HW236720   4.333   0.688  17.412  0.9271 -1.6183  1.0732
 8420SOL     OW36721   1.688   3.370   3.262 -0.1872  0.4612  0.1420
 8420SOL    HW136722   1.777   3.390   3.234  0.2806 -2.5874 -0.6004
 8420SOL    HW236723   1.655   3.327   3.183 -3.6929  4.8882 -0.7549
 8421SOL     OW36724   1.400   3.818   8.260  0.7315  0.3010  0.9230
 8421SOL    HW136725   1.314   3.779   8.279  0.5362  0.0569 -0.4434
 8421SOL    HW236726   1.454   3.797   8.335 -0.3659  1.2298  1.9751
 8422SOL     OW36727   3.573   1.798   1.644 -0.6239  0.0190 -0.1533
 8422SOL    HW136728   3.608   1.709   1.643 -0.7576 -0.0496  1.3169
 8422SOL    HW236729   3.600   1.821   1.733  0.1260 -2.3624  0.2547
 8423SOL     OW36730   2.757   4.443   4.524 -0.4308 -0.9846  0.6692
 8423SOL    HW136731   2.804   4.360   4.517  1.6711  0.4267 -2.0695
 8423SOL    HW236732   2.681   4.419   4.578  1.0422 -2.1091  2.2461
 8424SOL     OW36733   3.953   2.931  15.636  0.2629 -0.3606 -0.2557
 8424SOL    HW136734   3.899   2.997  15.680 -0.3402 -0.6973 -0.4956
 8424SOL    HW236735   4.029   2.927  15.694  0.0428  0.6035  0.0940
 8425SOL     OW36736   0.591   1.806   4.116 -0.5317  0.1171  0.1400
 8425SOL    HW136737   0.618   1.868   4.049  2.7434 -0.0610  1.3167
 8425SOL    HW236738   0.619   1.857   4.191 -0.6487  1.9088 -1.0478
 8426SOL     OW36739   0.376   0.823   7.125  0.0984 -0.0468  1.2553
 8426SOL    HW136740   0.291   0.861   7.107 -0.3037 -1.4870  0.1337
 8426SOL    HW236741   0.342   0.734   7.137 -0.1256 -0.2336 -0.7933
 8427SOL     OW36742   1.466   3.290  14.982  0.7894  0.1894  0.4481
 8427SOL    HW136743   1.440   3.207  15.021  1.7504 -1.0525 -1.5636
 8427SOL    HW236744   1.554   3.285  14.945  1.1044 -0.3015  1.2833
 8428SOL     OW36745   3.448   2.484   4.482  0.8758  0.4798  0.0934
 8428SOL    HW136746   3.511   2.414   4.495  0.6241  0.1653 -0.3630
 8428SOL    HW236747   3.486   2.548   4.542 -2.9648  3.1892 -0.3070
 8429SOL     OW36748   1.043   0.252   6.747 -0.0055 -0.5846  0.4217
 8429SOL    HW136749   1.094   0.171   6.752 -0.3136 -0.6738  2.3333
 8429SOL    HW236750   1.068   0.296   6.666  2.8474 -0.9753  1.0995
 8430SOL     OW36751   2.727   1.977   2.827  0.9842  0.5539 -0.4183
 8430SOL    HW136752   2.755   2.068   2.838 -0.1682  0.6139  1.9631
 8430SOL    HW236753   2.658   1.967   2.893  1.2832 -2.3800 -0.5733
 8431SOL     OW36754   3.061   0.805   8.799 -0.4139 -0.1523  0.4091
 8431SOL    HW136755   3.000   0.755   8.854 -1.0124  0.6883  0.5108
 8431SOL    HW236756   3.047   0.765   8.714  0.2685 -0.8576  0.6257
 8432SOL     OW36757   0.739   3.765   9.299 -0.0850 -0.0538 -0.5557
 8432SOL    HW136758   0.673   3.819   9.343  0.5881 -0.1395  0.5520
 8432SOL    HW236759   0.683   3.688   9.288  0.7259 -0.4615 -1.8167
 8433SOL     OW36760   1.600   4.526   4.122  0.5464  0.5179  0.3576
 8433SOL    HW136761   1.530   4.592   4.125 -0.9660 -1.1552  2.4571
 8433SOL    HW236762   1.621   4.518   4.029  0.3110 -1.3345  0.4527
 8434SOL     OW36763   1.949   4.286   6.958  0.2020 -0.0850 -0.2931
 8434SOL    HW136764   1.899   4.283   6.876  1.1555  1.4368 -0.9276
 8434SOL    HW236765   2.024   4.228   6.940 -0.2925 -1.2645  1.4053
 8435SOL     OW36766   1.796   2.931   6.653  0.3168 -0.1579  0.5633
 8435SOL    HW136767   1.742   3.009   6.657 -1.9073 -1.4979 -3.3221
 8435SOL    HW236768   1.869   2.966   6.602 -1.3559 -0.3014 -1.9220
 8436SOL     OW36769   3.999   4.448   4.169  0.2342 -0.2270  0.4656
 8436SOL    HW136770   3.911   4.444   4.206  1.3467  0.2081  3.1573
 8436SOL    HW236771   3.997   4.372   4.110  1.4900  0.4970 -0.5272
 8437SOL     OW36772   1.100   4.336   9.885 -0.1093  0.0975 -0.7126
 8437SOL    HW136773   1.190   4.303   9.888 -0.9393 -1.9167  2.1075
 8437SOL    HW236774   1.067   4.281   9.956 -1.1072 -1.4997 -2.4508
 8438SOL     OW36775   3.747   3.242   0.188 -0.7389 -0.6077 -0.0061
 8438SOL    HW136776   3.775   3.180   0.120  0.9597  1.4173 -1.1633
 8438SOL    HW236777   3.817   3.306   0.196 -1.5728  0.4530 -1.2142
 8439SOL     OW36778   2.982   4.269   8.065  0.0765  0.1058  0.1706
 8439SOL    HW136779   2.979   4.235   7.976  1.6141 -0.2873  0.2667
 8439SOL    HW236780   3.066   4.314   8.068  0.6350 -0.8466 -1.6867
 8440SOL     OW36781   2.980   4.501   3.647  0.8026 -0.1129 -0.2817
 8440SOL    HW136782   2.990   4.425   3.590 -1.8052  0.3224 -1.3261
 8440SOL    HW236783   2.947   4.568   3.587  0.6008  0.8004  0.8424
 8441SOL     OW36784   4.244   0.608   1.253  0.2569 -1.0343  0.1966
 8441SOL    HW136785   4.181   0.594   1.324 -2.2677 -0.0918 -1.8507
 8441SOL    HW236786   4.237   0.522   1.212  1.0060 -1.7022  1.4367
 8442SOL     OW36787   2.501   1.550   1.737  0.6030  0.2799  0.3185
 8442SOL    HW136788   2.478   1.493   1.810  1.1754  0.1391  0.3830
 8442SOL    HW236789   2.590   1.571   1.763  1.2012 -2.1385  0.1801
 8443SOL     OW36790   4.630   0.940   4.811 -0.5791  0.1656 -0.9253
 8443SOL    HW136791   4.714   0.960   4.853 -0.8417 -0.7940  0.0772
 8443SOL    HW236792   4.586   0.897   4.885 -1.7723 -0.9904 -2.3099
 8444SOL     OW36793   1.300   4.428   3.908 -0.1434  0.1364  0.3506
 8444SOL    HW136794   1.254   4.430   3.824 -0.0342  1.8280  0.3251
 8444SOL    HW236795   1.222   4.392   3.951 -0.1427 -1.2567 -0.8119
 8445SOL     OW36796   4.523   4.278   7.433  0.2238 -0.3419  0.1242
 8445SOL    HW136797   4.611   4.287   7.398  0.0809  1.9861  0.3197
 8445SOL    HW236798   4.552   4.255   7.522  0.1838  1.7181  0.6840
 8446SOL     OW36799   4.519   0.349   4.774  0.1907 -0.2993  0.3969
 8446SOL    HW136800   4.548   0.432   4.737 -2.3314  0.4507  0.0992
 8446SOL    HW236801   4.538   0.363   4.867  3.0357 -1.0434 -0.0645
 8447SOL     OW36802   1.039   3.335  12.796 -0.1080 -0.2569 -0.5903
 8447SOL    HW136803   0.972   3.392  12.834  1.3787 -0.2769  2.0782
 8447SOL    HW236804   1.066   3.295  12.879 -1.7226  0.7111  0.4139
 8448SOL     OW36805   0.415   2.386   4.070 -0.4105  0.3285 -0.4695
 8448SOL    HW136806   0.415   2.467   4.018  1.2196 -1.0781 -2.6637
 8448SOL    HW236807   0.500   2.350   4.046 -0.4014 -0.5247  0.8874
 8449SOL     OW36808   3.013   1.062   6.385  0.0069 -0.1988 -0.1227
 8449SOL    HW136809   3.105   1.082   6.367 -0.2987 -0.7165 -2.2238
 8449SOL    HW236810   3.005   0.977   6.342  1.3940 -0.1723 -0.4481
 8450SOL     OW36811   1.185   2.841   7.869 -0.0920  0.1039  0.0618
 8450SOL    HW136812   1.126   2.900   7.822 -0.1550  0.8681  1.0870
 8450SOL    HW236813   1.178   2.869   7.961 -0.1380  3.8296 -1.0787
 8451SOL     OW36814   2.129   0.793   8.138 -0.2445 -0.3579 -0.6554
 8451SOL    HW136815   2.207   0.817   8.189 -0.1409  0.2061 -1.0829
 8451SOL    HW236816   2.087   0.878   8.148 -1.4911 -1.3366  2.4611
 8452SOL     OW36817   2.705   1.685  12.125 -0.0655 -0.0619 -0.2865
 8452SOL    HW136818   2.778   1.643  12.080 -1.1904 -1.7033 -0.5871
 8452SOL    HW236819   2.739   1.772  12.104  1.9396 -0.9449 -0.7139
 8453SOL     OW36820   4.670   2.560  13.160 -0.2314  0.3282  0.0086
 8453SOL    HW136821   4.697   2.621  13.091 -1.2624 -1.0440 -1.6193
 8453SOL    HW236822   4.585   2.533  13.124  0.2941  0.0995 -1.0326
 8454SOL     OW36823   1.182   0.225   8.736  0.0716 -0.4761  0.2605
 8454SOL    HW136824   1.270   0.192   8.750 -0.0479 -0.4626  1.0361
 8454SOL    HW236825   1.192   0.314   8.701 -0.2395 -0.6924 -0.3788
 8455SOL     OW36826   2.441   3.743   4.565  0.1309  0.6014 -0.6571
 8455SOL    HW136827   2.478   3.764   4.650  3.1119 -0.8019 -1.6089
 8455SOL    HW236828   2.383   3.674   4.598  1.3838 -0.1783 -0.0969
 8456SOL     OW36829   2.889   1.539   5.946  0.1534 -0.1060  0.1220
 8456SOL    HW136830   2.908   1.583   6.029 -2.3998 -0.8718  1.1128
 8456SOL    HW236831   2.977   1.511   5.921  0.5792  1.6024 -0.2880
 8457SOL     OW36832   0.521   0.475  14.208 -0.7847  0.1474 -0.7938
 8457SOL    HW136833   0.599   0.529  14.194 -0.1229 -0.2091  1.5851
 8457SOL    HW236834   0.565   0.391  14.197 -0.8930 -0.0927  0.6001
 8458SOL     OW36835   0.278   0.097   5.886 -0.3532 -0.4611  0.5084
 8458SOL    HW136836   0.187   0.127   5.888  1.2480  4.6888 -2.8139
 8458SOL    HW236837   0.304   0.060   5.802 -3.0441  1.7084 -1.2805
 8459SOL     OW36838   1.989   0.927  14.192 -0.6928 -0.0612 -0.5962
 8459SOL    HW136839   2.046   0.956  14.263 -0.8264  1.6663 -1.2100
 8459SOL    HW236840   2.005   0.995  14.126  3.1273 -0.5962 -0.2306
 8460SOL     OW36841   4.666   4.183   8.890  0.5440  0.1478  0.0840
 8460SOL    HW136842   4.682   4.097   8.850  2.1456 -0.4322  1.9388
 8460SOL    HW236843   0.032   4.194   8.936  0.7068 -0.6992 -0.0007
 8461SOL     OW36844   0.253   3.573   9.147  0.4604 -0.6130 -0.9817
 8461SOL    HW136845   0.253   3.488   9.191  3.4081  0.8184  1.8170
 8461SOL    HW236846   0.160   3.583   9.129  0.6661 -2.6979 -3.2806
 8462SOL     OW36847   4.052   4.705   7.946  0.0019  0.2890 -0.4062
 8462SOL    HW136848   4.147   4.709   7.953 -0.1211  2.4040  0.0140
 8462SOL    HW236849   4.042   4.615   7.915  1.6142 -0.1608  0.3857
 8463SOL     OW36850   0.905   3.826  15.814 -0.3423  0.0560 -0.4932
 8463SOL    HW136851   0.818   3.790  15.799  0.3985 -1.3686 -1.3549
 8463SOL    HW236852   0.927   3.821  15.721 -0.3310 -0.3037 -0.4700
 8464SOL     OW36853   4.519   2.937   4.520 -0.0440 -0.4244 -0.0173
 8464SOL    HW136854   4.582   2.897   4.460  1.9239  1.4014  0.8739
 8464SOL    HW236855   4.545   2.908   4.607  0.2092  0.0281  0.0558
 8465SOL     OW36856   4.475   1.221   0.248 -0.1853 -0.7331  0.0356
 8465SOL    HW136857   4.485   1.192   0.157  2.2675  1.4298 -0.3930
 8465SOL    HW236858   4.564   1.226   0.282 -0.5586 -1.3358  1.1061
 8466SOL     OW36859   2.179   3.459  13.685  0.3875  0.6285  0.2051
 8466SOL    HW136860   2.146   3.458  13.775 -1.3397 -1.1640 -0.4263
 8466SOL    HW236861   2.130   3.535  13.654 -0.8608 -0.2551  0.0137
 8467SOL     OW36862   3.872   0.836   4.521 -0.1622  0.1457  0.0817
 8467SOL    HW136863   3.844   0.781   4.594 -0.7247 -0.4327 -0.5683
 8467SOL    HW236864   3.894   0.915   4.569  0.8578 -1.5002  2.3154
 8468SOL     OW36865   2.449   0.820   5.758 -0.0547  0.8456  0.1912
 8468SOL    HW136866   2.394   0.796   5.832 -0.4453  3.2078  0.6482
 8468SOL    HW236867   2.385   0.870   5.708 -0.5608 -2.0046 -2.0284
 8469SOL     OW36868   4.712   2.617   5.096 -0.1702 -0.4586 -0.1528
 8469SOL    HW136869   4.689   2.651   5.182 -0.0722 -2.1995  0.5758
 8469SOL    HW236870   0.091   2.620   5.096 -0.2079  0.4018  2.4311
 8470SOL     OW36871   2.115   2.206   6.840 -0.4003 -0.3437 -0.1871
 8470SOL    HW136872   2.185   2.248   6.891 -3.4520  1.1383  2.7274
 8470SOL    HW236873   2.051   2.207   6.910  1.4722  0.5073  1.5139
 8471SOL     OW36874   2.344   1.628   0.245  0.5016 -0.1083  0.0597
 8471SOL    HW136875   2.301   1.551   0.281 -0.8088  1.5258  2.0284
 8471SOL    HW236876   2.272   1.681   0.211  0.9872  1.9358  2.1368
 8472SOL     OW36877   3.103   0.129   3.473 -0.1528  0.5821  0.2731
 8472SOL    HW136878   3.022   0.082   3.453  1.0292 -0.8526 -1.0618
 8472SOL    HW236879   3.143   0.138   3.387 -1.2636  2.0112 -0.0870
 8473SOL     OW36880   3.424   0.351   5.422 -0.9028 -0.1554 -0.3516
 8473SOL    HW136881   3.457   0.432   5.382  0.2974 -0.8350 -0.7118
 8473SOL    HW236882   3.472   0.351   5.505 -3.2491  2.2491  1.0004
 8474SOL     OW36883   4.308   1.865   5.026 -0.1616 -0.2228 -0.1709
 8474SOL    HW136884   4.260   1.884   4.945  1.3553  1.7590 -0.5895
 8474SOL    HW236885   4.370   1.937   5.035 -1.0644  0.4164  0.9955
 8475SOL     OW36886   1.520   3.750  15.306 -0.1399 -0.2813  0.4616
 8475SOL    HW136887   1.592   3.775  15.364 -1.2551  2.3850  0.6637
 8475SOL    HW236888   1.572   3.726  15.229 -1.0703 -1.0069  0.0677
 8476SOL     OW36889   2.633   2.804  12.244  0.0584 -0.1932 -0.7136
 8476SOL    HW136890   2.654   2.852  12.324 -2.3746 -2.4701  1.2909
 8476SOL    HW236891   2.695   2.843  12.182 -0.8593 -0.8471 -2.0591
 8477SOL     OW36892   4.535   3.635   1.270 -0.0713 -0.0845 -0.2992
 8477SOL    HW136893   4.606   3.658   1.329  0.9453  0.2062 -1.6204
 8477SOL    HW236894   4.574   3.564   1.218 -1.4085 -0.9292 -0.1213
 8478SOL     OW36895   3.361   0.085   6.668  0.0984  0.2274  0.0103
 8478SOL    HW136896   3.320   4.715   6.669  0.1885  0.1778 -0.5881
 8478SOL    HW236897   3.360   0.101   6.573  1.8549  2.0890  0.3247
 8479SOL     OW36898   4.701   0.679  16.811  0.4087  0.0172  0.3661
 8479SOL    HW136899   4.710   0.751  16.873 -0.9571 -1.5484  2.3552
 8479SOL    HW236900   4.654   0.723  16.740  0.9885  1.0337  0.6086
 8480SOL     OW36901   1.192   2.109   8.346 -0.2376  0.3985 -0.6431
 8480SOL    HW136902   1.257   2.059   8.395  1.2976  0.7739 -2.2925
 8480SOL    HW236903   1.229   2.197   8.348 -0.0302  0.3260 -1.1723
 8481SOL     OW36904   2.876   3.634   5.382 -0.5911  0.2112 -0.1654
 8481SOL    HW136905   2.966   3.663   5.366 -0.7355  0.6504 -0.1810
 8481SOL    HW236906   2.859   3.581   5.304 -0.0095 -0.0232 -0.1331
 8482SOL     OW36907   1.864   3.721   8.134  0.1382 -0.0171  0.4142
 8482SOL    HW136908   1.817   3.781   8.076 -2.7044  0.2674  3.0095
 8482SOL    HW236909   1.908   3.675   8.063 -1.7976 -2.8680  1.0865
 8483SOL     OW36910   1.005   3.790   6.559  0.5048  0.5067 -0.4519
 8483SOL    HW136911   1.016   3.705   6.517 -1.1399 -0.3579  0.8688
 8483SOL    HW236912   1.058   3.846   6.502 -1.2682  1.0390 -1.5882
 8484SOL     OW36913   1.820   4.443  12.169  0.3896 -0.2474  0.7031
 8484SOL    HW136914   1.895   4.466  12.223  0.4470  0.2420  0.4096
 8484SOL    HW236915   1.816   4.527  12.123  0.7546 -0.6115  0.0041
 8485SOL     OW36916   2.456   3.140   3.780  0.8635 -0.1403 -0.0676
 8485SOL    HW136917   2.531   3.177   3.826  0.5075 -1.5141  1.6363
 8485SOL    HW236918   2.509   3.086   3.722  1.3430 -0.5004  0.7023
 8486SOL     OW36919   2.306   2.253   1.941  0.3458  0.1734  0.5476
 8486SOL    HW136920   2.337   2.330   1.894  2.2935 -0.6125  0.5364
 8486SOL    HW236921   2.283   2.203   1.862 -0.3369 -1.9514  2.1005
 8487SOL     OW36922   4.292   2.724   7.554 -0.3976  0.0189 -0.2268
 8487SOL    HW136923   4.237   2.646   7.549 -0.2791 -0.0667 -0.2196
 8487SOL    HW236924   4.367   2.680   7.595 -2.4701 -2.8791  0.4411
 8488SOL     OW36925   2.187   4.178  14.067 -0.6063 -0.2499 -0.3190
 8488SOL    HW136926   2.101   4.137  14.076 -1.5287  1.3530 -1.7953
 8488SOL    HW236927   2.175   4.255  14.122  0.4140 -1.0930  1.0775
 8489SOL     OW36928   2.538   2.622   6.856  0.2934 -0.1513 -0.1356
 8489SOL    HW136929   2.442   2.628   6.864  0.2618 -1.1398  0.2802
 8489SOL    HW236930   2.549   2.532   6.824 -2.6716  0.5770 -3.2301
 8490SOL     OW36931   4.441   4.275   6.404 -0.5685 -0.0219 -0.3652
 8490SOL    HW136932   4.469   4.334   6.474  1.4067  1.5902 -2.4913
 8490SOL    HW236933   4.347   4.272   6.418 -0.4412 -2.0891  0.0156
 8491SOL     OW36934   1.503   1.742   7.518 -0.0002 -0.0400  0.4096
 8491SOL    HW136935   1.442   1.795   7.467  0.2566 -0.0226  0.1227
 8491SOL    HW236936   1.440   1.699   7.575  0.2052  0.9712  1.4080
 8492SOL     OW36937   1.092   3.812  11.696  0.0368  0.6535  0.6106
 8492SOL    HW136938   1.120   3.753  11.625  1.7108 -1.2494  2.8771
 8492SOL    HW236939   1.088   3.900  11.659 -1.9320 -0.1428 -1.0762
 8493SOL     OW36940   1.565   0.025  10.887 -0.1533 -0.2579 -0.2610
 8493SOL    HW136941   1.488   4.699  10.849 -1.2161  1.0486  0.3797
 8493SOL    HW236942   1.563   0.106  10.836  2.0375  0.5469  0.9648
 8494SOL     OW36943   4.439   4.600   2.204 -0.4943  0.0308  0.4810
 8494SOL    HW136944   4.505   4.544   2.245 -0.3567 -0.5294 -0.4889
 8494SOL    HW236945   4.463   4.590   2.111  0.6428 -1.8166  0.9575
 8495SOL     OW36946   0.376   1.297  13.502  0.6328  0.5027  0.8791
 8495SOL    HW136947   0.367   1.277  13.595 -0.8974  0.2672  0.6692
 8495SOL    HW236948   0.294   1.338  13.475  1.6553  0.1978 -2.7148
 8496SOL     OW36949   3.412   2.905  14.215 -0.0823 -0.0561  0.3248
 8496SOL    HW136950   3.321   2.877  14.202  0.2304 -0.7270 -0.3770
 8496SOL    HW236951   3.417   2.920  14.310 -1.4930  0.0058  0.3975
 8497SOL     OW36952   0.986   1.878  12.588  0.4473 -0.3592  0.1410
 8497SOL    HW136953   0.913   1.913  12.537  0.3816 -1.9601 -0.8508
 8497SOL    HW236954   0.975   1.922  12.672 -0.4576 -1.2775  0.4967
 8498SOL     OW36955   0.114   0.422  17.533 -0.6071 -0.0267  0.2182
 8498SOL    HW136956   0.119   0.511  17.497 -0.3016 -0.9263 -1.9737
 8498SOL    HW236957   0.088   0.439  17.623  1.1031  1.9416  0.3256
 8499SOL     OW36958   1.695   0.551  12.959 -0.7155  0.5736  0.6134
 8499SOL    HW136959   1.768   0.612  12.962 -0.0722 -0.1638 -0.0129
 8499SOL    HW236960   1.721   0.501  12.882  2.7172  1.7166  1.0126
 8500SOL     OW36961   2.038   4.362   5.050  0.2898  0.0285 -0.1465
 8500SOL    HW136962   2.043   4.457   5.056 -1.6081  0.1182 -0.0204
 8500SOL    HW236963   1.986   4.349   4.971  1.9240  2.1824 -1.5809
 8501SOL     OW36964   1.642   0.869   7.003  0.1128 -0.0701 -0.2283
 8501SOL    HW136965   1.642   0.807   7.076 -1.3294  2.1035  1.5994
 8501SOL    HW236966   1.601   0.940   7.052  2.1116  1.8566 -1.3604
 8502SOL     OW36967   3.192   2.170   5.716 -0.5586 -0.3160 -0.6164
 8502SOL    HW136968   3.240   2.246   5.751  0.1711 -0.3983 -1.4289
 8502SOL    HW236969   3.267   2.110   5.719 -1.1775 -1.0902 -0.6607
 8503SOL     OW36970   4.273   1.319   5.359  0.1027 -0.0659  0.1539
 8503SOL    HW136971   4.340   1.387   5.351  0.1100 -0.2324 -1.1816
 8503SOL    HW236972   4.195   1.375   5.364  0.4540  0.3950  0.4452
 8504SOL     OW36973   0.430   0.300  16.005 -0.0668  0.0433 -0.1064
 8504SOL    HW136974   0.401   0.349  15.928  0.7425  1.1135  0.2756
 8504SOL    HW236975   0.451   0.371  16.066  2.7436  0.1297 -1.1813
 8505SOL     OW36976   2.496   3.498   2.184  0.7638 -0.3352  0.3382
 8505SOL    HW136977   2.508   3.529   2.274  1.1743  0.8723 -0.1192
 8505SOL    HW236978   2.460   3.410   2.188  1.3435 -0.6601 -1.7842
 8506SOL     OW36979   0.487   4.662   4.795  0.2721  0.5288  0.1752
 8506SOL    HW136980   0.434   4.610   4.854  0.7515 -1.3095 -1.0125
 8506SOL    HW236981   0.575   4.625   4.803 -0.0532 -0.5419 -1.1920
 8507SOL     OW36982   1.759   0.535  10.493  0.4005 -0.4770  0.1022
 8507SOL    HW136983   1.854   0.528  10.505  0.5835  1.6175  0.0142
 8507SOL    HW236984   1.733   0.464  10.551  0.2648 -0.2209  0.3548
 8508SOL     OW36985   0.705   3.192  14.153 -0.2719 -0.1131  1.2070
 8508SOL    HW136986   0.623   3.149  14.129  0.4348 -0.9661  0.3553
 8508SOL    HW236987   0.714   3.264  14.090 -1.0870 -0.5872  0.5463
 8509SOL     OW36988   1.466   3.749   3.304 -0.3399 -0.4164  0.0566
 8509SOL    HW136989   1.471   3.690   3.379  1.1134 -0.7234 -0.2688
 8509SOL    HW236990   1.543   3.804   3.321 -0.7470  0.6458 -1.5177
 8510SOL     OW36991   0.026   0.467   0.131 -0.2848  0.0964 -0.0445
 8510SOL    HW136992   4.687   0.544   0.124  1.6142  1.5126  0.0438
 8510SOL    HW236993   4.696   0.414   0.195  2.6207 -1.9320  0.4610
 8511SOL     OW36994   3.202   1.785   6.300 -0.0193 -0.0245 -0.3659
 8511SOL    HW136995   3.160   1.856   6.251  1.6365  1.6297  0.6206
 8511SOL    HW236996   3.225   1.826   6.384  1.1057  0.1493 -0.7636
 8512SOL     OW36997   4.556   0.714   4.444  0.0312  0.4199  0.1446
 8512SOL    HW136998   4.620   0.766   4.493  1.3206  1.1160 -2.2387
 8512SOL    HW236999   4.477   0.724   4.496  0.4715  0.5082  0.7880
 8513SOL     OW37000   0.718   0.007   6.913  0.2504 -0.0168  0.7136
 8513SOL    HW137001   0.708   0.017   6.818 -1.3952 -0.1036  0.8684
 8513SOL    HW237002   0.753   4.636   6.907 -1.0123 -0.4665 -0.1047
 8514SOL     OW37003   1.776   0.023   2.675 -0.0168 -0.0230 -0.4745
 8514SOL    HW137004   1.850   4.711   2.623 -1.0431 -2.6657 -0.3908
 8514SOL    HW237005   1.787   0.118   2.683 -2.2420  0.4634 -3.3343
 8515SOL     OW37006   1.337   0.906   0.443 -0.4556 -0.3032  0.2201
 8515SOL    HW137007   1.286   0.966   0.389  1.4418  0.5867 -0.5841
 8515SOL    HW237008   1.421   0.950   0.452  0.6640 -2.3099 -0.4691
 8516SOL     OW37009   3.851   0.356   5.657  0.4461  0.4674  0.3106
 8516SOL    HW137010   3.756   0.362   5.642  0.6911  1.7744 -0.7036
 8516SOL    HW237011   3.882   0.350   5.567 -2.2057  1.2166 -0.6489
 8517SOL     OW37012   3.052   1.100   5.931 -0.3974 -0.2951  0.1231
 8517SOL    HW137013   3.140   1.134   5.915 -0.3408 -0.0002  1.0324
 8517SOL    HW237014   3.024   1.151   6.007  2.0301 -1.4466  1.7711
 8518SOL     OW37015   0.449   0.202   7.293 -0.0333 -0.7089 -0.8157
 8518SOL    HW137016   0.379   0.184   7.230 -1.5474  1.1407  0.3581
 8518SOL    HW237017   0.517   0.153   7.247  0.7348  0.3615 -0.8159
 8519SOL     OW37018   1.696   2.038  14.255 -0.2864 -0.2176 -0.0867
 8519SOL    HW137019   1.746   2.026  14.336  0.5469 -2.0520 -0.8863
 8519SOL    HW237020   1.755   2.088  14.199  0.5027 -0.1252  0.8374
 8520SOL     OW37021   1.211   2.255  11.554 -0.2109  0.0335 -0.1483
 8520SOL    HW137022   1.269   2.182  11.533 -0.9310 -0.6766  0.3277
 8520SOL    HW237023   1.124   2.228  11.523  0.1884 -1.3772 -0.0156
 8521SOL     OW37024   1.194   4.229  14.374 -0.1581 -0.3416 -0.2659
 8521SOL    HW137025   1.237   4.156  14.418 -1.2311 -0.3947  0.7075
 8521SOL    HW237026   1.203   4.308  14.427  2.1596 -1.6557  1.3149
 8522SOL     OW37027   3.542   0.976   4.084 -0.1813  0.4441  0.2016
 8522SOL    HW137028   3.557   0.945   3.994 -1.1976  0.1057  0.1518
 8522SOL    HW237029   3.555   1.070   4.075  1.6847 -0.0365 -2.1185
 8523SOL     OW37030   0.150   1.406  17.667 -0.1445 -0.3356 -0.5149
 8523SOL    HW137031   0.194   1.463   0.057 -1.6399  1.5218 -1.1705
 8523SOL    HW237032   0.217   1.401  17.599  0.1747  1.5070 -0.3412
 8524SOL     OW37033   1.161   1.276   5.644  0.3982 -0.6085 -0.6010
 8524SOL    HW137034   1.244   1.323   5.633  1.0106 -1.1732  1.5801
 8524SOL    HW237035   1.162   1.235   5.557 -0.9484 -0.4178 -0.7098
 8525SOL     OW37036   2.630   1.398   3.377  0.3975  0.0457 -0.1165
 8525SOL    HW137037   2.599   1.480   3.415 -0.9179  1.1662 -3.6099
 8525SOL    HW237038   2.704   1.375   3.434  0.1647  0.2051  0.2469
 8526SOL     OW37039   1.787   0.006   5.769  0.0801 -0.8298  0.7154
 8526SOL    HW137040   1.739   0.056   5.704  0.5072  0.4684  1.3915
 8526SOL    HW237041   1.876   4.709   5.736 -0.4139 -1.3868 -0.3562
 8527SOL     OW37042   0.057   0.757  17.217  0.0360  0.1654 -0.5344
 8527SOL    HW137043   0.119   0.749  17.144  0.2733 -0.9095 -0.2158
 8527SOL    HW237044   4.704   0.697  17.189  0.2319 -0.6536  0.7294
 8528SOL     OW37045   0.295   2.260   7.193 -0.3260  0.4688 -0.2063
 8528SOL    HW137046   0.295   2.353   7.174 -0.1826  0.2908 -1.1028
 8528SOL    HW237047   0.343   2.237   7.113  1.8499 -0.0515  1.2472
 8529SOL     OW37048   3.494   0.565  17.498 -0.2991 -0.5637  0.1758
 8529SOL    HW137049   3.516   0.656  17.478 -3.1496 -0.2046 -1.2908
 8529SOL    HW237050   3.407   0.587  17.531  0.8826  4.6976 -0.0790
 8530SOL     OW37051   2.990   1.356   8.826 -0.2975 -0.4348 -0.0322
 8530SOL    HW137052   2.971   1.274   8.781 -2.5599  0.0937 -0.0142
 8530SOL    HW237053   2.914   1.364   8.883 -1.2202 -0.7311 -1.2441
 8531SOL     OW37054   3.940   1.935   8.177 -0.1617  0.4635 -0.3708
 8531SOL    HW137055   3.889   1.862   8.211  0.9010 -1.6400 -3.2152
 8531SOL    HW237056   4.020   1.896   8.140  0.1506  1.2635 -0.5467
 8532SOL     OW37057   0.138   3.059   4.032  0.4583  0.0281  0.2431
 8532SOL    HW137058   0.155   3.134   4.089  1.7472  1.1739 -1.6389
 8532SOL    HW237059   0.042   3.061   4.029  0.4609 -2.3366 -1.3531
 8533SOL     OW37060   4.101   3.083  12.872 -0.1330 -0.5447  0.4742
 8533SOL    HW137061   4.108   3.105  12.779 -0.0028 -1.2514  0.3153
 8533SOL    HW237062   4.165   3.017  12.896 -0.2061 -0.1571  1.7226
 8534SOL     OW37063   2.400   3.173  10.175  0.4698 -0.5112 -0.2194
 8534SOL    HW137064   2.351   3.113  10.232 -0.4489  0.5580  0.1274
 8534SOL    HW237065   2.330   3.235  10.155  0.7559 -0.8043 -2.0728
 8535SOL     OW37066   1.832   1.961   5.596  0.1372  0.1643  0.2247
 8535SOL    HW137067   1.811   2.054   5.590 -1.1813 -0.1102  0.5243
 8535SOL    HW237068   1.777   1.922   5.529  0.7142  0.6453 -0.5346
 8536SOL     OW37069   3.531   2.695   8.631  0.1680  0.3585  0.3715
 8536SOL    HW137070   3.456   2.737   8.590  0.6658 -0.0127 -0.9413
 8536SOL    HW237071   3.503   2.612   8.669  0.6990 -0.0770 -0.1859
 8537SOL     OW37072   3.451   0.773   1.213  0.6719  0.0498  0.6335
 8537SOL    HW137073   3.496   0.698   1.252 -1.3728 -0.9867  1.0396
 8537SOL    HW237074   3.456   0.823   1.294 -0.5551  1.4591 -0.1630
 8538SOL     OW37075   4.621   2.937   2.733 -0.2231 -0.7056 -0.3459
 8538SOL    HW137076   4.578   2.916   2.651  0.8755 -2.5190 -0.4551
 8538SOL    HW237077   4.692   2.874   2.725  1.4141  1.3505 -2.1325
 8539SOL     OW37078   1.117   3.749   7.987 -0.6653 -0.8581  0.1967
 8539SOL    HW137079   1.154   3.664   7.963  0.3158  0.1093 -1.6691
 8539SOL    HW237080   1.041   3.730   8.043 -1.3506  3.3404  0.6630
 8540SOL     OW37081   1.574   4.429   6.092  0.1988  0.3581 -0.3548
 8540SOL    HW137082   1.567   4.507   6.148 -1.4579  0.4956 -0.7688
 8540SOL    HW237083   1.489   4.441   6.050  0.3272  0.4845 -0.5744
 8541SOL     OW37084   4.337   3.135   2.546 -0.2866  0.0343  0.1025
 8541SOL    HW137085   4.402   3.168   2.608 -0.4483  0.2367  0.1649
 8541SOL    HW237086   4.375   3.055   2.511 -0.6801  0.1458 -0.5746
 8542SOL     OW37087   4.449   0.377  11.387 -0.4008  0.1813 -0.1243
 8542SOL    HW137088   4.383   0.386  11.319 -0.4655  1.2841  0.0933
 8542SOL    HW237089   4.423   0.436  11.458 -1.7186 -0.6285  0.0675
 8543SOL     OW37090   4.036   2.739   7.393  0.4102  0.6126  0.5360
 8543SOL    HW137091   4.127   2.767   7.393  0.5714  0.1042 -0.9210
 8543SOL    HW237092   4.006   2.742   7.484 -0.7923 -1.0705  0.2173
 8544SOL     OW37093   2.152   0.383   5.342 -0.1841 -0.7847  0.1434
 8544SOL    HW137094   2.186   0.393   5.253  0.5990 -2.1006  0.2933
 8544SOL    HW237095   2.194   0.303   5.373 -1.1953 -1.3898 -0.0551
 8545SOL     OW37096   1.351   3.249  12.729  0.2998  0.0470  0.3877
 8545SOL    HW137097   1.420   3.258  12.663 -0.1264 -0.8235 -0.1837
 8545SOL    HW237098   1.381   3.264  12.818  0.5045  0.3832  0.2621
 8546SOL     OW37099   2.356   1.960   1.834  0.0449 -0.2303 -0.1710
 8546SOL    HW137100   2.275   1.979   1.786  0.0752  3.6997  1.3034
 8546SOL    HW237101   2.325   1.930   1.920  1.2005  1.4790  0.8538
 8547SOL     OW37102   1.898   2.505   6.756  0.1516 -0.1054 -0.0099
 8547SOL    HW137103   1.804   2.521   6.767  0.4598  1.7354 -0.0109
 8547SOL    HW237104   1.919   2.545   6.671  1.9147 -0.3573  0.3038
 8548SOL     OW37105   1.761   3.720   6.790 -0.0251 -0.0246  0.2808
 8548SOL    HW137106   1.789   3.661   6.720  0.4026 -0.5548  0.8968
 8548SOL    HW237107   1.691   3.768   6.746  2.0350  1.7152 -1.0805
 8549SOL     OW37108   0.261   3.319   2.989  0.0013  0.2900  0.7681
 8549SOL    HW137109   0.350   3.351   2.984 -0.4858  1.5558  0.2865
 8549SOL    HW237110   0.243   3.320   2.895  2.2524 -4.1942  0.2788
 8550SOL     OW37111   0.791   0.853   7.636  0.4773  0.4059  0.4657
 8550SOL    HW137112   0.769   0.915   7.705 -0.3594  0.3371  0.2657
 8550SOL    HW237113   0.716   0.795   7.639  2.4332 -2.1701 -0.6784
 8551SOL     OW37114   2.077   2.884  13.918 -0.6902  0.4541 -0.3218
 8551SOL    HW137115   2.032   2.969  13.913 -1.4300  0.0567 -0.3860
 8551SOL    HW237116   2.028   2.832  13.855 -0.0946  2.5007 -2.4820
 8552SOL     OW37117   1.198   4.464  14.528 -0.1733  0.0348  0.1152
 8552SOL    HW137118   1.163   4.509  14.605 -1.2227 -0.0822 -0.2985
 8552SOL    HW237119   1.292   4.484  14.524  0.1221 -0.9565  2.2093
 8553SOL     OW37120   3.901   2.632  10.996 -0.1107 -0.3573 -0.0339
 8553SOL    HW137121   3.988   2.655  10.961 -0.0177 -1.5322 -0.5723
 8553SOL    HW237122   3.919   2.542  11.022  0.9126 -0.2544 -0.3775
 8554SOL     OW37123   1.784   1.239  16.985  0.1257  0.0644 -0.0067
 8554SOL    HW137124   1.861   1.292  16.962  0.9450 -1.1400 -0.0214
 8554SOL    HW237125   1.762   1.199  16.901 -0.8446 -0.3574  0.4497
 8555SOL     OW37126   0.742   0.716   6.354 -0.1628 -0.3905  0.0475
 8555SOL    HW137127   0.817   0.766   6.387 -1.5874  0.1655  2.4332
 8555SOL    HW237128   0.720   0.778   6.285  2.1001  1.4430  0.9861
 8556SOL     OW37129   0.476   3.963   9.951 -0.1402  0.2710 -0.1512
 8556SOL    HW137130   0.528   4.039   9.923  1.2148 -0.9670 -0.9572
 8556SOL    HW237131   0.407   3.964   9.885  0.2485  0.8910 -0.5494
 8557SOL     OW37132   1.564   2.435  14.490 -0.0347 -0.4283  0.1687
 8557SOL    HW137133   1.510   2.359  14.511  1.3413 -0.6799  2.8061
 8557SOL    HW237134   1.575   2.416  14.397  1.1205  1.5397 -0.0879
 8558SOL     OW37135   0.597   0.992  12.184  0.3577 -0.2956  0.5291
 8558SOL    HW137136   0.555   1.027  12.263 -0.2894  0.7066 -0.2568
 8558SOL    HW237137   0.601   0.897  12.198  0.7967 -0.7106 -2.3954
 8559SOL     OW37138   1.475   4.210   4.044  0.0521  0.0805 -0.4363
 8559SOL    HW137139   1.521   4.133   4.077 -0.7578  0.1010  0.7353
 8559SOL    HW237140   1.543   4.269   4.011 -0.7298  1.6723  0.7879
 8560SOL     OW37141   2.119   3.571  15.329 -0.3451  0.0473 -0.3407
 8560SOL    HW137142   2.112   3.650  15.383  0.7536 -1.7137  2.3879
 8560SOL    HW237143   2.036   3.528  15.352  0.9229 -1.8290  0.7408
 8561SOL     OW37144   1.736   0.472  10.236 -0.3129 -0.1215  0.4281
 8561SOL    HW137145   1.793   0.544  10.208  0.8214 -0.7464  1.1520
 8561SOL    HW237146   1.728   0.496  10.328 -2.2371  1.4215 -0.1285
 8562SOL     OW37147   2.300   0.189  16.367  0.0925 -0.2227  0.4272
 8562SOL    HW137148   2.293   0.141  16.285 -1.5549  2.0156 -0.7573
 8562SOL    HW237149   2.394   0.202  16.377 -0.4588  1.2119  3.8133
 8563SOL     OW37150   2.116   0.830   3.394  0.3931 -0.2011  0.4482
 8563SOL    HW137151   2.027   0.864   3.396 -0.1852 -1.6989 -0.4794
 8563SOL    HW237152   2.134   0.796   3.482  1.2408  0.9182  0.7141
 8564SOL     OW37153   3.208   1.188   7.996  0.1433 -0.4561  0.2760
 8564SOL    HW137154   3.209   1.283   7.999  4.6395 -0.4394 -1.5654
 8564SOL    HW237155   3.113   1.184   8.009  0.0433  1.9290  0.2125
 8565SOL     OW37156   4.180   0.714  15.511 -0.1708  0.3211 -0.0545
 8565SOL    HW137157   4.168   0.620  15.522  1.9236  0.1852  1.0750
 8565SOL    HW237158   4.272   0.712  15.486 -0.0120  1.0727  0.4702
 8566SOL     OW37159   0.418   3.650  11.060 -0.1481  0.0560  0.4341
 8566SOL    HW137160   0.401   3.640  11.154  1.2265  3.2092  1.0252
 8566SOL    HW237161   0.494   3.708  11.066 -0.3564  0.4143 -0.3782
 8567SOL     OW37162   0.114   1.770   8.671 -0.5804  0.6991  0.4463
 8567SOL    HW137163   0.091   1.826   8.745 -0.9556 -0.1626  0.9755
 8567SOL    HW237164   0.085   1.688   8.709  0.6622 -0.1493 -0.4402
 8568SOL     OW37165   1.866   3.425   3.527 -0.2498  0.4418  0.4057
 8568SOL    HW137166   1.928   3.366   3.484 -0.9212  0.5234 -0.6849
 8568SOL    HW237167   1.789   3.430   3.469  0.3533  0.0495 -0.4376
 8569SOL     OW37168   0.672   4.368  14.690  0.1669  0.2577  0.5952
 8569SOL    HW137169   0.671   4.427  14.765 -0.7452  1.1849 -0.1515
 8569SOL    HW237170   0.644   4.423  14.617 -0.8491 -0.8407  0.1455
 8570SOL     OW37171   2.382   3.662   3.790  0.2263  0.1158  0.1407
 8570SOL    HW137172   2.313   3.645   3.854 -0.1862 -0.4943 -0.4557
 8570SOL    HW237173   2.360   3.603   3.717 -0.8137  0.4153  0.2128
 8571SOL     OW37174   4.599   2.338   7.030  0.2032 -0.2652  0.2352
 8571SOL    HW137175   4.684   2.382   7.041  0.3749 -0.9678  1.7237
 8571SOL    HW237176   4.615   2.262   6.976 -3.1238 -2.0708  1.8102
 8572SOL     OW37177   1.014   0.931   8.072 -0.1176  0.6580 -0.2753
 8572SOL    HW137178   1.089   0.884   8.110  0.3039  1.4127 -0.1728
 8572SOL    HW237179   1.052   0.993   8.009  0.2191  1.3843  0.6367
 8573SOL     OW37180   2.174   4.558  10.411 -0.9535 -0.0079  0.3669
 8573SOL    HW137181   2.204   4.538  10.500 -1.6920  1.9322  1.0570
 8573SOL    HW237182   2.259   4.596  10.386 -1.3214 -1.2995 -2.8048
 8574SOL     OW37183   3.140   3.145   5.805 -0.0114 -0.8367  0.1102
 8574SOL    HW137184   3.196   3.191   5.868  0.9880  0.9130 -2.0801
 8574SOL    HW237185   3.162   3.052   5.799 -0.2138 -0.7103 -2.4182
 8575SOL     OW37186   1.215   4.224  15.461 -0.3253 -0.0248 -0.1666
 8575SOL    HW137187   1.207   4.216  15.556 -0.8614 -2.3386 -0.4206
 8575SOL    HW237188   1.264   4.147  15.431 -0.1246  0.0721 -0.0894
 8576SOL     OW37189   2.477   3.054  12.137 -0.2715 -0.4119 -0.3626
 8576SOL    HW137190   2.500   3.070  12.045  1.5620  3.1732  0.7467
 8576SOL    HW237191   2.441   2.967  12.118 -3.2538  0.3024  2.0676
 8577SOL     OW37192   3.624   2.157   2.653  0.8733 -0.2341  0.4129
 8577SOL    HW137193   3.662   2.126   2.570 -0.1884  4.4326 -1.8638
 8577SOL    HW237194   3.689   2.227   2.664 -0.9670  1.3291  1.2732
 8578SOL     OW37195   1.310   0.059  10.635 -0.4280 -0.1867  0.5680
 8578SOL    HW137196   1.397   0.098  10.638 -0.5976  0.0677  2.2425
 8578SOL    HW237197   1.316   0.013  10.719 -0.2684  2.1505  1.8298
 8579SOL     OW37198   1.056   4.654   4.532 -0.7083  0.3892  0.0878
 8579SOL    HW137199   1.147   4.638   4.557 -0.5243  2.4932  0.7085
 8579SOL    HW237200   1.062   4.644   4.437  0.7351 -0.5499  0.2798
 8580SOL     OW37201   3.099   1.515   5.716  0.8151 -0.1305 -0.2665
 8580SOL    HW137202   3.186   1.534   5.753  0.9332 -1.8570  0.3599
 8580SOL    HW237203   3.100   1.575   5.641 -1.8299  0.0031 -0.2029
 8581SOL     OW37204   1.254   0.653  13.800  0.0255 -0.1407  0.0498
 8581SOL    HW137205   1.257   0.585  13.733  0.1993 -0.3125  0.2309
 8581SOL    HW237206   1.198   0.715  13.752  1.3384  0.9474 -0.0496
 8582SOL     OW37207   0.142   3.034  14.770 -1.0073  0.2281 -0.3328
 8582SOL    HW137208   0.135   2.955  14.717  0.6423  0.1609 -0.4511
 8582SOL    HW237209   0.235   3.035  14.791 -0.4580  0.4051 -2.8826
 8583SOL     OW37210   4.419   0.350   1.732  1.2729 -0.5509  0.1113
 8583SOL    HW137211   4.462   0.292   1.669  1.4191  0.6577 -0.9108
 8583SOL    HW237212   4.419   0.295   1.810  0.4942 -1.3233 -0.4206
 8584SOL     OW37213   2.546   4.696  13.800  0.3445  0.1192 -0.4453
 8584SOL    HW137214   2.452   4.684  13.786  0.4603 -0.1966 -0.9652
 8584SOL    HW237215   2.558   0.052  13.740  4.0106 -1.5124 -1.7161
 8585SOL     OW37216   1.841   1.480   1.126 -0.2544 -0.0676 -0.4107
 8585SOL    HW137217   1.873   1.536   1.056  3.2411  1.6161  2.5522
 8585SOL    HW237218   1.826   1.399   1.076 -1.7531  0.3116 -0.5712
 8586SOL     OW37219   0.878   3.866   2.511  0.3197 -0.1875 -0.0436
 8586SOL    HW137220   0.897   3.893   2.422  1.0181 -2.0043 -0.4463
 8586SOL    HW237221   0.787   3.836   2.508  1.2039 -2.4770 -3.9265
 8587SOL     OW37222   3.330   4.332   4.843 -0.6047 -0.3785 -0.1335
 8587SOL    HW137223   3.237   4.317   4.825 -0.8550 -0.5433  1.2620
 8587SOL    HW237224   3.369   4.332   4.756 -1.7890 -2.7477 -0.6762
 8588SOL     OW37225   4.086   3.463  17.647  0.3497  0.2034  1.0812
 8588SOL    HW137226   4.089   3.392   0.038  2.1327  0.4477  1.2523
 8588SOL    HW237227   4.047   3.430  17.565  0.6900  1.3323  0.4638
 8589SOL     OW37228   2.995   3.519   2.051  0.1385 -0.2981  0.8346
 8589SOL    HW137229   2.962   3.544   2.138 -3.2299  0.9718 -0.8116
 8589SOL    HW237230   3.071   3.464   2.072  0.1359  0.0786  1.8640
 8590SOL     OW37231   1.690   4.217   7.639 -0.2802 -0.0819 -0.5382
 8590SOL    HW137232   1.709   4.171   7.721 -0.4414 -0.8816 -0.9502
 8590SOL    HW237233   1.671   4.308   7.660 -0.6048 -0.6733  1.8142
 8591SOL     OW37234   2.988   0.812   2.964 -0.4149  0.1921 -0.6442
 8591SOL    HW137235   3.059   0.871   2.940 -1.7724  2.2091  0.3470
 8591SOL    HW237236   2.909   0.864   2.981  1.3044  2.1372  1.2685
 8592SOL     OW37237   1.498   1.943   5.387  0.3059  0.2761  0.5932
 8592SOL    HW137238   1.492   1.935   5.292  0.1097  0.9224  0.5551
 8592SOL    HW237239   1.457   2.027   5.405  1.4931  1.1524 -0.7278
 8593SOL     OW37240   4.131   2.279   6.050  0.3520 -0.3869  0.0499
 8593SOL    HW137241   4.215   2.239   6.027  1.9356  2.7965  0.3135
 8593SOL    HW237242   4.142   2.305   6.141  0.7750  0.9160 -0.3718
 8594SOL     OW37243   3.849   1.289   3.787  0.3997 -0.5763  0.0500
 8594SOL    HW137244   3.864   1.325   3.699  0.1274  0.7627  0.5617
 8594SOL    HW237245   3.768   1.243   3.764  0.5046 -1.8488  2.2538
 8595SOL     OW37246   0.767   2.168   4.306 -0.7625  0.2972  0.1918
 8595SOL    HW137247   0.782   2.118   4.226  0.2799  0.2721  0.3957
 8595SOL    HW237248   0.757   2.255   4.268 -1.7197  0.3803  0.6501
 8596SOL     OW37249   4.670   1.882   8.445 -0.1862 -0.1218 -0.3875
 8596SOL    HW137250   4.631   1.801   8.413 -2.1303  0.1216  1.3633
 8596SOL    HW237251   0.009   1.851   8.517  0.0495 -1.3506 -1.0976
 8597SOL     OW37252   0.824   3.024   7.155  0.4917  0.0547  0.1405
 8597SOL    HW137253   0.907   3.064   7.180 -0.3709  2.2360 -0.5244
 8597SOL    HW237254   0.810   2.982   7.240 -1.0748 -1.0888 -0.6799
 8598SOL     OW37255   0.428   3.193   4.197  0.4043  0.0744 -0.3209
 8598SOL    HW137256   0.483   3.231   4.129  0.8881  0.1009  0.0865
 8598SOL    HW237257   0.347   3.242   4.184  0.8633  0.4566 -1.7284
 8599SOL     OW37258   4.250   1.723   4.653 -0.3621  0.1545  0.4231
 8599SOL    HW137259   4.161   1.687   4.648 -0.4518  0.4956 -0.4056
 8599SOL    HW237260   4.312   1.651   4.640  0.6948  1.2070 -0.3216
 8600SOL     OW37261   3.892   2.598  11.318  0.3331  0.1317  0.0149
 8600SOL    HW137262   3.871   2.690  11.302 -0.8801 -0.0643  0.4743
 8600SOL    HW237263   3.874   2.553  11.236  1.0207  0.1387 -0.1354
 8601SOL     OW37264   1.192   3.249   5.587 -0.0779  0.1935 -0.1178
 8601SOL    HW137265   1.106   3.213   5.566 -0.4531 -0.6026  2.8486
 8601SOL    HW237266   1.204   3.203   5.670  1.1937 -1.8038 -1.4073
 8602SOL     OW37267   0.157   2.394  13.206  0.1608  0.1793 -0.1641
 8602SOL    HW137268   0.107   2.468  13.172 -0.7639  0.7406  2.3629
 8602SOL    HW237269   0.121   2.384  13.294  3.0588 -0.7264  0.9324
 8603SOL     OW37270   4.172   1.418   4.824 -0.8776 -0.6693  0.1584
 8603SOL    HW137271   4.232   1.429   4.751 -0.0106 -0.2669  0.9276
 8603SOL    HW237272   4.085   1.433   4.788 -0.3199 -0.8476 -1.2456
 8604SOL     OW37273   4.212   1.577   1.882 -0.4174  0.1334  0.0050
 8604SOL    HW137274   4.256   1.637   1.822  0.1647  0.1691  0.4641
 8604SOL    HW237275   4.121   1.577   1.851  0.2729 -0.6276 -2.0548
 8605SOL     OW37276   4.395   1.773  15.893 -0.3939  0.8292 -0.1352
 8605SOL    HW137277   4.439   1.724  15.824  0.6614  2.5607 -0.6799
 8605SOL    HW237278   4.461   1.834  15.925  0.6263 -0.8605  0.9487
 8606SOL     OW37279   3.965   1.729   4.360  0.3208  0.5946  0.2299
 8606SOL    HW137280   3.945   1.818   4.332 -0.3548 -0.0660 -1.3995
 8606SOL    HW237281   4.019   1.699   4.287 -1.2942 -0.3041 -0.6015
 8607SOL     OW37282   0.834   2.347  15.023 -0.5903 -0.4802  0.2861
 8607SOL    HW137283   0.817   2.264  14.978  1.2287 -2.7228  3.7601
 8607SOL    HW237284   0.754   2.389  14.992 -2.7837 -5.2219 -0.5544
 8608SOL     OW37285   1.348   0.368   7.617 -0.3008  0.7562 -0.3694
 8608SOL    HW137286   1.393   0.353   7.701 -0.3451  1.5511 -0.2050
 8608SOL    HW237287   1.385   0.296   7.566  2.2496  0.7810  1.4389
 8609SOL     OW37288   1.003   4.529  17.636  0.1271 -0.2434  0.1525
 8609SOL    HW137289   0.979   4.440  17.609 -1.9157  0.7468 -1.2949
 8609SOL    HW237290   1.036   4.564  17.554  2.5536 -3.2317 -0.1395
 8610SOL     OW37291   1.322   0.702  10.226  0.3883 -0.1078  0.2584
 8610SOL    HW137292   1.354   0.617  10.197  1.4584  0.6472 -0.7947
 8610SOL    HW237293   1.365   0.719  10.310  1.9264  1.6018 -0.8813
 8611SOL     OW37294   3.463   1.766   7.393 -0.0930 -0.4038 -0.1124
 8611SOL    HW137295   3.495   1.676   7.394  1.2696  0.0847  0.3583
 8611SOL    HW237296   3.548   1.810   7.400  0.8124 -2.4803  1.7949
 8612SOL     OW37297   3.592   4.286   3.592  0.0670 -0.8192  0.0391
 8612SOL    HW137298   3.538   4.364   3.587 -1.4884 -2.0372 -2.3527
 8612SOL    HW237299   3.676   4.321   3.620 -1.2076  1.7144  0.6659
 8613SOL     OW37300   2.281   3.229   6.951 -0.2223 -0.0182  0.5664
 8613SOL    HW137301   2.310   3.207   6.862 -2.3530 -2.9173  0.5769
 8613SOL    HW237302   2.311   3.148   6.993  0.8312  0.7143  1.2368
 8614SOL     OW37303   2.492   1.578  11.993  0.2723 -0.3076 -0.0799
 8614SOL    HW137304   2.517   1.648  11.933 -0.5683 -0.3462 -0.4620
 8614SOL    HW237305   2.558   1.595  12.061 -1.2196  1.0437  1.0134
 8615SOL     OW37306   2.925   0.992   5.440 -0.7076  0.5919 -0.5288
 8615SOL    HW137307   2.985   1.052   5.397  0.6091 -0.0522  0.4217
 8615SOL    HW237308   2.908   1.035   5.524 -1.8782 -2.1608  0.6560
 8616SOL     OW37309   1.039   1.305   9.554 -0.1516  0.6999  0.2768
 8616SOL    HW137310   0.959   1.356   9.570 -0.0414  1.4687 -1.6515
 8616SOL    HW237311   1.095   1.334   9.625 -2.6712 -2.1335  3.4390
 8617SOL     OW37312   3.331   1.873   1.806  0.5766  0.0275  0.4894
 8617SOL    HW137313   3.390   1.914   1.869 -0.9639 -0.4734  2.2635
 8617SOL    HW237314   3.390   1.822   1.751 -2.4039 -1.3561 -1.3861
 8618SOL     OW37315   2.273   1.039   3.913 -0.4161 -0.0748  0.0916
 8618SOL    HW137316   2.192   1.049   3.964 -0.1216 -1.4097  0.8328
 8618SOL    HW237317   2.324   1.093   3.973 -1.7652 -1.2418  2.3110
 8619SOL     OW37318   1.689   3.572   0.827  0.6356 -0.3090  0.1739
 8619SOL    HW137319   1.745   3.499   0.853  0.2564 -1.1391 -1.2795
 8619SOL    HW237320   1.628   3.533   0.763 -0.3906 -0.5428  1.2824
 8620SOL     OW37321   3.307   2.185   3.017  0.4624 -0.5037  0.3192
 8620SOL    HW137322   3.240   2.148   2.960  2.6452 -2.3295 -1.0795
 8620SOL    HW237323   3.338   2.243   2.948 -2.5020 -0.8299 -1.2500
 8621SOL     OW37324   0.395   2.362  17.164  0.2161 -0.1665  0.3918
 8621SOL    HW137325   0.384   2.314  17.082 -1.5975  0.3044  0.3570
 8621SOL    HW237326   0.396   2.292  17.230  1.0340 -0.9088 -0.4029
 8622SOL     OW37327   3.086   2.568   4.032  0.5871  0.1968 -0.1533
 8622SOL    HW137328   3.132   2.494   4.070 -2.9097 -1.9384 -0.0174
 8622SOL    HW237329   3.147   2.589   3.961 -2.0713 -0.3690 -2.6332
 8623SOL     OW37330   1.726   0.438   5.206  0.5145 -0.1730 -0.0873
 8623SOL    HW137331   1.798   0.396   5.159  0.8756  0.0860  0.2249
 8623SOL    HW237332   1.686   0.489   5.136  1.6002  1.0608  0.1693
 8624SOL     OW37333   0.549   1.426  16.978  0.5502  0.1699  0.0621
 8624SOL    HW137334   0.615   1.444  16.910 -0.4925  0.3058 -0.9074
 8624SOL    HW237335   0.542   1.331  16.969 -2.5544  0.4032  0.3271
 8625SOL     OW37336   4.209   1.410  10.658  1.3370  0.1862  0.1715
 8625SOL    HW137337   4.185   1.387  10.747 -1.1884  1.1802 -0.2618
 8625SOL    HW237338   4.265   1.335  10.636  0.6165  0.1925 -1.7242
 8626SOL     OW37339   1.004   0.803   6.213  0.3035  0.3184 -0.2593
 8626SOL    HW137340   1.052   0.883   6.192 -3.1817  2.0474 -1.5551
 8626SOL    HW237341   1.029   0.792   6.305  0.4011  1.9821 -0.0801
 8627SOL     OW37342   0.092   3.544   6.224 -0.1761  0.5730  0.2408
 8627SOL    HW137343   0.004   3.581   6.234  1.0430  3.7764 -0.6775
 8627SOL    HW237344   0.135   3.628   6.205  0.7803 -0.4076 -1.8645
 8628SOL     OW37345   4.228   1.116   5.538  0.2164 -0.2947 -0.2000
 8628SOL    HW137346   4.248   1.181   5.471 -2.7292  1.3415  0.5167
 8628SOL    HW237347   4.221   1.038   5.482 -1.2554 -0.1862 -0.1741
 8629SOL     OW37348   0.410   3.208   4.714  0.3620 -0.3343  0.5378
 8629SOL    HW137349   0.461   3.165   4.783 -0.6610 -0.9096  0.9358
 8629SOL    HW237350   0.483   3.268   4.697 -1.5680  1.6264 -0.9180
 8630SOL     OW37351   2.320   0.045  17.600  0.3574  0.4861  0.4374
 8630SOL    HW137352   2.289   0.109  17.665  1.7911  0.5490  1.0534
 8630SOL    HW237353   2.352   4.691  17.654  2.4430  1.2322  0.1990
 8631SOL     OW37354   3.075   4.450  15.998  0.3776  0.3606 -0.5210
 8631SOL    HW137355   3.093   4.511  16.070 -2.8750 -1.9653  2.2796
 8631SOL    HW237356   3.149   4.390  16.010  2.2026  2.1953 -2.4914
 8632SOL     OW37357   1.965   3.035   1.425  0.1626 -0.1809 -0.1799
 8632SOL    HW137358   1.876   3.069   1.415 -0.5302 -1.9249  0.0862
 8632SOL    HW237359   1.960   2.943   1.450 -2.1610 -1.1324 -4.0391
 8633SOL     OW37360   0.670   4.151   9.938 -0.5073  0.5442 -0.3061
 8633SOL    HW137361   0.670   4.224   9.876 -3.1291  1.1432  0.4375
 8633SOL    HW237362   0.710   4.195  10.012 -1.1515  2.4723 -1.1059
 8634SOL     OW37363   2.648   1.999   5.026  0.0795 -0.1112  0.7844
 8634SOL    HW137364   2.555   1.995   5.004  0.7014  1.2363 -2.1887
 8634SOL    HW237365   2.673   1.911   5.052  2.2858 -0.9317 -4.0639
 8635SOL     OW37366   1.354   4.602   4.800  0.0412 -0.1533 -0.1516
 8635SOL    HW137367   1.355   4.558   4.885  1.2857  0.6310  0.2442
 8635SOL    HW237368   1.416   4.544   4.755 -0.5437 -1.3058  0.5446
 8636SOL     OW37369   2.266   3.596   5.375 -0.1252 -0.0195  0.1174
 8636SOL    HW137370   2.268   3.689   5.400 -0.7459  0.1364 -0.4156
 8636SOL    HW237371   2.265   3.548   5.458  0.5577 -0.0057  0.1330
 8637SOL     OW37372   1.096   0.674   3.446  0.8167  0.0698 -0.2329
 8637SOL    HW137373   1.074   0.701   3.357 -3.3291  1.8204  1.3001
 8637SOL    HW237374   1.179   0.628   3.435 -0.1033 -1.5311 -0.3760
 8638SOL     OW37375   1.465   0.222   7.831  0.2457  0.4219  0.2257
 8638SOL    HW137376   1.383   0.251   7.871 -0.0275  1.2806 -0.9453
 8638SOL    HW237377   1.533   0.233   7.898 -1.2562 -0.1277  1.8468
 8639SOL     OW37378   3.072   1.941  17.061  0.3429 -0.7228  0.0327
 8639SOL    HW137379   3.068   1.997  17.138 -1.0492  1.2169 -1.4584
 8639SOL    HW237380   2.989   1.966  17.021  0.3772 -2.2409 -0.9928
 8640SOL     OW37381   2.087   4.638   4.995 -0.1861 -0.4642 -0.0306
 8640SOL    HW137382   2.112   4.699   5.065 -1.5282 -1.2516  1.1193
 8640SOL    HW237383   2.162   4.640   4.935 -0.6593 -0.4377 -0.6176
 8641SOL     OW37384   4.128   2.511  14.734  0.4244  0.0921  0.6794
 8641SOL    HW137385   4.090   2.585  14.780 -0.6017  0.8750 -1.4084
 8641SOL    HW237386   4.073   2.529  14.657 -0.3103 -3.0766  0.4189
 8642SOL     OW37387   2.611   0.130   3.047  0.8227 -0.4912 -0.1319
 8642SOL    HW137388   2.626   0.196   3.115 -1.9598 -0.5429  0.5253
 8642SOL    HW237389   2.526   0.092   3.070  0.9270 -0.7266 -0.1276
 8643SOL     OW37390   2.123   4.102  12.880 -0.3929  0.4788 -0.2662
 8643SOL    HW137391   2.093   4.029  12.934  2.0344  0.0062  0.4445
 8643SOL    HW237392   2.063   4.091  12.806  1.1031  2.9797 -1.8473
 8644SOL     OW37393   0.615   2.064   6.474 -0.2451  0.2765 -0.1468
 8644SOL    HW137394   0.705   2.097   6.472 -0.5002  1.0502  0.9749
 8644SOL    HW237395   0.626   1.975   6.442  0.2351 -0.6180  2.5868
 8645SOL     OW37396   3.989   1.148  17.178 -0.3449 -0.1465 -0.2224
 8645SOL    HW137397   3.921   1.169  17.242  0.4047 -0.9981  0.8558
 8645SOL    HW237398   3.957   1.064  17.148 -0.3965 -0.5454  0.9389
 8646SOL     OW37399   2.446   0.066   6.125  0.2619  0.0867 -0.0562
 8646SOL    HW137400   2.465   0.104   6.040 -1.8576  1.5484  0.1121
 8646SOL    HW237401   2.507   0.119   6.176  2.1922 -1.2930 -0.9349
 8647SOL     OW37402   3.956   2.163  10.796  0.2635 -0.1049  0.1095
 8647SOL    HW137403   3.867   2.194  10.814  0.0505 -1.0548  0.7051
 8647SOL    HW237404   3.993   2.161  10.884  0.8472  1.9178 -0.0772
 8648SOL     OW37405   2.023   4.123  12.175 -1.0365 -0.3545  0.0849
 8648SOL    HW137406   2.081   4.198  12.160  0.8269 -1.3734  2.3328
 8648SOL    HW237407   2.016   4.113  12.270 -0.4932 -0.5534  0.1019
 8649SOL     OW37408   1.880   2.566  11.208 -0.6174  0.0733  0.3497
 8649SOL    HW137409   1.863   2.571  11.302 -0.6009  1.8394  0.2565
 8649SOL    HW237410   1.828   2.494  11.170 -3.6094  2.6037 -0.3725
 8650SOL     OW37411   2.961   1.722   4.329  0.3883 -0.4760 -0.3530
 8650SOL    HW137412   2.965   1.699   4.421 -0.1896 -0.9288 -0.4377
 8650SOL    HW237413   2.923   1.638   4.301  1.8816 -1.2157 -0.1075
 8651SOL     OW37414   1.054   2.984  10.298  0.0538 -0.3219 -0.1681
 8651SOL    HW137415   1.137   2.937  10.288  0.4335  0.6006 -1.2097
 8651SOL    HW237416   1.074   3.038  10.375 -0.1605 -0.1931 -0.2042
 8652SOL     OW37417   1.829   2.386  17.055 -0.1775  0.1930 -0.3292
 8652SOL    HW137418   1.783   2.469  17.067  0.5506 -0.0099  3.8659
 8652SOL    HW237419   1.755   2.331  17.031  0.5456 -0.5093 -0.9439
 8653SOL     OW37420   1.329   3.165   2.975  0.4814  0.2368  0.0767
 8653SOL    HW137421   1.279   3.085   2.987  0.9815 -0.4697 -2.4563
 8653SOL    HW237422   1.274   3.218   2.917 -1.9460  0.3535  2.4846
 8654SOL     OW37423   0.120   0.135   8.384 -0.1645  0.1865 -0.5180
 8654SOL    HW137424   0.060   0.207   8.365 -1.8443 -1.2450 -0.5894
 8654SOL    HW237425   0.147   0.168   8.470  2.8095  1.1403 -1.8028
 8655SOL     OW37426   1.951   2.932   8.771 -0.1752  0.0813 -0.4220
 8655SOL    HW137427   1.960   2.952   8.864  2.1129  0.7358 -0.7912
 8655SOL    HW237428   1.889   2.996   8.737 -2.6677 -1.4434  1.1659
 8656SOL     OW37429   0.202   4.338   8.569  0.0073  0.9823  0.0817
 8656SOL    HW137430   0.225   4.277   8.499 -0.3035  0.3020  0.5685
 8656SOL    HW237431   0.235   4.294   8.647  1.8407 -1.3336 -2.0097
 8657SOL     OW37432   0.461   1.634   3.814  0.6881  0.1552 -0.5945
 8657SOL    HW137433   0.368   1.625   3.795  0.5192 -0.6037  0.6420
 8657SOL    HW237434   0.503   1.578   3.749  0.5746  0.0203 -0.5517
 8658SOL     OW37435   3.440   2.566   2.658 -0.1308  0.6185  0.3040
 8658SOL    HW137436   3.418   2.640   2.715  2.6304  0.8571  1.0464
 8658SOL    HW237437   3.426   2.602   2.571  2.4608 -2.2819 -1.2758
 8659SOL     OW37438   4.182   2.021  15.638  0.2697  0.0079 -0.3671
 8659SOL    HW137439   4.228   2.101  15.662 -0.8051  0.5402 -0.0798
 8659SOL    HW237440   4.150   2.043  15.550 -1.0774 -0.0899  0.0967
 8660SOL     OW37441   4.690   2.995   0.789  0.0453  0.2966  0.3821
 8660SOL    HW137442   0.004   2.931   0.725  0.3053 -1.1171  1.9388
 8660SOL    HW237443   0.043   2.991   0.853  1.5387 -0.7756 -1.3636
 8661SOL     OW37444   2.537   3.691  10.458 -0.0328 -0.4019 -0.5542
 8661SOL    HW137445   2.592   3.626  10.415  0.4801 -0.7306  0.6013
 8661SOL    HW237446   2.455   3.640  10.465 -0.5988  0.5500 -0.2924
 8662SOL     OW37447   1.861   1.881  15.751  0.0013  0.0374  0.5892
 8662SOL    HW137448   1.864   1.977  15.751 -0.5082  0.0556  1.1603
 8662SOL    HW237449   1.783   1.871  15.806 -0.3603 -0.9246 -0.0967
 8663SOL     OW37450   2.288   3.954   8.982  0.2485 -0.1335  0.3776
 8663SOL    HW137451   2.260   3.951   8.890  3.0913  0.5093 -0.5302
 8663SOL    HW237452   2.247   3.873   9.012  2.7264 -1.9765 -1.1283
 8664SOL     OW37453   2.347   2.643   9.424  0.3514  0.1670 -0.0776
 8664SOL    HW137454   2.268   2.616   9.376  0.8940 -1.7915  0.1494
 8664SOL    HW237455   2.315   2.732   9.443 -2.1974 -1.2034  2.1177
 8665SOL     OW37456   4.493   1.918   4.747  0.4250 -0.0153 -0.0922
 8665SOL    HW137457   4.411   1.877   4.775  0.4304  1.6741  2.3472
 8665SOL    HW237458   4.473   2.009   4.770  0.3820  0.3263 -1.4789
 8666SOL     OW37459   3.755   1.627  16.695 -0.4930  0.7816 -0.4505
 8666SOL    HW137460   3.724   1.649  16.783  0.1735  0.9663 -0.2671
 8666SOL    HW237461   3.808   1.706  16.683  0.4047  0.2156 -0.1968
 8667SOL     OW37462   1.298   2.583   3.512 -0.1724  0.1668  0.1237
 8667SOL    HW137463   1.383   2.601   3.472  0.1453  0.6282  1.0081
 8667SOL    HW237464   1.336   2.515   3.568  1.1011  2.1143  1.6761
 8668SOL     OW37465   4.214   2.088  11.272 -0.1391 -0.4292 -0.1828
 8668SOL    HW137466   4.185   1.997  11.266 -1.5907 -0.0600  1.2718
 8668SOL    HW237467   4.274   2.076  11.346 -0.1664  0.2244 -0.0621
 8669SOL     OW37468   0.920   3.400   9.337  0.1732 -0.0949  0.3079
 8669SOL    HW137469   0.949   3.316   9.301 -2.5769 -1.2461  0.7361
 8669SOL    HW237470   0.825   3.388   9.335  0.2928 -0.9912  0.2037
 8670SOL     OW37471   3.733   1.916   7.293 -0.2200 -0.2024 -0.2763
 8670SOL    HW137472   3.822   1.886   7.276 -0.4927 -1.4701  0.5254
 8670SOL    HW237473   3.733   1.942   7.385  2.1354  0.9017 -0.6004
 8671SOL     OW37474   2.559   0.622   7.898  0.4533  0.4198  0.0582
 8671SOL    HW137475   2.631   0.629   7.961 -1.5785  1.2638  2.2835
 8671SOL    HW237476   2.503   0.695   7.924 -0.4964 -0.2620 -0.0894
 8672SOL     OW37477   3.302   3.933   9.965 -0.4272 -0.4545  0.1390
 8672SOL    HW137478   3.251   4.008   9.994 -1.5726 -1.7389  1.4825
 8672SOL    HW237479   3.236   3.866   9.984 -2.9296  2.2817  0.9364
 8673SOL     OW37480   4.379   4.212   5.133  0.2471 -0.2814  0.8695
 8673SOL    HW137481   4.391   4.259   5.051 -0.9594 -0.7613  0.4259
 8673SOL    HW237482   4.343   4.284   5.184 -0.5544  1.7281 -2.5247
 8674SOL     OW37483   0.240   2.948  10.891 -0.0795 -0.4961 -0.6518
 8674SOL    HW137484   0.241   2.934  10.797 -1.3450 -3.3891 -0.2117
 8674SOL    HW237485   0.145   2.949  10.904  0.1386  2.9136  0.8371
 8675SOL     OW37486   3.449   3.009   5.544 -0.5956  0.1366 -0.3872
 8675SOL    HW137487   3.496   3.000   5.627 -0.0606  2.4743 -0.4298
 8675SOL    HW237488   3.433   2.916   5.526  0.9180  0.3289 -2.8011
 8676SOL     OW37489   4.631   1.785   7.733 -0.3422  0.7697  0.2991
 8676SOL    HW137490   4.610   1.845   7.662  1.5334  0.8629 -0.1676
 8676SOL    HW237491   4.695   1.740   7.678  0.3787 -0.5739  2.2141
 8677SOL     OW37492   1.259   0.722   2.728  0.5046  0.4463 -0.0341
 8677SOL    HW137493   1.297   0.669   2.658 -0.7484 -1.7344  0.9524
 8677SOL    HW237494   1.183   0.763   2.685  0.0318 -0.0866  0.3045
 8678SOL     OW37495   1.404   3.743   4.664  0.4364 -0.6655  0.1282
 8678SOL    HW137496   1.450   3.711   4.587  3.1111  1.4113  0.8285
 8678SOL    HW237497   1.445   3.687   4.730 -0.2333 -0.3520  0.8125
 8679SOL     OW37498   0.390   4.326   1.128  0.1017 -0.2696 -0.1516
 8679SOL    HW137499   0.442   4.266   1.181 -0.2483 -2.0483 -1.7876
 8679SOL    HW237500   0.386   4.411   1.171  0.4092 -0.3898  0.1120
 8680SOL     OW37501   0.940   3.352  10.823  0.5637 -0.5144  0.4149
 8680SOL    HW137502   0.951   3.262  10.792 -0.6307 -0.5682  0.1434
 8680SOL    HW237503   1.018   3.394  10.786  0.6424  2.8073  4.2824
 8681SOL     OW37504   1.433   3.834   0.247 -0.4873  0.4844  0.1497
 8681SOL    HW137505   1.349   3.828   0.200 -0.4560  1.1298  0.0095
 8681SOL    HW237506   1.465   3.911   0.199  0.3766  0.4233  0.6380
 8682SOL     OW37507   4.669   3.299  17.225  0.0269 -0.3160  0.2146
 8682SOL    HW137508   4.630   3.214  17.247 -0.8571  0.0387  0.0126
 8682SOL    HW237509   4.595   3.356  17.204 -0.2516  0.0794  2.3058
 8683SOL     OW37510   2.867   1.559  10.477  0.2993  0.9597 -0.0554
 8683SOL    HW137511   2.928   1.527  10.411  1.2457  1.5223  0.5398
 8683SOL    HW237512   2.912   1.633  10.519  1.0697 -0.6685  1.9970
 8684SOL     OW37513   2.107   2.040   5.876 -0.1010 -0.0692  0.0489
 8684SOL    HW137514   2.154   2.114   5.915 -0.4558  0.0804  0.1951
 8684SOL    HW237515   2.170   2.006   5.812 -1.0311 -0.2418 -0.7806
 8685SOL     OW37516   4.025   0.393   6.091 -0.1591  0.2191  0.1063
 8685SOL    HW137517   4.005   0.469   6.145  2.6207  1.2911 -0.3665
 8685SOL    HW237518   4.017   0.443   6.010  0.2742  0.5446  0.2635
 8686SOL     OW37519   0.518   2.908  10.258 -0.0873 -0.2070  0.0373
 8686SOL    HW137520   0.600   2.953  10.238  0.1825 -0.3363  0.8551
 8686SOL    HW237521   0.466   2.981  10.292 -0.1210  0.2198 -0.9362
 8687SOL     OW37522   0.113   1.900   8.196  0.5706  0.4101 -0.6385
 8687SOL    HW137523   0.055   1.871   8.126  0.7857 -1.1576 -0.1668
 8687SOL    HW237524   0.053   1.923   8.267 -0.2813  0.3974 -1.3584
 8688SOL     OW37525   3.902   2.742  13.886 -0.5425 -0.2398 -0.6789
 8688SOL    HW137526   3.878   2.802  13.957 -2.2126  0.4266 -1.8266
 8688SOL    HW237527   3.950   2.671  13.930 -0.6778 -0.7043 -1.2911
 8689SOL     OW37528   2.364   1.181   0.660 -0.1587  0.1364 -0.3429
 8689SOL    HW137529   2.433   1.246   0.647  1.4924 -1.6847 -0.7084
 8689SOL    HW237530   2.333   1.153   0.573  0.6537  1.1546 -0.9574
 8690SOL     OW37531   2.526   0.617  17.160 -0.1658 -0.2742 -0.1238
 8690SOL    HW137532   2.545   0.640  17.069  1.8347 -2.8205 -0.3544
 8690SOL    HW237533   2.505   0.524  17.162 -0.9181 -0.1286 -1.1175
 8691SOL     OW37534   2.936   2.177   0.088 -0.1371 -0.1459  0.4309
 8691SOL    HW137535   2.977   2.226   0.159  2.7716 -1.6074 -0.2475
 8691SOL    HW237536   2.856   2.148   0.133 -0.5169 -1.1186 -0.8532
 8692SOL     OW37537   2.748   1.472  17.181  0.5496  0.0735 -0.1346
 8692SOL    HW137538   2.657   1.442  17.187  1.4449 -2.5662  0.2201
 8692SOL    HW237539   2.793   1.394  17.213 -0.5802  0.1205  1.5733
 8693SOL     OW37540   4.390   2.601   4.563  0.4576 -0.2919  0.5315
 8693SOL    HW137541   4.371   2.689   4.529  1.3385 -0.4589 -0.4111
 8693SOL    HW237542   4.371   2.618   4.655  1.8872 -1.9550  1.1293
 8694SOL     OW37543   3.664   4.290   3.287  0.1970 -0.7569  0.5513
 8694SOL    HW137544   3.685   4.198   3.274  2.6673 -0.1873  0.5801
 8694SOL    HW237545   3.726   4.305   3.358 -0.1890  4.4871 -0.1598
 8695SOL     OW37546   4.249   1.362   7.560 -0.1309 -0.1087 -0.0959
 8695SOL    HW137547   4.307   1.408   7.620 -1.2242  1.4305 -0.2350
 8695SOL    HW237548   4.295   1.278   7.567  0.9484  0.3670 -1.7179
 8696SOL     OW37549   3.010   1.068   4.355  0.3658  0.1556 -0.0233
 8696SOL    HW137550   3.042   1.018   4.431  0.2195  0.1570  0.0381
 8696SOL    HW237551   3.093   1.113   4.341  2.0152 -2.2506  1.9845
 8697SOL     OW37552   3.344   4.356   6.387 -0.0982 -0.2195 -0.2556
 8697SOL    HW137553   3.303   4.278   6.348 -1.5970  1.4824 -2.1054
 8697SOL    HW237554   3.438   4.339   6.379  0.1804  0.5997  1.3364
 8698SOL     OW37555   0.992   1.691   9.106  0.1417  0.3051  0.0254
 8698SOL    HW137556   0.979   1.623   9.171 -1.7080  1.2736  0.6602
 8698SOL    HW237557   0.942   1.761   9.148 -0.2695  0.3136 -0.4704
 8699SOL     OW37558   4.655   4.175   2.970 -0.4778 -0.6144  0.4324
 8699SOL    HW137559   4.669   4.138   3.057 -1.9938 -1.7393  0.2145
 8699SOL    HW237560   4.569   4.213   2.988  0.5915  0.1813  3.7386
 8700SOL     OW37561   3.097   4.189   2.329 -0.4820 -0.0094 -0.3858
 8700SOL    HW137562   3.109   4.278   2.297 -3.0577  1.1180  1.7885
 8700SOL    HW237563   3.173   4.136   2.302  0.5447  1.5854 -0.6202
 8701SOL     OW37564   1.248   1.394  15.949  0.5719  0.4338  0.1061
 8701SOL    HW137565   1.165   1.353  15.975  0.7278  1.6052  2.4798
 8701SOL    HW237566   1.229   1.480  15.988  0.0310 -0.3508  1.5594
 8702SOL     OW37567   3.341   0.461   7.629  0.0788  0.1258 -0.5879
 8702SOL    HW137568   3.364   0.372   7.655  1.3607  0.3566 -0.9461
 8702SOL    HW237569   3.406   0.511   7.679 -1.9423  0.7515  1.4584
 8703SOL     OW37570   0.433   0.011  12.827 -0.3036 -0.2312  0.0699
 8703SOL    HW137571   0.438   0.066  12.905 -1.0928  1.3678 -1.0022
 8703SOL    HW237572   0.510   0.039  12.778 -0.1680 -0.8097 -0.0443
 8704SOL     OW37573   3.069   3.044   1.173 -0.0302  0.0309 -0.2637
 8704SOL    HW137574   2.974   3.060   1.167  0.0910  0.6011 -0.6891
 8704SOL    HW237575   3.077   2.979   1.103 -1.5772  1.5010 -1.8129
 8705SOL     OW37576   4.440   3.358   0.279 -0.0390 -0.2445 -0.6588
 8705SOL    HW137577   4.490   3.348   0.198  1.1826  0.1763  0.0384
 8705SOL    HW237578   4.378   3.289   0.256  0.5841 -1.8893  2.5651
 8706SOL     OW37579   1.730   1.346   6.779  0.3802  0.0213  0.4948
 8706SOL    HW137580   1.635   1.361   6.785  0.0482 -0.6584 -2.9862
 8706SOL    HW237581   1.765   1.351   6.868  0.4398 -1.0970  0.5387
 8707SOL     OW37582   1.528   1.796   4.430 -0.1887  0.5880 -0.2538
 8707SOL    HW137583   1.589   1.771   4.360  0.9329  0.1303  0.8999
 8707SOL    HW237584   1.475   1.855   4.376  2.2807  1.2154 -2.0134
 8708SOL     OW37585   1.326   1.121   6.045 -0.1653 -0.2301  0.2361
 8708SOL    HW137586   1.346   1.031   6.069 -2.3491 -0.2179  2.1793
 8708SOL    HW237587   1.360   1.174   6.117  4.6132 -2.9155 -0.0756
 8709SOL     OW37588   3.611   3.925   7.076  0.2210 -1.0380  0.5342
 8709SOL    HW137589   3.552   3.876   7.019  0.4607 -0.5895 -0.1047
 8709SOL    HW237590   3.572   3.913   7.163 -0.9471  0.5419  0.2314
 8710SOL     OW37591   1.254   1.893   7.421 -0.1403  0.1132 -0.2782
 8710SOL    HW137592   1.247   1.920   7.513  0.4228 -3.0565  0.7236
 8710SOL    HW237593   1.209   1.969   7.386  1.5671  1.0091 -0.5187
 8711SOL     OW37594   1.307   3.936   6.761 -0.2641 -0.2508 -0.0878
 8711SOL    HW137595   1.290   3.844   6.740  1.6118 -1.2180  2.6301
 8711SOL    HW237596   1.224   3.981   6.743  0.4951  1.3748  0.5563
 8712SOL     OW37597   3.920   4.374   4.487 -0.4971  0.6422 -0.4078
 8712SOL    HW137598   3.854   4.426   4.533 -0.6492  1.0611 -1.1039
 8712SOL    HW237599   3.868   4.311   4.437 -0.8970  0.1267  0.6705
 8713SOL     OW37600   1.083   2.397   5.807 -0.1629 -0.0948  0.5068
 8713SOL    HW137601   1.090   2.325   5.745  1.6672  0.5079  0.0154
 8713SOL    HW237602   1.041   2.351   5.880 -1.6392  0.4143 -0.0231
 8714SOL     OW37603   2.199   4.109   9.180  0.6417 -0.4736  0.1366
 8714SOL    HW137604   2.152   4.034   9.215 -2.2673  1.5256  0.4249
 8714SOL    HW237605   2.217   4.069   9.094 -1.8835  1.4161 -1.2447
 8715SOL     OW37606   0.035   3.500   7.294 -0.6227 -0.3397  0.5788
 8715SOL    HW137607   0.125   3.483   7.267  0.6110  3.8052  2.0273
 8715SOL    HW237608   0.007   3.409   7.299 -0.9461 -0.1867  1.6624
 8716SOL     OW37609   3.247   3.495   7.983 -0.5148  0.8121 -0.3834
 8716SOL    HW137610   3.178   3.532   7.929 -1.0511  0.5916  0.1613
 8716SOL    HW237611   3.238   3.535   8.069 -1.7186 -1.9496  0.7671
 8717SOL     OW37612   4.380   2.845   2.882  0.0979  0.0759  0.0596
 8717SOL    HW137613   4.470   2.856   2.852  0.6320  0.2185  1.7051
 8717SOL    HW237614   4.389   2.801   2.967  1.8518 -1.1803 -0.7676
 8718SOL     OW37615   0.121   3.532   6.864  0.1892  0.1186 -0.9787
 8718SOL    HW137616   0.216   3.540   6.855  0.2860  1.4979  1.1345
 8718SOL    HW237617   0.080   3.589   6.799 -2.0475  3.0211  2.9298
 8719SOL     OW37618   2.433   4.308   8.392  0.1951  0.2671 -0.5590
 8719SOL    HW137619   2.435   4.389   8.443 -4.3045  0.6667 -1.0628
 8719SOL    HW237620   2.527   4.302   8.373  0.1301  4.0403 -2.1921
 8720SOL     OW37621   0.509   2.306   8.565 -0.9802 -0.2733  0.2100
 8720SOL    HW137622   0.584   2.246   8.558  1.5295  2.5385  2.9678
 8720SOL    HW237623   0.490   2.302   8.658 -2.1883 -3.5659 -0.1835
 8721SOL     OW37624   1.329   4.694   7.756  0.0274  0.0600  0.2147
 8721SOL    HW137625   1.343   4.702   7.662 -0.5720  2.0641  0.3082
 8721SOL    HW237626   1.351   0.064   7.786  0.8396 -0.1790  0.3422
 8722SOL     OW37627   0.538   2.228   2.228 -0.4075  0.5315 -0.4766
 8722SOL    HW137628   0.457   2.180   2.213 -1.3300  2.3570 -1.2909
 8722SOL    HW237629   0.547   2.219   2.323  2.7584  1.4960 -0.6805
 8723SOL     OW37630   2.509   4.397  15.086  0.2742  0.9432  0.1421
 8723SOL    HW137631   2.467   4.314  15.110  0.8786  1.0672  1.6357
 8723SOL    HW237632   2.593   4.368  15.052 -1.7385 -3.0906 -1.3307
 8724SOL     OW37633   0.286   0.211   2.427 -0.0301  0.7304 -0.2851
 8724SOL    HW137634   0.350   0.282   2.419  0.3194  0.3863 -0.5451
 8724SOL    HW237635   0.324   0.174   2.506  0.5783 -1.9940 -1.8443
 8725SOL     OW37636   1.475   0.438  10.837  0.3894 -0.6166  0.0922
 8725SOL    HW137637   1.420   0.420  10.761  1.1181  0.4811 -0.6710
 8725SOL    HW237638   1.475   0.533  10.826  0.8543 -0.7252 -0.8168
 8726SOL     OW37639   0.294   2.578   1.286 -0.8484  0.3970  0.2284
 8726SOL    HW137640   0.294   2.483   1.292 -1.1600  0.3891  0.0991
 8726SOL    HW237641   0.292   2.596   1.380 -0.8638 -0.2385  0.3469
 8727SOL     OW37642   3.731   2.497   8.843 -0.2886  0.1696  0.2447
 8727SOL    HW137643   3.819   2.470   8.815  0.2163  1.2232  0.8308
 8727SOL    HW237644   3.673   2.435   8.798 -2.4992 -0.2677  3.7332
 8728SOL     OW37645   2.378   2.176  17.268 -0.0124 -0.3858 -0.0378
 8728SOL    HW137646   2.382   2.271  17.271 -1.1048 -0.3596  0.4827
 8728SOL    HW237647   2.403   2.159  17.359  1.6263 -1.1368 -0.6235
 8729SOL     OW37648   4.203   4.479   7.925 -0.3918 -0.1630  0.0740
 8729SOL    HW137649   4.270   4.422   7.887  2.1677  1.6335  1.9451
 8729SOL    HW237650   4.175   4.423   7.997  3.8903 -3.2114 -0.6120
 8730SOL     OW37651   0.303   3.966   1.875 -0.0827  0.2052  0.1389
 8730SOL    HW137652   0.242   3.939   1.943  2.1109 -2.0199  1.1918
 8730SOL    HW237653   0.262   4.043   1.836  1.7191  1.1850  0.1514
 8731SOL     OW37654   2.777   0.471   7.630 -0.1011  0.5041 -0.0410
 8731SOL    HW137655   2.807   0.434   7.713  3.2173  2.6992 -0.2712
 8731SOL    HW237656   2.854   0.480   7.573 -1.1722 -3.6329 -2.1875
 8732SOL     OW37657   3.254   2.963  11.446  0.7663 -0.3385  0.0323
 8732SOL    HW137658   3.162   2.946  11.427  1.1822 -0.9647 -1.3777
 8732SOL    HW237659   3.290   2.875  11.457  1.1677 -0.2660 -0.7264
 8733SOL     OW37660   3.312   3.834   3.637 -0.1509 -0.2145  0.5986
 8733SOL    HW137661   3.367   3.771   3.591  0.7399 -0.6703  2.3127
 8733SOL    HW237662   3.372   3.908   3.642  1.1920 -1.1098 -2.1889
 8734SOL     OW37663   2.776   2.213   9.381 -0.4081 -0.3049 -0.1279
 8734SOL    HW137664   2.708   2.162   9.425  0.0772  0.5005  1.5519
 8734SOL    HW237665   2.856   2.175   9.418  0.8673  0.9949 -1.5521
 8735SOL     OW37666   3.098   1.865   7.220 -0.2665 -0.1342  0.3121
 8735SOL    HW137667   3.080   1.912   7.302  2.6107  4.3851 -1.6667
 8735SOL    HW237668   3.181   1.902   7.190 -0.3976 -0.6105 -0.6397
 8736SOL     OW37669   0.172   1.540  14.904 -0.5149  0.0789  0.0853
 8736SOL    HW137670   0.130   1.488  14.972 -1.7104 -0.2211 -0.9047
 8736SOL    HW237671   0.229   1.471  14.870 -0.0332 -0.2189  1.4935
 8737SOL     OW37672   4.637   2.164   5.435 -0.0041  0.5070  0.3668
 8737SOL    HW137673   4.643   2.183   5.342 -0.2773 -0.4225  0.1600
 8737SOL    HW237674   0.012   2.170   5.458 -0.4514  4.0023  1.2071
 8738SOL     OW37675   3.991   1.302   8.685  0.7989 -0.1873 -1.2635
 8738SOL    HW137676   4.007   1.271   8.774 -2.1374 -2.7917 -1.6327
 8738SOL    HW237677   3.895   1.301   8.692  0.8984  1.7450  0.1850
 8739SOL     OW37678   3.272   3.268   2.781 -0.3342  0.0462 -0.0458
 8739SOL    HW137679   3.296   3.332   2.849 -0.4898  0.9378 -0.8356
 8739SOL    HW237680   3.355   3.255   2.735  0.3352  1.8369  0.6177
 8740SOL     OW37681   3.586   3.842   9.101 -0.4648 -0.4518  0.1547
 8740SOL    HW137682   3.614   3.782   9.031 -2.5685 -1.1154 -0.1357
 8740SOL    HW237683   3.579   3.929   9.062 -0.7854 -1.0847 -1.2039
 8741SOL     OW37684   1.917   2.002   6.083 -0.1277  0.4903 -0.3492
 8741SOL    HW137685   1.981   1.944   6.123 -1.3104 -1.0832 -0.7183
 8741SOL    HW237686   1.958   2.009   5.997 -0.2673 -1.3062 -0.5593
 8742SOL     OW37687   2.463   2.781   6.283  0.3964 -0.3725 -0.3582
 8742SOL    HW137688   2.393   2.721   6.309  0.0789  0.1614  0.0425
 8742SOL    HW237689   2.522   2.749   6.351  2.9570  0.4775 -2.2173
 8743SOL     OW37690   4.206   2.738   4.796 -1.0410 -0.0297  0.0731
 8743SOL    HW137691   4.227   2.803   4.729 -1.8783 -2.0310 -2.0930
 8743SOL    HW237692   4.118   2.770   4.812  0.2788  2.2268  2.9400
 8744SOL     OW37693   2.740   2.881   4.723  0.2905  0.2609  0.4079
 8744SOL    HW137694   2.683   2.842   4.657 -0.0431  0.4544  0.5827
 8744SOL    HW237695   2.809   2.922   4.670 -2.3294  2.0108 -1.6248
 8745SOL     OW37696   3.934   2.579   5.391  0.1753 -1.0319 -0.1783
 8745SOL    HW137697   3.857   2.611   5.344  0.5171  0.6728  0.4146
 8745SOL    HW237698   3.927   2.488   5.364 -0.1452 -0.8106 -0.8492
 8746SOL     OW37699   2.205   2.509  10.792  0.7801 -0.3330 -0.2404
 8746SOL    HW137700   2.298   2.488  10.799  0.7008 -1.0793 -1.5680
 8746SOL    HW237701   2.170   2.516  10.881 -1.1965 -0.9127 -0.9791
 8747SOL     OW37702   1.521   0.852   2.399  0.5849  0.0369  0.5885
 8747SOL    HW137703   1.530   0.802   2.480 -0.0481 -0.8131  0.1340
 8747SOL    HW237704   1.596   0.825   2.347 -0.6904  0.3418 -1.4067
 8748SOL     OW37705   3.982   2.460   4.992  0.0924  0.5795  0.4945
 8748SOL    HW137706   3.984   2.418   4.906  0.5882  0.7668  0.4149
 8748SOL    HW237707   4.072   2.492   5.001  1.3716 -2.1048 -2.9622
 8749SOL     OW37708   3.293   2.958   0.830 -0.0099  0.5196  0.2531
 8749SOL    HW137709   3.239   2.884   0.857 -0.8506  1.5217  1.3559
 8749SOL    HW237710   3.355   2.976   0.901 -0.0317 -1.5252  0.7886
 8750SOL     OW37711   1.091   0.392  12.450  0.1347  0.2957  0.3144
 8750SOL    HW137712   1.151   0.380  12.376  2.2234  0.7433  1.9183
 8750SOL    HW237713   1.139   0.370  12.529 -3.0093 -1.5124  1.7058
 8751SOL     OW37714   1.357   2.906   4.197 -0.2260  0.0090 -0.5501
 8751SOL    HW137715   1.310   2.846   4.138 -1.6984  1.6698 -1.0753
 8751SOL    HW237716   1.320   2.896   4.285  0.5079  0.0408 -0.2392
 8752SOL     OW37717   0.375   4.544  17.640  0.6106  0.3972 -0.3109
 8752SOL    HW137718   0.394   4.589  17.558  2.2126 -2.1768 -1.3746
 8752SOL    HW237719   0.327   4.468  17.605  0.0020 -0.2313  1.8536
 8753SOL     OW37720   1.311   0.002   2.237 -0.2378  0.2337 -0.3774
 8753SOL    HW137721   1.343   4.668   2.163  1.5124  1.7425 -0.6637
 8753SOL    HW237722   1.221   4.688   2.229 -0.0488 -0.2997 -0.3969
 8754SOL     OW37723   1.093   0.568   2.867 -0.0809 -0.6550  0.3200
 8754SOL    HW137724   1.144   0.487   2.867  0.4075 -0.3465  0.8512
 8754SOL    HW237725   1.155   0.635   2.838 -0.1432 -0.1013  1.4527
 8755SOL     OW37726   0.592   2.905   7.705  0.2822 -0.2966 -0.1154
 8755SOL    HW137727   0.513   2.850   7.703  1.6494 -2.2627 -0.5814
 8755SOL    HW237728   0.645   2.853   7.644 -0.2593 -0.2459 -0.6331
 8756SOL     OW37729   2.815   3.429  12.753  0.0065 -0.2186  0.1464
 8756SOL    HW137730   2.727   3.413  12.717 -0.6696  0.1174  1.6476
 8756SOL    HW237731   2.849   3.487  12.685  1.4383 -0.3863  0.7119
 8757SOL     OW37732   2.505   4.193  10.773  0.3960  0.1741 -0.5139
 8757SOL    HW137733   2.486   4.221  10.862 -1.0932 -0.6178 -0.5792
 8757SOL    HW237734   2.437   4.126  10.766  0.8398 -0.3312  0.0489
 8758SOL     OW37735   0.603   3.156   4.916 -0.2262 -0.2127 -0.2649
 8758SOL    HW137736   0.661   3.167   4.991 -0.1619 -0.7793 -0.2319
 8758SOL    HW237737   0.660   3.196   4.851 -0.3542 -0.1568 -0.3422
 8759SOL     OW37738   0.133   4.182   0.574  0.3637 -0.1231  0.1512
 8759SOL    HW137739   0.201   4.179   0.506  1.4909 -0.5077  1.2803
 8759SOL    HW237740   0.103   4.273   0.572 -0.3858 -0.4269 -2.0136
 8760SOL     OW37741   1.208   3.565   1.509 -0.0204  0.0383 -0.3465
 8760SOL    HW137742   1.270   3.637   1.518 -0.6185  0.3319  1.3827
 8760SOL    HW237743   1.134   3.620   1.484 -0.4267 -0.8367 -1.1075
 8761SOL     OW37744   0.993   0.180   7.888 -0.3851  0.1250 -0.0348
 8761SOL    HW137745   1.005   0.191   7.794  3.0213 -1.6263  0.1785
 8761SOL    HW237746   0.901   0.156   7.889 -0.3204 -0.1457 -0.6869
 8762SOL     OW37747   3.183   3.009   8.654  0.2085 -0.4448 -0.0865
 8762SOL    HW137748   3.101   3.052   8.628 -0.2345 -0.3424  1.4888
 8762SOL    HW237749   3.194   3.031   8.746  2.3691  1.2636 -0.7397
 8763SOL     OW37750   3.536   2.422  14.906 -0.1003  0.0058  0.3974
 8763SOL    HW137751   3.581   2.475  14.972 -0.3312 -0.4259  0.8979
 8763SOL    HW237752   3.583   2.339  14.915 -0.8282 -0.5048 -0.5596
 8764SOL     OW37753   0.434   0.454   2.377 -0.5722 -0.6751  0.0578
 8764SOL    HW137754   0.378   0.463   2.300  2.5403  1.1330 -1.9712
 8764SOL    HW237755   0.388   0.515   2.435 -2.6699 -0.0383 -2.3035
 8765SOL     OW37756   3.990   3.417  16.981  0.1401 -0.4753 -0.5941
 8765SOL    HW137757   3.977   3.368  16.900 -1.5725 -1.3784  0.2134
 8765SOL    HW237758   4.022   3.502  16.951 -2.1689  0.2854 -0.9391
 8766SOL     OW37759   1.545   2.888   3.740 -0.3661  0.2428 -0.2811
 8766SOL    HW137760   1.598   2.966   3.757 -2.5436  1.7990 -0.5346
 8766SOL    HW237761   1.607   2.815   3.743 -2.1595 -1.2074  1.4760
 8767SOL     OW37762   0.877   1.410  13.000  0.5418  0.1228 -0.0317
 8767SOL    HW137763   0.935   1.483  13.022  1.1981 -0.5451  0.4833
 8767SOL    HW237764   0.793   1.420  13.045 -0.6290 -0.7929 -2.0089
 8768SOL     OW37765   4.660   1.399   3.861 -0.0508  0.0290 -0.0210
 8768SOL    HW137766   0.002   1.376   3.931  1.3220 -1.7023 -1.7611
 8768SOL    HW237767   4.647   1.323   3.804  4.4673  1.6669 -3.1881
 8769SOL     OW37768   2.361   0.373   3.973 -0.1368 -0.2304  0.1609
 8769SOL    HW137769   2.400   0.404   4.054  0.3631  0.1537 -0.2274
 8769SOL    HW237770   2.439   0.341   3.926  0.6631 -0.2755  1.5280
 8770SOL     OW37771   4.281   2.914   5.804  0.5940  0.1095  0.6076
 8770SOL    HW137772   4.258   2.840   5.859  1.5247 -0.0625  0.7686
 8770SOL    HW237773   4.192   2.929   5.773 -0.1389 -0.1251  2.6355
 8771SOL     OW37774   4.251   1.580   2.177 -0.5637 -0.6096  0.3304
 8771SOL    HW137775   4.201   1.645   2.228 -0.0279 -0.2758  0.4255
 8771SOL    HW237776   4.337   1.582   2.218 -0.4725  3.0409 -0.0150
 8772SOL     OW37777   2.426   2.680   8.989  0.3355 -0.4143  0.4573
 8772SOL    HW137778   2.402   2.589   9.004 -0.1155 -0.1901  1.0778
 8772SOL    HW237779   2.499   2.680   9.052 -1.0889  2.0376  2.1283
 8773SOL     OW37780   1.514   1.653   5.125  0.8247  0.5789  0.0101
 8773SOL    HW137781   1.432   1.694   5.152 -0.9752 -2.0414 -1.4470
 8773SOL    HW237782   1.489   1.561   5.118  1.7940  0.3745 -0.7533
 8774SOL     OW37783   2.392   2.462   6.117  1.3542 -0.3479 -0.0047
 8774SOL    HW137784   2.466   2.460   6.177  1.6764 -0.4469 -0.4015
 8774SOL    HW237785   2.317   2.454   6.176  1.4364  3.0730  0.5929
 8775SOL     OW37786   1.802   3.512   7.697 -0.5970  0.4519 -0.2771
 8775SOL    HW137787   1.733   3.569   7.664 -0.9610 -0.2034 -0.6488
 8775SOL    HW237788   1.870   3.574   7.725 -0.2934  0.8302 -1.8635
 8776SOL     OW37789   3.696   2.149  14.040 -0.2834  0.1214  0.3155
 8776SOL    HW137790   3.614   2.164  13.993  0.0723 -1.2402 -0.7324
 8776SOL    HW237791   3.758   2.147  13.968 -0.2654  2.2685  0.2604
 8777SOL     OW37792   3.925   2.027   2.946 -0.9157 -0.0836 -0.1590
 8777SOL    HW137793   3.927   1.970   3.023 -1.0351 -0.9718 -0.8143
 8777SOL    HW237794   4.011   2.069   2.948 -1.8828  1.8813  0.3715
 8778SOL     OW37795   1.880   4.661  13.626 -0.3015  0.5178 -0.0651
 8778SOL    HW137796   1.911   4.679  13.538 -1.8104  0.4717 -0.6100
 8778SOL    HW237797   1.796   4.617  13.615  1.1620 -2.1182 -0.4804
 8779SOL     OW37798   0.655   0.979   4.117  0.9458  0.5530  0.6698
 8779SOL    HW137799   0.662   1.052   4.055 -1.4283  0.4808  0.3230
 8779SOL    HW237800   0.582   1.004   4.173 -1.1906 -0.5470 -1.5962
 8780SOL     OW37801   3.305   1.648   5.174  0.4776 -0.1650  0.6171
 8780SOL    HW137802   3.395   1.631   5.202  1.2459  0.2588 -1.5903
 8780SOL    HW237803   3.303   1.606   5.088  1.5204  2.2546 -0.5998
 8781SOL     OW37804   3.464   4.057   3.537  0.3547  0.5734 -0.6230
 8781SOL    HW137805   3.503   4.134   3.578 -0.5182 -0.8670  2.8320
 8781SOL    HW237806   3.522   4.044   3.462  2.4024  3.3836  0.4592
 8782SOL     OW37807   4.420   3.644   0.808  0.3881  0.0023 -0.3072
 8782SOL    HW137808   4.388   3.691   0.885 -2.1650 -0.6199 -0.9879
 8782SOL    HW237809   4.357   3.661   0.738  0.5690  0.6104 -0.3182
 8783SOL     OW37810   0.227   4.340   5.263 -0.0311  0.0059  0.4069
 8783SOL    HW137811   0.155   4.402   5.251 -2.3213 -3.1548 -2.3090
 8783SOL    HW237812   0.242   4.296   5.179  1.5162  0.6610  0.3319
 8784SOL     OW37813   2.981   4.064  13.560 -0.5603  0.1994 -0.0449
 8784SOL    HW137814   2.893   4.068  13.522 -0.8033 -1.8031  0.3413
 8784SOL    HW237815   2.959   4.104  13.644  0.5016  0.1710  0.2456
 8785SOL     OW37816   3.684   2.957   4.470 -0.0227 -0.4813  0.0790
 8785SOL    HW137817   3.649   2.921   4.551 -1.8710 -1.2207 -1.0568
 8785SOL    HW237818   3.704   3.047   4.496 -2.5438  0.1211  0.0137
 8786SOL     OW37819   0.564   1.301  13.972  0.4917 -0.3680  0.4480
 8786SOL    HW137820   0.622   1.316  14.046  2.9859  1.9469 -1.9586
 8786SOL    HW237821   0.494   1.256  14.019  1.0126 -2.5269 -0.8531
 8787SOL     OW37822   1.757   1.002   6.129 -0.1604  0.0692  0.1355
 8787SOL    HW137823   1.720   0.914   6.126  1.4124 -0.6615  2.0330
 8787SOL    HW237824   1.738   1.021   6.220 -1.2639 -3.3380  0.6255
 8788SOL     OW37825   1.812   4.133   3.185 -0.0512  0.6174  0.2652
 8788SOL    HW137826   1.847   4.044   3.176  0.1797  0.9239 -2.0203
 8788SOL    HW237827   1.763   4.136   3.102  0.4414 -0.2756 -0.0619
 8789SOL     OW37828   1.046   1.101   6.148  0.0887 -0.4027  0.0503
 8789SOL    HW137829   1.132   1.110   6.108 -2.1387  0.9698 -4.3655
 8789SOL    HW237830   0.989   1.144   6.084 -1.4059 -0.8487  1.0761
 8790SOL     OW37831   4.609   1.660   4.538 -0.4535 -0.5526 -0.0083
 8790SOL    HW137832   4.655   1.614   4.609 -1.4500 -1.1955  0.2104
 8790SOL    HW237833   4.609   1.747   4.578 -2.6131 -0.1124 -1.0075
 8791SOL     OW37834   1.108   1.914   0.042 -0.1217  0.5623 -0.4635
 8791SOL    HW137835   1.148   1.867   0.115 -0.2176 -1.5133 -1.7754
 8791SOL    HW237836   1.079   1.835  17.670  0.4239  1.6584 -2.7395
 8792SOL     OW37837   1.039   4.451   8.703  0.6394  0.3511  0.4807
 8792SOL    HW137838   1.072   4.387   8.767 -0.2076  1.2186  1.7777
 8792SOL    HW237839   1.123   4.483   8.669 -0.9232  4.2542  0.3427
 8793SOL     OW37840   4.618   3.366   3.465  0.2049 -0.3484  0.1948
 8793SOL    HW137841   4.574   3.380   3.549 -0.4894  1.3070 -0.4330
 8793SOL    HW237842   4.711   3.365   3.485  0.3380 -2.4297 -0.5968
 8794SOL     OW37843   0.255   1.960  14.901 -0.2746  0.2060 -0.0845
 8794SOL    HW137844   0.171   1.989  14.864  1.1393  0.5319 -3.0875
 8794SOL    HW237845   0.311   2.016  14.847  1.1535 -0.5259  0.6424
 8795SOL     OW37846   1.706   1.285  12.862  0.2224 -0.2283  0.2021
 8795SOL    HW137847   1.770   1.291  12.791 -1.0410  3.3240 -0.6247
 8795SOL    HW237848   1.633   1.337  12.828  1.7113  1.3159 -0.5992
 8796SOL     OW37849   0.149   3.428   2.761  1.1573 -0.1841 -0.3429
 8796SOL    HW137850   0.071   3.483   2.767  2.5181  1.2548  4.3260
 8796SOL    HW237851   0.170   3.419   2.668  2.3660  0.2503 -0.1037
 8797SOL     OW37852   2.319   3.950   2.813 -0.0635 -0.0289  0.6415
 8797SOL    HW137853   2.310   3.954   2.908 -0.0305 -1.3827  0.7098
 8797SOL    HW237854   2.359   4.033   2.789 -0.9896  0.4766  0.8837
 8798SOL     OW37855   1.463   0.994   3.466 -0.2928  0.0718  0.1358
 8798SOL    HW137856   1.478   1.048   3.389 -0.5700 -1.1565 -0.7644
 8798SOL    HW237857   1.427   1.064   3.522  2.5944  0.9875  0.8681
 8799SOL     OW37858   2.332   1.848   7.521 -0.2196 -0.0191 -0.7719
 8799SOL    HW137859   2.283   1.930   7.534 -0.1069 -0.0195 -0.3384
 8799SOL    HW237860   2.294   1.786   7.583  2.1306 -0.7163 -0.0145
 8800SOL     OW37861   1.297   1.287   5.242  0.3593 -0.2906 -0.3920
 8800SOL    HW137862   1.285   1.323   5.154  1.3476 -1.4045 -0.9879
 8800SOL    HW237863   1.392   1.275   5.245  0.4459  0.0876 -1.5108
 8801SOL     OW37864   2.417   1.328   7.667 -0.4775  0.4454  0.2045
 8801SOL    HW137865   2.481   1.386   7.708  0.1857 -0.0175 -0.1611
 8801SOL    HW237866   2.448   1.335   7.576  0.1993 -0.2189  0.3846
 8802SOL     OW37867   2.106   3.317  17.378  0.1836 -0.0844 -0.3367
 8802SOL    HW137868   2.131   3.374  17.451 -2.4351  0.1476  0.3898
 8802SOL    HW237869   2.041   3.370  17.332  0.3512 -0.0891 -0.5767
 8803SOL     OW37870   2.506   2.629   0.926 -0.5620 -0.5372  0.0517
 8803SOL    HW137871   2.536   2.539   0.940  0.3738 -0.2786 -0.3249
 8803SOL    HW237872   2.445   2.614   0.853 -0.4985 -1.4253  0.1861
 8804SOL     OW37873   3.468   4.679  11.371  0.1556 -0.1704  0.4444
 8804SOL    HW137874   3.378   4.684  11.405 -0.2261  2.2734 -0.9179
 8804SOL    HW237875   3.505   4.619  11.436  1.0693  2.7305  2.5775
 8805SOL     OW37876   0.411   0.544  11.915 -0.0379  0.0151  0.1625
 8805SOL    HW137877   0.448   0.478  11.974 -0.4160 -0.6708 -0.3749
 8805SOL    HW237878   0.489   0.591  11.886 -0.2281  0.3011  0.1161
 8806SOL     OW37879   4.368   3.995   4.728 -0.9709 -0.1629  0.2052
 8806SOL    HW137880   4.372   3.947   4.645 -1.2129 -0.5570  0.4197
 8806SOL    HW237881   4.385   4.084   4.697 -2.9707 -0.4474 -1.7348
 8807SOL     OW37882   0.958   4.083   3.839 -0.1582 -0.8236 -0.2022
 8807SOL    HW137883   1.023   4.121   3.781 -0.6614  0.1211 -0.1366
 8807SOL    HW237884   0.880   4.090   3.784 -0.7846 -0.3457  0.7499
 8808SOL     OW37885   2.758   3.126  15.050 -0.3166 -0.8677 -0.3988
 8808SOL    HW137886   2.788   3.041  15.081 -0.0197 -0.4390  0.4666
 8808SOL    HW237887   2.793   3.187  15.114 -1.8735 -0.5342  0.1451
 8809SOL     OW37888   0.185   3.812   1.024  0.4263  0.1938 -0.0267
 8809SOL    HW137889   0.095   3.798   0.993  0.2876 -0.2018  0.5451
 8809SOL    HW237890   0.219   3.894   0.989  2.4217 -0.7686 -0.3785
 8810SOL     OW37891   1.076   2.136   9.371 -0.1702  0.6313 -0.0369
 8810SOL    HW137892   1.070   2.116   9.464 -0.1951 -0.7806 -0.3452
 8810SOL    HW237893   1.013   2.074   9.333  1.4489 -1.1936  0.2911
 8811SOL     OW37894   2.843   2.908   3.068 -0.3332 -0.4497  0.1885
 8811SOL    HW137895   2.927   2.949   3.049 -0.2000 -3.5610 -6.1064
 8811SOL    HW237896   2.860   2.864   3.151  0.9494  0.0531  0.1896
 8812SOL     OW37897   0.191   2.191   4.115 -0.3389  0.0420 -0.4903
 8812SOL    HW137898   0.252   2.232   4.054  1.1112  1.2223  1.7337
 8812SOL    HW237899   0.110   2.239   4.095  0.3001  1.2730 -0.1294
 8813SOL     OW37900   2.820   2.819   1.802  0.2505 -0.6769  0.3754
 8813SOL    HW137901   2.757   2.777   1.860 -1.4957  0.4503 -0.7034
 8813SOL    HW237902   2.846   2.893   1.858 -0.2794 -0.0592 -0.1941
 8814SOL     OW37903   1.619   1.772   5.527 -0.3617 -0.3415 -0.1723
 8814SOL    HW137904   1.572   1.831   5.468 -1.4129 -0.7644  0.2373
 8814SOL    HW237905   1.579   1.805   5.608  0.3281  1.7914 -0.7023
 8815SOL     OW37906   3.622   1.522   2.355  0.3848  0.3356 -0.5819
 8815SOL    HW137907   3.532   1.525   2.323  0.6544  1.4173 -1.2293
 8815SOL    HW237908   3.615   1.492   2.446  1.7880  3.7529  0.6447
 8816SOL     OW37909   3.133   4.294  14.238 -0.1942  0.0944 -0.3916
 8816SOL    HW137910   3.138   4.307  14.333 -1.8680  0.5602 -0.3625
 8816SOL    HW237911   3.077   4.368  14.215  2.2069  2.2115  0.5686
 8817SOL     OW37912   2.686   1.601   3.715 -0.2960 -0.1667 -0.1726
 8817SOL    HW137913   2.686   1.697   3.713  0.0908 -0.1493  0.6201
 8817SOL    HW237914   2.594   1.582   3.731  0.2044 -2.7354 -0.3283
 8818SOL     OW37915   2.719   2.843  11.411  0.3203 -0.0118 -0.0990
 8818SOL    HW137916   2.791   2.894  11.448  1.5180 -1.7685 -0.0512
 8818SOL    HW237917   2.752   2.800  11.332 -0.6475 -1.2196  0.1470
 8819SOL     OW37918   4.063   0.258   0.806  0.9670  0.1926  0.7493
 8819SOL    HW137919   4.148   0.289   0.836  0.4406  2.3017  0.0286
 8819SOL    HW237920   4.059   0.278   0.712 -0.3415 -0.5967  0.6379
 8820SOL     OW37921   3.533   0.183   5.214 -0.4518  0.2147  0.1850
 8820SOL    HW137922   3.448   0.150   5.184 -0.7424  1.5163 -0.4398
 8820SOL    HW237923   3.511   0.226   5.297  3.2536 -0.6589  1.6316
 8821SOL     OW37924   1.380   2.427   1.902 -0.7623  0.0806 -0.0895
 8821SOL    HW137925   1.324   2.369   1.851 -1.5229 -0.3421  1.2389
 8821SOL    HW237926   1.338   2.513   1.900 -2.8393 -1.0227 -2.6081
 8822SOL     OW37927   4.103   2.978   5.616 -0.4189 -0.5415 -0.0585
 8822SOL    HW137928   4.023   2.941   5.653 -0.9008  1.8299  1.3060
 8822SOL    HW237929   4.142   2.897   5.582  0.7332  0.0779 -0.2030
 8823SOL     OW37930   0.090   3.891   8.059 -1.1825 -0.3515 -0.2001
 8823SOL    HW137931   0.099   3.974   8.012  2.2863 -0.5846  0.0840
 8823SOL    HW237932   0.047   3.927   8.137 -1.1681  0.2942 -0.4870
 8824SOL     OW37933   1.058   0.559  10.132  0.1524 -0.0062 -0.0908
 8824SOL    HW137934   1.131   0.576  10.073  0.1681  1.3725  0.3218
 8824SOL    HW237935   1.077   0.601  10.215 -3.7961 -0.8359  1.2392
 8825SOL     OW37936   0.731   4.601   9.572  0.0919 -0.5978  0.0913
 8825SOL    HW137937   0.774   4.584   9.488  0.8388 -0.8481  0.5308
 8825SOL    HW237938   0.801   4.570   9.628 -0.1444 -1.1500  0.0832
 8826SOL     OW37939   0.068   2.341   9.756 -0.0731  0.3515  0.4711
 8826SOL    HW137940   0.033   2.315   9.671  0.7840 -0.3419  0.3317
 8826SOL    HW237941   0.157   2.309   9.743 -0.5269 -0.6554 -0.0898
 8827SOL     OW37942   3.940   3.546   0.493 -0.7385 -0.2407  0.0851
 8827SOL    HW137943   3.862   3.553   0.547 -0.2438 -0.0409  0.7682
 8827SOL    HW237944   3.913   3.602   0.420  2.4133 -0.4419 -1.2592
 8828SOL     OW37945   0.195   3.681   3.970  0.5714  0.4371 -0.5771
 8828SOL    HW137946   0.117   3.672   3.915  0.7658 -0.6142 -0.6672
 8828SOL    HW237947   0.240   3.606   3.933  1.0790 -0.3326  1.5897
 8829SOL     OW37948   2.685   4.520   5.962  0.3587  0.5377  0.2320
 8829SOL    HW137949   2.722   4.446   5.913 -0.4390  0.6092 -0.4732
 8829SOL    HW237950   2.642   4.486   6.040  0.2570  2.2302  0.9214
 8830SOL     OW37951   0.419   2.924   1.873 -0.1392 -0.3066 -0.2922
 8830SOL    HW137952   0.424   3.009   1.830 -1.5149 -0.3517 -0.5349
 8830SOL    HW237953   0.512   2.909   1.888  0.1172 -1.4012 -2.9002
 8831SOL     OW37954   3.490   1.799  10.734 -0.1221 -0.2506 -0.3961
 8831SOL    HW137955   3.500   1.710  10.769  0.2749 -0.5562 -1.2882
 8831SOL    HW237956   3.529   1.856  10.800  3.1013 -1.2586 -1.4666
 8832SOL     OW37957   2.361   4.035  11.462 -0.0755  0.2077 -0.2622
 8832SOL    HW137958   2.295   3.988  11.513  0.8420 -2.5934 -1.6639
 8832SOL    HW237959   2.441   3.988  11.484  0.3034  0.3871 -1.2454
 8833SOL     OW37960   1.148   3.637  12.789 -0.2152  0.2523  0.2194
 8833SOL    HW137961   1.241   3.618  12.776  0.2074  1.1350  1.9146
 8833SOL    HW237962   1.114   3.556  12.826  1.3027 -2.3759 -4.1357
 8834SOL     OW37963   1.645   0.894   3.883 -0.4747  0.3949 -0.4681
 8834SOL    HW137964   1.611   0.844   3.957  1.4684 -0.4135 -0.1250
 8834SOL    HW237965   1.662   0.981   3.920 -2.0080  1.0025 -1.2193
 8835SOL     OW37966   0.131   2.236   9.333 -0.2476 -0.0286  0.4995
 8835SOL    HW137967   0.078   2.188   9.396 -1.6440 -1.7621 -1.9850
 8835SOL    HW237968   0.188   2.286   9.391 -2.1232  0.3424  2.0011
 8836SOL     OW37969   2.950   1.996   5.160 -0.0939  0.6819  0.5053
 8836SOL    HW137970   2.976   1.909   5.192  0.2778  0.0505 -1.4762
 8836SOL    HW237971   2.923   1.982   5.069  1.7462  2.1003 -0.2697
 8837SOL     OW37972   3.612   2.845  11.241 -0.9697  0.4480  0.1000
 8837SOL    HW137973   3.560   2.895  11.304 -1.4166 -0.3244  0.3515
 8837SOL    HW237974   3.701   2.851  11.276 -0.4723 -0.1299 -1.0716
 8838SOL     OW37975   4.145   3.506   1.723  0.0145 -0.1958 -0.7617
 8838SOL    HW137976   4.148   3.584   1.668 -0.7168  1.0599  0.9902
 8838SOL    HW237977   4.123   3.438   1.660  0.3751  0.2001 -1.3170
 8839SOL     OW37978   1.393   4.256   7.230 -0.0424 -0.0772  0.5721
 8839SOL    HW137979   1.379   4.337   7.181 -1.2875  0.0215  1.0920
 8839SOL    HW237980   1.345   4.194   7.176 -2.0163  1.0375  1.0660
 8840SOL     OW37981   0.662   2.441  11.500 -0.5254  0.3086  0.5232
 8840SOL    HW137982   0.665   2.345  11.498 -0.5522  0.3127  0.3195
 8840SOL    HW237983   0.744   2.473  11.537  1.1564  0.1005 -3.0906
 8841SOL     OW37984   1.899   0.882   8.671  0.1446 -0.2147 -0.2986
 8841SOL    HW137985   1.813   0.841   8.678 -1.4714  2.8133 -2.5759
 8841SOL    HW237986   1.898   0.895   8.577 -1.3875  1.6566 -0.0254
 8842SOL     OW37987   0.292   0.257   6.566 -0.6152 -0.2206 -0.0373
 8842SOL    HW137988   0.382   0.289   6.563  0.0277 -1.8704  1.5595
 8842SOL    HW237989   0.283   0.254   6.470 -0.2602  1.1354 -0.1177
 8843SOL     OW37990   3.503   3.710   6.299 -0.0782 -0.3180  0.0082
 8843SOL    HW137991   3.507   3.805   6.285 -0.8441 -0.0425  1.5489
 8843SOL    HW237992   3.571   3.683   6.238  0.0436  2.6013 -1.1632
 8844SOL     OW37993   3.173   0.848  17.001  0.3241 -0.0200 -0.2424
 8844SOL    HW137994   3.084   0.845  17.035 -0.2373  1.1728 -1.5988
 8844SOL    HW237995   3.227   0.910  17.051  1.8962 -1.1476 -0.5489
 8845SOL     OW37996   4.270   2.995   7.520  0.0337 -0.1125  0.3117
 8845SOL    HW137997   4.270   2.899   7.531  0.8469 -0.2356 -0.8597
 8845SOL    HW237998   4.345   3.003   7.461  0.8609 -2.4317  1.0091
 8846SOL     OW37999   2.987   2.245   4.031  0.0282  0.1329  0.0786
 8846SOL    HW138000   3.076   2.271   4.056  0.0434 -1.1216  1.3728
 8846SOL    HW238001   2.944   2.233   4.116 -3.0029  0.7117 -1.3753
 8847SOL     OW38002   0.273   1.428   2.932 -0.4582 -0.8340  0.8033
 8847SOL    HW138003   0.195   1.381   2.902 -0.5099 -0.2027 -0.0602
 8847SOL    HW238004   0.344   1.364   2.933 -0.1022 -0.4417  0.5078
 8848SOL     OW38005   0.730   1.140  13.606 -0.0533  0.0718  0.1722
 8848SOL    HW138006   0.696   1.055  13.580 -0.5581 -0.0376  1.2315
 8848SOL    HW238007   0.781   1.105  13.679  1.0259  1.4705  0.1083
 8849SOL     OW38008   3.427   0.925   4.358  0.5995 -0.3399 -0.2405
 8849SOL    HW138009   3.464   0.949   4.273 -2.8059 -0.0042 -1.6421
 8849SOL    HW238010   3.417   0.830   4.349  2.4754 -0.4781 -0.8812
 8850SOL     OW38011   4.309   4.694   0.484  0.0800  0.2868 -0.3666
 8850SOL    HW138012   4.358   4.673   0.404  0.4183 -0.5614  0.0626
 8850SOL    HW238013   4.233   0.015   0.440 -1.2038  0.5443  2.0822
 8851SOL     OW38014   3.547   1.505   5.442 -0.5558  0.2458 -0.6570
 8851SOL    HW138015   3.562   1.552   5.361  0.0321  0.2125 -0.5668
 8851SOL    HW238016   3.495   1.574   5.484 -0.8937 -0.2292 -0.2922
 8852SOL     OW38017   0.643   0.988   6.814  0.4259  0.1233 -0.3610
 8852SOL    HW138018   0.606   0.900   6.806 -0.9497  0.9704 -3.3810
 8852SOL    HW238019   0.697   0.978   6.892  0.3324 -3.4469 -0.7569
 8853SOL     OW38020   0.979   1.605  10.309  0.0434  0.0359 -0.2973
 8853SOL    HW138021   1.046   1.544  10.343  1.1939  2.1561  1.2203
 8853SOL    HW238022   1.040   1.669  10.272 -0.8246  0.2764 -1.2924
 8854SOL     OW38023   1.028   3.842   4.599  0.1185 -0.2263  0.3269
 8854SOL    HW138024   1.085   3.918   4.609 -0.4829  0.0579  1.6154
 8854SOL    HW238025   1.067   3.787   4.666  1.1490  0.1064 -0.0077
 8855SOL     OW38026   1.485   0.078   6.148 -0.6337  0.1817 -0.0903
 8855SOL    HW138027   1.567   0.049   6.189 -0.8840 -1.8780 -1.0357
 8855SOL    HW238028   1.438   0.126   6.216 -0.6477  0.0184  0.0157
 8856SOL     OW38029   1.377   4.003  15.324  0.1541  0.3142  0.2043
 8856SOL    HW138030   1.326   4.026  15.247  2.0855  1.4806 -0.7234
 8856SOL    HW238031   1.413   3.924  15.285 -0.3934 -0.7211  1.8063
 8857SOL     OW38032   3.603   3.462  16.504 -0.1762 -0.1364  0.0179
 8857SOL    HW138033   3.631   3.400  16.437  0.9944  1.6596 -1.1336
 8857SOL    HW238034   3.510   3.472  16.484 -0.3031 -0.4485  0.4477
 8858SOL     OW38035   0.985   2.765   3.123 -0.1801  0.0415  0.0376
 8858SOL    HW138036   0.990   2.703   3.050 -1.4402  0.7594 -0.6762
 8858SOL    HW238037   1.043   2.721   3.185  0.5801  1.3625  0.2493
 8859SOL     OW38038   1.539   3.022   9.047 -0.1750  0.3009  0.0885
 8859SOL    HW138039   1.579   2.943   9.084  1.1163 -1.6739 -5.6092
 8859SOL    HW238040   1.579   3.086   9.107 -1.0655 -0.4394  1.4695
 8860SOL     OW38041   2.132   2.548   9.240  0.0011  0.3769  0.3386
 8860SOL    HW138042   2.089   2.628   9.210 -1.8616 -1.1387 -1.0005
 8860SOL    HW238043   2.067   2.490   9.200 -0.1221  0.1295  0.8856
 8861SOL     OW38044   2.049   4.533  12.314 -0.4477  0.3656  0.1769
 8861SOL    HW138045   2.135   4.522  12.272 -0.2599 -1.2343  0.9686
 8861SOL    HW238046   2.063   4.623  12.346  2.7193 -0.8416  2.2363
 8862SOL     OW38047   1.688   2.624   0.633  0.0689 -0.3048 -0.0285
 8862SOL    HW138048   1.747   2.651   0.704  0.2674 -1.9670  0.4250
 8862SOL    HW238049   1.624   2.576   0.684  1.9933 -0.1067  2.5717
 8863SOL     OW38050   0.339   3.284   8.091  0.4967 -0.0310  0.3196
 8863SOL    HW138051   0.302   3.352   8.148  0.6701  1.9244 -1.9401
 8863SOL    HW238052   0.275   3.219   8.122  0.0975  0.2511  0.0872
 8864SOL     OW38053   1.193   2.418   6.470  0.0722  0.1693  0.5323
 8864SOL    HW138054   1.224   2.352   6.409 -1.3648 -0.1013  0.0791
 8864SOL    HW238055   1.105   2.382   6.481 -0.7009  1.6404 -0.8402
 8865SOL     OW38056   2.947   0.614   1.724 -0.1499 -0.5313  0.3914
 8865SOL    HW138057   2.927   0.522   1.707  1.3458 -0.8561  0.3893
 8865SOL    HW238058   2.869   0.630   1.777 -0.5966 -2.3316  0.2665
 8866SOL     OW38059   0.989   3.909   0.302  0.2706  0.3106 -0.1341
 8866SOL    HW138060   1.064   3.903   0.361  1.1849 -0.6082 -1.3957
 8866SOL    HW238061   1.044   3.923   0.225  0.2737  1.7300  0.1124
 8867SOL     OW38062   3.292   4.494   9.773  0.0873 -0.2299 -0.6214
 8867SOL    HW138063   3.309   4.450   9.856 -0.4635 -0.7365 -0.7749
 8867SOL    HW238064   3.364   4.470   9.715  0.4891 -1.8545  0.5583
 8868SOL     OW38065   0.166   3.110  13.759 -0.0958 -0.2273 -0.1652
 8868SOL    HW138066   0.139   3.199  13.734  2.1601  0.2959 -0.7390
 8868SOL    HW238067   0.248   3.119  13.808  0.4109 -0.3988 -0.9747
 8869SOL     OW38068   2.720   0.679   9.865 -0.4717 -0.1850 -0.0940
 8869SOL    HW138069   2.801   0.628   9.874 -0.0947  0.7035  1.6866
 8869SOL    HW238070   2.704   0.666   9.772 -0.9840  0.8297 -0.1427
 8870SOL     OW38071   3.798   0.075   1.114  0.7349  0.6790  0.1853
 8870SOL    HW138072   3.744   4.714   1.103  0.0553  1.0722  0.7613
 8870SOL    HW238073   3.884   0.032   1.119  1.1441  1.3184 -1.5201
 8871SOL     OW38074   3.477   3.570   5.789  0.0691  0.3118  0.2910
 8871SOL    HW138075   3.498   3.632   5.719  2.7876 -2.0127 -0.9606
 8871SOL    HW238076   3.410   3.618   5.837 -0.3213 -1.6569  1.7068
 8872SOL     OW38077   0.681   2.222   4.770 -0.0822 -0.1424  0.4899
 8872SOL    HW138078   0.693   2.294   4.708 -0.9267 -0.5312 -0.1392
 8872SOL    HW238079   0.768   2.182   4.764 -0.7676 -1.6807  0.7409
 8873SOL     OW38080   4.070   1.712   2.840  0.2300  0.0471  0.2513
 8873SOL    HW138081   4.029   1.738   2.922 -0.4002 -0.6326  0.1531
 8873SOL    HW238082   4.158   1.744   2.860  0.6389 -0.0498 -1.4064
 8874SOL     OW38083   0.980   0.666  14.000 -0.0280 -0.2968 -0.4656
 8874SOL    HW138084   1.051   0.603  13.985  1.4873  1.1432  0.7328
 8874SOL    HW238085   0.979   0.707  13.913 -1.1161  0.1192 -0.2556
 8875SOL     OW38086   1.492   0.887   6.458 -0.6533 -0.5427  1.0964
 8875SOL    HW138087   1.554   0.817   6.479  1.1352  0.1116 -1.8784
 8875SOL    HW238088   1.549   0.963   6.443 -1.2767 -0.2726  0.0706
 8876SOL     OW38089   1.181   0.122   9.162 -0.0626 -0.3846  0.3352
 8876SOL    HW138090   1.128   0.046   9.138 -0.3930  0.0021 -0.1400
 8876SOL    HW238091   1.163   0.183   9.091  0.3918 -2.8680 -1.8873
 8877SOL     OW38092   0.179   4.188   1.669 -0.2516 -0.6482  0.4804
 8877SOL    HW138093   0.221   4.179   1.583  1.3986 -1.8063  1.4004
 8877SOL    HW238094   0.168   4.283   1.669 -1.0878 -0.7411 -2.6914
 8878SOL     OW38095   0.313   1.734  15.043  0.3550  0.2469 -0.1155
 8878SOL    HW138096   0.296   1.822  15.008  2.6962  0.8334  0.2114
 8878SOL    HW238097   0.266   1.679  14.980 -1.0100  0.6501  0.5639
 8879SOL     OW38098   3.142   2.007  10.332 -0.2488 -0.3065  0.3488
 8879SOL    HW138099   3.109   1.960  10.256  2.8917 -3.0973  0.7035
 8879SOL    HW238100   3.190   2.085  10.303  0.4105 -1.1952 -0.9299
 8880SOL     OW38101   1.599   0.588   3.233 -0.3080  1.1822  0.1316
 8880SOL    HW138102   1.664   0.628   3.291  1.5150 -1.9995  0.2984
 8880SOL    HW238103   1.646   0.564   3.153  4.1497  2.3534  2.4102
 8881SOL     OW38104   1.982   1.534   7.258  0.4704 -0.2244 -0.0634
 8881SOL    HW138105   1.970   1.628   7.245  0.0328 -0.3141 -0.3049
 8881SOL    HW238106   1.955   1.520   7.349  1.7244  0.0574  0.3492
 8882SOL     OW38107   3.933   4.099   4.343 -0.5266 -0.0993  0.3063
 8882SOL    HW138108   3.889   4.050   4.413 -0.1652 -1.0107 -0.1008
 8882SOL    HW238109   3.903   4.039   4.275 -0.1509  0.5052 -0.3814
 8883SOL     OW38110   1.875   1.720   5.846 -0.1857  0.2555  0.0638
 8883SOL    HW138111   1.836   1.634   5.830  0.9370 -0.0409 -1.1343
 8883SOL    HW238112   1.842   1.781   5.780  0.8581 -0.4431 -1.1051
 8884SOL     OW38113   3.910   3.479  16.516 -0.9014 -0.0959 -0.1520
 8884SOL    HW138114   3.946   3.390  16.513  1.7067  0.9765 -1.2511
 8884SOL    HW238115   3.914   3.496  16.422  2.5651  0.8429  0.1422
 8885SOL     OW38116   4.641   1.509   8.485  0.5208 -0.0704  0.2206
 8885SOL    HW138117   0.003   1.562   8.482  0.1311  0.5575  1.3349
 8885SOL    HW238118   4.665   1.452   8.558  0.5971 -0.4088 -0.0665
 8886SOL     OW38119   1.130   2.049   6.111 -0.1139  0.3200  0.5603
 8886SOL    HW138120   1.183   2.122   6.141  0.0096  1.4799 -2.4261
 8886SOL    HW238121   1.079   2.084   6.037 -0.3750  1.3673  1.2454
 8887SOL     OW38122   2.657   4.488  10.654  0.2150 -0.2852  0.2702
 8887SOL    HW138123   2.696   4.559  10.603  0.3412 -0.7175 -0.2405
 8887SOL    HW238124   2.580   4.541  10.672  0.9136 -0.2093  3.0635
 8888SOL     OW38125   3.932   2.306   1.937  0.1679 -0.1130  0.1388
 8888SOL    HW138126   3.900   2.395   1.951  2.7941  0.8130  0.2583
 8888SOL    HW238127   3.978   2.312   1.853 -0.1982  1.4994  0.0603
 8889SOL     OW38128   4.429   0.010   3.632  0.0467  0.1759 -0.2069
 8889SOL    HW138129   4.472   0.076   3.578 -0.2863  0.0530 -0.6242
 8889SOL    HW238130   4.410   0.064   3.708  0.2427  0.1333 -0.1269
 8890SOL     OW38131   3.074   0.869  16.011 -0.1137  0.3420 -0.8016
 8890SOL    HW138132   2.991   0.890  16.053  0.3669  0.5735  0.0317
 8890SOL    HW238133   3.114   0.956  16.021  2.4947 -0.8046 -1.2298
 8891SOL     OW38134   0.317   2.469  15.508  0.3473  0.0939  0.6031
 8891SOL    HW138135   0.279   2.551  15.540  0.1333  0.0401  0.4872
 8891SOL    HW238136   0.368   2.502  15.434 -0.8581  0.0323 -0.2520
 8892SOL     OW38137   1.576   0.971  11.313 -0.2057  0.2275 -0.3733
 8892SOL    HW138138   1.493   0.929  11.294 -1.3680  2.7703 -0.9674
 8892SOL    HW238139   1.599   1.023  11.236 -0.9036  0.7019 -0.2664
 8893SOL     OW38140   3.987   0.490   6.662  0.2777 -0.4444 -0.5496
 8893SOL    HW138141   3.934   0.501   6.741  0.9834 -0.6686 -0.0404
 8893SOL    HW238142   3.923   0.479   6.591  0.8047  3.3479 -1.5880
 8894SOL     OW38143   3.218   4.670   3.745 -0.1450 -0.6562  0.3275
 8894SOL    HW138144   3.147   4.627   3.697 -0.6776  0.7294 -0.1241
 8894SOL    HW238145   3.292   4.609   3.752  0.4544 -0.1693 -1.7992
 8895SOL     OW38146   3.042   0.491   7.651 -0.2862 -0.6601  0.4343
 8895SOL    HW138147   3.099   0.469   7.725  1.0100  0.6021 -0.1865
 8895SOL    HW238148   3.077   0.572   7.614 -1.6189  0.9306  2.6566
 8896SOL     OW38149   1.263   3.023   6.581  0.4115 -0.0330 -0.5253
 8896SOL    HW138150   1.288   2.933   6.601 -1.7695 -0.3983  0.5789
 8896SOL    HW238151   1.227   3.006   6.493  0.4745 -0.5826 -0.4463
 8897SOL     OW38152   0.663   3.333   7.361 -0.8993 -0.2885  0.0274
 8897SOL    HW138153   0.723   3.382   7.305 -2.6298 -1.0389 -2.4913
 8897SOL    HW238154   0.731   3.277   7.398 -0.0284  0.9484  0.2973
 8898SOL     OW38155   0.405   2.966   8.479  0.2321  0.4009 -0.2630
 8898SOL    HW138156   0.367   2.885   8.443 -1.2895  0.9417  0.0993
 8898SOL    HW238157   0.327   2.978   8.534 -0.0744 -2.4900 -0.0590
 8899SOL     OW38158   4.528   4.409  10.191  0.0147 -0.1075  0.0000
 8899SOL    HW138159   4.443   4.437  10.225 -0.5972  1.7915 -3.1143
 8899SOL    HW238160   4.592   4.469  10.227 -1.0592  0.7547  0.4605
 8900SOL     OW38161   4.283   1.473   8.673  0.8376 -0.0133 -0.0352
 8900SOL    HW138162   4.366   1.520   8.685  0.9286  0.6165 -3.1894
 8900SOL    HW238163   4.315   1.392   8.712  1.4309 -0.1530 -0.8054
 8901SOL     OW38164   4.081   1.474  11.276  0.4480 -0.0480 -0.4909
 8901SOL    HW138165   4.148   1.411  11.247 -0.1992 -0.6758 -0.6251
 8901SOL    HW238166   4.114   1.494  11.363 -2.5898  1.1312  0.3684
 8902SOL     OW38167   4.326   2.262  12.061 -0.1142 -0.1793 -0.2014
 8902SOL    HW138168   4.327   2.244  11.967 -0.0938  0.2504 -0.2829
 8902SOL    HW238169   4.232   2.259  12.081  0.0281 -0.0192  0.4977
 8903SOL     OW38170   2.980   2.643   8.132  0.1025 -0.1330 -0.2160
 8903SOL    HW138171   3.053   2.700   8.110  0.8126 -0.0463  2.4681
 8903SOL    HW238172   2.910   2.679   8.078  2.3786  0.2459 -2.9156
 8904SOL     OW38173   1.516   2.984   8.637  0.4239  0.0427 -0.1445
 8904SOL    HW138174   1.489   3.046   8.570  0.7952 -0.9705 -1.2369
 8904SOL    HW238175   1.610   3.004   8.642  0.4750  0.0273 -1.0790
 8905SOL     OW38176   0.082   3.568   6.591  0.1876 -0.2975 -0.6997
 8905SOL    HW138177   0.027   3.496   6.559  0.5866  0.5191 -3.2088
 8905SOL    HW238178   0.058   3.647   6.544 -0.6180  1.0794  2.0861
 8906SOL     OW38179   3.455   0.417   4.000  0.6026 -0.1506 -0.7492
 8906SOL    HW138180   3.383   0.446   4.055  0.7880 -0.9028 -0.1142
 8906SOL    HW238181   3.403   0.370   3.934 -0.8103  0.5976 -0.1532
 8907SOL     OW38182   3.783   3.182   5.683  0.5524  0.4020 -0.1701
 8907SOL    HW138183   3.876   3.191   5.705  0.9440  1.1021 -2.1108
 8907SOL    HW238184   3.776   3.246   5.612  2.2610 -1.5431 -2.0549
 8908SOL     OW38185   3.832   4.499  11.028  0.4986 -0.3372  0.2461
 8908SOL    HW138186   3.755   4.534  11.072 -0.3145 -0.0069 -1.4211
 8908SOL    HW238187   3.815   4.533  10.940 -2.2256 -0.9099  0.5424
 8909SOL     OW38188   3.231   3.370   6.090 -0.3940 -1.1560  0.1294
 8909SOL    HW138189   3.201   3.459   6.107 -2.5176 -1.6656 -0.9849
 8909SOL    HW238190   3.175   3.337   6.160 -0.9993  0.6008  0.4655
 8910SOL     OW38191   1.401   1.765   9.597  0.1035 -0.0863 -0.1389
 8910SOL    HW138192   1.445   1.850   9.595 -0.6954  0.4552  4.7383
 8910SOL    HW238193   1.381   1.769   9.691 -2.2744  0.2866 -0.6714
 8911SOL     OW38194   0.740   3.665   3.145 -0.1543  0.0171  0.4731
 8911SOL    HW138195   0.775   3.586   3.186 -0.7579  0.5754  2.0310
 8911SOL    HW238196   0.821   3.698   3.106 -0.6392 -0.7785 -1.2240
 8912SOL     OW38197   1.417   1.905  14.441 -0.5842  0.0498 -0.7164
 8912SOL    HW138198   1.344   1.859  14.482 -2.0617  1.4779 -1.7246
 8912SOL    HW238199   1.385   1.913  14.351  1.7206  0.1714 -1.5442
 8913SOL     OW38200   4.421   3.789   6.678  0.9615 -0.0983  0.7883
 8913SOL    HW138201   4.332   3.802   6.645  0.4007 -0.2735  2.2482
 8913SOL    HW238202   4.415   3.832   6.763 -1.8890  2.2335 -0.6180
 8914SOL     OW38203   1.671   3.977   8.552  0.2103 -0.1539  0.6276
 8914SOL    HW138204   1.732   3.946   8.485  0.9850  0.1004  1.2116
 8914SOL    HW238205   1.636   4.055   8.509  1.6156  1.7176  2.8651
 8915SOL     OW38206   0.376   1.888   3.157 -0.3798 -0.4392  0.5514
 8915SOL    HW138207   0.467   1.894   3.128 -0.4415  1.7571  0.7966
 8915SOL    HW238208   0.373   1.793   3.170 -0.0386 -0.1790  2.5917
 8916SOL     OW38209   0.349   1.093  15.914  0.1455  0.4750  0.4468
 8916SOL    HW138210   0.380   1.040  15.987 -1.7227  0.9257  1.5665
 8916SOL    HW238211   0.256   1.108  15.931  0.3934  1.6357  0.7915
 8917SOL     OW38212   4.525   0.640  16.400 -0.1433 -0.0256 -0.2263
 8917SOL    HW138213   4.581   0.568  16.371  1.4506  0.8059  0.8167
 8917SOL    HW238214   4.587   0.698  16.444 -0.5895 -0.7421  1.3740
 8918SOL     OW38215   0.881   3.659   7.434  0.2532  0.0289  0.0504
 8918SOL    HW138216   0.849   3.692   7.518  0.1613  2.1352 -0.7889
 8918SOL    HW238217   0.958   3.716   7.431  1.1072 -1.0934  1.0392
 8919SOL     OW38218   2.524   1.826   9.289 -0.0915 -0.2946  0.1156
 8919SOL    HW138219   2.619   1.839   9.292 -0.3254  1.6886 -0.6245
 8919SOL    HW238220   2.503   1.746   9.337  0.3415 -0.0830  0.6605
 8920SOL     OW38221   0.127   3.611  13.896  0.9376  0.7106  0.3439
 8920SOL    HW138222   0.192   3.544  13.921 -0.0188  0.4826  2.2777
 8920SOL    HW238223   0.162   3.685  13.946 -1.6887  1.7942  0.5677
 8921SOL     OW38224   0.537   1.725   2.157  0.2449  0.0258  0.4416
 8921SOL    HW138225   0.595   1.669   2.104 -1.1687  0.5503 -1.6661
 8921SOL    HW238226   0.575   1.707   2.243  2.1218 -2.6809 -0.9413
 8922SOL     OW38227   0.052   3.767   7.153 -0.0547 -0.3360  0.2206
 8922SOL    HW138228   0.144   3.756   7.127 -0.0349 -0.6989  0.4452
 8922SOL    HW238229   0.034   3.682   7.194 -1.7612  0.1525  0.4573
 8923SOL     OW38230   2.262   4.180   0.021 -0.3410  0.5784 -0.0136
 8923SOL    HW138231   2.219   4.218   0.097  1.4233  1.7812  0.3833
 8923SOL    HW238232   2.240   4.088   0.035 -0.0290  0.5564  0.3359
 8924SOL     OW38233   4.091   1.636   6.679  0.1891  0.0415 -0.0767
 8924SOL    HW138234   4.131   1.721   6.661  1.2200 -0.8493 -2.1388
 8924SOL    HW238235   4.026   1.615   6.611 -1.9447 -3.0690  2.9403
 8925SOL     OW38236   2.583   3.758   9.383  0.5362 -0.0275  0.5099
 8925SOL    HW138237   2.591   3.853   9.386  0.5308 -0.0049 -0.3903
 8925SOL    HW238238   2.489   3.750   9.368  0.6680  0.5852 -0.6274
 8926SOL     OW38239   1.356   3.440   5.670 -0.2665 -0.4250 -0.3196
 8926SOL    HW138240   1.309   3.511   5.627 -2.7394  0.6335  4.1458
 8926SOL    HW238241   1.305   3.364   5.642  2.3313 -2.2574 -0.1482
 8927SOL     OW38242   3.369   3.194   3.832  0.4646  0.0737 -0.3599
 8927SOL    HW138243   3.450   3.143   3.830 -0.6589 -1.7855  2.8082
 8927SOL    HW238244   3.313   3.134   3.880  1.7810 -0.2770  0.7103
 8928SOL     OW38245   0.133   1.854   6.289 -0.0129  0.2241 -0.2821
 8928SOL    HW138246   0.080   1.824   6.214 -0.0553 -1.7151  0.5351
 8928SOL    HW238247   0.107   1.946   6.296  2.3518  0.9594 -1.1580
 8929SOL     OW38248   3.600   3.532  11.216 -0.8413 -0.1107 -0.5159
 8929SOL    HW138249   3.686   3.492  11.200 -0.6725  0.6380 -1.4323
 8929SOL    HW238250   3.633   3.621  11.204  0.8007 -0.6657 -0.1622
 8930SOL     OW38251   2.979   2.040   3.817  0.4557 -0.4836  0.1982
 8930SOL    HW138252   2.959   1.951   3.846  2.6703 -1.4166 -1.0361
 8930SOL    HW238253   2.958   2.090   3.896 -1.4249 -0.2650 -0.4452
 8931SOL     OW38254   1.362   3.565   7.125  0.2498  0.4538 -0.7277
 8931SOL    HW138255   1.275   3.526   7.118 -0.0700  1.2112 -0.9151
 8931SOL    HW238256   1.387   3.532   7.039 -0.7853 -2.4777  0.0924
 8932SOL     OW38257   4.540   3.343   0.023 -0.4532  0.1483  0.0599
 8932SOL    HW138258   4.491   3.361  17.616 -0.8215 -2.8138 -0.3721
 8932SOL    HW238259   4.586   3.272  17.652  0.7549 -0.1885  1.8682
 8933SOL     OW38260   1.090   3.779   1.811 -0.4671 -0.2463  0.1620
 8933SOL    HW138261   1.084   3.873   1.799  0.6789 -0.0605  0.9882
 8933SOL    HW238262   1.152   3.781   1.884  1.7020  1.1194 -1.7056
 8934SOL     OW38263   0.052   2.211   4.515  0.1225  0.0515  0.4672
 8934SOL    HW138264   0.142   2.243   4.513  0.2303 -0.3231 -0.9129
 8934SOL    HW238265   0.013   2.282   4.465  0.1901 -1.2921 -1.5129
 8935SOL     OW38266   1.906   0.762  16.162 -0.6831 -0.1500  0.0043
 8935SOL    HW138267   1.936   0.679  16.124 -1.3228 -0.2152 -0.3606
 8935SOL    HW238268   1.956   0.815  16.099  1.2579 -2.6701 -0.5412
 8936SOL     OW38269   3.578   3.576   1.083  0.0719  0.2109 -0.4479
 8936SOL    HW138270   3.508   3.566   1.148  0.5681  0.6342  0.1567
 8936SOL    HW238271   3.540   3.629   1.013  0.7898  0.7564 -0.4294
 8937SOL     OW38272   0.773   0.195  14.295 -0.4359 -0.7852 -0.0014
 8937SOL    HW138273   0.733   0.184  14.209 -1.0159  0.0214  0.1606
 8937SOL    HW238274   0.823   0.276  14.280 -0.8871 -0.4115  0.4965
 8938SOL     OW38275   4.453   3.608   5.482  0.2128 -0.4141  0.7747
 8938SOL    HW138276   4.412   3.652   5.407 -2.7653 -1.1452  1.9703
 8938SOL    HW238277   4.519   3.672   5.510  0.7722 -0.1128 -1.2294
 8939SOL     OW38278   2.149   2.745   3.786  0.5113  0.0414  0.0774
 8939SOL    HW138279   2.099   2.743   3.704  0.1856  0.7480  0.2580
 8939SOL    HW238280   2.081   2.707   3.842 -0.3570  1.5890  0.0906
 8940SOL     OW38281   1.144   3.554  16.090 -0.1157 -0.3546  0.1066
 8940SOL    HW138282   1.207   3.620  16.116 -0.0708 -0.2886 -0.1675
 8940SOL    HW238283   1.069   3.593  16.135 -0.6713 -1.6596  0.3229
 8941SOL     OW38284   2.947   2.290   7.443 -0.0326 -0.2229  0.3860
 8941SOL    HW138285   2.885   2.250   7.505 -0.0328  0.5535  0.8881
 8941SOL    HW238286   3.026   2.293   7.497 -0.2081 -0.6187  0.6709
 8942SOL     OW38287   0.200   0.244  16.341  0.5631  0.8442  0.2897
 8942SOL    HW138288   0.279   0.297  16.350  0.2890  1.4741 -1.0497
 8942SOL    HW238289   0.228   0.163  16.299 -2.1339 -0.8176  1.7312
 8943SOL     OW38290   2.715   0.994   4.018 -0.4661 -0.0037 -0.2770
 8943SOL    HW138291   2.665   0.952   3.948 -0.9318 -3.1172  1.9014
 8943SOL    HW238292   2.741   0.924   4.078 -2.0237  0.0779  0.5072
 8944SOL     OW38293   2.092   1.547   4.540 -0.4411 -0.2475 -0.1561
 8944SOL    HW138294   2.165   1.607   4.525 -0.8785 -0.0325 -1.4103
 8944SOL    HW238295   2.136   1.462   4.549  0.7390  0.4817  1.0406
 8945SOL     OW38296   1.751   1.662   4.296 -0.7194 -0.1875  0.2626
 8945SOL    HW138297   1.793   1.664   4.382 -1.0205 -1.5798  0.4315
 8945SOL    HW238298   1.800   1.730   4.249 -2.0052 -1.3971 -2.8458
 8946SOL     OW38299   1.171   3.577   8.542  0.2378 -0.1563  0.1559
 8946SOL    HW138300   1.089   3.550   8.583 -0.3327 -0.5954 -1.2651
 8946SOL    HW238301   1.160   3.669   8.518 -0.7651 -0.2309  0.3020
 8947SOL     OW38302   3.470   2.105   8.027  0.1120  0.5659 -0.0108
 8947SOL    HW138303   3.505   2.192   8.006 -0.3189  1.0046  1.0925
 8947SOL    HW238304   3.524   2.087   8.104  0.4225  0.3462 -0.2800
 8948SOL     OW38305   0.523   3.226  10.038  0.1758  0.5265 -0.0136
 8948SOL    HW138306   0.477   3.307  10.016  1.3979  1.3148  0.3563
 8948SOL    HW238307   0.585   3.264  10.101  1.2552  1.3604 -1.6019
 8949SOL     OW38308   4.010   3.593  14.488  0.2034  0.3420  0.9095
 8949SOL    HW138309   3.977   3.671  14.532  4.3322  3.7316 -1.9483
 8949SOL    HW238310   4.053   3.625  14.408  0.1543 -0.7002  0.4592
 8950SOL     OW38311   3.155   1.621  14.828 -0.1544 -0.3861  0.0332
 8950SOL    HW138312   3.066   1.603  14.860 -0.8559  1.4983 -0.8099
 8950SOL    HW238313   3.209   1.610  14.906  1.0691  0.2165 -0.7405
 8951SOL     OW38314   2.164   2.859   6.977  0.1046  0.1333  0.0824
 8951SOL    HW138315   2.076   2.845   7.014 -0.4178 -1.2415 -1.6786
 8951SOL    HW238316   2.208   2.864   7.061  0.8290 -2.6958 -0.1374
 8952SOL     OW38317   2.295   3.049  12.422  0.1660 -0.3853  0.0164
 8952SOL    HW138318   2.369   3.109  12.411  0.1600  0.3138  3.9217
 8952SOL    HW238319   2.245   3.079  12.346  0.1844  1.6956  0.8107
 8953SOL     OW38320   4.347   2.782   0.858 -0.4942 -0.1234  0.6927
 8953SOL    HW138321   4.324   2.704   0.909  1.0399  0.3770  2.1337
 8953SOL    HW238322   4.370   2.833   0.936 -1.4337  1.9004 -0.3683
 8954SOL     OW38323   1.559   0.142   5.138  0.0317 -0.5126 -0.2170
 8954SOL    HW138324   1.652   0.148   5.158  0.1660 -1.7840 -0.4887
 8954SOL    HW238325   1.561   0.136   5.043  0.5613 -1.3548 -0.1525
 8955SOL     OW38326   3.865   2.977  15.145  0.7718  0.3395 -0.3667
 8955SOL    HW138327   3.900   2.890  15.123 -0.5225 -0.5043  0.8817
 8955SOL    HW238328   3.864   2.971  15.240  0.1103 -1.7752 -0.4868
 8956SOL     OW38329   0.141   1.490   3.325 -0.7178 -0.3081  0.1236
 8956SOL    HW138330   0.126   1.529   3.411 -1.7238  2.1941 -1.1831
 8956SOL    HW238331   0.235   1.475   3.334 -1.1726 -1.1739  3.3307
 8957SOL     OW38332   0.263   4.368   2.090 -0.0862  0.6912 -0.3479
 8957SOL    HW138333   0.338   4.311   2.073  0.1677  1.3545 -1.4794
 8957SOL    HW238334   0.214   4.310   2.148  1.2817 -0.2031 -0.0935
 8958SOL     OW38335   1.989   2.653   2.755 -0.1015  0.1521 -0.2858
 8958SOL    HW138336   2.058   2.711   2.787  0.4004  0.0242 -1.1406
 8958SOL    HW238337   2.024   2.569   2.783  0.3831  0.7732  0.9478
 8959SOL     OW38338   0.995   2.736  10.514 -0.5114 -0.0626 -0.3058
 8959SOL    HW138339   0.933   2.663  10.523 -0.8593  0.2262 -0.3566
 8959SOL    HW238340   1.040   2.717  10.432  1.6938 -0.1546  0.9137
 8960SOL     OW38341   3.207   2.176  12.761 -0.7905  0.1971 -0.4080
 8960SOL    HW138342   3.273   2.157  12.695 -0.3493 -3.4554  1.1188
 8960SOL    HW238343   3.263   2.217  12.827 -0.2508 -1.0829 -0.0803
 8961SOL     OW38344   3.596   2.881   0.702 -0.0775 -0.2805 -0.1985
 8961SOL    HW138345   3.535   2.814   0.733 -0.0669 -0.4812 -0.6104
 8961SOL    HW238346   3.601   2.852   0.610 -2.2059 -2.9336  0.4961
 8962SOL     OW38347   0.307   2.009  12.565 -0.0801  0.3360 -0.2522
 8962SOL    HW138348   0.236   2.019  12.628 -1.4827  1.5787 -2.0064
 8962SOL    HW238349   0.256   1.970  12.494 -2.2398  0.5045  1.2090
 8963SOL     OW38350   1.751   0.272   2.140  0.3061 -0.0616 -0.3747
 8963SOL    HW138351   1.817   0.238   2.080  1.0528 -0.4289  0.6410
 8963SOL    HW238352   1.744   0.363   2.110 -2.9784 -0.4855 -0.8856
 8964SOL     OW38353   4.295   0.272   6.126 -0.3338  0.3012 -0.1831
 8964SOL    HW138354   4.285   0.256   6.220  0.5745 -2.3928 -0.5435
 8964SOL    HW238355   4.216   0.321   6.106  0.1756  1.4675  0.6210
 8965SOL     OW38356   3.821   1.492   7.027 -0.3067 -0.4120  0.1603
 8965SOL    HW138357   3.838   1.525   6.939  0.9568  0.6601  0.8148
 8965SOL    HW238358   3.864   1.559   7.079 -1.5102 -0.9274  1.8013
 8966SOL     OW38359   1.822   2.804   6.917 -0.2534 -0.0381 -0.0218
 8966SOL    HW138360   1.849   2.882   6.966  0.6307 -0.4976  0.2212
 8966SOL    HW238361   1.818   2.845   6.831 -0.9633 -0.5376 -0.2189
 8967SOL     OW38362   2.974   3.550   9.583  0.2472 -0.1407 -0.5267
 8967SOL    HW138363   2.938   3.565   9.495 -0.1558 -1.3104 -0.5629
 8967SOL    HW238364   3.054   3.601   9.572  0.0755  0.2180 -0.1014
 8968SOL     OW38365   4.285   3.288   0.557 -0.0847  0.2723  0.0956
 8968SOL    HW138366   4.360   3.243   0.596 -0.2005  0.0304  0.0342
 8968SOL    HW238367   4.330   3.319   0.478  4.1971  0.8320  2.7502
 8969SOL     OW38368   3.373   0.137   9.433  0.3703 -0.0659 -0.0130
 8969SOL    HW138369   3.299   0.117   9.376  0.4686 -1.8714  0.4931
 8969SOL    HW238370   3.353   0.216   9.484  2.0969  1.0094 -1.0018
 8970SOL     OW38371   3.336   3.052   6.720 -0.8452 -0.0810 -0.3481
 8970SOL    HW138372   3.248   3.078   6.693 -0.4948  0.4413 -0.9835
 8970SOL    HW238373   3.379   3.138   6.726 -0.4909 -0.1887 -1.4271
 8971SOL     OW38374   1.231   4.028   9.191 -0.0403 -0.0953 -0.4972
 8971SOL    HW138375   1.258   3.989   9.108  1.9930 -1.3889  0.7612
 8971SOL    HW238376   1.304   4.088   9.210  0.9854 -1.5772  0.2157
 8972SOL     OW38377   2.964   0.364   2.548 -0.6618 -0.3911 -0.0467
 8972SOL    HW138378   2.937   0.344   2.638 -0.0415  0.8164  0.4126
 8972SOL    HW238379   2.984   0.280   2.507  0.7828 -0.5370  0.9300
 8973SOL     OW38380   3.071   1.960   2.118 -0.0384 -0.1128 -0.2397
 8973SOL    HW138381   3.088   2.051   2.094  2.3996 -0.4744  0.1216
 8973SOL    HW238382   3.004   1.963   2.187  0.4958  0.1033  0.2686
 8974SOL     OW38383   1.387   0.861   6.098 -0.4186  0.2886  0.0817
 8974SOL    HW138384   1.328   0.830   6.167  0.0877  0.5122  0.6153
 8974SOL    HW238385   1.466   0.813   6.122 -0.2755  0.2814 -0.3936
 8975SOL     OW38386   4.125   2.818  17.645  0.6443  0.3897  0.0974
 8975SOL    HW138387   4.164   2.850   0.053  1.0764 -1.4933  0.6472
 8975SOL    HW238388   4.046   2.777   0.008 -0.1274  2.1840  0.4165
 8976SOL     OW38389   1.880   2.546   4.353 -0.2181 -0.0805  0.0538
 8976SOL    HW138390   1.831   2.623   4.325  0.4812  0.3619  0.0526
 8976SOL    HW238391   1.922   2.585   4.430 -1.1421 -0.9034  0.9765
 8977SOL     OW38392   3.020   2.712   4.584 -0.6269 -0.1609  0.2595
 8977SOL    HW138393   2.994   2.620   4.573 -0.1873  0.0961 -3.0394
 8977SOL    HW238394   3.110   2.701   4.615  0.5943  1.9132 -2.6295
 8978SOL     OW38395   4.244   4.404   6.996 -0.6029 -0.0576  0.2645
 8978SOL    HW138396   4.255   4.468   7.067 -2.2263  0.7544 -0.2238
 8978SOL    HW238397   4.157   4.367   7.005  0.1374 -1.3763  2.1550
 8979SOL     OW38398   2.318   2.961   3.961 -0.1038 -0.1608  0.1023
 8979SOL    HW138399   2.231   2.978   3.924  0.1621 -0.4139 -0.6319
 8979SOL    HW238400   2.377   2.997   3.895 -0.9800 -2.2973 -1.8418
 8980SOL     OW38401   0.683   0.448   4.252 -0.4709 -0.0126  0.1936
 8980SOL    HW138402   0.625   0.375   4.232  0.8651 -1.2907  0.9699
 8980SOL    HW238403   0.725   0.422   4.334  0.8630 -1.1584 -0.8505
 8981SOL     OW38404   2.511   2.439  17.240  0.3526 -0.0458  0.1957
 8981SOL    HW138405   2.587   2.444  17.298  0.8376 -2.6916 -0.2029
 8981SOL    HW238406   2.530   2.520  17.192 -1.4696  1.0545  1.3545
 8982SOL     OW38407   0.319   1.313   4.175 -0.0544 -0.1850 -0.3650
 8982SOL    HW138408   0.339   1.334   4.266 -1.0138  0.6255 -0.3342
 8982SOL    HW238409   0.407   1.291   4.146 -0.2958  1.5997 -2.4480
 8983SOL     OW38410   0.420   4.291   7.032 -0.4712  0.6351 -0.3361
 8983SOL    HW138411   0.339   4.244   7.014 -2.6988  2.7396  4.0375
 8983SOL    HW238412   0.408   4.299   7.127  0.9998 -0.0482 -0.0900
 8984SOL     OW38413   1.069   0.188   2.026 -0.1254 -0.2904 -0.6657
 8984SOL    HW138414   1.096   0.107   2.070  0.7252  1.4288  1.9967
 8984SOL    HW238415   1.132   0.218   1.961 -0.6471  0.9671 -0.6055
 8985SOL     OW38416   2.686   1.359  11.807 -0.2963 -0.4717 -0.2084
 8985SOL    HW138417   2.721   1.434  11.759 -0.0815  0.4399  1.3580
 8985SOL    HW238418   2.603   1.403  11.827 -0.4658 -1.2361  0.8179
 8986SOL     OW38419   0.349   3.095  10.386  0.5750  0.3028  0.2951
 8986SOL    HW138420   0.340   3.169  10.445  2.7697  0.1755  0.7940
 8986SOL    HW238421   0.298   3.121  10.309  1.6003 -1.3222 -0.9450
 8987SOL     OW38422   4.373   0.392  15.393 -0.1694 -0.1429  0.3379
 8987SOL    HW138423   4.300   0.412  15.451 -0.9975 -2.2857  0.0422
 8987SOL    HW238424   4.413   0.479  15.395 -3.6190  1.5098 -2.8181
 8988SOL     OW38425   3.832   2.687   6.523 -0.2547  0.2296 -0.0157
 8988SOL    HW138426   3.830   2.742   6.445  0.9023  1.3619  0.7481
 8988SOL    HW238427   3.740   2.681   6.550 -0.4202  0.7079 -0.4881
 8989SOL     OW38428   3.706   1.346   7.814  0.1539 -0.1266 -0.3614
 8989SOL    HW138429   3.800   1.354   7.828 -0.0110 -0.2447  0.8203
 8989SOL    HW238430   3.685   1.427   7.767 -2.5715 -0.3617  0.4238
 8990SOL     OW38431   0.115   4.531   4.719 -0.7351  0.4427  0.4598
 8990SOL    HW138432   0.098   4.625   4.726 -0.7758  0.3843  1.1156
 8990SOL    HW238433   0.208   4.533   4.741 -0.1703 -1.1431 -1.7468
 8991SOL     OW38434   4.428   2.240   5.583 -0.3970  0.0095 -0.4486
 8991SOL    HW138435   4.392   2.315   5.536  0.0659 -0.1537 -1.0726
 8991SOL    HW238436   4.506   2.211   5.534  0.4339  0.3432  0.6808
 8992SOL     OW38437   0.924   3.582   5.583 -0.1972  0.2462 -0.1701
 8992SOL    HW138438   0.844   3.537   5.556  0.7425 -1.2797 -0.3753
 8992SOL    HW238439   0.942   3.624   5.499 -1.6644 -1.1635 -1.2005
 8993SOL     OW38440   1.572   3.548   7.309  0.6032 -0.5610  0.3314
 8993SOL    HW138441   1.603   3.600   7.234  0.1440  0.0138  0.5413
 8993SOL    HW238442   1.492   3.519   7.266  0.2023  2.9901 -1.3364
 8994SOL     OW38443   4.222   4.583   0.083  0.2050 -0.4341 -0.3668
 8994SOL    HW138444   4.269   4.517   0.033  2.3338 -0.2880  1.4082
 8994SOL    HW238445   4.290   4.605   0.146 -0.7703 -1.0174  0.9009
 8995SOL     OW38446   0.704   3.139   9.876 -0.0650  0.0372  0.1885
 8995SOL    HW138447   0.668   3.165   9.791  0.7464  0.8853  0.0952
 8995SOL    HW238448   0.645   3.180   9.939 -1.6449 -0.1326 -1.1674
 8996SOL     OW38449   1.542   1.245   4.796  0.2891  0.4459 -0.3132
 8996SOL    HW138450   1.533   1.334   4.762  0.7270  1.1086  1.2739
 8996SOL    HW238451   1.473   1.195   4.753  0.7163 -1.1205  0.8193
 8997SOL     OW38452   0.163   0.366   1.463  0.3412 -0.2792 -0.7987
 8997SOL    HW138453   0.074   0.344   1.437 -0.4301 -0.4213  1.9024
 8997SOL    HW238454   0.221   0.352   1.389  0.8633 -0.6488 -0.3197
 8998SOL     OW38455   2.824   1.366  12.882  0.6334  0.0473 -0.7102
 8998SOL    HW138456   2.873   1.365  12.964  0.6843 -1.1145 -0.7678
 8998SOL    HW238457   2.900   1.375  12.825  1.9039  1.6278  1.2446
 8999SOL     OW38458   0.744   1.660  12.064 -0.2989 -0.5251 -0.6152
 8999SOL    HW138459   0.673   1.716  12.094 -0.3426 -0.6348 -0.5115
 8999SOL    HW238460   0.783   1.633  12.147 -1.1693 -0.6327 -0.2394
 9000SOL     OW38461   3.123   1.152   2.476  0.7562  0.0734  0.2662
 9000SOL    HW138462   3.100   1.177   2.387 -2.0558  0.8742  1.2159
 9000SOL    HW238463   3.063   1.079   2.493 -0.0848  0.2210 -2.1373
 9001SOL     OW38464   1.560   2.887   0.821  0.3164 -0.5790  0.1071
 9001SOL    HW138465   1.640   2.834   0.817  1.8198  1.5982  1.5230
 9001SOL    HW238466   1.528   2.865   0.733  1.9218  1.0149 -0.8819
 9002SOL     OW38467   0.125   2.846   6.110 -0.7448  0.2911  0.4876
 9002SOL    HW138468   0.190   2.917   6.100 -0.8083  0.0005 -2.0675
 9002SOL    HW238469   0.054   2.905   6.084  0.1500  0.9338 -0.5266
 9003SOL     OW38470   0.002   0.856   7.597 -0.1746 -0.4770 -0.0209
 9003SOL    HW138471   4.651   0.788   7.592 -0.8102  0.1626 -0.0252
 9003SOL    HW238472   0.067   0.808   7.648  0.2934 -1.3872 -1.4677
 9004SOL     OW38473   3.097   1.671   9.829  0.3643  0.2380 -0.4092
 9004SOL    HW138474   3.004   1.649   9.831 -0.2078  2.5001 -1.2362
 9004SOL    HW238475   3.098   1.757   9.786 -1.9221  1.1007  1.2171
 9005SOL     OW38476   2.720   3.874   2.459  0.4162  1.2547  0.0429
 9005SOL    HW138477   2.682   3.866   2.546  0.1289 -0.3128 -0.2246
 9005SOL    HW238478   2.729   3.968   2.441 -0.2340  1.8348  2.8466
 9006SOL     OW38479   0.392   1.429   7.301 -0.1046  0.4618  0.6663
 9006SOL    HW138480   0.345   1.347   7.315 -1.0492  0.7625 -0.7517
 9006SOL    HW238481   0.445   1.431   7.381  0.1078 -1.3292  0.5772
 9007SOL     OW38482   2.335   2.533   8.009  0.1083 -0.6718 -0.3179
 9007SOL    HW138483   2.352   2.485   7.928 -1.8227 -0.2635 -0.9509
 9007SOL    HW238484   2.367   2.622   7.994  1.1743 -0.8534  0.8223
 9008SOL     OW38485   2.756   3.371   4.852  0.2666 -0.0652 -0.5349
 9008SOL    HW138486   2.763   3.341   4.943  1.1268  2.6913  0.3088
 9008SOL    HW238487   2.662   3.357   4.842  0.0236  0.9401  0.3462
 9009SOL     OW38488   2.863   1.392   6.865  0.0953  0.0914  0.9674
 9009SOL    HW138489   2.795   1.423   6.925  1.1191  0.4403  1.9362
 9009SOL    HW238490   2.900   1.319   6.916 -0.0362 -0.7961 -0.1965
 9010SOL     OW38491   2.243   3.243   4.780  0.7636 -0.2174  0.1969
 9010SOL    HW138492   2.276   3.173   4.723  0.7488 -2.3439  2.8255
 9010SOL    HW238493   2.160   3.270   4.741  0.7803 -1.8745 -1.0309
 9011SOL     OW38494   0.146   2.492   6.374  0.4000 -0.2940  0.1631
 9011SOL    HW138495   0.193   2.412   6.397  1.2905  0.1912  0.0329
 9011SOL    HW238496   0.196   2.553   6.429 -0.8526  0.3618  0.5837
 9012SOL     OW38497   0.013   3.640   5.212  0.2141  0.2296  0.0169
 9012SOL    HW138498   4.654   3.587   5.230 -0.3301  0.6388 -1.1145
 9012SOL    HW238499   4.716   3.677   5.125 -1.9801  0.8039  0.6235
 9013SOL     OW38500   4.366   1.865   6.030 -0.2765  0.8844  0.2734
 9013SOL    HW138501   4.362   1.770   6.016 -1.1644  0.8978  0.4619
 9013SOL    HW238502   4.393   1.873   6.122  0.0096 -1.5475  0.4060
 9014SOL     OW38503   0.088   4.522   5.611  0.0134 -0.4550 -0.0645
 9014SOL    HW138504   0.093   4.526   5.707  1.9607 -1.3359 -0.1267
 9014SOL    HW238505   0.118   4.432   5.593  1.1785 -0.1467  0.3017
 9015SOL     OW38506   2.010   4.396   4.125 -0.6298  0.0957 -0.7201
 9015SOL    HW138507   1.981   4.437   4.207  0.5666  2.8825 -1.7073
 9015SOL    HW238508   1.963   4.456   4.068 -2.1652 -0.4304 -0.0293
 9016SOL     OW38509   3.864   0.350   3.636  0.2832 -0.0630  0.5827
 9016SOL    HW138510   3.893   0.293   3.708  0.0493 -1.7540 -0.6656
 9016SOL    HW238511   3.782   0.305   3.616  0.6427  0.1670 -1.3687
 9017SOL     OW38512   3.910   3.684   4.542 -0.2593  0.2660 -0.4113
 9017SOL    HW138513   3.963   3.635   4.605 -0.7161  1.2365  0.7278
 9017SOL    HW238514   3.830   3.649   4.580  0.5570 -1.9648 -0.7227
 9018SOL     OW38515   1.978   0.735  16.613  0.7085  0.1558 -0.2203
 9018SOL    HW138516   1.901   0.738  16.556  0.3301 -1.0268  0.2286
 9018SOL    HW238517   1.940   0.707  16.696 -2.5154 -0.3976 -1.8608
 9019SOL     OW38518   2.355   3.439  11.405 -0.1998 -0.6037  0.4689
 9019SOL    HW138519   2.360   3.450  11.500  0.0851 -0.1541  0.4047
 9019SOL    HW238520   2.343   3.532  11.386  2.3125 -0.5730 -0.9496
 9020SOL     OW38521   4.356   3.209   4.996 -0.1842 -0.3685 -0.4803
 9020SOL    HW138522   4.341   3.304   4.987  0.8238  0.0945  2.7348
 9020SOL    HW238523   4.265   3.179   5.004 -0.1976 -0.5419 -1.2795
 9021SOL     OW38524   2.860   2.017  12.815  0.1953 -0.2540 -0.1839
 9021SOL    HW138525   2.828   1.957  12.882 -2.1028  0.2857 -0.8144
 9021SOL    HW238526   2.949   1.984  12.802 -0.0117 -0.4973 -0.9490
 9022SOL     OW38527   0.850   2.089   6.934  0.2176 -0.7414  0.6797
 9022SOL    HW138528   0.756   2.092   6.917 -0.1054  1.6817  2.7633
 9022SOL    HW238529   0.879   2.040   6.858  2.3533 -2.0452  2.3271
 9023SOL     OW38530   4.582   0.187   2.187  0.1882 -0.0991 -0.2660
 9023SOL    HW138531   4.569   0.280   2.167 -1.4437  0.0300  1.4780
 9023SOL    HW238532   4.496   0.154   2.213  0.7704 -1.3046  0.0905
 9024SOL     OW38533   0.298   0.347   5.827 -0.2548 -0.2729  0.3079
 9024SOL    HW138534   0.373   0.370   5.883  0.8004  2.3383 -2.1685
 9024SOL    HW238535   0.305   0.255   5.853 -1.3159 -0.1494  1.0024
 9025SOL     OW38536   1.037   3.822   6.215 -0.2233 -0.0758 -0.2788
 9025SOL    HW138537   1.127   3.825   6.181 -0.5765  2.2915 -1.0444
 9025SOL    HW238538   1.053   3.871   6.296  1.0100 -0.1697 -0.4596
 9026SOL     OW38539   3.399   1.662   4.543  0.2070 -0.0230 -0.8210
 9026SOL    HW138540   3.379   1.594   4.479 -1.5926 -0.0368 -0.2582
 9026SOL    HW238541   3.493   1.650   4.551  0.5411  1.6564 -2.1183
 9027SOL     OW38542   4.657   0.975   3.949  0.1477 -0.0513 -0.0741
 9027SOL    HW138543   0.022   0.948   3.990  0.6618  0.8336 -0.5355
 9027SOL    HW238544   4.609   0.999   4.028  2.0494  1.4234  0.6202
 9028SOL     OW38545   1.712   0.290   3.481  0.0650 -0.0347  0.1486
 9028SOL    HW138546   1.637   0.349   3.484 -0.5011 -0.7442 -0.0915
 9028SOL    HW238547   1.738   0.296   3.573 -0.1772 -1.0014  0.2805
 9029SOL     OW38548   0.934   4.080  16.261 -0.1274 -0.6430 -0.0269
 9029SOL    HW138549   0.982   4.163  16.265 -1.3173 -0.0350  1.7220
 9029SOL    HW238550   0.898   4.079  16.172  0.0257 -0.8741 -0.0838
 9030SOL     OW38551   4.296   3.527   7.619 -0.2213 -0.2308 -0.0324
 9030SOL    HW138552   4.379   3.481   7.622 -0.1226 -0.0596 -0.1333
 9030SOL    HW238553   4.325   3.609   7.658  0.5096 -0.3958 -0.2399
 9031SOL     OW38554   3.447   4.601   6.300 -0.6086  0.0590 -0.2568
 9031SOL    HW138555   3.491   4.563   6.376 -2.2562 -3.0458 -0.8557
 9031SOL    HW238556   3.399   4.528   6.262 -1.6997 -1.0022  3.1199
 9032SOL     OW38557   0.112   1.523   5.974 -0.2058  0.0902  0.4227
 9032SOL    HW138558   0.073   1.528   5.887 -1.0475 -0.8402  0.7450
 9032SOL    HW238559   0.151   1.436   5.965 -1.0707 -0.2275 -0.2571
 9033SOL     OW38560   1.779   2.075   6.298 -0.0339 -0.4065  0.2773
 9033SOL    HW138561   1.834   2.041   6.228 -1.2918  0.8216 -1.3231
 9033SOL    HW238562   1.812   2.165   6.308  0.9647 -0.9601  1.9299
 9034SOL     OW38563   4.524   0.085   7.215  0.2102  0.1191 -0.3476
 9034SOL    HW138564   4.547   4.711   7.200  0.2729  0.5117 -2.6597
 9034SOL    HW238565   4.615   0.113   7.225 -0.7260  2.6921  1.1328
 9035SOL     OW38566   2.423   0.092   8.299  0.3170  0.6407 -0.2233
 9035SOL    HW138567   2.496   0.034   8.276  2.4339  3.0902  0.2466
 9035SOL    HW238568   2.420   0.098   8.394  1.1792 -2.7237  0.0090
 9036SOL     OW38569   2.819   2.230  12.433 -0.3453 -0.7591  0.4473
 9036SOL    HW138570   2.806   2.147  12.480 -1.0543 -1.6203 -1.2723
 9036SOL    HW238571   2.904   2.253  12.471 -1.0138 -0.3858  1.7451
 9037SOL     OW38572   0.485   4.692   7.625 -0.5279 -0.4762 -0.1136
 9037SOL    HW138573   0.480   4.703   7.530 -2.1784  0.1701  0.0415
 9037SOL    HW238574   0.569   4.647   7.617 -0.4053 -0.4135  0.8262
 9038SOL     OW38575   3.106   1.767   4.114 -0.3979  0.5545  0.1425
 9038SOL    HW138576   3.044   1.750   4.185 -1.4869  0.3280 -0.8616
 9038SOL    HW238577   3.146   1.846   4.151  0.7818 -0.5590  1.2456
 9039SOL     OW38578   1.460   4.610   8.258 -0.4907  0.6859  0.0343
 9039SOL    HW138579   1.553   4.625   8.272 -0.9580  2.0909  1.5712
 9039SOL    HW238580   1.449   4.674   8.188 -0.6027 -1.3814 -1.8718
 9040SOL     OW38581   2.910   1.264   4.495  0.8975 -0.0640  0.1676
 9040SOL    HW138582   2.896   1.315   4.415  0.1639  1.8889  1.5392
 9040SOL    HW238583   2.946   1.187   4.451  1.7124  1.9434 -2.6360
 9041SOL     OW38584   3.774   1.491   3.585  0.5504 -0.0932  0.0708
 9041SOL    HW138585   3.732   1.486   3.499 -2.1559 -0.2432  1.4047
 9041SOL    HW238586   3.789   1.585   3.595 -3.1835  0.4955  0.1381
 9042SOL     OW38587   2.654   4.160   2.396 -0.1969 -0.2383  0.0827
 9042SOL    HW138588   2.632   4.122   2.311 -3.1687 -2.2430  1.7484
 9042SOL    HW238589   2.653   4.252   2.368  1.0406  0.1448  1.3019
 9043SOL     OW38590   0.549   1.731   9.090 -0.0882 -0.3787  0.0621
 9043SOL    HW138591   0.588   1.668   9.149 -2.2152 -2.2181 -0.4919
 9043SOL    HW238592   0.510   1.797   9.147  1.5095  2.0304 -1.6171
 9044SOL     OW38593   1.742   3.302  12.793 -0.0749 -0.1483 -0.3577
 9044SOL    HW138594   1.664   3.253  12.819  0.4362 -0.1269  1.2355
 9044SOL    HW238595   1.760   3.268  12.705 -3.0080 -0.6483 -0.7357
 9045SOL     OW38596   4.153   3.040   2.858  0.0007 -0.2487 -0.1797
 9045SOL    HW138597   4.244   3.012   2.867  0.5389  1.5583  0.0696
 9045SOL    HW238598   4.117   2.994   2.934  1.1725 -1.7197 -0.5017
 9046SOL     OW38599   2.918   0.298  10.526 -0.4980  0.3999  0.2710
 9046SOL    HW138600   2.909   0.315  10.432  0.1197 -1.5925 -0.1377
 9046SOL    HW238601   3.008   0.272  10.545 -1.0877 -0.7674  1.4514
 9047SOL     OW38602   1.768   3.101   6.956  0.1841 -0.0504 -0.5340
 9047SOL    HW138603   1.807   3.145   7.032  4.4891 -0.4656 -2.5211
 9047SOL    HW238604   1.805   3.156   6.887 -0.5758  1.3882  0.1999
 9048SOL     OW38605   2.854   1.522  14.866  0.1202  0.2298 -0.3303
 9048SOL    HW138606   2.760   1.512  14.850 -0.5074  0.6054  3.0693
 9048SOL    HW238607   2.882   1.450  14.810 -0.0085  1.2442 -1.7268
 9049SOL     OW38608   1.518   3.323   4.435 -0.2274 -0.0539 -0.0970
 9049SOL    HW138609   1.446   3.386   4.442 -2.2872 -2.0952 -2.6584
 9049SOL    HW238610   1.557   3.337   4.349 -0.6578  0.6854 -0.1768
 9050SOL     OW38611   4.367   3.257   1.561  0.0217  0.0501 -0.0146
 9050SOL    HW138612   4.366   3.346   1.527 -1.8949 -0.8987 -2.4100
 9050SOL    HW238613   4.285   3.244   1.608  1.0169 -1.7669  1.2526
 9051SOL     OW38614   1.295   4.319   8.538  0.4385  0.4295 -0.2785
 9051SOL    HW138615   1.313   4.403   8.580 -0.1039 -0.5395  1.8551
 9051SOL    HW238616   1.232   4.355   8.476  0.9550  1.1037 -0.4106
 9052SOL     OW38617   2.416   2.013   9.943  0.1957 -0.3349  0.1017
 9052SOL    HW138618   2.472   2.083   9.910  0.0691  0.3730  1.3820
 9052SOL    HW238619   2.475   1.967  10.004  1.2397  0.1227 -0.5681
 9053SOL     OW38620   2.394   0.176   8.825  0.1482 -0.6019 -0.3651
 9053SOL    HW138621   2.406   0.120   8.902  0.0433 -0.9794 -0.6229
 9053SOL    HW238622   2.461   0.243   8.824  0.0784 -0.5050  2.6986
 9054SOL     OW38623   2.889   3.946   9.391  0.0035  0.4441 -0.1687
 9054SOL    HW138624   2.977   3.980   9.404  0.0801 -0.2412  1.0711
 9054SOL    HW238625   2.867   3.979   9.304  0.4705 -1.9188 -1.1843
 9055SOL     OW38626   0.945   3.838  13.375 -0.0384  0.6732  0.6263
 9055SOL    HW138627   0.851   3.820  13.383  0.2428 -0.2292  1.9879
 9055SOL    HW238628   0.946   3.855  13.281 -0.5128  0.2831  0.5496
 9056SOL     OW38629   1.765   1.202  14.808 -0.1567  0.0092 -0.3788
 9056SOL    HW138630   1.766   1.295  14.785 -0.4455 -0.0409 -0.5962
 9056SOL    HW238631   1.673   1.192  14.786 -0.3332  0.4468  0.1526
 9057SOL     OW38632   2.872   1.719   8.248 -0.3042  0.2009  0.5376
 9057SOL    HW138633   2.848   1.811   8.237  2.8411  1.1508  1.5092
 9057SOL    HW238634   2.802   1.683   8.193 -1.0556  1.3164  0.7609
 9058SOL     OW38635   3.297   0.203   3.848 -0.7182 -0.0979  0.0906
 9058SOL    HW138636   3.203   0.193   3.858 -0.8633  2.3786  1.0732
 9058SOL    HW238637   3.312   0.128   3.790  1.9821 -0.5844  1.4349
 9059SOL     OW38638   3.995   1.317  13.523  0.5049  0.0667 -0.3652
 9059SOL    HW138639   3.993   1.222  13.527  1.6176  0.0031 -1.2702
 9059SOL    HW238640   4.045   1.335  13.443 -0.7053  0.4923 -1.0326
 9060SOL     OW38641   3.706   0.113   5.008 -0.0187  0.4427 -0.2853
 9060SOL    HW138642   3.649   0.151   5.073  1.1752  0.6327  0.6506
 9060SOL    HW238643   3.673   0.160   4.932  2.6939 -0.2985 -1.9390
 9061SOL     OW38644   1.231   0.447   4.316  0.3686 -0.1433  0.9462
 9061SOL    HW138645   1.187   0.369   4.283  1.9049 -0.7665  0.3584
 9061SOL    HW238646   1.168   0.477   4.382  0.8407  1.2475  0.7661
 9062SOL     OW38647   3.452   4.008   4.706 -0.6494 -0.1412  0.0569
 9062SOL    HW138648   3.396   3.955   4.649  0.2753 -2.1246  0.9899
 9062SOL    HW238649   3.495   4.064   4.642  0.3164 -1.5340 -0.5131
 9063SOL     OW38650   2.662   0.516   2.829  0.6121 -0.5472  0.5240
 9063SOL    HW138651   2.678   0.539   2.737 -0.7686  0.6525  0.5912
 9063SOL    HW238652   2.693   0.425   2.820 -0.6170 -0.7936 -1.3127
 9064SOL     OW38653   2.871   2.544   2.139  0.1648 -1.0684 -0.0285
 9064SOL    HW138654   2.837   2.485   2.206 -2.0807  2.2606  1.7647
 9064SOL    HW238655   2.812   2.525   2.066 -0.4801  0.6431  0.0644
 9065SOL     OW38656   0.751   3.355  11.670 -0.1101  0.2455 -0.4985
 9065SOL    HW138657   0.716   3.390  11.751  0.7584 -0.9810  0.4018
 9065SOL    HW238658   0.686   3.290  11.645 -0.1191 -0.8450  2.3487
 9066SOL     OW38659   0.141   0.774   3.457  0.4047 -0.2820 -0.7497
 9066SOL    HW138660   0.122   0.761   3.550 -0.0375  0.8185 -0.6885
 9066SOL    HW238661   0.114   0.863   3.437 -3.8496 -1.3811  0.1950
 9067SOL     OW38662   1.048   2.349   7.643 -0.5061  0.5268 -0.0272
 9067SOL    HW138663   1.048   2.441   7.671  0.4158  0.4774  0.1249
 9067SOL    HW238664   0.960   2.314   7.656 -0.2472 -0.1027  0.0305
 9068SOL     OW38665   0.688   1.595  17.160  0.6654  0.7710 -0.1255
 9068SOL    HW138666   0.642   1.587  17.244  2.0468  0.3757  0.6083
 9068SOL    HW238667   0.632   1.543  17.103  1.9258 -2.7434  1.8170
 9069SOL     OW38668   4.154   0.181   2.064  0.0101  0.2898 -0.3291
 9069SOL    HW138669   4.181   0.159   1.974 -1.1718  0.5673 -0.7501
 9069SOL    HW238670   4.099   0.259   2.054  1.4012  1.4076  0.8512
 9070SOL     OW38671   0.657   4.578   2.767 -0.1305  0.0713 -0.2252
 9070SOL    HW138672   0.650   4.668   2.797  2.1197  0.5360 -1.0544
 9070SOL    HW238673   0.578   4.568   2.714 -0.4243 -5.6384  1.2540
 9071SOL     OW38674   1.494   3.482   9.004 -0.5081 -0.2510 -0.7936
 9071SOL    HW138675   1.458   3.400   9.037 -1.9633  1.0746  0.9257
 9071SOL    HW238676   1.461   3.532   9.079  0.6159 -1.8722  0.7657
 9072SOL     OW38677   3.891   2.427  12.148  0.3242 -0.0992 -0.8123
 9072SOL    HW138678   3.828   2.497  12.166  0.0097 -1.5242  3.7791
 9072SOL    HW238679   3.917   2.450  12.059 -1.3498 -0.9753 -1.5324
 9073SOL     OW38680   3.961   3.480   5.074 -0.3546 -0.1098 -0.0252
 9073SOL    HW138681   3.922   3.418   5.136  0.5886 -0.2039  0.4819
 9073SOL    HW238682   3.918   3.561   5.101  0.1176  1.0002 -2.6603
 9074SOL     OW38683   3.770   0.125  16.155  0.1286 -0.2130  0.2739
 9074SOL    HW138684   3.740   0.038  16.183 -2.3235  1.4780  2.8573
 9074SOL    HW238685   3.866   0.119  16.156  0.1539  0.0045 -1.0174
 9075SOL     OW38686   2.675   4.029   6.509  0.3477  0.3858  0.2167
 9075SOL    HW138687   2.753   3.980   6.535 -1.2654 -2.4658 -0.2269
 9075SOL    HW238688   2.717   4.086   6.445  0.6158 -0.1462 -0.0784
 9076SOL     OW38689   4.199   3.412   5.813  0.2352 -0.0203  0.2694
 9076SOL    HW138690   4.258   3.484   5.789  0.9835 -1.5700 -2.5910
 9076SOL    HW238691   4.271   3.350   5.829  0.3311 -0.2231 -0.8854
 9077SOL     OW38692   3.835   0.928  15.479  0.6665  0.0282 -0.0570
 9077SOL    HW138693   3.851   0.834  15.480  0.8656  0.0495 -0.9983
 9077SOL    HW238694   3.755   0.931  15.531  1.9515 -0.1821  1.9334
 9078SOL     OW38695   0.461   0.499   8.476  0.3781  0.1714 -0.2491
 9078SOL    HW138696   0.421   0.494   8.563 -1.7085 -3.1527 -1.4090
 9078SOL    HW238697   0.389   0.534   8.423  1.3002  1.7981 -0.4072
 9079SOL     OW38698   4.192   3.643   9.678  0.1363  0.4133 -0.2500
 9079SOL    HW138699   4.241   3.718   9.645  0.5555 -0.8462 -2.4448
 9079SOL    HW238700   4.165   3.617   9.590  1.6373 -0.0478 -0.5775
 9080SOL     OW38701   1.231   2.915   6.332 -0.3765 -0.2426  0.2896
 9080SOL    HW138702   1.267   2.886   6.249 -0.2260  3.0722 -0.8044
 9080SOL    HW238703   1.185   2.833   6.351 -0.8318  0.3505  1.7900
 9081SOL     OW38704   0.410   2.116   1.692  0.2668 -0.3977  0.0988
 9081SOL    HW138705   0.382   2.208   1.689 -0.2386 -0.5007  1.4322
 9081SOL    HW238706   0.327   2.070   1.688  0.0371 -0.0918  1.2305
 9082SOL     OW38707   3.262   1.760   0.389 -0.3832 -0.3212  0.6119
 9082SOL    HW138708   3.304   1.785   0.471  0.3522 -2.5791  0.9233
 9082SOL    HW238709   3.197   1.698   0.423 -1.0378  0.5461  0.9459
 9083SOL     OW38710   2.174   2.208   7.175  0.1300  0.3735 -0.0327
 9083SOL    HW138711   2.080   2.217   7.189  0.1511  0.7481 -0.1230
 9083SOL    HW238712   2.204   2.133   7.226  1.4738  0.9096 -0.0289
 9084SOL     OW38713   4.484   2.545   1.463 -0.3493 -0.1214 -0.4584
 9084SOL    HW138714   4.537   2.493   1.523 -3.5238 -0.4686  2.0122
 9084SOL    HW238715   4.517   2.632   1.485 -0.6785 -0.0983 -0.0713
 9085SOL     OW38716   3.176   4.135   4.481 -0.0896  0.2126 -0.1772
 9085SOL    HW138717   3.217   4.149   4.396  1.8735 -0.3598  0.6888
 9085SOL    HW238718   3.215   4.050   4.499  1.2621  0.2889 -2.7290
 9086SOL     OW38719   4.475   1.374   9.010  0.3889  0.4895  0.0185
 9086SOL    HW138720   4.520   1.290   8.998  1.3114  1.0952 -0.7876
 9086SOL    HW238721   4.416   1.343   9.079 -0.6725 -1.6899 -1.8570
 9087SOL     OW38722   4.075   4.493   7.596 -0.1056  0.0740  0.2410
 9087SOL    HW138723   4.065   4.398   7.606  1.2819  0.1279  2.4195
 9087SOL    HW238724   4.159   4.504   7.642  1.2396  1.5491 -2.5480
 9088SOL     OW38725   1.320   4.619  11.802  0.0396  0.3635  0.5192
 9088SOL    HW138726   1.392   4.559  11.822 -1.3597 -1.9979 -1.5673
 9088SOL    HW238727   1.249   4.559  11.778  2.2294 -2.2743  0.6507
 9089SOL     OW38728   1.846   3.495   5.710  0.3403 -1.1651  0.0860
 9089SOL    HW138729   1.782   3.468   5.644 -1.5903  1.0921  1.0384
 9089SOL    HW238730   1.805   3.463   5.791 -2.1412  0.6039 -0.4781
 9090SOL     OW38731   2.412   3.149   6.661  0.1223 -0.0274  0.1498
 9090SOL    HW138732   2.366   3.168   6.579 -0.6050  1.6078  0.9364
 9090SOL    HW238733   2.365   3.071   6.691 -0.1646  1.0580  2.5600
 9091SOL     OW38734   2.712   1.311   3.810 -0.0365 -0.6468  0.1651
 9091SOL    HW138735   2.739   1.403   3.818  0.9822 -0.8015 -1.4683
 9091SOL    HW238736   2.647   1.307   3.739  0.7543  0.4163 -0.6346
 9092SOL     OW38737   4.467   0.363   8.015  0.1299 -0.7643 -0.3521
 9092SOL    HW138738   4.555   0.346   8.048 -0.4713 -0.6584  1.2748
 9092SOL    HW238739   4.484   0.454   7.991  1.5373 -1.0842 -0.5453
 9093SOL     OW38740   0.912   2.802   8.143  0.3188 -0.3167 -0.2712
 9093SOL    HW138741   0.994   2.846   8.119  0.0624  0.5089  0.3775
 9093SOL    HW238742   0.946   2.730   8.196 -0.9561 -0.3433  0.4881
 9094SOL     OW38743   1.828   3.861   2.243 -0.0037  0.1907  0.5644
 9094SOL    HW138744   1.773   3.784   2.256  1.0062 -0.8707 -1.5793
 9094SOL    HW238745   1.885   3.833   2.172  0.4891  0.7657  0.7302
 9095SOL     OW38746   4.606   2.558  16.698 -0.4472  0.2684 -0.2082
 9095SOL    HW138747   4.542   2.622  16.667  0.7724  2.2136  1.2778
 9095SOL    HW238748   4.641   2.583  16.784  0.5080 -1.6371 -0.0508
 9096SOL     OW38749   3.448   0.959   5.065  0.1300 -0.4625 -0.5608
 9096SOL    HW138750   3.385   1.025   5.034 -0.3817  0.1277  1.7616
 9096SOL    HW238751   3.494   1.010   5.131 -0.3944 -1.1104  0.3085
 9097SOL     OW38752   2.103   3.381  16.207  0.1520 -0.1763 -0.0721
 9097SOL    HW138753   2.021   3.331  16.199 -0.3035  0.6906 -0.8227
 9097SOL    HW238754   2.125   3.396  16.115  0.8783 -2.4302 -0.2696
 9098SOL     OW38755   3.298   1.359   6.995 -0.2071 -0.3208  0.6489
 9098SOL    HW138756   3.309   1.372   6.901 -1.9720  0.9144  0.6004
 9098SOL    HW238757   3.274   1.444   7.033  0.4968  0.7913 -1.4001
 9099SOL     OW38758   1.858   1.360  12.663  0.2520  0.8010 -0.0436
 9099SOL    HW138759   1.954   1.360  12.671  0.5808 -2.9088 -3.6225
 9099SOL    HW238760   1.869   1.322  12.576 -1.2712 -1.4298  0.7366
 9100SOL     OW38761   0.443   4.267  11.542 -0.3633  0.0814  0.3484
 9100SOL    HW138762   0.409   4.203  11.479  2.8824 -2.3643  1.0593
 9100SOL    HW238763   0.367   4.324  11.556 -0.3129  0.1530  0.3304
 9101SOL     OW38764   2.578   4.061   9.440  0.3174 -0.3338  0.6586
 9101SOL    HW138765   2.599   4.095   9.353  1.3659 -0.8331  0.7186
 9101SOL    HW238766   2.502   4.119   9.447  0.6645  0.2106 -0.0942
 9102SOL     OW38767   2.098   3.150   6.059 -0.2531 -0.2559  0.0495
 9102SOL    HW138768   2.170   3.102   6.098  1.8319  0.6309 -2.7063
 9102SOL    HW238769   2.086   3.214   6.129 -1.3554 -2.0883  1.5415
 9103SOL     OW38770   0.705   4.629   6.330  0.2563 -0.0774  0.0399
 9103SOL    HW138771   0.656   4.664   6.254 -0.3574 -0.8319  0.0827
 9103SOL    HW238772   0.633   4.576   6.365  0.2917 -0.4260 -0.4155
 9104SOL     OW38773   1.970   3.109   2.763 -0.8004 -0.2614 -0.5196
 9104SOL    HW138774   1.931   3.177   2.818  1.4784  0.1272  0.5946
 9104SOL    HW238775   1.902   3.112   2.695  0.9123 -0.1504 -2.2246
 9105SOL     OW38776   3.618   2.725   3.906  0.1149 -0.8766 -0.6045
 9105SOL    HW138777   3.703   2.685   3.926 -0.1499 -0.4971  1.2530
 9105SOL    HW238778   3.593   2.661   3.839 -2.1004 -1.5329  0.8556
 9106SOL     OW38779   0.776   1.288  12.291 -0.2421  0.0723  0.0074
 9106SOL    HW138780   0.743   1.290  12.201 -1.8252  1.9783  0.6327
 9106SOL    HW238781   0.844   1.222  12.273 -0.1448  0.2150 -0.1578
 9107SOL     OW38782   3.162   1.534  10.418  0.2966 -0.1794 -0.2170
 9107SOL    HW138783   3.162   1.506  10.509  2.0257  0.7871  0.0862
 9107SOL    HW238784   3.232   1.600  10.422 -0.5881  0.6325  1.7642
 9108SOL     OW38785   0.011   3.101   1.095 -0.2418 -0.3445 -0.0229
 9108SOL    HW138786   4.680   3.019   1.102  0.6762 -0.8027  1.0641
 9108SOL    HW238787   4.695   3.152   1.169 -0.3347 -0.0932 -0.2429
 9109SOL     OW38788   0.892   3.539  12.875  0.2033  0.2359 -0.2836
 9109SOL    HW138789   0.939   3.580  12.948  2.3045 -0.0195 -1.4721
 9109SOL    HW238790   0.830   3.610  12.860 -1.8386 -1.0398  2.1372
 9110SOL     OW38791   4.068   3.722   1.871 -0.0903 -0.1280 -0.1972
 9110SOL    HW138792   3.988   3.696   1.917  0.2823 -1.9745 -0.6091
 9110SOL    HW238793   4.093   3.646   1.819  1.9823 -2.0681  3.6259
 9111SOL     OW38794   0.041   0.442   7.461  0.7498 -0.2000 -0.4806
 9111SOL    HW138795   4.692   0.390   7.507  0.8768  1.4032  1.5208
 9111SOL    HW238796   0.036   0.524   7.510  3.0138  1.5125 -3.1019
 9112SOL     OW38797   2.320   3.431   2.641  0.3617  0.2936 -0.1624
 9112SOL    HW138798   2.321   3.526   2.630  1.5548  0.1670 -1.0970
 9112SOL    HW238799   2.226   3.413   2.642  0.2414  0.8536 -1.8660
 9113SOL     OW38800   3.120   2.860   3.062  0.1094 -0.6570  0.3871
 9113SOL    HW138801   3.144   2.775   3.097  0.1887 -0.0433  1.8001
 9113SOL    HW238802   3.158   2.928   3.117  1.5028 -0.9545 -0.2236
 9114SOL     OW38803   1.199   4.372   2.954  0.2715 -0.0037 -0.1335
 9114SOL    HW138804   1.259   4.437   2.919  0.3601  1.7657  3.3286
 9114SOL    HW238805   1.165   4.337   2.872 -1.0169  0.2895  0.2782
 9115SOL     OW38806   0.638   2.952   4.126  0.0462  0.1457  0.2355
 9115SOL    HW138807   0.702   3.022   4.119 -0.0724  0.3296  0.9603
 9115SOL    HW238808   0.558   2.998   4.098  1.5200  2.7491  0.2904
 9116SOL     OW38809   1.081   2.542   0.671 -0.4095  0.4437 -0.2481
 9116SOL    HW138810   1.000   2.552   0.721 -0.0870 -0.3176  0.4241
 9116SOL    HW238811   1.145   2.591   0.722 -0.2353  0.5231 -0.5465
 9117SOL     OW38812   2.723   4.540   6.848 -0.4255  0.2239  0.1197
 9117SOL    HW138813   2.765   4.565   6.930  2.1930  2.0579 -1.7804
 9117SOL    HW238814   2.631   4.554   6.873 -0.8841 -1.6811 -0.4928
 9118SOL     OW38815   0.572   4.110  13.838  0.4023  0.0525 -0.0439
 9118SOL    HW138816   0.597   4.084  13.927  1.6142 -1.1622 -0.7308
 9118SOL    HW238817   0.519   4.185  13.863 -0.0410 -0.4679  0.5568
 9119SOL     OW38818   3.793   2.995  12.695  0.2096 -0.1791 -0.7413
 9119SOL    HW138819   3.835   2.910  12.687  0.2008 -0.0916 -1.7522
 9119SOL    HW238820   3.843   3.048  12.632  1.3720  0.1631  0.4865
 9120SOL     OW38821   4.549   1.833   6.260  0.0361 -0.1507 -0.2576
 9120SOL    HW138822   4.619   1.791   6.310 -1.7309  0.3502  2.6451
 9120SOL    HW238823   4.496   1.871   6.331 -1.7180  0.3019 -1.7933
 9121SOL     OW38824   0.844   4.341  17.504  0.5029  0.0774  0.3828
 9121SOL    HW138825   0.804   4.417  17.464  1.3075 -2.0838 -4.5180
 9121SOL    HW238826   0.873   4.297  17.424 -0.5219  1.3721 -0.6906
 9122SOL     OW38827   0.669   0.044   6.633 -0.3712  0.2321  1.0459
 9122SOL    HW138828   0.630   0.124   6.599 -1.5759 -0.7345  0.1578
 9122SOL    HW238829   0.631   4.701   6.569  0.2879  0.1249  0.7607
 9123SOL     OW38830   4.491   0.056   9.337  0.4905 -0.6276 -0.1691
 9123SOL    HW138831   4.539   4.710   9.390  0.3368 -0.3743  0.2697
 9123SOL    HW238832   4.474   0.129   9.396 -2.4528  0.0668 -1.8748
 9124SOL     OW38833   0.765   1.385  11.994 -0.3574 -0.6381  0.5257
 9124SOL    HW138834   0.770   1.480  12.001  0.1632 -0.6941  0.9574
 9124SOL    HW238835   0.842   1.363  11.940  0.6686 -1.5117  2.3310
 9125SOL     OW38836   0.957   3.120   5.451  0.1205  1.0066  0.3398
 9125SOL    HW138837   0.875   3.147   5.494  0.1184  1.3697  0.1082
 9125SOL    HW238838   0.971   3.041   5.502 -1.7629  1.2011  1.1865
 9126SOL     OW38839   0.680   2.295  17.269 -0.0087  0.3718 -0.1130
 9126SOL    HW138840   0.587   2.280  17.286  0.4052 -2.1600 -0.0544
 9126SOL    HW238841   0.705   2.212  17.228 -0.1180  0.3630 -0.1631
 9127SOL     OW38842   2.734   0.422   4.299  0.0077 -0.4140 -0.2784
 9127SOL    HW138843   2.745   0.329   4.281 -0.7910 -0.5222 -0.2197
 9127SOL    HW238844   2.767   0.473   4.226 -1.0691  1.1429  0.3219
 9128SOL     OW38845   0.356   3.427   7.231  0.3302  0.4296  0.5668
 9128SOL    HW138846   0.278   3.415   7.177  0.2706  1.8551  0.3421
 9128SOL    HW238847   0.422   3.404   7.165  1.6286  0.2491  1.9344
 9129SOL     OW38848   3.448   2.908  15.737  0.7144  0.3928 -0.1552
 9129SOL    HW138849   3.466   2.940  15.648  0.3151 -0.4702 -0.5459
 9129SOL    HW238850   3.530   2.864  15.761  0.5782  0.0590 -0.3056
 9130SOL     OW38851   3.927   2.226   7.854 -0.1754 -0.2849 -0.1006
 9130SOL    HW138852   3.935   2.315   7.889  0.3650 -0.5857  0.5458
 9130SOL    HW238853   4.008   2.204   7.806 -1.7340 -0.1229 -2.8007
 9131SOL     OW38854   4.444   0.802  10.162 -0.0988 -0.1884 -0.8400
 9131SOL    HW138855   4.455   0.806  10.067  2.6149 -1.9708 -0.6151
 9131SOL    HW238856   4.353   0.784  10.184  0.5740 -0.1156  1.9043
 9132SOL     OW38857   2.397   2.997   5.958 -0.4035  0.2803  0.3949
 9132SOL    HW138858   2.371   2.995   5.866  0.2706 -2.1796  0.2564
 9132SOL    HW238859   2.467   2.933   5.970 -1.7418 -1.7672 -2.8536
 9133SOL     OW38860   3.220   3.322  10.706 -0.2515 -0.4567  0.4972
 9133SOL    HW138861   3.131   3.333  10.673  0.4661  0.6882 -1.0664
 9133SOL    HW238862   3.257   3.249  10.657 -0.1138  1.7807 -2.7063
 9134SOL     OW38863   1.997   2.219  17.454  0.4084  0.1903 -0.1096
 9134SOL    HW138864   2.017   2.274  17.378  2.6455 -0.1414  0.2411
 9134SOL    HW238865   1.905   2.241  17.470  0.4500  0.5214 -0.3118
 9135SOL     OW38866   1.927   4.649   3.126  0.0491 -0.5898  0.2266
 9135SOL    HW138867   1.961   4.701   3.053  1.5278  1.8971  2.7088
 9135SOL    HW238868   1.847   4.612   3.087  0.0001 -1.3104  1.0041
 9136SOL     OW38869   4.036   0.034  16.083  0.0980  0.2533 -0.5548
 9136SOL    HW138870   4.069   0.112  16.040  0.3651 -0.0426 -0.8828
 9136SOL    HW238871   4.110   0.000  16.133 -1.3542 -2.3140 -0.0919
 9137SOL     OW38872   0.221   2.236  14.034  0.4911 -0.0425  0.1075
 9137SOL    HW138873   0.227   2.142  14.016 -0.3710  0.0954 -0.8841
 9137SOL    HW238874   0.310   2.256  14.062  0.3716 -3.2104  2.7446
 9138SOL     OW38875   3.914   2.397  11.129 -0.4029 -0.1812 -0.1040
 9138SOL    HW138876   3.829   2.353  11.133 -0.4272 -0.1476 -0.2521
 9138SOL    HW238877   3.965   2.328  11.085 -0.1243 -2.5726  4.0280
 9139SOL     OW38878   1.385   1.871   2.316 -0.4618 -0.6124  0.4600
 9139SOL    HW138879   1.445   1.943   2.335 -2.9293  1.4044  0.6255
 9139SOL    HW238880   1.449   1.801   2.331  2.0268  1.2062 -1.6310
 9140SOL     OW38881   4.249   3.418  16.565  0.1244  0.0593 -0.1456
 9140SOL    HW138882   4.311   3.490  16.552 -0.6048  1.0555  1.9071
 9140SOL    HW238883   4.229   3.389  16.476 -0.0001 -0.2977  0.0014
 9141SOL     OW38884   0.436   2.139  13.360 -0.4030  0.3102  0.1409
 9141SOL    HW138885   0.461   2.049  13.339 -0.1145  0.2407  0.7735
 9141SOL    HW238886   0.410   2.172  13.274  1.2993  3.6523  0.8821
 9142SOL     OW38887   4.357   1.952   2.642  0.1721  0.7586  0.5857
 9142SOL    HW138888   4.303   1.985   2.570 -0.2428 -0.6631  0.2304
 9142SOL    HW238889   4.443   1.989   2.623 -0.4852  2.6826  1.3626
 9143SOL     OW38890   4.035   3.496   6.081  0.1801  0.1984  0.2044
 9143SOL    HW138891   4.016   3.514   5.989  0.9337 -0.3275 -0.0533
 9143SOL    HW238892   3.954   3.452   6.107  0.1757  0.8269  1.2814
 9144SOL     OW38893   2.835   2.013   6.786 -0.4671 -0.6518 -0.4386
 9144SOL    HW138894   2.866   1.962   6.861  3.0168  0.5968 -1.0256
 9144SOL    HW238895   2.893   1.975   6.720  0.0346 -0.2558 -0.2323
 9145SOL     OW38896   1.742   0.725  16.490 -0.6609 -0.3260 -0.3294
 9145SOL    HW138897   1.725   0.769  16.407  1.1778 -0.5974 -0.8619
 9145SOL    HW238898   1.657   0.686  16.508 -1.8812  2.2775 -0.5358
 9146SOL     OW38899   2.643   4.125  13.805  0.1908 -0.3462  0.2532
 9146SOL    HW138900   2.612   4.160  13.722  2.1929 -0.0552 -0.3646
 9146SOL    HW238901   2.657   4.204  13.857  3.3661 -1.9156  1.7550
 9147SOL     OW38902   0.284   4.289   6.254  0.0689 -0.0521  0.2604
 9147SOL    HW138903   0.224   4.262   6.324 -0.1269 -0.6136 -0.1166
 9147SOL    HW238904   0.233   4.359   6.214  0.5121  1.3909  2.2281
 9148SOL     OW38905   3.893   0.506   4.091  0.6654  0.0127  0.0171
 9148SOL    HW138906   3.828   0.550   4.037  0.9367 -0.8570 -1.0262
 9148SOL    HW238907   3.848   0.430   4.128 -1.7736  0.9157 -1.1665
 9149SOL     OW38908   1.728   4.339   5.730 -0.1380 -0.6369 -0.0239
 9149SOL    HW138909   1.765   4.339   5.641  2.5134 -1.1274  1.0697
 9149SOL    HW238910   1.683   4.255   5.730 -1.2388 -0.0344  1.2899
 9150SOL     OW38911   2.638   1.342  10.887 -0.4536  0.3099  0.8613
 9150SOL    HW138912   2.702   1.356  10.817 -1.4285  0.3381 -0.0249
 9150SOL    HW238913   2.581   1.279  10.843 -0.2506  1.1339 -0.5557
 9151SOL     OW38914   1.198   0.492  12.905 -0.4172 -0.3266  0.1320
 9151SOL    HW138915   1.151   0.558  12.957 -1.1199  0.2332 -1.1994
 9151SOL    HW238916   1.286   0.495  12.942  0.3809  0.4747 -1.8109
 9152SOL     OW38917   3.805   0.506   7.471  0.3183 -0.2235  0.0649
 9152SOL    HW138918   3.860   0.579   7.499  0.2769 -0.5839  1.0868
 9152SOL    HW238919   3.805   0.452   7.551  0.6159  0.8844  0.8191
 9153SOL     OW38920   0.848   3.096   5.866 -0.0653  0.5110 -0.5471
 9153SOL    HW138921   0.801   3.022   5.905  2.3507 -0.0944  1.2257
 9153SOL    HW238922   0.905   3.055   5.801  0.9774  1.3030 -0.1358
 9154SOL     OW38923   0.855   1.310  13.412 -0.1406 -0.0202 -0.1443
 9154SOL    HW138924   0.821   1.292  13.324 -0.2837 -2.1799  0.3721
 9154SOL    HW238925   0.794   1.262  13.467 -0.4381 -0.8704 -1.2175
 9155SOL     OW38926   2.781   2.217   4.568  0.7306  0.3442  0.8529
 9155SOL    HW138927   2.720   2.246   4.636  0.6107  2.9195 -0.3379
 9155SOL    HW238928   2.735   2.139   4.537  1.3574 -0.3630  1.7087
 9156SOL     OW38929   2.212   0.438   5.606 -0.3536 -0.3373  0.2164
 9156SOL    HW138930   2.174   0.442   5.518 -3.7911  0.5318  1.7627
 9156SOL    HW238931   2.298   0.478   5.592  0.2953 -1.4753  0.9535
 9157SOL     OW38932   1.065   4.333  12.362  0.2446 -0.3634  0.0124
 9157SOL    HW138933   0.987   4.313  12.414  1.3322  0.2888  1.8956
 9157SOL    HW238934   1.033   4.289  12.283  0.3608  0.6326 -0.5914
 9158SOL     OW38935   1.966   0.552   5.670  0.0115  0.3502  0.1488
 9158SOL    HW138936   1.993   0.633   5.627  1.7152  0.2671  1.0538
 9158SOL    HW238937   2.044   0.498   5.674  0.8964  1.5304 -1.3914
 9159SOL     OW38938   1.204   1.485  10.381  0.6077 -0.2156  0.0168
 9159SOL    HW138939   1.276   1.447  10.332  0.0232 -0.0595 -0.9547
 9159SOL    HW238940   1.236   1.456  10.467 -0.9651 -2.1214 -0.0339
 9160SOL     OW38941   2.403   4.580   7.621 -0.1841  0.3315  0.0600
 9160SOL    HW138942   2.328   4.561   7.678 -0.9498 -0.8315 -1.3239
 9160SOL    HW238943   2.480   4.586   7.676 -0.5128  0.3231  0.5209
 9161SOL     OW38944   1.445   2.923   7.809  0.1675 -0.1799  0.2107
 9161SOL    HW138945   1.460   3.016   7.825  0.3432 -0.2772  0.6027
 9161SOL    HW238946   1.356   2.904   7.838  0.6283 -2.8563 -0.0929
 9162SOL     OW38947   3.159   0.950   8.165 -0.0008  0.6575  0.6134
 9162SOL    HW138948   3.198   1.025   8.121  0.3303 -0.4720 -0.9863
 9162SOL    HW238949   3.119   0.991   8.242  0.9129 -1.6430  2.2896
 9163SOL     OW38950   2.351   1.945   5.395  0.0641  0.0431 -0.0717
 9163SOL    HW138951   2.343   1.892   5.316  1.3612 -0.2676 -0.0006
 9163SOL    HW238952   2.264   1.921   5.427  0.4662 -0.5431  0.5993
 9164SOL     OW38953   1.424   2.545  14.740  0.0655 -0.3152 -0.3735
 9164SOL    HW138954   1.478   2.514  14.669 -2.5872 -2.7388 -1.3326
 9164SOL    HW238955   1.472   2.623  14.768 -1.8192  0.3677  1.0321
 9165SOL     OW38956   3.863   3.555   5.838  0.7746 -0.5373 -0.8145
 9165SOL    HW138957   3.889   3.485   5.777  2.8604 -0.9043  0.5058
 9165SOL    HW238958   3.905   3.630   5.797 -0.5815 -1.5600 -4.1524
 9166SOL     OW38959   2.329   3.501   8.808  0.1283 -0.4272  0.2812
 9166SOL    HW138960   2.398   3.444   8.840  1.3296  0.5037 -0.6460
 9166SOL    HW238961   2.353   3.498   8.715 -0.0837 -2.8669  0.3118
 9167SOL     OW38962   4.110   0.587  15.978  0.0589 -0.7075  0.4041
 9167SOL    HW138963   4.194   0.572  15.935  0.3849  2.0998  0.0981
 9167SOL    HW238964   4.101   0.677  15.947 -2.3119 -1.3820 -0.8408
 9168SOL     OW38965   0.471   0.063   1.097  0.1758  0.1984  0.2557
 9168SOL    HW138966   0.563   0.036   1.088  0.2321  0.4075  0.1955
 9168SOL    HW238967   0.477   0.130   1.166  0.9049 -0.7274  1.0836
 9169SOL     OW38968   4.606   1.946  10.322 -0.7999  0.1645  0.1632
 9169SOL    HW138969   4.521   1.990  10.330 -0.3751  1.5781 -3.2708
 9169SOL    HW238970   4.662   2.015  10.357  0.2250 -1.4311  1.6779
 9170SOL     OW38971   0.942   3.411   3.556  0.0922  0.5070 -0.0333
 9170SOL    HW138972   0.919   3.321   3.577  0.5588 -0.1397 -2.3351
 9170SOL    HW238973   0.898   3.454   3.630  0.8660  1.0289  0.1304
 9171SOL     OW38974   0.680   1.378   4.358  0.1368 -0.1711 -0.2185
 9171SOL    HW138975   0.661   1.355   4.267 -0.1176 -1.1999  0.0926
 9171SOL    HW238976   0.592   1.366   4.393  0.5135 -1.1077  0.4220
 9172SOL     OW38977   0.848   4.520  10.746  0.1139  0.1684  0.2341
 9172SOL    HW138978   0.897   4.558  10.672  1.1712  1.4012  1.5638
 9172SOL    HW238979   0.771   4.577  10.740  1.4157  2.1341  2.0170
 9173SOL     OW38980   0.509   4.196   8.144 -0.0960  0.0952  0.1663
 9173SOL    HW138981   0.533   4.175   8.234 -0.5612  1.6431  0.6452
 9173SOL    HW238982   0.543   4.285   8.139 -0.2589  0.1245 -0.3755
 9174SOL     OW38983   4.409   0.040   6.649 -0.0299 -0.0316  0.6598
 9174SOL    HW138984   4.444   0.074   6.732 -0.0771  0.9608  0.2718
 9174SOL    HW238985   4.460   4.679   6.632 -0.6582 -0.6696  1.7282
 9175SOL     OW38986   1.662   3.748   3.025 -0.6526 -0.3743 -0.2021
 9175SOL    HW138987   1.611   3.749   3.106 -0.0032 -1.2116  0.2089
 9175SOL    HW238988   1.585   3.760   2.969  0.6555 -0.5846 -2.0515
 9176SOL     OW38989   3.880   2.434   6.288  0.2568  0.2207  0.2112
 9176SOL    HW138990   3.938   2.502   6.322 -1.7606  1.2014  1.7285
 9176SOL    HW238991   3.891   2.358   6.345 -1.6975  0.0512  0.3710
 9177SOL     OW38992   2.653   1.293   0.382  0.1998 -0.5581  0.8737
 9177SOL    HW138993   2.616   1.375   0.351 -0.1906 -0.3758  1.8410
 9177SOL    HW238994   2.634   1.226   0.316 -2.2013  1.6283 -0.6485
 9178SOL     OW38995   0.336   0.600   3.796  0.2742  0.2876  0.4791
 9178SOL    HW138996   0.392   0.528   3.765 -0.8052  0.3767 -1.6540
 9178SOL    HW238997   0.377   0.679   3.759 -1.1110  0.0732 -1.5283
 9179SOL     OW38998   4.700   4.492  17.421 -0.6217 -0.0894  0.0173
 9179SOL    HW138999   4.632   4.501  17.488 -1.5715  0.0164 -0.9621
 9179SOL    HW239000   4.655   4.514  17.340 -1.5766 -0.9343  0.3172
 9180SOL     OW39001   3.652   4.042  14.920 -0.4755 -0.0988  0.2254
 9180SOL    HW139002   3.629   4.027  15.012 -1.9645  0.4358 -0.0620
 9180SOL    HW239003   3.747   4.051  14.926 -0.6285  0.1544  2.2499
 9181SOL     OW39004   0.008   2.302   3.700  0.4055 -0.2727  0.5937
 9181SOL    HW139005   0.015   2.387   3.658  3.1161 -0.2174  1.1713
 9181SOL    HW239006   4.675   2.262   3.629  0.1503 -1.3139  1.3546
 9182SOL     OW39007   4.326   2.803   0.595  0.1500 -0.3095  0.3168
 9182SOL    HW139008   4.322   2.757   0.679 -0.5730  2.0963  1.6175
 9182SOL    HW239009   4.233   2.799   0.573 -0.0411 -1.1615  1.2710
 9183SOL     OW39010   1.635   4.255   0.126 -0.0808 -0.1790  0.1686
 9183SOL    HW139011   1.556   4.298   0.160  0.0214  0.2041 -0.0779
 9183SOL    HW239012   1.630   4.272   0.032  2.7942 -0.1858  0.0068
 9184SOL     OW39013   2.794   4.130  10.884  0.0705  0.2500  0.7817
 9184SOL    HW139014   2.800   4.039  10.856  4.3163  1.2098 -1.3115
 9184SOL    HW239015   2.889   4.142  10.885 -0.1797  2.3114 -0.1552
 9185SOL     OW39016   4.622   4.248   0.761  0.0387  0.2490 -0.5199
 9185SOL    HW139017   4.661   4.164   0.786 -0.6596 -0.0470 -0.4217
 9185SOL    HW239018   4.630   4.287   0.848  2.1572 -1.7024  0.1540
 9186SOL     OW39019   2.081   4.138   6.046 -0.0657  0.0262  0.2612
 9186SOL    HW139020   2.064   4.153   6.139  0.8165  1.9695  0.1161
 9186SOL    HW239021   2.105   4.045   6.053  0.2084  0.3907  4.1073
 9187SOL     OW39022   3.613   0.113   3.291 -0.3758  0.2781  0.6504
 9187SOL    HW139023   3.558   0.047   3.334  0.4646 -1.7065 -1.3178
 9187SOL    HW239024   3.701   0.084   3.316 -0.0203 -0.0535 -1.0348
 9188SOL     OW39025   4.377   0.845  16.054 -0.0520  0.1653  0.2764
 9188SOL    HW139026   4.336   0.849  16.140 -2.2197 -1.0989 -0.7118
 9188SOL    HW239027   4.396   0.752  16.049  1.3998  0.4282  0.7429
 9189SOL     OW39028   0.558   3.081   7.394 -0.3886  0.5395 -0.1786
 9189SOL    HW139029   0.467   3.079   7.362 -0.4252  0.5724 -0.0748
 9189SOL    HW239030   0.589   3.165   7.359 -0.4526  0.1353 -1.2051
 9190SOL     OW39031   3.947   1.921  15.698 -0.4622  0.2506 -0.0062
 9190SOL    HW139032   4.028   1.957  15.661 -0.3519 -1.7030 -1.6659
 9190SOL    HW239033   3.976   1.855  15.760  2.7194  1.6533 -0.0242
 9191SOL     OW39034   0.228   1.050  11.760  0.0323  0.4851  0.1832
 9191SOL    HW139035   0.291   1.066  11.831 -0.3340 -0.6006  0.7468
 9191SOL    HW239036   0.262   0.970  11.720  0.5604  1.1442 -0.6889
 9192SOL     OW39037   0.532   3.635  15.468  0.2769 -0.8663  0.1300
 9192SOL    HW139038   0.528   3.562  15.406 -0.4307 -0.2740 -0.5205
 9192SOL    HW239039   0.444   3.635  15.507  0.9846 -2.9390  1.7127
 9193SOL     OW39040   2.707   2.270   8.157 -0.3824 -0.0695  0.1705
 9193SOL    HW139041   2.666   2.356   8.147  0.2908  0.3165  0.7033
 9193SOL    HW239042   2.677   2.256   8.247 -0.2509 -1.0744  0.0643
 9194SOL     OW39043   0.666   2.697  10.396 -0.1528  0.5144  0.3645
 9194SOL    HW139044   0.752   2.718  10.433 -0.2298  0.3660  0.6229
 9194SOL    HW239045   0.678   2.662  10.308 -4.1325 -1.6004  0.6311
 9195SOL     OW39046   0.522   0.662   2.817  0.5928  0.1999 -0.2700
 9195SOL    HW139047   0.487   0.589   2.765 -1.4734  0.3005  0.9941
 9195SOL    HW239048   0.613   0.667   2.788 -0.1991  1.1193 -2.5928
 9196SOL     OW39049   1.051   2.046   7.096 -0.4976  0.2879  0.2780
 9196SOL    HW139050   0.978   2.071   7.039  0.7952  0.7230 -1.1842
 9196SOL    HW239051   1.094   1.975   7.049  0.6403  1.9130 -1.1324
 9197SOL     OW39052   3.315   0.090   8.924 -0.0773  0.1388 -0.0382
 9197SOL    HW139053   3.296   0.109   8.832 -0.5524 -2.1883 -0.4450
 9197SOL    HW239054   3.221   0.083   8.944  1.0284 -3.1783  3.9845
 9198SOL     OW39055   3.654   0.025   5.512  0.1239 -0.1365 -0.8036
 9198SOL    HW139056   3.726   0.055   5.456  1.1040  0.6594  0.8901
 9198SOL    HW239057   3.593   4.708   5.446 -0.9017 -0.7201  0.4552
 9199SOL     OW39058   1.943   2.928   4.204  0.2980  0.0350 -0.4401
 9199SOL    HW139059   1.855   2.890   4.214  1.0434 -1.2357  1.2219
 9199SOL    HW239060   1.951   2.929   4.108 -0.5722 -0.7160 -0.5288
 9200SOL     OW39061   2.303   0.242   4.574  0.3546 -0.1323 -0.2154
 9200SOL    HW139062   2.396   0.259   4.590  0.2919 -0.0902  0.0964
 9200SOL    HW239063   2.264   0.305   4.634 -1.4085 -2.0748  0.6616
 9201SOL     OW39064   1.147   3.724   9.077  0.0642 -0.4517  0.5221
 9201SOL    HW139065   1.188   3.639   9.063 -0.2677 -0.8404  1.9209
 9201SOL    HW239066   1.204   3.782   9.026 -0.0265  1.2875  2.3531
 9202SOL     OW39067   1.260   0.008   1.750 -0.3422  0.2347  0.9296
 9202SOL    HW139068   1.326   4.696   1.813 -0.3433 -0.7699  0.4490
 9202SOL    HW239069   1.269   0.101   1.770  0.5017  0.2680  0.3587
 9203SOL     OW39070   3.939   0.128  11.412 -0.3338 -0.4420 -0.3960
 9203SOL    HW139071   3.871   0.098  11.353 -1.4826 -0.7969  1.1096
 9203SOL    HW239072   3.995   0.053  11.428  0.3385  0.4079  1.2848
 9204SOL     OW39073   2.407   3.522   4.991  0.2820  0.0976  0.1035
 9204SOL    HW139074   2.434   3.444   4.943  0.6690  0.3674 -0.1112
 9204SOL    HW239075   2.323   3.491   5.024  1.5698 -1.9142  1.4357
 9205SOL     OW39076   2.519   2.648   4.940 -0.2100 -0.1611 -0.1992
 9205SOL    HW139077   2.451   2.617   5.000 -0.5100 -1.4484 -1.1900
 9205SOL    HW239078   2.469   2.673   4.863  0.9631 -0.8845 -1.1925
 9206SOL     OW39079   0.341   2.734   7.704  0.0177  0.1973 -0.6732
 9206SOL    HW139080   0.260   2.742   7.755  0.5122 -0.7021  0.2501
 9206SOL    HW239081   0.394   2.665   7.744 -0.9026 -0.6190 -0.8311
 9207SOL     OW39082   0.645   2.755   9.987  0.0460  0.0429 -0.0204
 9207SOL    HW139083   0.701   2.829  10.008 -0.9469  0.4697  1.1731
 9207SOL    HW239084   0.691   2.684  10.031 -2.2388  0.0653  2.3911
 9208SOL     OW39085   2.952   0.630   5.089 -0.0045  0.0457 -0.3050
 9208SOL    HW139086   2.992   0.614   5.004 -0.2933 -1.4744 -0.1568
 9208SOL    HW239087   2.942   0.724   5.107  0.7483  0.1765 -0.5763
 9209SOL     OW39088   0.568   0.515   7.791  0.1358 -0.0491  0.3827
 9209SOL    HW139089   0.567   0.594   7.737  0.0690 -0.9274 -0.9026
 9209SOL    HW239090   0.635   0.530   7.857  2.8460 -0.2107 -2.3044
 9210SOL     OW39091   0.136   3.365   7.074  0.2119 -0.0305 -0.2075
 9210SOL    HW139092   0.062   3.309   7.050  1.0525 -1.0080 -0.5123
 9210SOL    HW239093   0.128   3.430   7.004  2.5081 -0.0849 -0.5213
 9211SOL     OW39094   1.597   0.827   5.148 -0.3933 -0.5143 -0.2515
 9211SOL    HW139095   1.555   0.868   5.072 -0.3510  1.1564  0.6303
 9211SOL    HW239096   1.654   0.765   5.102 -0.6456 -0.4285 -0.6828
 9212SOL     OW39097   2.436   3.523   7.449  0.1855  0.1054 -0.3954
 9212SOL    HW139098   2.499   3.530   7.377 -0.3511  0.0330 -0.8669
 9212SOL    HW239099   2.492   3.532   7.526 -0.4207 -1.7337  0.2599
 9213SOL     OW39100   3.990   1.106  12.478 -0.0151  0.1717 -0.3992
 9213SOL    HW139101   4.049   1.069  12.543  1.1062  1.5096 -0.6430
 9213SOL    HW239102   3.986   1.196  12.513 -0.9855  0.3949 -1.0930
 9214SOL     OW39103   3.501   0.297  17.541  0.3654  0.3344 -0.0084
 9214SOL    HW139104   3.408   0.312  17.556  0.3125 -0.5563  0.4929
 9214SOL    HW239105   3.534   0.385  17.560  0.3638  0.2389  0.4200
 9215SOL     OW39106   4.241   2.794   6.943  0.2830 -0.0536 -0.7535
 9215SOL    HW139107   4.249   2.744   6.862  0.0739  0.9943 -1.4177
 9215SOL    HW239108   4.287   2.875   6.920 -0.6522  1.3344  2.2728
 9216SOL     OW39109   4.127   0.648   6.015 -0.1553  0.6379 -0.5655
 9216SOL    HW139110   4.177   0.719   5.975 -1.8006  1.3669 -1.3378
 9216SOL    HW239111   4.089   0.605   5.938  0.9169 -1.0347 -0.1545
 9217SOL     OW39112   2.641   1.316  12.675 -0.4792 -0.5327  0.3598
 9217SOL    HW139113   2.692   1.235  12.671 -2.3811 -1.7350  0.7611
 9217SOL    HW239114   2.688   1.356  12.748  0.3415 -0.5836 -0.1293
 9218SOL     OW39115   0.568   1.631  17.411 -0.0915 -0.4501  0.5855
 9218SOL    HW139116   0.619   1.645  17.490 -0.1571  0.2549  0.4985
 9218SOL    HW239117   0.492   1.585  17.447 -0.1484 -1.7952 -1.1979
 9219SOL     OW39118   4.392   0.342   6.805 -0.2313  0.0254  0.3697
 9219SOL    HW139119   4.298   0.326   6.812 -0.2261  0.8541  2.3802
 9219SOL    HW239120   4.412   0.323   6.897 -0.6126 -0.4899  0.3472
 9220SOL     OW39121   0.560   3.798   6.576  0.5069 -0.0560 -0.7909
 9220SOL    HW139122   0.489   3.811   6.513  2.0832  2.1901 -2.1267
 9220SOL    HW239123   0.513   3.790   6.659  1.6252 -1.1113 -0.2573
 9221SOL     OW39124   1.089   3.103   7.243 -0.3582 -0.1631 -0.5845
 9221SOL    HW139125   1.067   3.168   7.309 -1.2648  1.2791 -2.3273
 9221SOL    HW239126   1.181   3.127   7.232 -0.2665 -0.4614 -0.4694
 9222SOL     OW39127   0.995   3.315   2.452 -0.5818  0.1645  1.1613
 9222SOL    HW139128   0.981   3.233   2.405 -1.5777  1.0610 -0.1150
 9222SOL    HW239129   1.078   3.347   2.418 -0.2639 -0.2535  1.5353
 9223SOL     OW39130   1.759   0.802  15.834  0.5569  0.5780  0.2599
 9223SOL    HW139131   1.711   0.821  15.753 -1.2936 -0.1082  1.1980
 9223SOL    HW239132   1.830   0.866  15.821 -0.5834  1.6024 -0.9269
 9224SOL     OW39133   2.131   0.852   6.618 -0.5332 -0.4799 -0.3742
 9224SOL    HW139134   2.067   0.841   6.688 -0.0961 -1.0168 -0.0543
 9224SOL    HW239135   2.154   0.944   6.628 -2.5211 -0.1143  0.6822
 9225SOL     OW39136   0.931   4.486   9.746 -0.2319  0.4650 -0.1789
 9225SOL    HW139137   0.992   4.419   9.777  0.0710  1.7548  2.0207
 9225SOL    HW239138   0.896   4.507   9.833  1.0681 -0.0550  0.4631
 9226SOL     OW39139   2.284   4.699   5.788 -0.2009 -0.0900  0.5199
 9226SOL    HW139140   2.312   4.619   5.833 -1.8819 -0.7581  0.3619
 9226SOL    HW239141   2.364   4.716   5.737 -0.0579 -2.3570 -0.0364
 9227SOL     OW39142   1.702   1.628   7.343  0.3038 -0.4995 -0.2318
 9227SOL    HW139143   1.710   1.690   7.270  2.9165  0.5515  0.9413
 9227SOL    HW239144   1.645   1.668   7.408  1.2168 -0.4620  0.5358
 9228SOL     OW39145   3.649   1.475   3.875  0.6382  0.3804 -0.3377
 9228SOL    HW139146   3.704   1.398   3.864 -0.2917 -0.4112  0.5771
 9228SOL    HW239147   3.677   1.524   3.797  3.3833 -1.6203 -0.6220
 9229SOL     OW39148   2.224   0.636  16.471 -0.2377  0.1044 -0.6331
 9229SOL    HW139149   2.197   0.549  16.445 -1.9288  0.8495 -1.3724
 9229SOL    HW239150   2.151   0.662  16.527 -0.2005 -2.5567  0.6250
 9230SOL     OW39151   1.611   0.553   2.838 -0.3509 -0.0318  0.0366
 9230SOL    HW139152   1.659   0.471   2.852 -1.0264 -0.8289 -2.3199
 9230SOL    HW239153   1.649   0.610   2.904 -0.5440  1.1941 -0.9058
 9231SOL     OW39154   1.705   0.789   7.427 -0.0743  0.3286 -0.1123
 9231SOL    HW139155   1.647   0.744   7.366 -0.0375 -1.7756  1.3933
 9231SOL    HW239156   1.789   0.790   7.380  0.5437 -1.2282  0.9713
 9232SOL     OW39157   1.952   1.977  16.980 -0.0374 -0.0256 -0.7156
 9232SOL    HW139158   1.890   1.984  17.053  0.7975 -2.7895  0.2659
 9232SOL    HW239159   2.029   2.017  17.019 -0.4103  0.1723 -0.1745
 9233SOL     OW39160   0.338   0.729   1.313  0.4144 -0.1132  0.1798
 9233SOL    HW139161   0.318   0.688   1.229 -0.2217  0.8567 -0.1479
 9233SOL    HW239162   0.412   0.675   1.340  1.0199  0.5139 -0.2107
 9234SOL     OW39163   1.859   3.662  11.171 -0.1762 -0.6166  0.0877
 9234SOL    HW139164   1.905   3.645  11.253  1.2745 -2.0176 -1.0160
 9234SOL    HW239165   1.865   3.585  11.115  0.4040 -0.1277 -0.5152
 9235SOL     OW39166   1.109   3.105   4.703  0.2339  0.2678 -0.7677
 9235SOL    HW139167   1.060   3.164   4.645 -2.2037 -1.9934 -0.9994
 9235SOL    HW239168   1.042   3.079   4.766 -0.2731  2.1006 -0.5369
 9236SOL     OW39169   3.596   0.317   3.555  0.0397  0.1695 -0.0034
 9236SOL    HW139170   3.545   0.398   3.554 -3.4136 -1.9931 -0.1553
 9236SOL    HW239171   3.550   0.262   3.491  0.8272 -0.9074  0.3543
 9237SOL     OW39172   2.803   2.772   7.975 -0.2580  0.1962  0.0905
 9237SOL    HW139173   2.721   2.821   7.969 -0.6412 -0.6729 -1.4270
 9237SOL    HW239174   2.842   2.806   7.895 -0.8770  2.5524  0.7803
 9238SOL     OW39175   1.710   4.289   3.538  0.3126  0.2106 -0.1388
 9238SOL    HW139176   1.761   4.207   3.534  1.3414  0.8861 -0.9608
 9238SOL    HW239177   1.770   4.350   3.580 -0.6058  0.3011  1.0216
 9239SOL     OW39178   3.945   0.147  16.953 -0.2573  0.2617 -0.1433
 9239SOL    HW139179   3.912   0.057  16.945 -0.6428  0.3532  0.4293
 9239SOL    HW239180   3.865   0.199  16.950  0.5786  1.5579  0.2446
 9240SOL     OW39181   0.902   2.168  15.233  0.1701  0.2589  0.0466
 9240SOL    HW139182   0.884   2.102  15.166  0.4159  0.5792 -0.3400
 9240SOL    HW239183   0.870   2.249  15.194  0.2471 -0.8407 -2.3435
 9241SOL     OW39184   1.636   0.383  15.618 -0.1712  0.0122 -0.1779
 9241SOL    HW139185   1.663   0.451  15.557  0.7954 -0.6618 -0.5095
 9241SOL    HW239186   1.541   0.380  15.620 -0.1647 -0.1922 -0.1504
 9242SOL     OW39187   4.101   3.112   7.312 -0.1172 -0.0248  0.1179
 9242SOL    HW139188   4.097   3.051   7.238  0.1985 -1.1755  1.0474
 9242SOL    HW239189   4.142   3.055   7.377  0.0227 -0.2504 -0.1640
 9243SOL     OW39190   2.787   0.840  13.191  0.8849  0.2436  0.0941
 9243SOL    HW139191   2.817   0.837  13.282  1.6051 -0.1863 -0.1497
 9243SOL    HW239192   2.868   0.815  13.145  0.0348 -1.6011 -0.4215
 9244SOL     OW39193   3.625   1.318  15.331  0.1428  0.2839 -0.1835
 9244SOL    HW139194   3.572   1.250  15.290 -2.7325  1.5448  1.4366
 9244SOL    HW239195   3.616   1.303  15.426 -0.5929  1.3974 -0.0673
 9245SOL     OW39196   0.246   2.759   2.968 -0.1127  0.1147  0.1195
 9245SOL    HW139197   0.178   2.708   2.924  0.5862  0.7856 -1.7736
 9245SOL    HW239198   0.207   2.763   3.055  3.2193 -0.5553  1.6334
 9246SOL     OW39199   0.674   0.930   9.066 -0.5364  0.1334  0.1117
 9246SOL    HW139200   0.672   0.842   9.028  1.3525  0.5410 -0.9083
 9246SOL    HW239201   0.761   0.927   9.105 -0.4964  1.3988  0.1272
 9247SOL     OW39202   2.972   2.966   5.064  0.3784 -1.1460 -0.1529
 9247SOL    HW139203   2.924   3.024   5.006  1.4725 -0.2359 -0.1340
 9247SOL    HW239204   3.022   2.910   5.004  1.9116  0.1363 -0.0659
 9248SOL     OW39205   1.871   0.392   2.485 -0.1512  0.4518 -0.6653
 9248SOL    HW139206   1.788   0.344   2.478  1.1112 -1.8834  0.3676
 9248SOL    HW239207   1.840   0.476   2.518  0.7658  0.8657 -0.8548
 9249SOL     OW39208   2.910   3.650  10.024 -0.5742 -0.0689 -0.5463
 9249SOL    HW139209   2.899   3.572   9.970  1.4365 -0.9765  0.3639
 9249SOL    HW239210   2.963   3.620  10.098 -1.3434  0.7554  0.3390
 9250SOL     OW39211   3.019   2.242   5.410  0.6680 -0.4507 -0.1869
 9250SOL    HW139212   2.951   2.174   5.407  1.1463 -1.0651  2.7521
 9250SOL    HW239213   2.986   2.302   5.477 -0.3829 -0.5417 -0.6244
 9251SOL     OW39214   4.559   1.193   6.297  0.1717  0.7391 -0.5642
 9251SOL    HW139215   4.466   1.209   6.283  0.0361 -1.8490 -2.7426
 9251SOL    HW239216   4.577   1.230   6.383 -1.7505  0.6190 -0.1065
 9252SOL     OW39217   3.482   1.819   3.123 -0.3890  0.4324  0.2108
 9252SOL    HW139218   3.430   1.850   3.049 -0.9761  0.9921  0.8505
 9252SOL    HW239219   3.463   1.888   3.187  0.9584 -1.1607  2.3114
 9253SOL     OW39220   0.683   0.632   8.759 -0.2020 -0.2356  0.0844
 9253SOL    HW139221   0.715   0.652   8.847  1.1101  1.0924 -0.6933
 9253SOL    HW239222   0.749   0.676   8.706  0.0620 -2.6210 -1.5469
 9254SOL     OW39223   2.684   4.185   0.710 -0.5396 -0.5330  0.2654
 9254SOL    HW139224   2.765   4.138   0.730 -0.3857 -0.0164  0.8485
 9254SOL    HW239225   2.630   4.158   0.785  0.3672 -0.9246  0.7718
 9255SOL     OW39226   3.563   0.107   6.979 -0.0766 -0.0627 -0.1440
 9255SOL    HW139227   3.469   0.112   6.996  0.2169  1.7111  0.9559
 9255SOL    HW239228   3.562   0.027   6.927  2.2085  0.1078 -0.4373
 9256SOL     OW39229   2.246   4.700   4.574 -0.0954  0.5314  0.5237
 9256SOL    HW139230   2.280   4.671   4.490  0.1472  0.9944  0.4648
 9256SOL    HW239231   2.263   0.077   4.582  0.6895  0.2751  1.9231
 9257SOL     OW39232   4.188   1.896   6.696 -0.0593  0.1222  0.1493
 9257SOL    HW139233   4.158   1.957   6.763 -1.6765 -0.2265 -0.2569
 9257SOL    HW239234   4.124   1.917   6.628  0.3384 -1.2358 -0.6453
 9258SOL     OW39235   2.238   3.158   9.002  0.0929  0.5479  0.6188
 9258SOL    HW139236   2.249   3.064   9.017 -1.4638 -0.0502 -1.9782
 9258SOL    HW239237   2.159   3.182   9.051 -0.9369 -0.4162 -0.5725
 9259SOL     OW39238   0.127   3.625   8.149  0.2516  0.4300 -0.4086
 9259SOL    HW139239   0.208   3.607   8.101 -0.9117  0.3291 -2.3159
 9259SOL    HW239240   0.125   3.720   8.139 -1.8377  0.4577  0.1962
 9260SOL     OW39241   1.931   2.475   5.445 -0.3620 -0.2769  0.3996
 9260SOL    HW139242   1.888   2.407   5.497 -0.7041 -0.6645 -0.3874
 9260SOL    HW239243   1.867   2.542   5.469 -0.4524 -0.0962 -0.3557
 9261SOL     OW39244   2.274   2.217   5.572  0.9036 -0.1691  0.1514
 9261SOL    HW139245   2.291   2.126   5.548 -0.8041 -0.3257 -0.4889
 9261SOL    HW239246   2.345   2.262   5.527  0.0860 -0.3077 -1.3002
 9262SOL     OW39247   2.527   0.980   0.694 -0.5431  0.9557 -0.1188
 9262SOL    HW139248   2.538   0.973   0.599  2.1693  1.8496  0.1302
 9262SOL    HW239249   2.455   1.043   0.702 -1.5306  0.0852 -2.1631
 9263SOL     OW39250   1.088   1.791  12.163 -0.1174 -0.1786 -0.4301
 9263SOL    HW139251   1.008   1.745  12.188  1.3242 -1.6466  1.5399
 9263SOL    HW239252   1.143   1.791  12.241 -0.1956  3.5916 -0.3765
 9264SOL     OW39253   1.825   2.108   6.718 -0.7893  0.0147 -0.3433
 9264SOL    HW139254   1.803   2.143   6.805  0.5704  0.4984 -0.1903
 9264SOL    HW239255   1.914   2.077   6.738 -0.2287  2.3173  0.8239
 9265SOL     OW39256   4.049   0.238   7.944 -0.2090  0.3041  0.4417
 9265SOL    HW139257   4.050   0.142   7.937 -0.1940  0.3073  0.4020
 9265SOL    HW239258   4.116   0.234   8.012  1.1117 -0.6528 -0.9084
 9266SOL     OW39259   4.303   1.427   3.582  0.2964 -0.6374 -0.2259
 9266SOL    HW139260   4.327   1.518   3.567 -3.0764 -0.1126 -2.4498
 9266SOL    HW239261   4.299   1.427   3.678 -1.3243 -1.4423 -0.2976
 9267SOL     OW39262   2.017   1.374  16.878  0.4086  0.1982  0.0004
 9267SOL    HW139263   2.111   1.389  16.879  0.3714  0.3753  1.4248
 9267SOL    HW239264   1.978   1.454  16.843 -0.5532  0.1064  0.8724
 9268SOL     OW39265   2.759   1.046   7.116 -0.0421 -0.3846 -0.1995
 9268SOL    HW139266   2.686   0.996   7.153 -1.1543  0.6810 -0.9367
 9268SOL    HW239267   2.805   1.099   7.182  0.9985 -2.4277  0.7106
 9269SOL     OW39268   4.099   1.144   4.876 -0.5652 -0.0920  0.0104
 9269SOL    HW139269   4.146   1.160   4.958 -0.5255 -0.4853  0.0621
 9269SOL    HW239270   4.133   1.223   4.832 -1.8206 -0.4558 -1.5933
 9270SOL     OW39271   1.335   2.737   6.668  0.1820 -0.0601 -0.1979
 9270SOL    HW139272   1.389   2.665   6.636  0.1995 -1.5798  3.1601
 9270SOL    HW239273   1.251   2.696   6.686 -0.2984 -0.1267 -2.6034
 9271SOL     OW39274   3.277   3.163   7.628 -0.4800  0.1503 -0.0561
 9271SOL    HW139275   3.355   3.109   7.616  0.7129  1.8033  0.2577
 9271SOL    HW239276   3.217   3.089   7.628  0.5163 -0.6352  5.8790
 9272SOL     OW39277   3.802   1.087  12.293 -0.3792  0.3637 -0.6172
 9272SOL    HW139278   3.862   1.110  12.222  0.6835  0.2837  0.2660
 9272SOL    HW239279   3.868   1.082  12.361 -2.6025 -2.4338  1.3280
 9273SOL     OW39280   3.587   4.495   8.208 -0.6500 -0.0353 -0.1421
 9273SOL    HW139281   3.680   4.514   8.198 -0.3531 -0.7815  1.1242
 9273SOL    HW239282   3.588   4.409   8.168  2.5443  0.9810 -2.1915
 9274SOL     OW39283   1.718   1.203   0.173  0.1371 -0.5047 -0.2571
 9274SOL    HW139284   1.721   1.178   0.266  0.1333  2.5384  0.5621
 9274SOL    HW239285   1.784   1.145   0.136  0.3023  0.1626 -1.0071
 9275SOL     OW39286   3.997   3.025   0.825 -0.1749  0.4157 -0.0879
 9275SOL    HW139287   3.960   2.981   0.902 -4.3004  1.4978 -1.4847
 9275SOL    HW239288   4.081   3.060   0.855 -0.3518  0.2971  0.5417
 9276SOL     OW39289   1.423   0.289  13.215  0.1772 -0.1238  0.3975
 9276SOL    HW139290   1.427   0.200  13.180  1.9848  0.1062  0.0134
 9276SOL    HW239291   1.479   0.344  13.160  0.5420 -1.0717 -0.1915
 9277SOL     OW39292   2.652   0.872   2.765  0.5949 -0.2461 -0.2591
 9277SOL    HW139293   2.642   0.807   2.834  0.8461  0.6285  0.6045
 9277SOL    HW239294   2.689   0.809   2.703  0.9309 -1.6179  1.3402
 9278SOL     OW39295   4.691   3.663   3.828 -0.0505  0.6552 -0.5432
 9278SOL    HW139296   4.676   3.669   3.733  3.5658 -1.0507 -1.2218
 9278SOL    HW239297   4.686   3.756   3.848 -1.4857  0.7309 -1.2175
 9279SOL     OW39298   3.547   0.559   4.801 -0.3527 -0.2718  0.5187
 9279SOL    HW139299   3.536   0.595   4.713 -2.7739  1.8950  1.7040
 9279SOL    HW239300   3.486   0.615   4.850 -0.4658  0.7785 -0.8410
 9280SOL     OW39301   1.798   2.715   5.769 -0.4506  0.2750 -0.4531
 9280SOL    HW139302   1.812   2.725   5.675 -2.1376 -2.2804 -0.9728
 9280SOL    HW239303   1.889   2.727   5.798 -0.5044 -0.9417  0.1823
 9281SOL     OW39304   2.984   3.143  12.434  0.0209  0.2600  0.1605
 9281SOL    HW139305   2.964   3.067  12.488 -1.4070 -0.1117 -0.9102
 9281SOL    HW239306   2.946   3.213  12.488 -0.0847  2.5094 -2.8583
 9282SOL     OW39307   3.243   2.578  10.931 -0.8705  0.0432 -0.1758
 9282SOL    HW139308   3.278   2.640  10.995 -0.8133  0.2938 -0.4533
 9282SOL    HW239309   3.174   2.634  10.896 -0.9324  0.3016  0.3696
 9283SOL     OW39310   4.251   1.746  11.303  0.4918 -0.0449 -0.0091
 9283SOL    HW139311   4.257   1.678  11.371  0.8215  1.7971  1.8065
 9283SOL    HW239312   4.158   1.756  11.284  0.2000 -4.1358 -0.6433
 9284SOL     OW39313   3.430   3.889   5.476  0.3036  0.8189  0.4909
 9284SOL    HW139314   3.388   3.974   5.465 -1.5638 -0.0344  1.0513
 9284SOL    HW239315   3.351   3.835   5.486 -0.3946  1.6468 -0.5965
 9285SOL     OW39316   1.853   1.968   0.152 -0.0752  0.3213  0.3538
 9285SOL    HW139317   1.853   1.917   0.233 -0.1630 -0.4478 -0.1295
 9285SOL    HW239318   1.761   1.954   0.132  1.1192  0.0699 -5.0184
 9286SOL     OW39319   0.550   1.991   3.450  0.3176 -0.2217 -0.2088
 9286SOL    HW139320   0.544   2.084   3.428 -1.3169 -0.2744 -0.0006
 9286SOL    HW239321   0.643   1.976   3.466  0.2648 -0.5392 -0.2070
 9287SOL     OW39322   4.627   2.018   2.548  0.1772 -0.0934  0.1301
 9287SOL    HW139323   4.717   2.007   2.578 -0.0408 -1.1107  0.4221
 9287SOL    HW239324   4.620   2.113   2.548 -1.7889 -0.2245 -0.5924
 9288SOL     OW39325   3.014   0.007  10.924 -0.4776  0.2490  0.5687
 9288SOL    HW139326   2.945   4.663  10.952  0.9216 -1.6758 -0.2050
 9288SOL    HW239327   3.085   4.702  10.984 -0.5243 -2.3344 -0.3298
 9289SOL     OW39328   3.861   4.555  14.033 -0.0428  0.4804 -0.3949
 9289SOL    HW139329   3.936   4.500  14.008  0.1236  0.8136 -0.6401
 9289SOL    HW239330   3.910   4.628  14.071  0.5182 -0.0300 -0.1238
 9290SOL     OW39331   1.708   4.587  11.074  0.0878 -0.5162 -0.1209
 9290SOL    HW139332   1.642   4.648  11.040 -0.6555 -1.1103  0.2664
 9290SOL    HW239333   1.694   4.514  11.014 -1.8316 -1.3655  1.3728
 9291SOL     OW39334   3.127   3.742  10.922  0.0969  0.1874 -0.1648
 9291SOL    HW139335   3.040   3.775  10.898 -0.0899  0.4991  0.9385
 9291SOL    HW239336   3.120   3.646  10.924 -0.5744  0.2380 -0.0191
 9292SOL     OW39337   3.854   0.005   4.429 -0.7104 -0.4071  0.0849
 9292SOL    HW139338   3.921   4.682   4.484  0.1832 -1.4367 -1.7522
 9292SOL    HW239339   3.811   4.640   4.407  0.6671 -1.2807  0.6727
 9293SOL     OW39340   3.190   0.572   1.853 -0.0273 -0.2670  0.1981
 9293SOL    HW139341   3.190   0.514   1.777 -2.8963  1.6062 -1.2178
 9293SOL    HW239342   3.108   0.620   1.840 -0.9882 -1.9616 -0.0078
 9294SOL     OW39343   1.272   4.240   4.257 -0.5218  0.8460  0.0515
 9294SOL    HW139344   1.206   4.196   4.204  0.5539  1.4115 -1.7753
 9294SOL    HW239345   1.343   4.234   4.193  0.0819 -2.5814  1.0431
 9295SOL     OW39346   4.598   0.443   4.458  0.4325  0.0053  0.4089
 9295SOL    HW139347   4.659   0.453   4.531  3.2594  2.0042 -2.2825
 9295SOL    HW239348   4.552   0.526   4.470  0.9106  0.7566 -3.0578
 9296SOL     OW39349   0.760   1.294   7.451  0.3499 -0.2421 -0.3029
 9296SOL    HW139350   0.760   1.379   7.407 -2.8230  0.7678  1.5874
 9296SOL    HW239351   0.756   1.237   7.374 -0.9632  1.2227 -1.3194
 9297SOL     OW39352   4.398   0.019   6.916 -0.3556  0.0262 -0.1601
 9297SOL    HW139353   4.349   0.004   6.997 -0.7166 -1.8318 -0.7182
 9297SOL    HW239354   4.329   0.002   6.851  0.8451  0.6041 -1.5703
 9298SOL     OW39355   3.319   1.653   5.813 -0.1052 -0.1962  0.5351
 9298SOL    HW139356   3.288   1.634   5.902 -3.2869  0.6695 -0.3966
 9298SOL    HW239357   3.374   1.730   5.832  1.6400 -0.5808 -2.9884
 9299SOL     OW39358   0.516   1.543   2.594 -0.3836 -0.0002  0.1024
 9299SOL    HW139359   0.429   1.578   2.572 -1.0985 -2.7751 -1.4209
 9299SOL    HW239360   0.562   1.557   2.511  0.5529  1.4459  0.8587
 9300SOL     OW39361   0.978   4.158   2.548  0.0804 -0.2432 -0.3786
 9300SOL    HW139362   0.946   4.080   2.503 -1.6609  0.0637  0.3410
 9300SOL    HW239363   0.956   4.235   2.495 -0.9588 -0.0890  0.2834
 9301SOL     OW39364   0.029   0.805   1.988  0.0673 -0.0147 -0.4260
 9301SOL    HW139365   0.100   0.753   1.949  1.3696  0.7361  0.9655
 9301SOL    HW239366   0.015   0.870   1.920 -0.6807  1.3031  0.9990
 9302SOL     OW39367   4.553   2.274   9.928 -0.6140 -0.8141 -0.1433
 9302SOL    HW139368   4.596   2.301   9.847 -1.9469 -1.1299 -0.9527
 9302SOL    HW239369   4.628   2.275   9.988 -1.1396 -0.0000  0.4965
 9303SOL     OW39370   3.504   1.852   2.509  0.3189  0.0269  0.7926
 9303SOL    HW139371   3.592   1.873   2.541  0.7744  1.9579 -1.7507
 9303SOL    HW239372   3.486   1.777   2.566  2.3618 -0.0554  1.3196
 9304SOL     OW39373   4.695   3.246   5.356  0.3479  0.5487 -0.7757
 9304SOL    HW139374   4.621   3.294   5.319  0.3355 -0.0167 -1.4750
 9304SOL    HW239375   0.051   3.289   5.313  0.6647  1.9558  1.1524
 9305SOL     OW39376   3.044   2.593   3.368  0.0566 -0.1857 -0.1420
 9305SOL    HW139377   3.116   2.539   3.335  0.9991  0.1952  1.2686
 9305SOL    HW239378   3.010   2.536   3.438 -0.7137  0.1973 -0.2093
 9306SOL     OW39379   1.970   2.964   4.677 -0.1560  0.2750  0.2771
 9306SOL    HW139380   1.953   3.047   4.632 -2.9242 -0.3315  0.2127
 9306SOL    HW239381   2.001   2.997   4.761 -0.6122  0.0758  0.5216
 9307SOL     OW39382   3.452   4.347   7.795  0.2962  0.4054 -0.2873
 9307SOL    HW139383   3.509   4.342   7.718  1.7630 -1.1606  0.8710
 9307SOL    HW239384   3.503   4.289   7.852 -0.4160  2.0150  1.9792
 9308SOL     OW39385   3.444   0.461   9.338 -0.1228  0.0365 -0.3650
 9308SOL    HW139386   3.425   0.394   9.273  2.0896  0.4982 -1.4974
 9308SOL    HW239387   3.455   0.423   9.425  0.0540 -0.4372 -0.5929
 9309SOL     OW39388   3.380   2.180   4.054 -0.0301 -0.0139 -0.9633
 9309SOL    HW139389   3.363   2.156   3.963 -0.0238 -0.0582 -0.9527
 9309SOL    HW239390   3.380   2.094   4.096 -0.0839  1.2859  1.7043
 9310SOL     OW39391   1.278   4.568   8.656  0.1545 -0.0511  0.3616
 9310SOL    HW139392   1.353   4.570   8.715  1.3635 -1.4081 -1.0926
 9310SOL    HW239393   1.288   4.649   8.607  1.4041  0.7427  1.9647
 9311SOL     OW39394   2.217   0.761   4.125 -0.0346 -0.0378  0.8078
 9311SOL    HW139395   2.296   0.716   4.093 -1.4076 -0.0392 -2.6514
 9311SOL    HW239396   2.220   0.736   4.217  0.6256 -0.6220  0.6359
 9312SOL     OW39397   3.488   1.118   7.010  0.5415 -0.2512  0.1238
 9312SOL    HW139398   3.500   1.097   7.103 -0.9621 -1.8164 -0.0395
 9312SOL    HW239399   3.438   1.200   7.015 -1.7173 -1.5704 -0.5525
 9313SOL     OW39400   3.835   4.232   4.971 -0.0539  0.3172 -0.2973
 9313SOL    HW139401   3.876   4.245   4.886  1.7761 -1.1441  0.3523
 9313SOL    HW239402   3.744   4.241   4.941  0.3434  2.0696 -0.9595
 9314SOL     OW39403   2.894   0.801   6.585 -0.0791  0.1690  0.2270
 9314SOL    HW139404   2.849   0.761   6.511  1.3103 -1.3084  0.1859
 9314SOL    HW239405   2.843   0.882   6.580 -1.1465 -0.6531 -1.9145
 9315SOL     OW39406   1.793   3.587   1.495 -0.3292  0.0465 -0.4840
 9315SOL    HW139407   1.793   3.532   1.417 -1.5262 -1.1186  0.3268
 9315SOL    HW239408   1.716   3.553   1.541 -0.2839  1.3809  0.5677
 9316SOL     OW39409   0.842   4.507   6.899  0.1740 -0.3442  0.2399
 9316SOL    HW139410   0.798   4.428   6.930 -0.9873  0.2654  0.1509
 9316SOL    HW239411   0.908   4.473   6.838  1.5580  1.4978  0.7168
 9317SOL     OW39412   0.752   3.181   6.317  1.2556 -0.7006  0.3295
 9317SOL    HW139413   0.732   3.138   6.234 -0.0396 -1.9637  1.2931
 9317SOL    HW239414   0.674   3.170   6.371  1.3265  1.7112  0.9337
 9318SOL     OW39415   3.970   4.503   7.089  0.6485  0.4567  0.9024
 9318SOL    HW139416   4.025   4.476   7.162 -0.3540 -0.5423  1.2929
 9318SOL    HW239417   3.954   4.414   7.057  1.2189  1.0686 -1.0777
 9319SOL     OW39418   4.596   1.460   0.086  0.3589 -0.0071  0.3598
 9319SOL    HW139419   4.532   1.393   0.059  3.0346 -2.8733  1.1298
 9319SOL    HW239420   4.673   1.411   0.057  0.1832 -0.8033  1.2355
 9320SOL     OW39421   4.206   0.459   8.885  0.2935  0.0932  0.8564
 9320SOL    HW139422   4.178   0.460   8.977 -1.9365 -0.5709  0.2040
 9320SOL    HW239423   4.275   0.393   8.882 -2.1265 -2.4898  1.0976
 9321SOL     OW39424   3.779   0.709   0.045 -0.3730 -1.0715  0.1255
 9321SOL    HW139425   3.784   0.799   0.076  0.5051 -0.6829 -1.1207
 9321SOL    HW239426   3.768   0.717  17.624 -2.3680  0.6964  0.5075
 9322SOL     OW39427   3.657   3.952   2.552 -0.1982 -0.4287  0.1812
 9322SOL    HW139428   3.587   3.983   2.493 -0.7694 -1.0957  0.5159
 9322SOL    HW239429   3.604   3.900   2.612  1.4647 -0.7604  1.3402
 9323SOL     OW39430   2.742   3.299   5.139  0.0524 -0.1028  0.4916
 9323SOL    HW139431   2.659   3.307   5.187 -0.1424 -0.3448  0.1967
 9323SOL    HW239432   2.776   3.219   5.178 -0.3367 -0.5183 -0.0183
 9324SOL     OW39433   2.964   0.697   8.558  0.2885 -0.4047 -0.0931
 9324SOL    HW139434   2.872   0.672   8.544  0.3760 -1.2951  1.0120
 9324SOL    HW239435   3.011   0.628   8.512 -0.9343  0.5119 -2.7682
 9325SOL     OW39436   1.660   1.849   4.032 -0.6929  0.6330 -0.2616
 9325SOL    HW139437   1.566   1.834   4.035 -0.5408 -0.0307  0.9172
 9325SOL    HW239438   1.684   1.757   4.026  1.3400  1.1312  0.3331
 9326SOL     OW39439   2.331   2.623   4.739  0.3233 -0.4254  0.3256
 9326SOL    HW139440   2.253   2.678   4.732  1.1147  0.7092  0.4504
 9326SOL    HW239441   2.312   2.556   4.674  2.3248 -1.3675  0.7164
 9327SOL     OW39442   0.819   0.863   3.687  0.8639  0.0550  0.2178
 9327SOL    HW139443   0.816   0.958   3.681 -0.1679 -0.0768 -1.3665
 9327SOL    HW239444   0.727   0.839   3.671  0.9462  0.2080 -0.5272
 9328SOL     OW39445   0.680   0.031   0.571  0.0580  0.1951  0.3640
 9328SOL    HW139446   0.607   0.028   0.632  0.4341  0.6269  0.8322
 9328SOL    HW239447   0.738   0.091   0.618  1.1549 -0.5210 -0.0712
 9329SOL     OW39448   4.128   3.577   9.408  0.2123 -0.2713 -0.6190
 9329SOL    HW139449   4.085   3.650   9.363  2.3079 -0.6565 -3.2515
 9329SOL    HW239450   4.146   3.517   9.335  0.4439  1.0020 -1.6062
 9330SOL     OW39451   3.512   0.870   9.342 -0.1179  0.1561  0.3764
 9330SOL    HW139452   3.433   0.816   9.346 -0.0342 -0.1714 -2.7916
 9330SOL    HW239453   3.546   0.847   9.256  1.4866 -0.6561  1.2258
 9331SOL     OW39454   0.235   1.019   6.079 -0.5047 -0.7903 -0.0768
 9331SOL    HW139455   0.192   1.101   6.103  1.2371  0.5884 -1.6758
 9331SOL    HW239456   0.306   1.040   6.018 -0.8256  0.1571 -0.1294
 9332SOL     OW39457   4.541   3.295   3.120 -0.1469 -1.0501 -0.1147
 9332SOL    HW139458   4.627   3.333   3.137 -0.6268 -0.3993  0.8101
 9332SOL    HW239459   4.558   3.222   3.059 -0.3230 -2.3481  1.3782
 9333SOL     OW39460   0.084   3.668   3.352 -0.1702  0.3717  0.2621
 9333SOL    HW139461   0.009   3.699   3.302 -0.5916 -0.4402  0.3891
 9333SOL    HW239462   0.147   3.677   3.280  2.6768 -2.9888  2.2936
 9334SOL     OW39463   0.636   1.662   5.302  0.7691 -0.1139  0.0020
 9334SOL    HW139464   0.553   1.657   5.255  0.6685 -1.7282  0.3380
 9334SOL    HW239465   0.704   1.644   5.237 -1.7718 -1.1121 -2.3326
 9335SOL     OW39466   0.187   3.848  15.206  0.1291  0.1264  0.0839
 9335SOL    HW139467   0.261   3.864  15.266  0.6736 -1.5479 -0.1348
 9335SOL    HW239468   0.220   3.765  15.171  1.5400  0.8040 -0.2044
 9336SOL     OW39469   2.931   1.909   7.000  0.3617  0.2263  0.5360
 9336SOL    HW139470   2.944   1.919   7.095 -0.6401 -1.4219  0.8568
 9336SOL    HW239471   3.007   1.857   6.973  0.4539  0.8602 -0.4109
 9337SOL     OW39472   3.444   0.124   4.507 -0.0710 -0.5970 -0.2778
 9337SOL    HW139473   3.419   0.185   4.577 -0.9943 -2.4090  0.9923
 9337SOL    HW239474   3.361   0.094   4.471  0.1834  0.5885 -1.8237
 9338SOL     OW39475   1.284   0.922   4.096 -0.0867  0.1643  0.2145
 9338SOL    HW139476   1.331   0.996   4.134  0.0282  1.2074 -1.9331
 9338SOL    HW239477   1.208   0.916   4.153 -0.0154  0.1434  0.3071
 9339SOL     OW39478   3.763   3.963   6.736 -0.3043  0.2379  0.0639
 9339SOL    HW139479   3.773   3.930   6.825 -1.5096 -2.7671 -0.9026
 9339SOL    HW239480   3.735   4.050   6.763 -1.9096 -1.0797  2.5787
 9340SOL     OW39481   0.099   2.038  15.133 -0.8415  0.1497  0.2701
 9340SOL    HW139482   0.186   2.016  15.102 -1.7385 -0.2456 -1.9549
 9340SOL    HW239483   0.050   2.021  15.053 -0.1312 -2.3218  0.3404
 9341SOL     OW39484   1.107   4.058   8.285 -0.4604  0.6507 -0.0288
 9341SOL    HW139485   1.021   4.059   8.243 -0.5723  1.1717  0.2179
 9341SOL    HW239486   1.147   4.139   8.253 -0.3230  0.7306  0.3438
 9342SOL     OW39487   1.831   3.693  15.262  0.0950 -0.3599  0.8022
 9342SOL    HW139488   1.763   3.650  15.211 -0.4619 -1.5933  2.5920
 9342SOL    HW239489   1.864   3.624  15.319  0.0907 -1.5961 -0.6955
 9343SOL     OW39490   3.802   3.685  14.860  1.0431 -0.7160  0.2538
 9343SOL    HW139491   3.868   3.616  14.867 -0.1873 -2.0130 -0.9705
 9343SOL    HW239492   3.850   3.746  14.804 -0.1596 -1.1389 -1.2437
 9344SOL     OW39493   3.884   4.599   5.025 -0.5094 -0.5711  0.3879
 9344SOL    HW139494   3.832   4.679   5.036  1.4839  0.9290 -1.2185
 9344SOL    HW239495   3.917   4.613   4.936  2.2676 -0.4793  1.4550
 9345SOL     OW39496   3.330   4.571   2.755 -0.2264  0.4395  0.0975
 9345SOL    HW139497   3.402   4.566   2.692 -0.8098 -2.7260 -0.3001
 9345SOL    HW239498   3.316   4.477   2.766 -0.8689  0.1787 -3.1676
 9346SOL     OW39499   3.023   2.598   1.184 -0.2696 -0.0349 -0.0523
 9346SOL    HW139500   2.931   2.606   1.208 -1.0337 -2.6148 -2.0483
 9346SOL    HW239501   3.058   2.526   1.237 -0.4063  1.6832  2.3434
 9347SOL     OW39502   1.285   2.924   1.334  0.0313  0.5341 -0.3297
 9347SOL    HW139503   1.259   2.845   1.382 -1.7560  1.6759  0.5774
 9347SOL    HW239504   1.201   2.969   1.328 -0.7843 -1.0664 -0.7482
 9348SOL     OW39505   3.466   2.078   5.815 -0.3039  0.2997 -0.4654
 9348SOL    HW139506   3.476   2.149   5.878  0.0062  0.4758 -0.7120
 9348SOL    HW239507   3.553   2.073   5.775 -0.3629  0.3356 -0.5958
 9349SOL     OW39508   2.789   0.561   6.803 -0.1968 -0.3191 -0.0223
 9349SOL    HW139509   2.770   0.511   6.882 -0.0009 -1.7326 -0.8672
 9349SOL    HW239510   2.736   0.637   6.825  1.6559  1.3566 -1.3170
 9350SOL     OW39511   4.656   4.214   4.229 -0.1725 -0.5302 -0.1009
 9350SOL    HW139512   4.624   4.246   4.313  0.0180 -2.1818  0.5985
 9350SOL    HW239513   4.649   4.299   4.187  3.2634  0.3253  1.0959
 9351SOL     OW39514   2.068   0.573   4.580  0.0761 -0.2893  0.2202
 9351SOL    HW139515   1.977   0.601   4.587  0.8580  2.6286 -1.3325
 9351SOL    HW239516   2.068   0.487   4.622  1.2866 -0.8869 -0.9874
 9352SOL     OW39517   4.403   4.224  16.585  0.1226 -0.5925  0.3028
 9352SOL    HW139518   4.452   4.231  16.502  2.1626 -0.3415  1.5152
 9352SOL    HW239519   4.316   4.232  16.547  0.1500  0.4503  0.4640
 9353SOL     OW39520   4.032   2.868  15.381 -0.6053 -0.8775 -0.4018
 9353SOL    HW139521   4.117   2.911  15.386 -1.4438  0.5222  1.8560
 9353SOL    HW239522   3.998   2.886  15.469 -1.5175  0.0835 -0.9602
 9354SOL     OW39523   1.028   0.347   3.354 -1.0946 -0.0956 -0.2467
 9354SOL    HW139524   1.090   0.413   3.324  0.2578 -2.0682 -1.7730
 9354SOL    HW239525   0.980   0.412   3.405 -1.1075 -0.9433  0.8287
 9355SOL     OW39526   4.253   2.545   1.339 -0.1658 -0.0906 -0.3209
 9355SOL    HW139527   4.174   2.563   1.392 -0.1046 -0.8805  0.0326
 9355SOL    HW239528   4.323   2.539   1.404 -0.4248 -1.0997 -0.1256
 9356SOL     OW39529   0.749   3.920   8.421 -0.4362 -0.4379 -0.1037
 9356SOL    HW139530   0.740   3.827   8.441  0.4976 -0.2578  1.1540
 9356SOL    HW239531   0.773   3.964   8.503 -1.2320  0.9472 -0.6037
 9357SOL     OW39532   3.037   4.658   9.789 -0.2302 -0.0487  0.4252
 9357SOL    HW139533   3.080   4.656   9.874 -1.3042  0.2806  0.9765
 9357SOL    HW239534   3.114   4.645   9.733 -1.2197  0.7993 -1.1196
 9358SOL     OW39535   1.292   3.363   2.075 -0.2719  0.0354 -0.4106
 9358SOL    HW139536   1.324   3.285   2.031 -0.9018  0.3472 -1.4048
 9358SOL    HW239537   1.198   3.348   2.062 -0.3816 -1.2068  1.7662
 9359SOL     OW39538   1.260   4.346  17.501 -0.5803  0.2250 -0.1923
 9359SOL    HW139539   1.320   4.323  17.430 -0.9639 -0.0467 -0.4281
 9359SOL    HW239540   1.247   4.440  17.485  0.3242  0.4081  0.1117
 9360SOL     OW39541   0.202   1.810   2.392  0.2321 -0.0066  0.3892
 9360SOL    HW139542   0.237   1.722   2.404 -0.4432 -0.3066  0.1959
 9360SOL    HW239543   0.169   1.836   2.478 -2.1666 -1.2618 -0.1592
 9361SOL     OW39544   0.096   2.514  10.415  0.1860  0.3184  0.1464
 9361SOL    HW139545   0.133   2.564  10.343 -2.0621  2.2394  0.3241
 9361SOL    HW239546   0.071   2.582  10.477  0.3715  0.8800 -0.4017
 9362SOL     OW39547   3.832   0.248   8.451  0.3410 -0.1338 -0.2343
 9362SOL    HW139548   3.757   0.301   8.476 -0.1456 -0.9999  0.1464
 9362SOL    HW239549   3.892   0.309   8.409  0.6175  0.1529  0.6013
 9363SOL     OW39550   3.438   0.734   4.598 -0.1759 -0.3485 -0.1048
 9363SOL    HW139551   3.459   0.730   4.505 -1.5427  2.4434 -0.5199
 9363SOL    HW239552   3.356   0.685   4.592  0.0532 -0.8609  0.9631
 9364SOL     OW39553   3.058   1.847  14.698  0.1009 -0.6119 -0.0839
 9364SOL    HW139554   3.131   1.835  14.637  0.3855 -0.1915  0.1842
 9364SOL    HW239555   3.091   1.780  14.757  1.6792  3.0965  3.2412
 9365SOL     OW39556   1.293   2.660  15.936  0.4680  0.0305  0.2134
 9365SOL    HW139557   1.235   2.722  15.891 -0.9502 -0.6412  1.0829
 9365SOL    HW239558   1.266   2.574  15.904 -1.4231 -0.5315  3.2028
 9366SOL     OW39559   3.521   2.118  10.223 -0.1022 -0.3113  0.4135
 9366SOL    HW139560   3.513   2.037  10.172 -1.2934  1.2937 -1.9447
 9366SOL    HW239561   3.592   2.155  10.171  0.0134 -0.0944  0.7268
 9367SOL     OW39562   3.025   0.070   8.943  0.3748 -0.0580  0.2793
 9367SOL    HW139563   3.000   4.703   8.906 -1.0994  0.6182 -0.2867
 9367SOL    HW239564   2.961   0.088   9.012 -1.1897 -2.8689 -0.4408
 9368SOL     OW39565   2.617   1.643  13.657 -0.4812  0.2074  0.0842
 9368SOL    HW139566   2.620   1.608  13.746  0.5231 -0.2290 -0.1253
 9368SOL    HW239567   2.535   1.691  13.662 -0.1969  0.9638 -2.5807
 9369SOL     OW39568   0.868   2.100   6.262  0.1609  0.4375  0.3634
 9369SOL    HW139569   0.943   2.107   6.203 -1.3533 -1.9387 -1.8380
 9369SOL    HW239570   0.870   2.005   6.278  1.4690  0.2784 -0.7521
 9370SOL     OW39571   2.961   3.387   7.821  0.3547  0.2369 -0.1102
 9370SOL    HW139572   2.971   3.482   7.828 -0.2964  0.2749  0.3421
 9370SOL    HW239573   3.030   3.355   7.763 -0.2760 -0.2202 -0.6088
 9371SOL     OW39574   0.494   1.968   7.061 -0.0990 -0.4022  0.2274
 9371SOL    HW139575   0.417   1.989   7.116 -0.9223 -1.8113 -0.3878
 9371SOL    HW239576   0.508   2.049   7.012 -1.4191 -0.3867 -0.1308
 9372SOL     OW39577   2.736   4.595  10.921  0.3278 -0.5588  0.6815
 9372SOL    HW139578   2.681   4.527  10.960 -0.9887 -0.4884 -1.0423
 9372SOL    HW239579   2.807   4.544  10.883  0.9450  0.3007  0.6755
 9373SOL     OW39580   3.439   0.410  10.443 -0.2636  0.3127 -0.0387
 9373SOL    HW139581   3.472   0.489  10.399 -2.0693  0.3300 -1.3648
 9373SOL    HW239582   3.425   0.441  10.532  1.6644 -1.9405  1.0407
 9374SOL     OW39583   1.533   0.276   9.586 -0.0291  0.1801 -0.3566
 9374SOL    HW139584   1.605   0.215   9.574 -0.4524 -0.1980 -1.0169
 9374SOL    HW239585   1.488   0.269   9.502 -1.2980  3.8656 -0.0121
 9375SOL     OW39586   0.951   4.601   8.484  0.0241 -0.6772 -0.1099
 9375SOL    HW139587   0.953   4.530   8.548 -0.6497  0.9134  1.6816
 9375SOL    HW239588   1.018   4.571   8.421  0.5879 -1.1363  0.7075
 9376SOL     OW39589   2.623   3.814   2.998  0.3924  0.4696  0.4196
 9376SOL    HW139590   2.670   3.835   3.078  2.8543 -0.2044 -0.8429
 9376SOL    HW239591   2.661   3.727   2.982  0.0181 -0.2752  3.5996
 9377SOL     OW39592   1.206   4.104  16.181 -0.1005  0.2651 -0.0173
 9377SOL    HW139593   1.185   4.197  16.172 -1.2357  0.2316  2.1991
 9377SOL    HW239594   1.144   4.056  16.127  0.5296 -0.2575 -0.2680
 9378SOL     OW39595   4.145   0.056   3.151  0.5280 -0.6950 -0.4775
 9378SOL    HW139596   4.147   0.042   3.056 -1.7518 -2.1149 -0.3068
 9378SOL    HW239597   4.215   0.122   3.151 -1.0314  0.9655  1.4266
 9379SOL     OW39598   0.930   3.390   6.170  0.6488  0.3170  0.0500
 9379SOL    HW139599   0.978   3.448   6.230 -0.8775  0.1782  1.4050
 9379SOL    HW239600   0.859   3.353   6.222  0.3579 -0.0966 -0.6506
 9380SOL     OW39601   0.704   1.694   9.514 -0.0287  0.0318 -0.0735
 9380SOL    HW139602   0.733   1.778   9.550 -0.6781  0.3387 -0.2642
 9380SOL    HW239603   0.612   1.694   9.541  0.2455 -0.7491  0.8258
 9381SOL     OW39604   0.094   0.286   9.011  0.2130 -0.1567  0.2862
 9381SOL    HW139605   0.019   0.232   9.033  0.2145  0.5198  1.9549
 9381SOL    HW239606   0.088   0.350   9.082  1.7422 -0.3040  0.5617
 9382SOL     OW39607   2.865   1.104  15.838  0.1240 -0.3374 -0.4435
 9382SOL    HW139608   2.858   1.022  15.789 -1.0342 -0.2429 -0.4573
 9382SOL    HW239609   2.934   1.149  15.789 -0.4532  0.7111 -0.2908
 9383SOL     OW39610   0.754   0.848   2.496  0.3664  0.1105  0.1418
 9383SOL    HW139611   0.725   0.782   2.433 -3.8238  1.5560  0.5716
 9383SOL    HW239612   0.760   0.921   2.434  0.4825 -0.8499 -0.9821
 9384SOL     OW39613   3.532   4.147   1.544  0.1157  0.0945  0.1446
 9384SOL    HW139614   3.581   4.190   1.614  1.5025 -0.4592 -0.4911
 9384SOL    HW239615   3.602   4.113   1.489 -0.7196  0.0247 -0.8683
 9385SOL     OW39616   3.791   0.709   5.372  0.3618 -0.4688  0.2779
 9385SOL    HW139617   3.795   0.799   5.340  2.4929 -0.2955  1.0395
 9385SOL    HW239618   3.875   0.667   5.390 -0.0948 -1.1935  0.7096
 9386SOL     OW39619   1.475   3.756   0.575 -0.2650 -0.5597 -0.0789
 9386SOL    HW139620   1.543   3.820   0.596 -1.3710  0.2657  0.9999
 9386SOL    HW239621   1.425   3.755   0.656  0.6338 -2.4362  0.4594
 9387SOL     OW39622   2.971   4.410  10.248 -0.0936 -0.2008 -0.5927
 9387SOL    HW139623   2.927   4.495  10.238 -0.8889 -0.7506 -1.7755
 9387SOL    HW239624   3.032   4.415  10.174  1.1174 -0.7928  0.3806
 9388SOL     OW39625   1.841   0.392   6.873  0.2123 -0.2648 -0.5830
 9388SOL    HW139626   1.896   0.449   6.819 -0.6685 -1.6085 -2.8992
 9388SOL    HW239627   1.876   0.308   6.842 -1.0859 -0.4842 -1.4408
 9389SOL     OW39628   4.509   1.588   8.847  0.0603  0.0808  0.6060
 9389SOL    HW139629   4.544   1.654   8.906  0.7130  0.5864 -0.3479
 9389SOL    HW239630   4.497   1.512   8.904  1.3602 -0.6301 -0.0539
 9390SOL     OW39631   2.451   1.943   0.159  0.0394 -0.0172  0.0335
 9390SOL    HW139632   2.356   1.935   0.160  0.0533 -0.4290 -1.7034
 9390SOL    HW239633   2.466   2.032   0.126  3.4522 -0.3584  0.6400
 9391SOL     OW39634   2.191   1.195  10.009  0.2121  0.1048  0.1328
 9391SOL    HW139635   2.184   1.289  10.026  3.9408  0.5195 -0.6609
 9391SOL    HW239636   2.275   1.171  10.049  0.2559 -0.6698 -0.4379
 9392SOL     OW39637   3.756   3.521   2.740 -0.3967  0.3599  0.0273
 9392SOL    HW139638   3.803   3.572   2.806  1.5048  0.0377 -1.0388
 9392SOL    HW239639   3.729   3.444   2.790 -1.9591  1.1643  0.3920
 9393SOL     OW39640   1.923   1.050   7.797 -0.3487  0.1312 -0.3219
 9393SOL    HW139641   1.831   1.032   7.775 -0.6954  2.7644 -0.9261
 9393SOL    HW239642   1.912   1.143   7.812 -0.0107 -0.0514  1.0540
 9394SOL     OW39643   0.361   0.871   6.271  1.0295  0.0760  0.4512
 9394SOL    HW139644   0.445   0.915   6.256  1.3765 -0.4789  0.7738
 9394SOL    HW239645   0.302   0.912   6.207  1.0493 -2.2649 -1.0860
 9395SOL     OW39646   1.993   0.023  13.863  0.6807  0.3432 -0.3184
 9395SOL    HW139647   1.951   4.688  13.795  1.2169 -0.7038  0.1492
 9395SOL    HW239648   1.921   0.074  13.900 -0.0455  0.0753 -1.3596
 9396SOL     OW39649   2.495   4.238   6.115 -0.2353  0.7103 -0.3409
 9396SOL    HW139650   2.443   4.197   6.183  1.7295 -0.7999  0.2600
 9396SOL    HW239651   2.548   4.301   6.164 -0.0002  0.1896  0.0707
 9397SOL     OW39652   3.350   1.204  16.300  0.2219 -0.2259  0.0277
 9397SOL    HW139653   3.416   1.156  16.250  1.2273 -1.2623  2.3688
 9397SOL    HW239654   3.286   1.222  16.231  0.3865 -0.8627 -0.2893
 9398SOL     OW39655   2.453   1.661   3.410 -0.3995 -0.7064  0.8450
 9398SOL    HW139656   2.450   1.742   3.360  0.7031 -0.5870  0.9563
 9398SOL    HW239657   2.404   1.676   3.490 -0.3841  1.8337  0.3740
 9399SOL     OW39658   0.588   0.921  13.516 -0.4396 -0.2286 -0.5897
 9399SOL    HW139659   0.551   0.977  13.448  0.0506 -3.0752 -3.1986
 9399SOL    HW239660   0.524   0.923  13.588 -0.3034  1.0196 -0.5052
 9400SOL     OW39661   1.730   4.191  12.128  0.1116 -0.4294  0.0599
 9400SOL    HW139662   1.797   4.135  12.168 -0.7584 -0.2429  1.7906
 9400SOL    HW239663   1.780   4.273  12.136 -1.9190  0.9507 -1.3101
 9401SOL     OW39664   3.320   0.965   5.432 -0.1775  0.0700 -0.6887
 9401SOL    HW139665   3.364   1.050   5.425  1.6423 -0.8174  0.1117
 9401SOL    HW239666   3.255   0.980   5.501 -0.2704 -0.7633 -0.5953
 9402SOL     OW39667   4.026   3.198   0.482  0.3973 -0.2570  0.4170
 9402SOL    HW139668   3.953   3.204   0.544 -0.7131 -0.2330 -0.8860
 9402SOL    HW239669   4.098   3.244   0.525  1.9531 -2.0453 -0.2371
 9403SOL     OW39670   2.720   3.212   6.549 -0.3436  0.0926 -0.2517
 9403SOL    HW139671   2.749   3.148   6.614 -2.0554 -0.0258  0.3842
 9403SOL    HW239672   2.663   3.278   6.588 -0.6616 -1.0490  1.1953
 9404SOL     OW39673   2.980   3.266   3.733  0.9519  0.5705 -0.1659
 9404SOL    HW139674   2.906   3.275   3.674  0.6574 -0.1964  0.0870
 9404SOL    HW239675   3.004   3.176   3.710  0.6073 -0.2627  2.7266
 9405SOL     OW39676   1.202   2.547   9.099 -0.4226  0.3157  0.0278
 9405SOL    HW139677   1.194   2.462   9.142 -0.9680  0.4004  0.0909
 9405SOL    HW239678   1.170   2.538   9.009  2.2399 -0.6708 -0.8273
 9406SOL     OW39679   2.940   3.449  11.102  0.3740  0.2314  0.0286
 9406SOL    HW139680   2.998   3.403  11.162  1.1721  0.9570 -0.1935
 9406SOL    HW239681   3.001   3.458  11.029 -0.6518 -2.2107 -1.1180
 9407SOL     OW39682   3.606   0.514   5.271  0.3318 -0.3075 -0.5750
 9407SOL    HW139683   3.643   0.433   5.235  0.9853 -1.3133  2.3514
 9407SOL    HW239684   3.681   0.573   5.279  1.3227 -1.5567 -0.7098
 9408SOL     OW39685   0.760   3.934   6.926  0.4206 -0.2925 -0.5344
 9408SOL    HW139686   0.796   3.982   7.001  0.0543  0.2412 -0.7040
 9408SOL    HW239687   0.694   3.997   6.898  1.1797  1.0528  0.7374
 9409SOL     OW39688   4.105   0.126   2.643  0.2480 -0.0609  0.0397
 9409SOL    HW139689   4.016   0.160   2.655 -0.3072 -1.1222 -1.1300
 9409SOL    HW239690   4.126   0.163   2.557 -2.1920 -0.0543 -0.5478
 9410SOL     OW39691   1.537   4.467   2.291  0.0383 -0.0575  0.3464
 9410SOL    HW139692   1.629   4.445   2.277  0.3394  1.6781 -0.4909
 9410SOL    HW239693   1.556   4.524   2.366  2.3223  0.8908 -0.9523
 9411SOL     OW39694   4.080   3.830   4.860 -0.1589 -0.7255  0.0124
 9411SOL    HW139695   4.101   3.854   4.950 -1.3363 -3.3817  0.9577
 9411SOL    HW239696   4.085   3.914   4.814  0.1197 -0.3278  0.7699
 9412SOL     OW39697   3.458   1.092  15.255 -0.1594 -0.0467  0.0657
 9412SOL    HW139698   3.447   1.003  15.289 -2.3858  0.1088 -0.1981
 9412SOL    HW239699   3.422   1.068  15.169  1.5066  0.9501 -0.9229
 9413SOL     OW39700   3.640   4.662   2.262  0.1636  0.2138  0.1616
 9413SOL    HW139701   3.572   4.615   2.213 -0.1194  0.6882  0.0983
 9413SOL    HW239702   3.692   4.706   2.195 -0.8173  2.2772  0.7761
 9414SOL     OW39703   0.225   4.183   4.300  0.3453  0.0484  0.3235
 9414SOL    HW139704   0.139   4.203   4.263  1.2659  3.0674 -0.1425
 9414SOL    HW239705   0.232   4.254   4.363 -1.9121  0.3720  0.2186
 9415SOL     OW39706   4.198   1.137  16.100 -0.3571  0.4726 -0.2618
 9415SOL    HW139707   4.153   1.221  16.090 -0.8171 -0.0356 -2.3492
 9415SOL    HW239708   4.165   1.087  16.025  0.0488 -0.2845  0.0581
 9416SOL     OW39709   4.181   2.474   7.574  0.5318 -0.2306  0.4695
 9416SOL    HW139710   4.237   2.428   7.636 -0.0109  0.7837  1.7011
 9416SOL    HW239711   4.213   2.426   7.498 -0.0400 -0.5259  0.4185
 9417SOL     OW39712   2.413   2.062  16.908 -0.0734 -0.1430  0.0803
 9417SOL    HW139713   2.450   2.145  16.936 -0.5928  1.1098 -2.9121
 9417SOL    HW239714   2.496   2.019  16.886 -2.4906 -4.4846 -0.7034
 9418SOL     OW39715   1.153   1.140   3.388 -0.2488 -0.4416  0.0768
 9418SOL    HW139716   1.134   1.091   3.308 -0.3868  1.9177 -1.3285
 9418SOL    HW239717   1.157   1.065   3.448 -0.0129 -1.2895 -0.9961
 9419SOL     OW39718   3.319   1.126  12.221  0.0490 -0.2284 -0.1891
 9419SOL    HW139719   3.382   1.064  12.183  0.5783  0.3475 -0.2627
 9419SOL    HW239720   3.336   1.206  12.171 -0.7766 -0.1370 -0.3170
 9420SOL     OW39721   4.290   1.062   7.908 -0.3369  0.1820  0.1703
 9420SOL    HW139722   4.369   1.047   7.857 -1.1263  3.3151 -1.9277
 9420SOL    HW239723   4.233   0.988   7.884  1.2032 -0.4209 -1.5696
 9421SOL     OW39724   1.607   2.949   8.143 -0.4956  0.2292 -0.5910
 9421SOL    HW139725   1.595   2.926   8.051  0.9329 -0.5929 -0.5731
 9421SOL    HW239726   1.699   2.931   8.163 -0.2604 -0.0776 -1.9146
 9422SOL     OW39727   2.149   1.802  10.035 -0.9743  0.3399 -0.5340
 9422SOL    HW139728   2.154   1.707  10.035  1.8382  0.4951 -1.9192
 9422SOL    HW239729   2.115   1.820  10.122 -0.4858 -0.0000 -0.2715
 9423SOL     OW39730   0.869   4.079   8.971  0.1615 -0.2969  0.9776
 9423SOL    HW139731   0.866   3.994   9.015  0.1097 -0.6211  0.3544
 9423SOL    HW239732   0.909   4.124   9.046  1.8891 -1.2199  0.5963
 9424SOL     OW39733   0.004   4.379   2.822 -0.5944 -0.2549  0.1033
 9424SOL    HW139734   4.717   4.294   2.866  1.0484  1.3790  3.4084
 9424SOL    HW239735   4.633   4.413   2.834 -0.1169  1.5570 -1.4112
 9425SOL     OW39736   1.752   0.879   2.247 -0.2172 -0.3448 -0.0414
 9425SOL    HW139737   1.742   0.858   2.154 -1.2586  0.2187 -0.0544
 9425SOL    HW239738   1.820   0.945   2.239 -3.2651  2.9280  1.1547
 9426SOL     OW39739   0.194   3.086   4.876  0.2937 -0.3545  0.4401
 9426SOL    HW139740   0.249   3.132   4.813  0.1217 -2.8615 -1.5398
 9426SOL    HW239741   0.168   3.155   4.938 -0.6010 -0.5491  0.2796
 9427SOL     OW39742   1.814   4.480  10.794  0.5873 -0.2203 -0.5225
 9427SOL    HW139743   1.814   4.573  10.770 -0.7971 -0.0344  0.2036
 9427SOL    HW239744   1.891   4.470  10.849 -0.6737 -1.0701  1.0944
 9428SOL     OW39745   4.377   0.848   9.308 -0.7381 -0.0400 -0.4191
 9428SOL    HW139746   4.423   0.826   9.228 -0.2028 -0.8223  0.1044
 9428SOL    HW239747   4.396   0.941   9.322 -0.4149 -0.2941  0.8253
 9429SOL     OW39748   0.944   2.728   3.708 -0.4807  0.1080 -0.8731
 9429SOL    HW139749   0.904   2.712   3.622 -0.3787  2.4707 -1.3524
 9429SOL    HW239750   0.901   2.672   3.773  0.4844 -2.6843 -2.6310
 9430SOL     OW39751   1.982   0.564   2.143 -0.1323 -0.1828  0.4282
 9430SOL    HW139752   2.006   0.573   2.051  1.9107  2.3732  1.2172
 9430SOL    HW239753   1.887   0.572   2.145 -0.2459 -0.8961 -1.8649
 9431SOL     OW39754   3.273   0.652  17.243  0.1835 -0.1267 -0.1115
 9431SOL    HW139755   3.224   0.584  17.289 -0.1239  1.0396  1.2980
 9431SOL    HW239756   3.221   0.726  17.276 -1.5600 -0.0492 -3.0338
 9432SOL     OW39757   3.827   4.372   2.911 -0.3061 -0.1239  0.0548
 9432SOL    HW139758   3.840   4.432   2.838 -2.9080 -0.3605 -0.6077
 9432SOL    HW239759   3.781   4.434   2.967  0.8518  3.1851 -2.7003
 9433SOL     OW39760   1.672   1.423   4.196 -0.0661  0.1254  0.1668
 9433SOL    HW139761   1.677   1.429   4.101 -0.2081  1.0558  0.2202
 9433SOL    HW239762   1.713   1.505   4.224 -3.0990  1.3987  0.8844
 9434SOL     OW39763   1.437   4.528   3.074 -0.0006 -0.2916 -0.0199
 9434SOL    HW139764   1.447   4.623   3.084 -1.8344 -0.0483 -0.3620
 9434SOL    HW239765   1.424   4.516   2.980 -1.5248 -0.1765  0.1642
 9435SOL     OW39766   2.693   1.017   0.891 -0.7009  0.3705  0.0432
 9435SOL    HW139767   2.663   0.947   0.949  0.3009 -0.3553 -0.3204
 9435SOL    HW239768   2.634   1.015   0.816  0.6400 -1.2742 -0.9694
 9436SOL     OW39769   3.210   3.817   3.886  0.0442  0.0287 -0.2983
 9436SOL    HW139770   3.252   3.738   3.920  1.7445  1.2060  0.3486
 9436SOL    HW239771   3.256   3.821   3.801  2.4649  1.0593  1.0574
 9437SOL     OW39772   1.224   0.103  11.939  0.8802 -0.2480 -0.6429
 9437SOL    HW139773   1.271   0.037  11.989  0.5645  2.3845  3.1730
 9437SOL    HW239774   1.243   0.054  11.859  0.9411 -0.3080 -0.5917
 9438SOL     OW39775   3.897   1.544   2.523 -0.1198 -0.4433 -0.1196
 9438SOL    HW139776   3.962   1.479   2.547 -0.1332  1.7614  5.8880
 9438SOL    HW239777   3.813   1.502   2.541  0.8573 -1.9726  0.8623
 9439SOL     OW39778   1.041   4.706   7.562  0.0041  0.0080  0.0039
 9439SOL    HW139779   1.124   4.690   7.517 -0.6985 -0.5378 -1.0952
 9439SOL    HW239780   1.049   0.079   7.591  1.5796  0.3681 -1.5934
 9440SOL     OW39781   3.237   1.599   6.065 -0.1600  0.3148  0.5454
 9440SOL    HW139782   3.273   1.649   6.138 -0.8759  2.3060 -0.4603
 9440SOL    HW239783   3.252   1.517   6.111 -1.2910 -1.3162 -2.0210
 9441SOL     OW39784   1.905   4.709   0.263  0.6035 -0.1248 -0.1786
 9441SOL    HW139785   1.857   0.006   0.182  1.1389  1.5633 -0.2080
 9441SOL    HW239786   1.927   0.078   0.298  1.4326  0.5719 -2.4292
 9442SOL     OW39787   4.711   0.431   7.193 -0.4888  0.3136  0.0860
 9442SOL    HW139788   4.714   0.446   7.288  0.5984 -0.1448  0.1304
 9442SOL    HW239789   0.006   0.336   7.193 -0.6660  0.2879  0.5907
 9443SOL     OW39790   4.249   4.173  17.440 -0.1547 -0.3959 -0.0119
 9443SOL    HW139791   4.315   4.218  17.388  0.3994 -0.3068  0.7828
 9443SOL    HW239792   4.309   4.105  17.472 -0.6346 -2.4344 -3.3802
 9444SOL     OW39793   4.424   1.349  16.920  0.2545  0.1644  1.0612
 9444SOL    HW139794   4.359   1.337  16.989 -2.3294  1.3639 -1.1093
 9444SOL    HW239795   4.391   1.425  16.872 -2.0092 -0.4953  1.5755
 9445SOL     OW39796   2.806   3.338   1.951  0.0470 -0.1252  0.1096
 9445SOL    HW139797   2.848   3.423   1.955 -0.1091 -0.1658  2.4533
 9445SOL    HW239798   2.719   3.373   1.930  0.9975  1.9160 -0.4110
 9446SOL     OW39799   0.973   0.925   4.962  0.1352  0.3185  0.1095
 9446SOL    HW139800   0.937   0.970   4.885 -0.5799  1.8745  1.3411
 9446SOL    HW239801   1.003   0.845   4.919  2.3902 -0.0026  2.3228
 9447SOL     OW39802   4.496   2.030   1.702  0.6531  0.0366  0.2008
 9447SOL    HW139803   4.463   1.952   1.658 -1.3068  0.0095  1.7021
 9447SOL    HW239804   4.429   2.055   1.766 -0.9872  1.6627 -2.1345
 9448SOL     OW39805   2.844   4.707   2.381 -0.3492 -0.0140 -0.5942
 9448SOL    HW139806   2.903   4.638   2.411  1.2990  0.8642 -1.7951
 9448SOL    HW239807   2.806   0.011   2.466 -0.0215 -0.1659 -0.4129
 9449SOL     OW39808   2.249   1.754   4.466  0.1526  0.6541 -0.0265
 9449SOL    HW139809   2.224   1.743   4.375 -1.6250  0.5555  0.4733
 9449SOL    HW239810   2.244   1.850   4.469  4.2463  0.8713  1.0236
 9450SOL     OW39811   2.366   4.444   0.322  0.0833 -0.0774 -0.4967
 9450SOL    HW139812   2.278   4.413   0.346 -0.4010  2.0173  0.4172
 9450SOL    HW239813   2.370   4.529   0.366  0.2439  0.2969 -1.2471
 9451SOL     OW39814   1.776   1.555   9.058 -0.3427 -0.0860  0.6243
 9451SOL    HW139815   1.785   1.638   9.011 -0.9720  0.3776  1.3079
 9451SOL    HW239816   1.685   1.563   9.086 -1.2871 -0.6691 -2.2788
 9452SOL     OW39817   0.111   4.332  11.490  0.1605 -0.7989  0.1705
 9452SOL    HW139818   0.160   4.254  11.463  1.7067 -0.5292  2.1717
 9452SOL    HW239819   0.184   4.393  11.477 -0.7303  0.1538 -0.3650
 9453SOL     OW39820   0.521   3.433   6.396  0.1359 -0.3504  0.5957
 9453SOL    HW139821   0.607   3.451   6.434  0.4558  1.0004 -0.7541
 9453SOL    HW239822   0.457   3.463   6.460  1.2068  0.2274  1.3934
 9454SOL     OW39823   4.119   0.356   3.547 -0.6915  0.3077  0.4012
 9454SOL    HW139824   4.033   0.371   3.587 -0.3002  2.0387  0.5935
 9454SOL    HW239825   4.105   0.265   3.522 -5.1800  1.2112 -0.5576
 9455SOL     OW39826   3.627   3.742   4.167  0.5463 -0.1308  0.6126
 9455SOL    HW139827   3.560   3.751   4.235 -0.3598  0.5217 -0.3738
 9455SOL    HW239828   3.575   3.756   4.088  1.9987  2.2916  0.1301
 9456SOL     OW39829   1.147   3.604  15.822  0.1536  0.0345  0.1828
 9456SOL    HW139830   1.067   3.655  15.811  0.9374  1.0131 -0.9355
 9456SOL    HW239831   1.145   3.580  15.915 -0.2654  2.0751  0.6915
 9457SOL     OW39832   0.394   1.486   9.759 -0.2643  0.6852 -0.1304
 9457SOL    HW139833   0.407   1.419   9.692 -0.2140  1.3077 -0.7387
 9457SOL    HW239834   0.305   1.466   9.788  0.0169  0.1599  0.3710
 9458SOL     OW39835   3.111   2.220   2.072  0.3388  0.2316  0.5727
 9458SOL    HW139836   3.178   2.285   2.051  0.5198 -0.1031  0.1078
 9458SOL    HW239837   3.093   2.240   2.164 -0.8523 -0.9276  0.5922
 9459SOL     OW39838   3.361   4.038   9.231 -0.1070 -0.2681 -0.1135
 9459SOL    HW139839   3.370   4.134   9.229  0.9018 -0.4376 -2.6884
 9459SOL    HW239840   3.421   4.003   9.166 -1.3760 -1.2662 -0.7498
 9460SOL     OW39841   3.236   2.312  10.484  0.3343 -0.2548 -0.2766
 9460SOL    HW139842   3.279   2.293  10.568  0.5039 -1.1129 -0.5562
 9460SOL    HW239843   3.159   2.255  10.491 -0.1621  0.2647 -1.5855
 9461SOL     OW39844   3.230   2.383   5.900 -0.1249 -0.3058 -0.1148
 9461SOL    HW139845   3.185   2.417   5.977  0.1399 -0.2639  0.0210
 9461SOL    HW239846   3.305   2.345   5.945  0.5152 -0.0221 -0.9486
 9462SOL     OW39847   4.320   2.059   1.887 -0.2991  0.3491 -0.7207
 9462SOL    HW139848   4.324   1.980   1.940 -1.3565  0.4447 -0.5018
 9462SOL    HW239849   4.229   2.063   1.858 -0.7448 -0.1681  0.6086
 9463SOL     OW39850   2.596   2.549   3.092  0.4401  1.0623  0.2325
 9463SOL    HW139851   2.578   2.580   3.004 -1.8339 -0.1240  0.2556
 9463SOL    HW239852   2.691   2.554   3.091  0.4413  0.3530 -1.7194
 9464SOL     OW39853   0.323   0.562  12.410  0.4961  0.3568  0.3039
 9464SOL    HW139854   0.354   0.606  12.489 -0.4808 -0.0187  0.8971
 9464SOL    HW239855   0.301   0.634  12.350 -1.9839 -0.6387  0.0037
 9465SOL     OW39856   2.508   3.918   7.855  0.9544 -0.1646  0.2984
 9465SOL    HW139857   2.440   3.925   7.788 -0.8616 -0.4200  2.1197
 9465SOL    HW239858   2.491   3.829   7.884 -2.1930  0.0448 -0.8324
 9466SOL     OW39859   0.360   0.012  15.483 -0.5845  0.4874 -0.3394
 9466SOL    HW139860   0.306   0.030  15.560  0.8105 -0.6555  0.9040
 9466SOL    HW239861   0.425   4.663  15.509 -1.7501 -0.7167 -0.5196
 9467SOL     OW39862   2.831   4.195   9.519  0.7390 -0.6149 -0.0019
 9467SOL    HW139863   2.750   4.246   9.524  2.2398  1.6955  0.8049
 9467SOL    HW239864   2.898   4.263   9.513 -0.4553  0.7996  2.2927
 9468SOL     OW39865   3.817   1.073  10.298 -0.6291  0.0551  0.5440
 9468SOL    HW139866   3.830   0.984  10.265  0.3635  0.1939  0.5439
 9468SOL    HW239867   3.723   1.078  10.317 -0.6648 -1.0060  0.6135
 9469SOL     OW39868   1.201   2.343   0.529  0.1672  0.0268 -0.7742
 9469SOL    HW139869   1.154   2.351   0.446 -2.2177  2.1805  0.7613
 9469SOL    HW239870   1.162   2.418   0.574  2.7441 -0.1760  1.7537
 9470SOL     OW39871   0.199   0.715   7.727  0.0611 -0.2747  0.2472
 9470SOL    HW139872   0.190   0.652   7.798 -0.1599  1.0797  1.4182
 9470SOL    HW239873   0.252   0.660   7.669  0.9896 -0.2475  1.0723
 9471SOL     OW39874   4.537   2.658  13.393  0.2725 -0.2849  0.7469
 9471SOL    HW139875   4.581   2.626  13.472 -1.2543  0.2437  1.7996
 9471SOL    HW239876   4.601   2.628  13.328 -0.3529 -0.3844  0.1818
 9472SOL     OW39877   1.913   1.337   7.483 -0.4444 -0.5208 -0.2309
 9472SOL    HW139878   1.985   1.358   7.542  0.2887 -1.3505 -0.8352
 9472SOL    HW239879   1.830   1.324   7.529 -1.1471  1.0032 -1.0563
 9473SOL     OW39880   0.556   3.933   1.042 -0.2174  0.0169  0.4179
 9473SOL    HW139881   0.588   3.983   0.967 -0.9028 -2.0367 -1.2257
 9473SOL    HW239882   0.556   3.846   1.002 -0.1508  0.8091 -1.2851
 9474SOL     OW39883   4.102   4.614  11.757 -0.3859 -0.2251  0.3779
 9474SOL    HW139884   4.057   4.639  11.677 -1.3780 -0.5871  0.8131
 9474SOL    HW239885   4.021   4.595  11.805  0.1235 -2.9907  0.1089
 9475SOL     OW39886   0.861   0.799   5.967 -0.2348  0.2860  0.2764
 9475SOL    HW139887   0.945   0.776   5.926 -1.5182 -0.0926 -2.1371
 9475SOL    HW239888   0.887   0.795   6.059 -1.8389  0.1061  0.7159
 9476SOL     OW39889   1.487   2.542   3.862  0.0456 -0.9037  0.0630
 9476SOL    HW139890   1.422   2.610   3.842  1.4744  0.6487  0.6802
 9476SOL    HW239891   1.539   2.582   3.931  3.2163 -0.5760 -2.4969
 9477SOL     OW39892   1.352   4.070   7.460 -0.3275  0.3211  0.0354
 9477SOL    HW139893   1.342   4.131   7.534 -1.0852  1.4757 -1.0081
 9477SOL    HW239894   1.359   4.123   7.380  0.6056  0.4195  0.1871
 9478SOL     OW39895   2.789   2.269   9.709  0.2061 -0.0133 -0.0307
 9478SOL    HW139896   2.859   2.215   9.745  1.0526  0.0288 -1.6331
 9478SOL    HW239897   2.787   2.250   9.616 -1.9718  0.9005 -0.1684
 9479SOL     OW39898   4.055   4.208   1.792  0.4649 -0.3844 -0.0015
 9479SOL    HW139899   4.016   4.225   1.879  0.2492 -3.4927  0.5170
 9479SOL    HW239900   4.020   4.122   1.768 -1.0269  0.1545  0.1908
 9480SOL     OW39901   1.266   4.091   5.452  0.4086  0.0291  0.3716
 9480SOL    HW139902   1.299   4.040   5.379  0.6146  4.1542 -2.4182
 9480SOL    HW239903   1.309   4.174   5.433  1.0245 -0.6138 -1.0341
 9481SOL     OW39904   3.241   3.889   7.475 -0.1192  0.0178 -0.1465
 9481SOL    HW139905   3.146   3.892   7.466 -0.1034  0.0347 -0.2979
 9481SOL    HW239906   3.261   3.951   7.546 -1.3759  0.3263 -0.0704
 9482SOL     OW39907   0.755   3.557  10.845  0.5579  0.6010 -0.1758
 9482SOL    HW139908   0.834   3.504  10.833  0.8096  0.2126  3.1944
 9482SOL    HW239909   0.692   3.500  10.800  1.0401 -0.9952  1.2141
 9483SOL     OW39910   2.807   4.396   9.876 -0.2625 -0.3325  0.0102
 9483SOL    HW139911   2.800   4.442   9.792  0.1107  0.1652  0.2556
 9483SOL    HW239912   2.732   4.337   9.887  1.6189 -2.7928 -0.2373
 9484SOL     OW39913   0.618   0.169   4.195 -0.1686 -0.7021  0.0127
 9484SOL    HW139914   0.671   0.132   4.124 -2.9376 -2.6658 -1.0276
 9484SOL    HW239915   0.636   0.110   4.268 -1.7117 -0.1302  0.8583
 9485SOL     OW39916   4.378   2.326  11.377 -0.7233  0.1299 -0.3032
 9485SOL    HW139917   4.334   2.379  11.311 -1.0927 -1.5471 -1.3883
 9485SOL    HW239918   4.307   2.308  11.439 -1.4669  0.6351 -1.0124
 9486SOL     OW39919   2.630   3.272   3.925 -0.0063 -0.3105 -0.1095
 9486SOL    HW139920   2.591   3.306   4.006  3.2848  4.5960 -0.5756
 9486SOL    HW239921   2.718   3.250   3.953 -0.1852  0.4924  1.0778
 9487SOL     OW39922   2.835   3.570  10.767 -0.7159  0.1910  0.2294
 9487SOL    HW139923   2.900   3.512  10.727 -0.6970  1.3031 -1.3562
 9487SOL    HW239924   2.756   3.526  10.734 -1.0954  1.1128 -0.0839
 9488SOL     OW39925   0.987   4.620  17.207 -0.5495  0.1176 -0.2549
 9488SOL    HW139926   1.019   4.543  17.160  0.3666  1.3244 -1.5926
 9488SOL    HW239927   1.051   4.622  17.278  1.1171 -1.4077 -1.7067
 9489SOL     OW39928   1.673   3.406   7.925 -0.0303  0.0541 -0.5496
 9489SOL    HW139929   1.697   3.416   7.833 -2.3483  0.7787 -1.0924
 9489SOL    HW239930   1.755   3.381   7.968 -0.9231 -0.2212  1.0160
 9490SOL     OW39931   0.900   2.115   8.290 -0.1434  0.1322  0.1981
 9490SOL    HW139932   0.987   2.103   8.329  0.1609 -2.3093 -1.2327
 9490SOL    HW239933   0.929   2.112   8.199  0.4075  2.0248  0.3040
 9491SOL     OW39934   4.104   1.096   4.395 -0.0485  0.1949  0.1202
 9491SOL    HW139935   4.112   1.175   4.340  1.1069 -0.2788 -0.4059
 9491SOL    HW239936   4.014   1.072   4.373  0.7408 -0.4072 -2.4853
 9492SOL     OW39937   0.664   3.221  15.244 -0.1091 -0.4182 -0.4338
 9492SOL    HW139938   0.612   3.255  15.172 -0.6303 -0.5507 -0.1237
 9492SOL    HW239939   0.647   3.130  15.217 -0.8705 -0.1854 -0.7272
 9493SOL     OW39940   1.666   3.922   1.416 -0.7255  0.0958  0.3641
 9493SOL    HW139941   1.647   3.900   1.325  1.9166  0.3245 -0.2438
 9493SOL    HW239942   1.711   3.848   1.458  1.5426  0.7183 -0.9686
 9494SOL     OW39943   3.299   2.445  13.594  0.1815 -0.1816  0.6890
 9494SOL    HW139944   3.359   2.503  13.547 -0.6388 -0.9271 -1.2662
 9494SOL    HW239945   3.330   2.357  13.573  0.8283  0.1677  0.1715
 9495SOL     OW39946   3.047   3.558  15.184  0.1136  0.2783 -0.1855
 9495SOL    HW139947   3.057   3.523  15.096  1.2890 -0.4989  0.2567
 9495SOL    HW239948   3.103   3.502  15.238  0.1280  0.4296 -0.0460
 9496SOL     OW39949   3.482   4.372   4.606 -0.0290 -0.2320 -0.5623
 9496SOL    HW139950   3.511   4.303   4.547 -0.0949 -0.7549  0.0148
 9496SOL    HW239951   3.416   4.413   4.550 -1.0990 -1.5933 -0.3111
 9497SOL     OW39952   1.040   0.744   3.813  0.0747 -0.6953  0.3607
 9497SOL    HW139953   0.989   0.773   3.737 -0.3459  0.1771  0.9749
 9497SOL    HW239954   1.002   0.795   3.884 -1.1458  0.6140 -1.2368
 9498SOL     OW39955   3.003   0.807   2.571  0.5198  0.2611  0.0363
 9498SOL    HW139956   3.084   0.845   2.606 -0.1416  0.1360  1.7133
 9498SOL    HW239957   3.013   0.726   2.621  0.5929  0.0816 -0.2747
 9499SOL     OW39958   1.029   0.510   4.508  0.3165  0.3846 -0.2620
 9499SOL    HW139959   0.949   0.466   4.478  0.5519  0.4978 -1.0507
 9499SOL    HW239960   0.984   0.574   4.563 -2.1847 -1.7926  0.2371
 9500SOL     OW39961   3.984   1.942   6.977  0.1192 -0.0919  0.0538
 9500SOL    HW139962   3.975   1.956   7.071 -0.4954  0.1916 -0.0540
 9500SOL    HW239963   3.917   2.005   6.952  0.3613  0.1316 -0.0445
 9501SOL     OW39964   2.558   2.738   9.812  0.2125  0.0716 -0.3587
 9501SOL    HW139965   2.480   2.691   9.783  1.0500 -0.9218 -1.0020
 9501SOL    HW239966   2.632   2.680   9.794  1.7523  1.8273  0.2440
 9502SOL     OW39967   3.605   0.150   1.942  0.3586  0.5321  0.1433
 9502SOL    HW139968   3.537   0.215   1.929  0.4243  0.6828  0.5476
 9502SOL    HW239969   3.652   0.182   2.019  0.4288  0.3085  0.1952
 9503SOL     OW39970   3.166   2.226  15.445 -0.2422 -0.1923 -0.4938
 9503SOL    HW139971   3.251   2.264  15.425 -0.0155 -2.3403 -3.6601
 9503SOL    HW239972   3.126   2.287  15.508 -0.3363  0.4496 -1.1742
 9504SOL     OW39973   3.528   2.660   6.214  0.3601 -0.3089  0.0314
 9504SOL    HW139974   3.567   2.595   6.272 -1.1993 -0.3809  1.0086
 9504SOL    HW239975   3.588   2.666   6.140  1.9798 -2.0085  1.1966
 9505SOL     OW39976   2.602   3.871   5.720 -0.1893 -0.2182  0.0991
 9505SOL    HW139977   2.610   3.932   5.793  0.2134  0.1048 -0.2165
 9505SOL    HW239978   2.510   3.846   5.729  0.2020 -0.8401  2.2055
 9506SOL     OW39979   4.565   3.785   1.531  0.4161  0.3023  0.1982
 9506SOL    HW139980   4.576   3.846   1.459 -3.6793 -0.0281 -0.7008
 9506SOL    HW239981   4.639   3.725   1.523 -0.0260 -0.3455  0.8702
 9507SOL     OW39982   0.041   1.162   0.158  0.2312  0.2601  0.2689
 9507SOL    HW139983   0.077   1.078   0.183  0.2843  0.1655 -0.1235
 9507SOL    HW239984   0.051   1.146   0.064 -2.0531  1.1167 -0.1320
 9508SOL     OW39985   0.996   3.321   7.486 -0.5853  0.3854  0.4402
 9508SOL    HW139986   1.079   3.347   7.445 -0.3890 -0.8580  0.0691
 9508SOL    HW239987   0.970   3.413   7.489 -2.4550 -0.0887 -1.2014
 9509SOL     OW39988   1.140   4.219   8.820 -0.9415  0.0700 -0.1482
 9509SOL    HW139989   1.106   4.180   8.901 -0.4635 -0.6183 -0.2770
 9509SOL    HW239990   1.076   4.181   8.761 -2.1824 -1.7583  2.3653
 9510SOL     OW39991   1.689   4.507   4.900 -0.3964  0.1350 -0.4149
 9510SOL    HW139992   1.672   4.601   4.897  3.5624  0.9386  1.3568
 9510SOL    HW239993   1.695   4.494   4.995  0.0183 -0.5635 -0.5343
 9511SOL     OW39994   1.516   0.476   3.459 -0.3961  0.7387 -0.1569
 9511SOL    HW139995   1.528   0.548   3.521 -1.9781  0.3662  0.5878
 9511SOL    HW239996   1.565   0.508   3.384  0.2402 -2.0478 -0.9317
 9512SOL     OW39997   2.047   0.216   3.307 -0.4164  0.1606  0.2279
 9512SOL    HW139998   2.042   0.171   3.391 -1.4944  0.2446  0.2050
 9512SOL    HW239999   2.045   0.303   3.346 -0.3672  0.7868 -1.1521
 9513SOL     OW40000   4.411   1.524   4.363  0.2708 -0.3368  0.9593
 9513SOL    HW140001   4.466   1.577   4.422  1.1820 -1.5797  1.2140
 9513SOL    HW240002   4.464   1.532   4.284 -1.0608  1.1175  0.2022
 9514SOL     OW40003   1.131   1.046  17.294 -0.8797  0.0565  0.3617
 9514SOL    HW140004   1.056   1.023  17.238 -0.7525  1.4316 -0.3766
 9514SOL    HW240005   1.158   0.962  17.331 -2.0181  0.2725  1.6876
 9515SOL     OW40006   3.790   4.716   7.407 -0.2944 -0.7038 -0.8656
 9515SOL    HW140007   3.771   4.680   7.320  0.6793 -1.4519 -0.7825
 9515SOL    HW240008   3.751   0.085   7.400 -0.9445 -0.8206  1.2794
 9516SOL     OW40009   1.977   1.134   5.009  0.3325 -0.7192  0.5029
 9516SOL    HW140010   2.047   1.179   5.057  0.3521  0.4966 -0.6521
 9516SOL    HW240011   1.959   1.193   4.936 -0.2505 -3.0296 -1.2324
 9517SOL     OW40012   4.107   2.600  11.457  0.8382 -0.2895  0.2259
 9517SOL    HW140013   4.141   2.687  11.435  1.3313 -0.1895  1.3825
 9517SOL    HW240014   4.028   2.599  11.403  1.2495  0.0738 -0.3721
 9518SOL     OW40015   2.784   3.004  16.430  0.1456  0.3560 -0.4748
 9518SOL    HW140016   2.758   3.064  16.500  0.4983  0.6091 -0.5614
 9518SOL    HW240017   2.866   2.971  16.465 -0.5121 -1.0850 -0.2627
 9519SOL     OW40018   2.382   2.627   1.880  0.0160 -0.4064  0.0236
 9519SOL    HW140019   2.366   2.573   1.803 -1.8824  0.3440 -0.1140
 9519SOL    HW240020   2.328   2.703   1.857  2.0906  0.8060 -0.8262
 9520SOL     OW40021   1.824   2.056   2.808  0.3275  0.0071 -0.1217
 9520SOL    HW140022   1.768   2.041   2.731 -0.3400  2.8825 -0.1768
 9520SOL    HW240023   1.814   2.150   2.822  0.4855  0.0534 -0.3071
 9521SOL     OW40024   3.373   3.755   9.617 -0.1646  0.0733  0.0815
 9521SOL    HW140025   3.452   3.724   9.661  1.6956  2.7913 -1.3314
 9521SOL    HW240026   3.360   3.681   9.559  1.0859  0.2249 -0.3901
 9522SOL     OW40027   3.825   3.748   5.023  0.2536  0.5288  0.3801
 9522SOL    HW140028   3.745   3.789   5.056  2.1915  2.7203  2.4731
 9522SOL    HW240029   3.891   3.799   5.071 -0.7592  0.0607  2.2609
 9523SOL     OW40030   1.155   2.988   3.451 -0.3714  0.1260  0.0737
 9523SOL    HW140031   1.225   2.923   3.442  1.2451  2.0065 -0.7641
 9523SOL    HW240032   1.184   3.070   3.489  1.3762 -0.3969 -0.1044
 9524SOL     OW40033   1.355   3.817   6.307 -0.1775  0.1323  0.9453
 9524SOL    HW140034   1.353   3.883   6.238 -2.0176 -0.8592  0.0428
 9524SOL    HW240035   1.352   3.737   6.254  0.0122  1.2487 -0.7605
 9525SOL     OW40036   3.774   2.576   6.081 -0.0838 -0.1906 -0.2913
 9525SOL    HW140037   3.782   2.484   6.058 -1.3392 -0.7159  1.3541
 9525SOL    HW240038   3.825   2.574   6.163 -0.2949 -2.6172 -0.2317
 9526SOL     OW40039   1.057   1.602   4.603  1.0019 -0.1841  0.0355
 9526SOL    HW140040   1.096   1.539   4.543 -1.5441 -4.2250  2.5983
 9526SOL    HW240041   0.965   1.598   4.577  0.7873 -1.7140  0.9825
 9527SOL     OW40042   4.158   0.590   7.549 -0.6417  0.2915  0.1140
 9527SOL    HW140043   4.094   0.658   7.527 -1.3910 -1.0143 -1.7220
 9527SOL    HW240044   4.125   0.568   7.636  0.1816 -1.5125 -0.0308
 9528SOL     OW40045   0.496   4.286   7.849  0.1221  0.1355  0.1681
 9528SOL    HW140046   0.421   4.313   7.796  0.1515 -0.6302 -0.2638
 9528SOL    HW240047   0.469   4.213   7.905 -2.0699 -0.1523 -1.2480
 9529SOL     OW40048   3.457   3.570   1.869 -0.4639  0.1688  0.0731
 9529SOL    HW140049   3.499   3.528   1.944  2.3360  5.6811  1.6174
 9529SOL    HW240050   3.429   3.650   1.913  1.3464  0.3118  0.9790
 9530SOL     OW40051   1.439   4.488   9.988  0.0041  0.2248 -0.1385
 9530SOL    HW140052   1.468   4.403   9.954  0.6892  0.1476  0.6576
 9530SOL    HW240053   1.484   4.551   9.931 -2.1412  0.7486 -1.2417
 9531SOL     OW40054   1.460   0.133   7.475 -0.1132  0.1934  0.0356
 9531SOL    HW140055   1.509   0.128   7.394 -0.0702  1.6331 -0.0336
 9531SOL    HW240056   1.531   0.119   7.537 -0.3579 -1.7392 -0.1369
 9532SOL     OW40057   0.052   1.481   8.775 -0.5552  0.2703  0.3989
 9532SOL    HW140058   4.685   1.472   8.820 -0.2846 -0.9936  0.6579
 9532SOL    HW240059   0.097   1.407   8.816 -0.2499  0.1601 -0.1349
 9533SOL     OW40060   2.301   2.921   9.466 -0.5264  0.1893  0.9373
 9533SOL    HW140061   2.233   2.975   9.427  0.8441  1.3548  0.1515
 9533SOL    HW240062   2.274   2.943   9.555 -1.4354 -0.4669  0.8237
 9534SOL     OW40063   1.881   1.369   7.014 -0.0555  0.5426 -0.3269
 9534SOL    HW140064   1.838   1.321   7.085  1.2260  1.3910  1.0255
 9534SOL    HW240065   1.951   1.415   7.060 -1.0573  1.3444  0.3905
 9535SOL     OW40066   2.312   1.950   5.711  0.0847 -0.3397 -0.0565
 9535SOL    HW140067   2.406   1.956   5.696 -0.0624 -0.5066 -1.0042
 9535SOL    HW240068   2.311   1.875   5.771 -3.1528 -0.5656 -0.4115
 9536SOL     OW40069   4.173   2.128   6.859 -0.1184  0.0274 -0.2006
 9536SOL    HW140070   4.176   2.223   6.873 -1.7377 -0.0565  0.7397
 9536SOL    HW240071   4.108   2.100   6.924 -0.3084 -0.2418 -0.5097
 9537SOL     OW40072   4.708   4.399   4.010  0.6373  0.0397 -0.1356
 9537SOL    HW140073   0.025   4.477   3.967  0.7707 -0.1466 -0.3652
 9537SOL    HW240074   0.071   4.356   4.040  0.3021 -0.0779  0.6053
 9538SOL     OW40075   3.694   2.066   9.794  0.1003  0.3531  0.4986
 9538SOL    HW140076   3.749   2.005   9.744 -0.2503 -1.0899  1.8614
 9538SOL    HW240077   3.728   2.048   9.882 -0.7831  1.3684  1.0498
 9539SOL     OW40078   0.492   0.212   9.496  0.1975 -0.0847 -0.1923
 9539SOL    HW140079   0.585   0.213   9.475  0.5163  1.9220  1.2121
 9539SOL    HW240080   0.452   0.202   9.410  1.2874 -1.0867 -0.5683
 9540SOL     OW40081   0.896   1.102   9.424 -0.0591 -0.2379 -0.0534
 9540SOL    HW140082   0.838   1.098   9.500 -0.0230  1.8186  0.0949
 9540SOL    HW240083   0.953   1.170   9.460  1.6305 -2.4496  1.4790
 9541SOL     OW40084   4.231   0.131  15.261 -0.0010 -0.2378  0.2369
 9541SOL    HW140085   4.308   0.181  15.286 -0.2619  1.1155 -1.6673
 9541SOL    HW240086   4.229   0.117  15.166  0.0588  1.9273 -0.0794
 9542SOL     OW40087   2.688   0.670   2.595  0.2062  0.1986  0.0940
 9542SOL    HW140088   2.603   0.694   2.560  0.0747  0.1478  0.3777
 9542SOL    HW240089   2.736   0.639   2.518 -2.2805  0.1572 -1.4095
 9543SOL     OW40090   0.030   0.739   9.027  0.5954  0.2277 -0.0218
 9543SOL    HW140091   0.047   0.767   8.937  2.3039 -1.4982 -0.2210
 9543SOL    HW240092   0.113   0.766   9.067 -0.1246 -0.7865  2.1519
 9544SOL     OW40093   2.683   1.035   8.917  0.1535 -0.4466 -0.4547
 9544SOL    HW140094   2.675   1.044   9.012 -2.1553 -2.5738 -0.4577
 9544SOL    HW240095   2.639   0.953   8.893 -0.6612 -0.0369 -0.3662
 9545SOL     OW40096   1.296   2.243   5.714  0.2461 -0.3830 -0.3187
 9545SOL    HW140097   1.317   2.165   5.765  0.3921 -0.3085 -0.2675
 9545SOL    HW240098   1.266   2.203   5.632 -2.2852  4.1360 -1.6201
 9546SOL     OW40099   0.807   2.010   4.090  0.4133  0.2259 -0.1376
 9546SOL    HW140100   0.846   1.926   4.068 -0.5636 -0.4080  0.5958
 9546SOL    HW240101   0.801   2.057   4.006  2.2952  1.8262  0.6345
 9547SOL     OW40102   4.603   4.333   3.582 -0.3082  0.2470 -0.0029
 9547SOL    HW140103   4.640   4.404   3.633  1.3408 -0.0439 -0.8031
 9547SOL    HW240104   4.611   4.369   3.493 -1.4095 -2.2204 -1.1346
 9548SOL     OW40105   0.322   4.140   1.443 -0.2848  0.2304  0.1530
 9548SOL    HW140106   0.349   4.090   1.366 -2.3697 -1.7312  0.6658
 9548SOL    HW240107   0.407   4.161   1.480 -0.0234 -0.2277 -0.1840
 9549SOL     OW40108   0.195   0.610   8.326 -0.8571  0.0396  0.3502
 9549SOL    HW140109   0.251   0.667   8.273 -1.0908 -1.5647 -1.6273
 9549SOL    HW240110   0.159   0.672   8.390 -1.7260 -0.8554  0.7250
 9550SOL     OW40111   4.169   0.956   3.988 -0.2077  0.4109  0.3383
 9550SOL    HW140112   4.131   0.893   4.049 -2.1676  0.7826 -0.5046
 9550SOL    HW240113   4.096   1.009   3.956 -1.0375 -0.9755 -0.0596
 9551SOL     OW40114   3.147   3.414   7.616 -0.4649 -0.2452 -0.2779
 9551SOL    HW140115   3.209   3.485   7.601 -0.6367  0.1707  0.9535
 9551SOL    HW240116   3.204   3.339   7.632  1.1194  0.6555 -1.5785
 9552SOL     OW40117   2.861   2.231   3.366 -0.0901 -0.0732 -0.4718
 9552SOL    HW140118   2.873   2.159   3.428  0.6559 -1.1869 -1.9034
 9552SOL    HW240119   2.874   2.303   3.428 -0.8044  0.9107 -1.4603
 9553SOL     OW40120   1.307   0.809  14.030 -0.3361  0.5976 -0.1879
 9553SOL    HW140121   1.268   0.896  14.035 -1.5770 -0.0601  1.7927
 9553SOL    HW240122   1.290   0.762  13.949 -2.0035  0.2623  0.3481
 9554SOL     OW40123   4.197   0.780   7.177 -0.0711 -0.2189 -0.6839
 9554SOL    HW140124   4.229   0.714   7.115 -3.0625  0.6658 -3.1758
 9554SOL    HW240125   4.268   0.773   7.241  0.1907 -1.3802 -1.0919
 9555SOL     OW40126   1.869   3.180   7.287  0.1430 -0.0910  0.3268
 9555SOL    HW140127   1.962   3.169   7.308 -0.2404  0.3239  2.2436
 9555SOL    HW240128   1.852   3.252   7.347  0.2003  0.9638 -0.9359
 9556SOL     OW40129   2.905   4.670   4.556 -0.0482  0.4053 -0.3338
 9556SOL    HW140130   2.821   4.700   4.592  0.6890  0.6890  1.1579
 9556SOL    HW240131   2.870   4.586   4.527 -1.0856  0.9163 -0.5757
 9557SOL     OW40132   3.615   2.954   6.080  0.1754  0.2355 -0.6224
 9557SOL    HW140133   3.562   3.027   6.047 -0.5152  0.9412  2.0448
 9557SOL    HW240134   3.615   2.895   6.005 -0.6642  0.2584 -0.6431
 9558SOL     OW40135   2.813   3.133   5.322  0.6738  0.0681 -0.0181
 9558SOL    HW140136   2.882   3.066   5.319  0.5586 -0.0710  0.3704
 9558SOL    HW240137   2.739   3.084   5.359  2.3956 -4.2247 -2.1774
 9559SOL     OW40138   0.713   1.289  14.188  0.0823  0.3845 -0.0931
 9559SOL    HW140139   0.750   1.377  14.196  1.1919 -0.1735  0.7503
 9559SOL    HW240140   0.784   1.241  14.230  1.0012  1.0650 -0.8624
 9560SOL     OW40141   1.632   3.779  10.169  0.3569 -0.1513 -0.4020
 9560SOL    HW140142   1.537   3.774  10.158  0.3793 -1.3293 -0.1277
 9560SOL    HW240143   1.639   3.751  10.260 -1.9149 -0.7942 -0.4285
 9561SOL     OW40144   0.856   2.524   9.222  0.0474 -0.5854 -0.5895
 9561SOL    HW140145   0.877   2.527   9.128  0.5301  1.0251 -0.4285
 9561SOL    HW240146   0.925   2.586   9.246 -2.4174  1.2129  1.7374
 9562SOL     OW40147   4.676   1.292   5.493 -0.2729  0.4755  0.3296
 9562SOL    HW140148   4.659   1.385   5.508 -0.5522  0.4122  0.3943
 9562SOL    HW240149   4.707   1.301   5.403 -2.5101  0.7905 -0.4047
 9563SOL     OW40150   1.626   1.535   2.992  0.0990 -0.3058 -0.0243
 9563SOL    HW140151   1.693   1.466   2.995 -0.4542 -0.7733  1.5615
 9563SOL    HW240152   1.556   1.481   2.956 -0.7013  0.3009  0.6384
 9564SOL     OW40153   1.863   1.338   6.518 -0.0657  0.3151  0.3988
 9564SOL    HW140154   1.905   1.407   6.570  0.4562 -1.4984  2.4204
 9564SOL    HW240155   1.818   1.286   6.584 -0.6155  0.8798  0.4678
 9565SOL     OW40156   0.063   2.465   5.356 -0.4216  0.0893  0.4036
 9565SOL    HW140157   4.710   2.408   5.327 -0.5000  0.4103 -0.0234
 9565SOL    HW240158   0.125   2.453   5.284  0.3753  0.4805  1.0223
 9566SOL     OW40159   1.768   4.535  12.548  0.1438 -0.2360 -0.4174
 9566SOL    HW140160   1.672   4.531  12.552  0.1197 -1.4960 -2.5490
 9566SOL    HW240161   1.783   4.537  12.643 -0.6872  0.9427 -0.3089
 9567SOL     OW40162   0.963   2.233   5.996  0.0959 -0.3292  0.3790
 9567SOL    HW140163   0.893   2.177   5.962  1.5991 -1.8503 -0.2456
 9567SOL    HW240164   0.915   2.313   6.016 -0.3789 -0.4273 -0.3720
 9568SOL     OW40165   3.254   1.704   8.764 -0.3872 -0.6922 -0.1322
 9568SOL    HW140166   3.337   1.659   8.751 -0.0385 -1.0797  3.6950
 9568SOL    HW240167   3.250   1.760   8.686  1.5200  0.1279  0.3593
   4.71751   4.71751  17.67335
