Membrane in water
40167
    1TCq1    O1    1   3.942   1.341  11.032  0.2010  0.2539 -0.1929
    1TCq1    C1    2   3.940   1.227  11.101 -0.3772  0.6422 -0.0963
    1TCq1    O2    3   4.009   1.126  11.086 -0.1920 -0.1281  0.3710
    1TCq1    C2    4   3.817   1.220  11.170 -1.0183  0.2948 -0.5205
    1TCq1    C3    5   3.767   1.335  11.217  0.8464 -0.2484 -0.1067
    1TCq1    C4    6   3.680   1.333  11.319  0.5004 -1.1188 -0.0534
    1TCq1    C5    7   3.647   1.214  11.381 -0.9066  0.5171 -0.5938
    1TCq1    C6    8   3.696   1.097  11.331  0.6972  0.0089 -0.3404
    1TCq1    C7    9   3.790   1.095  11.229 -0.4276  0.2726 -0.1068
    1TCq1    C8   10   3.638   0.968  11.365 -0.2939 -0.1622  0.0229
    1TCq1    O4   11   3.519   0.979  11.396 -0.6508  0.8042 -0.2651
    1TCq1    C9   12   3.618   1.456  11.373  0.4793  0.4533 -0.1138
    1TCq1    O5   13   3.562   1.447  11.486  0.0644  0.1604 -0.4649
    1TCq1    O6   14   3.640   1.562  11.310  0.4056 -0.6655  0.5500
    1TCq1    H1   15   3.856   1.386  11.041  0.0560 -0.0511 -0.0364
    1TCq1    H2   16   3.793   1.432  11.175  4.1356  0.0823  2.7092
    1TCq1    H3   17   3.592   1.209  11.474 -0.4611 -0.3428 -0.3737
    1TCq1    H4   18   3.827   1.001  11.191 -0.6180 -0.8118  2.4040
    2MPD2     C   19   3.669   0.483  11.485 -0.0806  0.3873 -0.3674
    2MPD2    C1   20   3.562   0.574  11.485  0.0750 -0.1502  0.3358
    2MPD2    C2   21   3.581   0.703  11.445 -0.1637  0.6064  0.3504
    2MPD2    C3   22   3.708   0.743  11.407 -0.4317 -0.0572 -0.2702
    2MPD2    C4   23   3.809   0.646  11.401 -0.3512  0.7984  0.5607
    2MPD2    C5   24   3.791   0.517  11.447 -0.2497  0.3736  0.3034
    2MPD2     H   25   3.495   0.769  11.446 -1.5436 -1.1786 -1.8043
    2MPD2    H1   26   3.910   0.684  11.385  0.2073 -0.0700  1.9984
    2MPD2    H2   27   3.655   0.378  11.510  0.7952 -0.4848 -3.6060
    2MPD2    H3   28   3.878   0.452  11.448 -0.4757 -0.0056 -3.7575
    2MPD2     N   29   3.732   0.872  11.368 -0.0813 -0.4830  0.0692
    2MPD2    H5   30   3.826   0.901  11.346  0.8548 -2.7527  1.1375
    2MPD2    N1   31   3.435   0.528  11.513 -0.7869  0.4990  0.1714
    2MPD2    H7   32   3.357   0.594  11.507 -1.3006 -0.0396  0.8962
    3TCq1    O1   33   1.339   1.656  11.755 -0.5579  0.1210 -0.3656
    3TCq1    C1   34   1.361   1.762  11.838 -0.0711  0.1547  0.0546
    3TCq1    O2   35   1.320   1.762  11.951 -0.2947 -0.2534  0.1538
    3TCq1    C2   36   1.429   1.873  11.770  0.2607  0.6666 -0.3309
    3TCq1    C3   37   1.428   1.877  11.635  0.7557  0.4765  0.2584
    3TCq1    C4   38   1.463   1.992  11.574  0.2375  0.7613 -0.9411
    3TCq1    C5   39   1.508   2.099  11.643  0.5255  0.0298  0.2456
    3TCq1    C6   40   1.516   2.088  11.781  0.5048  0.4776  0.2868
    3TCq1    C7   41   1.476   1.980  11.848  0.4636 -0.3240 -0.0340
    3TCq1    C8   42   1.562   2.199  11.863 -0.1836 -0.3404  0.1225
    3TCq1    O4   43   1.523   2.200  11.978 -0.2118  0.2695 -0.7709
    3TCq1    C9   44   1.451   2.006  11.428 -0.2661 -0.2015  0.1105
    3TCq1    O5   45   1.504   2.101  11.363 -0.2043  0.5673 -0.0339
    3TCq1    O6   46   1.387   1.912  11.371 -0.2257 -0.2563 -0.4278
    3TCq1    H1   47   1.398   1.657  11.677  0.5369 -2.6736  0.4230
    3TCq1    H2   48   1.401   1.795  11.570 -2.7969  0.5590  1.6036
    3TCq1    H3   49   1.507   2.195  11.593  0.0230 -0.2012 -0.1799
    3TCq1    H4   50   1.493   1.979  11.955 -0.0392 -0.1339  0.0478
    4MPD2     C   51   1.783   2.680  11.880 -0.0078  0.2839  0.5052
    4MPD2    C1   52   1.782   2.621  11.755 -0.1360 -0.5482 -0.2946
    4MPD2    C2   53   1.737   2.490  11.737 -0.4080  1.2534 -0.6424
    4MPD2    C3   54   1.692   2.416  11.844  0.2310  0.4207  0.4625
    4MPD2    C4   55   1.689   2.472  11.969 -0.0235  0.1172 -0.5346
    4MPD2    C5   56   1.735   2.602  11.984 -0.0573 -0.3965 -0.3653
    4MPD2     H   57   1.729   2.449  11.637  3.8551 -1.1425 -0.0013
    4MPD2    H1   58   1.648   2.425  12.057 -2.5496  4.4690  0.6074
    4MPD2    H2   59   1.817   2.782  11.898 -0.8706  0.7449 -0.4407
    4MPD2    H3   60   1.751   2.647  12.082  0.2146  0.9508 -1.0270
    4MPD2     N   61   1.637   2.294  11.791  0.0688 -0.4246 -0.0976
    4MPD2    H5   62   1.649   2.281  11.691 -2.4416 -1.1357 -0.2960
    4MPD2    N1   63   1.818   2.693  11.632  0.1541 -0.1014  0.0942
    4MPD2    H7   64   1.811   2.641  11.545 -1.0941 -1.4214  0.9976
    5TCq1    O1   65   3.542   3.192  12.216 -0.9083 -0.1938 -0.2317
    5TCq1    C1   66   3.464   3.292  12.276 -0.1591  0.8928  0.4673
    5TCq1    O2   67   3.409   3.294  12.387  0.3287 -0.1678  0.3675
    5TCq1    C2   68   3.410   3.368  12.170  0.7496  0.1541 -0.5281
    5TCq1    C3   69   3.372   3.498  12.193  0.0469 -1.0271 -0.0694
    5TCq1    C4   70   3.309   3.564  12.088  0.1480  0.8863 -0.2557
    5TCq1    C5   71   3.268   3.501  11.972  0.0460  0.2716 -0.5375
    5TCq1    C6   72   3.291   3.364  11.969 -0.1536 -0.0906  0.5706
    5TCq1    C7   73   3.375   3.304  12.057  0.0086  0.5126 -0.2557
    5TCq1    C8   74   3.267   3.292  11.843  0.4016  0.1473 -0.0703
    5TCq1    O4   75   3.283   3.170  11.841 -0.0223 -0.3331 -0.0058
    5TCq1    C9   76   3.286   3.698  12.102  0.0361  0.2608 -0.4887
    5TCq1    O5   77   3.223   3.745  12.010 -0.6549 -0.2273 -0.0989
    5TCq1    O6   78   3.349   3.767  12.185  0.1760  0.6788  0.0096
    5TCq1    H1   79   3.587   3.228  12.137 -2.3203  0.0998 -0.9005
    5TCq1    H2   80   3.405   3.549  12.282  0.0263 -3.2285  1.1899
    5TCq1    H3   81   3.207   3.557  11.902 -1.3677 -0.8952 -0.2307
    5TCq1    H4   82   3.383   3.197  12.045 -0.9036  0.2815  1.2232
    6MPD2     C   83   3.123   3.431  11.530  0.2249  0.2732 -0.0402
    6MPD2    C1   84   3.181   3.330  11.609  0.1129 -0.0558  0.6851
    6MPD2    C2   85   3.187   3.200  11.559  0.5771  0.4849  0.0976
    6MPD2    C3   86   3.153   3.163  11.434  0.5039  0.6311 -0.1329
    6MPD2    C4   87   3.107   3.267  11.358 -0.0370 -0.4625 -0.0889
    6MPD2    C5   88   3.090   3.391  11.405 -0.5832 -0.5981 -0.1730
    6MPD2     H   89   3.219   3.121  11.626 -1.9180  0.2643  1.0211
    6MPD2    H1   90   3.076   3.255  11.255  0.8304 -1.2206 -0.2643
    6MPD2    H2   91   3.088   3.527  11.567  2.9082  1.5727 -0.9023
    6MPD2    H3   92   3.042   3.468  11.345 -0.8856 -1.0450 -0.5091
    6MPD2     N   93   3.169   3.029  11.391 -0.0641  0.2837  0.1958
    6MPD2    H5   94   3.212   2.966  11.457 -0.5347  0.8721  1.0698
    6MPD2    N1   95   3.213   3.368  11.739  0.0494  0.2836  0.1616
    6MPD2    H7   96   3.192   3.463  11.766  3.7860  1.5430 -1.4688
    7TCq1    O1   97   1.368   3.174  13.968 -0.0014 -0.0962  0.2818
    7TCq1    C1   98   1.506   3.172  13.959  0.4200  0.3541  0.2602
    7TCq1    O2   99   1.591   3.222  14.028 -0.2480  0.2005 -0.3904
    7TCq1    C2  100   1.537   3.103  13.833  0.5914  0.0448 -0.6446
    7TCq1    C3  101   1.647   3.163  13.768  0.2175  0.2208 -0.3833
    7TCq1    C4  102   1.675   3.125  13.642 -0.3038  0.5839  0.3867
    7TCq1    C5  103   1.612   3.013  13.586 -0.3187 -0.8010  0.0318
    7TCq1    C6  104   1.522   2.949  13.666 -0.0361 -0.2290 -0.3096
    7TCq1    C7  105   1.480   2.988  13.788 -0.7657  0.7388 -0.2989
    7TCq1    C8  106   1.451   2.827  13.620 -0.2345  0.0417 -0.3729
    7TCq1    O4  107   1.349   2.788  13.680  0.2682 -0.2036 -0.3660
    7TCq1    C9  108   1.770   3.208  13.572 -0.7590  0.7559  0.6739
    7TCq1    O5  109   1.828   3.161  13.466  0.8098  0.3815  0.4224
    7TCq1    O6  110   1.790   3.326  13.618 -0.2123  0.5822 -0.3819
    7TCq1    H1  111   1.323   3.112  13.906  0.3099 -1.0971  1.0565
    7TCq1    H2  112   1.694   3.256  13.799  0.4798 -0.6185  1.7196
    7TCq1    H3  113   1.623   2.990  13.481  1.8976  0.1394  0.0589
    7TCq1    H4  114   1.407   2.940  13.852  1.4938 -1.6715  0.4863
    8MPD2     C  115   1.474   2.408  13.311 -0.4079  0.7836  0.1825
    8MPD2    C1  116   1.375   2.444  13.398  0.9402  0.8710 -0.2309
    8MPD2    C2  117   1.389   2.570  13.456 -0.5463  0.9866 -0.4611
    8MPD2    C3  118   1.501   2.647  13.440 -0.0921 -0.0360  0.0078
    8MPD2    C4  119   1.598   2.608  13.358  0.1674 -0.4837 -0.0032
    8MPD2    C5  120   1.589   2.483  13.295 -0.7251  0.3942 -0.2772
    8MPD2     H  121   1.310   2.616  13.514 -0.2131  0.7515  0.1901
    8MPD2    H1  122   1.685   2.671  13.339 -0.9727  0.7753 -1.0008
    8MPD2    H2  123   1.464   2.316  13.255  2.0871  0.1232  0.8299
    8MPD2    H3  124   1.671   2.443  13.237 -0.4076 -0.1130  0.5276
    8MPD2     N  125   1.520   2.768  13.518  0.7648  0.3051  0.2450
    8MPD2    H5  126   1.600   2.822  13.487  0.6609 -0.3977 -1.2825
    8MPD2    N1  127   1.261   2.359  13.410  0.5124 -0.3790  0.1374
    8MPD2    H7  128   1.264   2.272  13.358 -1.9118 -0.2736 -0.1757
    9TCq1    O1  129   2.800   0.876  11.025  0.2682  0.3252  0.9045
    9TCq1    C1  130   2.806   0.854  10.892  0.3654  0.5385  0.5585
    9TCq1    O2  131   2.832   0.741  10.846  0.7400 -0.3649  0.1108
    9TCq1    C2  132   2.788   0.971  10.814 -0.7903 -0.5406  0.3406
    9TCq1    C3  133   2.782   0.956  10.679  0.1377  0.4290  0.4504
    9TCq1    C4  134   2.800   1.057  10.594 -0.2763  0.4338  0.1532
    9TCq1    C5  135   2.840   1.179  10.649 -0.0878 -0.1379  0.3321
    9TCq1    C6  136   2.855   1.191  10.786  0.2484  0.3821  0.1063
    9TCq1    C7  137   2.836   1.083  10.867  0.2367  0.0720  0.4567
    9TCq1    C8  138   2.909   1.313  10.845 -0.3469 -0.6687 -0.1713
    9TCq1    O4  139   2.954   1.391  10.764  0.1192 -0.0290  0.0020
    9TCq1    C9  140   2.793   1.017  10.454  0.6125 -0.1126 -0.3482
    9TCq1    O5  141   2.810   1.111  10.374 -0.8849 -0.0176 -0.5000
    9TCq1    O6  142   2.808   0.895  10.423  0.2868  0.3605 -0.0629
    9TCq1    H1  143   2.775   0.969  11.038  0.5057  0.1700  2.4136
    9TCq1    H2  144   2.757   0.861  10.634 -1.5854  1.1014 -0.0138
    9TCq1    H3  145   2.864   1.249  10.570 -1.5973  0.1081  0.0867
    9TCq1    H4  146   2.894   1.086  10.958  1.0229 -0.7759 -0.0240
   10MPD2     C  147   2.948   1.550  11.021  0.4985 -0.7141  0.2776
   10MPD2    C1  148   2.901   1.430  11.067 -0.2999 -0.0554  0.2383
   10MPD2    C2  149   2.856   1.416  11.200 -0.9642 -0.0567 -0.3286
   10MPD2    C3  150   2.857   1.524  11.286 -0.3256 -0.1258 -0.3454
   10MPD2    C4  151   2.901   1.644  11.236 -0.7154 -0.2067 -0.0136
   10MPD2    C5  152   2.955   1.654  11.107 -0.2200  0.5563 -0.0171
   10MPD2     H  153   2.830   1.317  11.236 -0.1515  0.3482  1.3365
   10MPD2    H1  154   2.890   1.737  11.291  1.2507 -0.3988  0.6829
   10MPD2    H2  155   2.997   1.569  10.926  1.3751 -1.1581  0.6455
   10MPD2    H3  156   3.001   1.749  11.081 -0.3401  0.4236 -0.7038
   10MPD2     N  157   2.807   1.513  11.414 -0.2672 -0.0219  0.2166
   10MPD2    H5  158   2.818   1.592  11.477 -0.3531 -0.9186  1.3553
   10MPD2    N1  159   2.871   1.322  10.978 -0.4969 -0.5021  0.2728
   10MPD2    H7  160   2.831   1.241  11.023  2.5088 -2.1303  0.0091
   11TCq1    O1  161   4.054   1.201  13.912 -0.0686  0.6282 -0.3237
   11TCq1    C1  162   4.167   1.196  13.977 -0.2259  0.0631 -0.0374
   11TCq1    O2  163   4.267   1.141  13.933  0.1152  0.1274 -0.0519
   11TCq1    C2  164   4.146   1.244  14.109 -0.7679  1.1669  0.8438
   11TCq1    C3  165   4.258   1.280  14.178 -0.3446  0.6737  0.2624
   11TCq1    C4  166   4.239   1.326  14.303 -0.6896 -0.1855 -0.8032
   11TCq1    C5  167   4.115   1.325  14.365  0.3506 -0.3588 -0.9534
   11TCq1    C6  168   4.013   1.278  14.290 -0.2370 -0.2123 -0.7246
   11TCq1    C7  169   4.024   1.234  14.165  0.6359 -0.2898 -0.2681
   11TCq1    C8  170   3.878   1.279  14.353 -0.3178 -0.7372  0.1716
   11TCq1    O4  171   3.858   1.356  14.446  0.6248  0.0594  0.4288
   11TCq1    C9  172   4.348   1.397  14.366  0.1424 -1.2324 -0.6085
   11TCq1    O5  173   4.458   1.406  14.307  0.0567  0.4739 -0.4355
   11TCq1    O6  174   4.327   1.466  14.471  0.1942  0.2284  0.2035
   11TCq1    H1  175   4.001   1.280  13.936 -1.7049  0.6963 -4.2152
   11TCq1    H2  176   4.352   1.308  14.132  0.4765 -0.1158  1.5056
   11TCq1    H3  177   4.102   1.357  14.468  0.5645  1.7902 -1.5789
   11TCq1    H4  178   3.943   1.188  14.109  1.2505  0.1423 -1.5136
   12MPD2     C  179   3.594   1.239  14.435  0.0177 -0.3085 -0.1776
   12MPD2    C1  180   3.657   1.158  14.344  0.3071  0.2203  0.3199
   12MPD2    C2  181   3.591   1.050  14.305  0.4087  0.1092  0.2969
   12MPD2    C3  182   3.462   1.009  14.357  0.1984 -0.2265  0.0146
   12MPD2    C4  183   3.414   1.091  14.454  0.2657  0.3692 -0.4450
   12MPD2    C5  184   3.478   1.207  14.490  0.0777  0.0837  0.1443
   12MPD2     H  185   3.653   0.983  14.246 -0.5008 -0.8902  0.4630
   12MPD2    H1  186   3.316   1.081  14.498  0.2989 -0.0437 -0.4663
   12MPD2    H2  187   3.643   1.327  14.478 -0.8074  0.3457 -0.5794
   12MPD2    H3  188   3.439   1.271  14.568  3.0189  1.3431  0.5698
   12MPD2     N  189   3.387   0.901  14.301 -0.1430 -0.4377  0.2970
   12MPD2    H5  190   3.432   0.863  14.218  1.0536  0.1871  0.6593
   12MPD2    N1  191   3.790   1.186  14.298  0.0693  0.0964  1.1111
   12MPD2    H7  192   3.831   1.117  14.235  1.0292 -0.0183  1.8676
   13TCq1    O1  193   2.616   1.082  10.220 -0.2959  0.1746  0.1587
   13TCq1    C1  194   2.491   1.103  10.264  0.6384  0.5751  0.2740
   13TCq1    O2  195   2.403   1.021  10.241  0.1259 -0.0647  0.5056
   13TCq1    C2  196   2.514   1.171  10.393  0.6426  0.3218 -0.5327
   13TCq1    C3  197   2.564   1.302  10.377  0.4022  0.5600  0.3972
   13TCq1    C4  198   2.560   1.374  10.488 -1.1934  0.3340  0.2614
   13TCq1    C5  199   2.510   1.330  10.612 -0.7551 -0.7349 -0.4362
   13TCq1    C6  200   2.477   1.195  10.624  0.1730  0.1900  0.1931
   13TCq1    C7  201   2.476   1.110  10.513 -0.1956 -0.5550  0.0451
   13TCq1    C8  202   2.458   1.140  10.756  0.0263 -0.3097 -0.9252
   13TCq1    O4  203   2.470   1.214  10.850 -0.0215 -0.0009  0.0086
   13TCq1    C9  204   2.589   1.518  10.477 -0.1043  0.2703 -0.5637
   13TCq1    O5  205   2.542   1.596  10.566 -0.0064  0.1265  0.5993
   13TCq1    O6  206   2.655   1.560  10.376  0.2731 -0.0479 -0.3360
   13TCq1    H1  207   2.683   1.119  10.281 -0.7730  0.1720  0.6799
   13TCq1    H2  208   2.588   1.350  10.282  0.2199  0.3460  0.2426
   13TCq1    H3  209   2.503   1.399  10.696  0.2364 -1.0797 -0.0734
   13TCq1    H4  210   2.434   1.010  10.518  0.7332 -0.8952  1.0551
   14MPD2     C  211   2.473   0.799  10.892  0.7997 -0.5542  0.6631
   14MPD2    C1  212   2.448   0.935  10.892 -0.0628 -0.1600  0.0071
   14MPD2    C2  213   2.422   0.987  11.020 -0.2738  0.1920  0.1535
   14MPD2    C3  214   2.432   0.906  11.132  0.1021  1.4661 -0.0455
   14MPD2    C4  215   2.464   0.773  11.129 -0.4438  0.0047  0.6413
   14MPD2    C5  216   2.486   0.726  11.008 -0.3984 -0.3270 -0.6622
   14MPD2     H  217   2.384   1.088  11.025 -1.8837 -0.4291  0.4701
   14MPD2    H1  218   2.489   0.720  11.220  1.6097 -0.3900 -0.1561
   14MPD2    H2  219   2.502   0.753  10.798 -0.8093 -2.6405  1.1778
   14MPD2    H3  220   2.539   0.631  11.000  0.3026  0.0398 -0.4070
   14MPD2     N  221   2.387   0.973  11.249 -1.0085 -0.1806  0.3611
   14MPD2    H5  222   2.352   1.068  11.236 -0.3507  0.0573  0.3019
   14MPD2    N1  223   2.452   1.003  10.770  0.0626 -0.0900  0.1995
   14MPD2    H7  224   2.451   0.948  10.685 -2.3506 -0.5374  0.5198
   15TCq1    O1  225   0.771   0.205   2.395  0.2996 -0.2985 -1.1473
   15TCq1    C1  226   0.798   0.231   2.264 -0.4624  0.1536 -0.3687
   15TCq1    O2  227   0.902   0.205   2.205  0.0746 -0.1200 -0.2398
   15TCq1    C2  228   0.672   0.231   2.191  0.3114 -0.2459 -0.8497
   15TCq1    C3  229   0.598   0.342   2.216  0.4679  0.0901 -0.0809
   15TCq1    C4  230   0.483   0.355   2.149 -0.4101 -0.7575  0.4881
   15TCq1    C5  231   0.448   0.267   2.050  0.3438 -0.5675 -0.1366
   15TCq1    C6  232   0.534   0.167   2.020 -0.4079 -0.3933 -0.2882
   15TCq1    C7  233   0.651   0.140   2.090 -0.2724  0.0681 -0.1017
   15TCq1    C8  234   0.495   0.070   1.915 -0.2692  0.4661 -0.2880
   15TCq1    O4  235   0.562   4.691   1.911  1.2635 -0.7058 -0.1072
   15TCq1    C9  236   0.397   0.465   2.177 -0.7900  0.7870  0.5540
   15TCq1    O5  237   0.315   0.493   2.086  0.3442 -0.2040 -0.0907
   15TCq1    O6  238   0.410   0.531   2.283 -0.1232  0.2596 -0.3167
   15TCq1    H1  239   0.678   0.214   2.423  0.8688 -2.5469  1.5049
   15TCq1    H2  240   0.625   0.408   2.298  2.1395  0.2839 -0.7943
   15TCq1    H3  241   0.349   0.280   2.007  0.4018 -0.5563 -0.2679
   15TCq1    H4  242   0.718   0.066   2.049 -0.6440 -1.4666  2.0900
   16MPD2     C  243   0.285   0.142   1.613  0.1921  0.0439 -0.0588
   16MPD2    C1  244   0.361   0.068   1.698  0.7644  0.1690  0.2792
   16MPD2    C2  245   0.399   4.663   1.654 -0.0659  0.8473  0.1210
   16MPD2    C3  246   0.347   4.609   1.535 -0.3309 -0.2013 -0.4616
   16MPD2    C4  247   0.260   4.681   1.461  0.9121 -0.1833 -0.4440
   16MPD2    C5  248   0.243   0.093   1.494  0.1942 -0.2278 -0.7534
   16MPD2     H  249   0.444   4.597   1.727 -1.3535 -0.2261 -0.0618
   16MPD2    H1  250   0.222   4.653   1.364 -1.0353 -0.1879  0.3181
   16MPD2    H2  251   0.266   0.243   1.649  0.2117 -0.3395  1.0003
   16MPD2    H3  252   0.198   0.166   1.428 -2.6261 -0.7684  0.6108
   16MPD2     N  253   0.393   4.480   1.501  0.9706 -0.5185  0.0813
   16MPD2    H5  254   0.456   4.432   1.564  0.3498 -1.7220 -0.2240
   16MPD2    N1  255   0.401   0.126   1.823  0.0004  0.0465 -0.1710
   16MPD2    H7  256   0.367   0.217   1.851 -2.9789 -1.3907  0.9214
   17TCq1    O1  257   2.448   0.566  11.552  0.1047 -0.0998 -0.4967
   17TCq1    C1  258   2.565   0.515  11.592  0.0794  0.2133  0.4055
   17TCq1    O2  259   2.583   0.406  11.638  0.3002  0.1228  0.2348
   17TCq1    C2  260   2.653   0.564  11.494 -0.1621  0.3922  0.4546
   17TCq1    C3  261   2.724   0.468  11.428 -0.8750 -0.3286  0.0403
   17TCq1    C4  262   2.809   0.510  11.333 -0.2257  0.1253 -0.1277
   17TCq1    C5  263   2.849   0.640  11.328  0.7013  0.2774 -0.0954
   17TCq1    C6  264   2.785   0.733  11.408  0.6569  0.1053  0.0694
   17TCq1    C7  265   2.682   0.699  11.489 -0.3769  0.6706 -0.7104
   17TCq1    C8  266   2.821   0.877  11.408 -0.4714  0.0012 -0.0740
   17TCq1    O4  267   2.766   0.946  11.488 -0.0884 -0.3294  1.2100
   17TCq1    C9  268   2.852   0.418  11.234 -0.4922 -0.3428  0.3031
   17TCq1    O5  269   2.924   0.460  11.142 -0.2296 -0.0090 -0.0836
   17TCq1    O6  270   2.817   0.297  11.231  0.5473  0.2071  0.4451
   17TCq1    H1  271   2.464   0.643  11.493 -0.7650 -0.4268 -1.1676
   17TCq1    H2  272   2.696   0.364  11.440 -0.5092 -0.2150  1.9880
   17TCq1    H3  273   2.920   0.669  11.252  2.6420 -0.8699  1.2920
   17TCq1    H4  274   2.630   0.769  11.552  1.5525 -1.0796  2.8011
   18MPD2     C  275   2.982   1.115  11.410 -0.6916 -0.3645  0.0407
   18MPD2    C1  276   2.991   1.022  11.308  0.3112  0.1634  0.1896
   18MPD2    C2  277   3.070   1.048  11.198  0.0991 -0.5931  0.7463
   18MPD2    C3  278   3.142   1.161  11.189  0.2409  0.1446 -0.2002
   18MPD2    C4  279   3.144   1.256  11.297 -0.4803  0.0161  0.1547
   18MPD2    C5  280   3.049   1.231  11.398 -1.0163 -0.2309  0.2528
   18MPD2     H  281   3.076   0.967  11.126  1.1742  0.8543 -0.7756
   18MPD2    H1  282   3.207   1.344  11.294  1.7150 -1.6357 -2.4899
   18MPD2    H2  283   2.922   1.098  11.499 -1.5976 -1.5670 -0.7967
   18MPD2    H3  284   3.034   1.310  11.470 -0.6317 -0.9692  1.1417
   18MPD2     N  285   3.225   1.190  11.077 -0.5739 -0.1418  1.3107
   18MPD2    H5  286   3.284   1.273  11.078 -0.1993 -0.4072  0.9733
   18MPD2    N1  287   2.913   0.902  11.308  0.0491  0.4563 -0.5682
   18MPD2    H7  288   2.928   0.834  11.234  0.6210 -0.9050  0.7993
   19TMC2    C1  289   4.703   1.062  13.852  0.3739 -0.1714  0.0645
   19TMC2    C2  290   4.697   1.109  13.728 -0.2976 -0.3150 -0.1527
   19TMC2    C3  291   4.594   1.058  13.647  0.2112 -0.5085 -0.3940
   19TMC2    C4  292   4.617   0.965  13.901 -0.5221 -0.9212  0.2194
   19TMC2    C5  293   4.508   0.939  13.827  0.0779  0.4000  0.5264
   19TMC2    C6  294   4.495   0.981  13.696  0.6304  0.3567 -0.5198
   19TMC2     C  295   0.109   1.084  13.923 -0.1581 -0.1965  0.2131
   19TMC2     O  296   0.185   1.166  13.869  0.2780 -0.1108  0.5193
   19TMC2     H  297   0.026   1.197  13.690  0.8004 -0.0956  1.8206
   19TMC2    H1  298   4.612   0.947  14.008 -2.1104 -1.1884  0.1024
   19TMC2    H2  299   4.428   0.935  13.625 -1.5033  0.7874  1.2344
   19TMC2    C7  300   4.406   0.834  13.878 -0.5806 -0.4520  0.0064
   19TMC2    C8  301   4.581   1.124  13.520 -0.3258 -0.2212  0.5300
   19TMC2    O1  302   4.456   0.757  13.961 -0.5606 -0.0453 -0.1779
   19TMC2    O2  303   4.663   1.193  13.463 -0.7855 -0.0299 -0.3658
   19TMC2    O5  304   4.445   1.123  13.491 -0.2288  0.5183 -0.9106
   19TMC2    H5  305   4.379   1.086  13.554  0.1938  1.0284 -0.1681
   20MPD2     C  306   0.380   1.070  14.043 -0.2095 -0.0826  0.2307
   20MPD2    C1  307   0.271   0.997  14.088  0.1962  0.7581  0.5717
   20MPD2    C2  308   0.286   0.917  14.205 -0.0004  0.2004 -0.0602
   20MPD2    C3  309   0.404   0.918  14.279 -0.9063 -0.4794 -0.5239
   20MPD2    C4  310   0.504   1.003  14.235 -0.1045 -0.0401  0.0779
   20MPD2    C5  311   0.498   1.071  14.116  0.2243 -0.3773 -0.7865
   20MPD2     H  312   0.207   0.849  14.235  0.6524 -0.9247 -0.9242
   20MPD2    H1  313   0.595   1.012  14.293  1.0486 -0.2096 -1.7073
   20MPD2    H2  314   0.379   1.131  13.954  0.7183 -0.8807 -0.3209
   20MPD2    H3  315   0.586   1.123  14.081  0.6351 -0.5144  0.0225
   20MPD2     N  316   0.430   0.847  14.399  0.6201 -0.0222  0.7787
   20MPD2    H5  317   0.520   0.874  14.438  1.5712 -1.6908 -0.2951
   20MPD2    N1  318   0.146   0.999  14.025 -0.3248  0.3129  0.4422
   20MPD2    H7  319   0.072   0.934  14.049 -1.0261  1.0276  0.2478
   21MPD2     C  320   2.367   1.492  14.615 -0.3658 -0.0475 -1.1011
   21MPD2    C1  321   2.394   1.357  14.611  0.2997 -0.0743 -0.2991
   21MPD2    C2  322   2.291   1.263  14.618 -0.2056  0.1928 -0.2019
   21MPD2    C3  323   2.159   1.304  14.630 -0.3238  0.4068 -0.3212
   21MPD2    C4  324   2.133   1.444  14.639 -1.0458 -0.0015  1.0189
   21MPD2    C5  325   2.241   1.532  14.631  0.0053  0.8857  0.6532
   21MPD2     H  326   2.322   1.159  14.617 -1.0535 -0.0619  0.1853
   21MPD2    H1  327   2.034   1.489  14.633 -0.9547 -0.1341 -1.3637
   21MPD2    H2  328   2.441   1.571  14.608 -0.6007  0.2554 -0.2417
   21MPD2    H3  329   2.220   1.638  14.620  2.7917  1.4215  0.5434
   21MPD2     N  330   2.054   1.210  14.613  0.4917  0.1398  0.4239
   21MPD2    H5  331   1.963   1.248  14.591  0.2668 -0.0420  1.0473
   21MPD2    N1  332   2.523   1.311  14.585  0.0569  0.3230  0.2207
   21MPD2    H7  333   2.542   1.212  14.593  3.0316  0.9791  1.2449
   22TCq2    C1  334   2.067   1.076  14.644 -0.1963 -0.0756 -0.0995
   22TCq2    O2  335   2.159   1.018  14.701 -1.3666  0.5798  0.0044
   22TCq2    C2  336   1.941   1.000  14.628 -0.7491  0.1777  0.0131
   22TCq2    C3  337   1.958   0.865  14.619 -0.2626 -0.1878 -0.1981
   22TCq2    C4  338   1.848   0.793  14.568  0.1073 -0.8052 -0.3186
   22TCq2    C5  339   1.739   0.857  14.527 -0.4099 -0.5166 -0.2211
   22TCq2    C6  340   1.733   0.992  14.526 -0.6797  0.2214  0.1392
   22TCq2    C7  341   1.829   1.063  14.584  0.3430 -0.6223 -0.6273
   22TCq2    C8  342   1.597   1.044  14.508 -0.5524  1.2879 -0.0067
   22TCq2    O4  343   1.504   0.963  14.517  0.0336 -0.0363 -0.4386
   22TCq2    C9  344   1.864   0.648  14.550 -0.1866 -0.8172  0.0438
   22TCq2    O5  345   1.954   0.598  14.618  0.1060 -0.0342 -0.3916
   22TCq2    O6  346   1.774   0.592  14.484 -0.2184  0.1441  0.3879
   22TCq2    H2  347   2.053   0.822  14.650  0.6895  0.9283 -1.6165
   22TCq2    H3  348   1.673   0.796  14.466  1.1552  0.4218 -2.8706
   22TCq2    H4  349   1.818   1.169  14.602  0.3230 -0.5907 -0.8268
   23MPD2     C  350   4.266   2.018  14.495 -0.0612 -0.3120 -0.4372
   23MPD2    C1  351   4.260   2.075  14.620 -0.0756 -0.4565  0.0426
   23MPD2    C2  352   4.228   2.211  14.626 -0.1797 -0.1155  0.2704
   23MPD2    C3  353   4.194   2.279  14.516 -0.2785  0.4258  0.0383
   23MPD2    C4  354   4.210   2.225  14.389  0.7723 -0.0149  0.3805
   23MPD2    C5  355   4.241   2.098  14.385 -0.2835  0.3977 -0.0562
   23MPD2     H  356   4.226   2.264  14.721 -1.5404 -1.6315  1.0849
   23MPD2    H1  357   4.191   2.275  14.294  2.2697 -0.8003 -0.3351
   23MPD2    H2  358   4.289   1.913  14.482  0.2988 -0.3932  0.8962
   23MPD2    H3  359   4.239   2.056  14.285 -0.8227  1.3444 -0.4341
   23MPD2     N  360   4.141   2.413  14.522 -0.1310  0.0070  0.0775
   23MPD2    H5  361   4.122   2.449  14.429  3.7444  3.0964  0.4990
   23MPD2    N1  362   4.271   2.007  14.739 -0.1248  0.6420 -0.1507
   23MPD2    H7  363   4.264   2.059  14.826 -2.2240  0.5552 -0.2876
   24TCq2    C1  364   4.103   2.478  14.631  0.0544  0.4243 -0.7363
   24TCq2    O2  365   4.128   2.456  14.750 -0.5780  0.5781  0.2678
   24TCq2    C2  366   3.998   2.574  14.612 -0.4990  0.1581 -0.1109
   24TCq2    C3  367   3.959   2.632  14.729  0.3260 -0.2653  0.2803
   24TCq2    C4  368   3.836   2.691  14.729  0.0600 -0.5887  0.4451
   24TCq2    C5  369   3.754   2.706  14.624  0.2631  0.3818 -0.2373
   24TCq2    C6  370   3.805   2.647  14.506  0.5567 -0.2941 -0.0659
   24TCq2    C7  371   3.927   2.580  14.496  0.7878 -0.1598 -0.4606
   24TCq2    C8  372   3.711   2.628  14.398  0.1388 -0.5974 -0.0328
   24TCq2    O4  373   3.762   2.586  14.293  0.5733  0.3396 -0.5243
   24TCq2    C9  374   3.797   2.752  14.860 -0.0516  0.2890  0.1409
   24TCq2    O5  375   3.719   2.849  14.857  0.5055 -0.1587 -0.3584
   24TCq2    O6  376   3.837   2.700  14.965 -0.7963 -0.2346  0.4129
   24TCq2    H2  377   4.019   2.626  14.820 -0.5523 -0.5884  0.8361
   24TCq2    H3  378   3.655   2.748  14.640  0.3118 -0.2635  1.6551
   24TCq2    H4  379   3.949   2.514  14.413 -1.8202 -1.2616 -0.2699
   25TMC2    C1  380   2.649   4.694  11.345 -0.9388  0.1841  0.9492
   25TMC2    C2  381   2.645   0.074  11.253 -0.4189  0.1563 -0.0730
   25TMC2    C3  382   2.554   0.175  11.282 -0.7249  0.3375 -0.1975
   25TMC2    C4  383   2.580   4.695  11.463  0.1662  0.0376  0.0964
   25TMC2    C5  384   2.479   0.067  11.483  0.2777 -0.3806  0.5087
   25TMC2    C6  385   2.462   0.167  11.384  0.7170 -0.1172 -0.6285
   25TMC2     C  386   2.733   4.589  11.315 -0.0535  0.0630 -0.6774
   25TMC2     O  387   2.840   4.625  11.267 -0.0042 -0.4977  0.7917
   25TMC2     H  388   2.718   0.078  11.173 -1.4122 -1.5274 -1.0529
   25TMC2    H1  389   2.596   4.623  11.542 -3.0168  0.6279  1.2808
   25TMC2    H2  390   2.384   0.242  11.389  0.9837  0.2148 -1.3658
   25TMC2    C7  391   2.395   0.059  11.597  0.1197  0.3777 -0.1077
   25TMC2    C8  392   2.501   0.254  11.163  0.0229 -0.0393 -0.2437
   25TMC2    O1  393   2.388   4.676  11.657 -0.1488 -0.2210  0.0272
   25TMC2    O2  394   2.385   0.258  11.129 -0.4254 -0.3408  0.0897
   25TMC2    O5  395   2.606   0.283  11.080 -0.6810  0.1996 -0.2402
   25TMC2    H5  396   2.684   0.266  11.137  0.2162 -1.4446 -1.9554
   26MPD2     C  397   2.786   4.106  11.178 -0.3768  0.2717 -0.1761
   26MPD2    C1  398   2.653   4.122  11.212 -0.1038  0.4071  0.0689
   26MPD2    C2  399   2.618   4.247  11.262 -0.3018 -0.0732  0.8335
   26MPD2    C3  400   2.706   4.354  11.277  0.6795 -0.4439 -0.3365
   26MPD2    C4  401   2.841   4.331  11.259  0.2244  0.8553 -0.0314
   26MPD2    C5  402   2.879   4.205  11.203  0.5723 -0.1782  0.2826
   26MPD2     H  403   2.513   4.269  11.277 -0.0056  0.8975  1.5576
   26MPD2    H1  404   2.917   4.407  11.276  0.3356  0.2689  2.0767
   26MPD2    H2  405   2.827   4.021  11.124  2.4849  3.1646 -2.5478
   26MPD2    H3  406   2.982   4.186  11.176  0.2051  1.4326 -2.2228
   26MPD2     N  407   2.662   4.478  11.329 -0.1727 -0.4836  0.1743
   26MPD2    H5  408   2.564   4.487  11.355 -0.3473 -1.5146 -0.1147
   26MPD2    N1  409   2.555   4.036  11.156 -0.1051  0.1920 -0.4887
   26MPD2    H7  410   2.579   3.957  11.098 -1.8424  0.6256 -1.7950
   27TMC2    C1  411   1.105   2.012  11.566  0.2796  0.7989 -0.6060
   27TMC2    C2  412   1.105   2.014  11.434  0.7583 -0.2723  0.0690
   27TMC2    C3  413   1.164   2.127  11.374 -1.1395 -0.2478  0.1520
   27TMC2    C4  414   1.147   2.117  11.639 -0.3552 -0.4738  0.1637
   27TMC2    C5  415   1.186   2.232  11.573  0.1404  0.2270 -0.3367
   27TMC2    C6  416   1.186   2.237  11.440  0.3568  0.4852  0.3952
   27TMC2     C  417   1.064   1.892  11.630 -0.2009  0.3443  0.3550
   27TMC2     O  418   1.055   1.795  11.553 -0.0442 -0.0332  0.1371
   27TMC2     H  419   1.068   1.928  11.380  0.9159 -0.5267  0.3700
   27TMC2    H1  420   1.166   2.099  11.744  3.1221  1.1691 -0.1841
   27TMC2    H2  421   1.234   2.324  11.396 -1.5645  1.2849 -0.1209
   27TMC2    C7  422   1.241   2.345  11.652 -0.0971  0.6535  0.0310
   27TMC2    C8  423   1.180   2.125  11.234  0.7778 -0.1836 -0.9124
   27TMC2    O1  424   1.306   2.431  11.590  0.4352 -0.1610  0.1568
   27TMC2    O2  425   1.129   2.200  11.153  0.1407  0.1278 -0.0577
   27TMC2    O5  426   1.225   2.004  11.205  0.5762  0.0911  0.5323
   27TMC2    H5  427   1.276   1.967  11.280  0.9471  1.4437  0.9594
   28MPD2     C  428   0.911   1.628  12.041  0.1239 -0.0997  0.3010
   28MPD2    C1  429   0.908   1.759  12.076 -0.5646 -0.4859  0.1138
   28MPD2    C2  430   0.933   1.847  11.977  0.6262  0.7035  0.0858
   28MPD2    C3  431   0.972   1.805  11.851  0.3018  0.3534 -0.5021
   28MPD2    C4  432   0.971   1.676  11.819  0.1343 -0.5837  0.3584
   28MPD2    C5  433   0.937   1.588  11.912 -0.4694 -0.5978 -0.3069
   28MPD2     H  434   0.936   1.953  12.003  1.3180  0.7741 -0.2552
   28MPD2    H1  435   0.992   1.638  11.720 -0.1753  0.2874 -0.0433
   28MPD2    H2  436   0.884   1.565  12.125 -0.4375 -0.2245  0.0265
   28MPD2    H3  437   0.933   1.480  11.898 -1.4509 -0.5922 -0.0912
   28MPD2     N  438   1.022   1.905  11.762 -0.4633 -0.1513  0.5845
   28MPD2    H5  439   1.039   1.992  11.812  0.6619  0.5922 -1.0644
   28MPD2    N1  440   0.882   1.789  12.214  0.1442 -0.7067  0.1189
   28MPD2    H7  441   0.877   1.714  12.281 -2.0456 -0.4368  0.2679
   29MPD2     C  442   0.937   3.679  14.409 -0.1219 -0.1219  0.0433
   29MPD2    C1  443   1.045   3.755  14.465  0.3455 -0.1237  0.0815
   29MPD2    C2  444   1.073   3.884  14.417 -0.0512  0.2770 -0.0057
   29MPD2    C3  445   0.982   3.943  14.321 -0.5162 -0.6471  0.2117
   29MPD2    C4  446   0.879   3.863  14.270 -0.0739  0.3648  0.2689
   29MPD2    C5  447   0.863   3.733  14.316  0.3533 -0.0170  0.1850
   29MPD2     H  448   1.152   3.942  14.463 -0.2437 -1.7937  2.9003
   29MPD2    H1  449   0.807   3.905  14.201 -0.5818 -2.1066 -0.7391
   29MPD2    H2  450   0.909   3.578  14.434  0.9487 -0.3048  0.5108
   29MPD2    H3  451   0.775   3.678  14.286 -1.0944  1.9358  0.8498
   29MPD2     N  452   0.996   4.074  14.271 -0.6688 -0.5622 -0.1471
   29MPD2    H5  453   0.922   4.105  14.209 -0.9248  0.0989  0.4984
   29MPD2    N1  454   1.129   3.709  14.567 -0.6527  0.5092 -0.1334
   29MPD2    H7  455   1.215   3.758  14.588 -0.7777  0.3212  0.7783
   30TCq2    C1  456   1.112   4.145  14.273 -0.0666 -0.2233 -0.0318
   30TCq2    O2  457   1.216   4.100  14.320  0.0223  0.2833  0.5023
   30TCq2    C2  458   1.103   4.280  14.227 -0.1518 -0.3696 -0.1667
   30TCq2    C3  459   1.223   4.341  14.217 -0.2387  0.1980  0.4978
   30TCq2    C4  460   1.227   4.478  14.209  0.4354 -0.3997  0.4754
   30TCq2    C5  461   1.115   4.553  14.224  0.0173 -0.4239  0.4235
   30TCq2    C6  462   1.003   4.489  14.244  0.0305  0.2284 -0.3344
   30TCq2    C7  463   0.990   4.353  14.244  0.1114 -0.0095 -0.0281
   30TCq2    C8  464   0.877   4.560  14.281 -0.4537 -0.3092 -0.8381
   30TCq2    O4  465   0.768   4.504  14.265 -0.4533 -0.0271  0.0156
   30TCq2    C9  466   1.352   4.542  14.210 -0.2338  0.8208  0.2867
   30TCq2    O5  467   1.444   4.473  14.164  0.6616  0.1325  0.5236
   30TCq2    O6  468   1.368   4.639  14.293 -0.1482  0.4827  0.3621
   30TCq2    H2  469   1.318   4.289  14.228 -1.3290 -2.0765 -1.0485
   30TCq2    H3  470   1.118   4.661  14.215  0.3566 -0.3157  1.8279
   30TCq2    H4  471   0.897   4.301  14.261  0.9480 -1.2098  0.9507
   31MPD2     C  472   3.934   3.216  14.450  0.4793 -0.1861 -0.0533
   31MPD2    C1  473   3.808   3.243  14.417  0.0183  0.6121 -0.4531
   31MPD2    C2  474   3.704   3.170  14.482 -0.5989 -0.1809  0.1694
   31MPD2    C3  475   3.727   3.073  14.576 -0.2437 -0.5401 -0.0329
   31MPD2    C4  476   3.858   3.042  14.605 -0.6761 -0.2022 -0.4503
   31MPD2    C5  477   3.957   3.118  14.543  0.0542 -0.0405 -0.4837
   31MPD2     H  478   3.609   3.221  14.472 -0.1155  1.1044  2.1650
   31MPD2    H1  479   3.883   2.961  14.673 -1.7324  0.5064  0.7778
   31MPD2    H2  480   4.021   3.254  14.399  0.2834  0.7492  0.3110
   31MPD2    H3  481   4.058   3.097  14.576  0.6049 -0.1297 -2.2465
   31MPD2     N  482   3.621   3.022  14.659 -0.2756  0.0502 -0.4022
   31MPD2    H5  483   3.642   2.955  14.732 -1.3331  0.4993  0.3015
   31MPD2    N1  484   3.790   3.340  14.325 -0.3563  0.1853 -0.2264
   31MPD2    H7  485   3.867   3.405  14.308  1.0830 -1.3782  0.3963
   32TCq2    C1  486   3.491   3.027  14.619 -0.0786  0.7620  1.0173
   32TCq2    O2  487   3.444   3.073  14.511  0.3596  0.5295 -0.1675
   32TCq2    C2  488   3.409   2.973  14.724  0.5408  0.2386 -0.6252
   32TCq2    C3  489   3.281   2.949  14.680 -0.1881 -0.1581  0.0458
   32TCq2    C4  490   3.186   2.913  14.775  0.2527 -1.1734  0.5230
   32TCq2    C5  491   3.217   2.899  14.907 -0.2750  0.0130  0.7503
   32TCq2    C6  492   3.347   2.916  14.948 -0.0416  0.3243 -0.1208
   32TCq2    C7  493   3.447   2.946  14.853  0.5546  0.6126  0.0499
   32TCq2    C8  494   3.394   2.865  15.076 -0.5075  0.5429 -1.2565
   32TCq2    O4  495   3.516   2.860  15.073  0.1161 -0.3964 -0.0877
   32TCq2    C9  496   3.045   2.893  14.728 -0.6141  0.1990 -0.4816
   32TCq2    O5  497   2.972   2.850  14.825  0.7169  0.2045  0.2158
   32TCq2    O6  498   3.024   2.927  14.613  0.3853  0.3911  0.1399
   32TCq2    H2  499   3.254   2.966  14.577  1.3232 -0.3431 -0.3782
   32TCq2    H3  500   3.147   2.862  14.982  1.2039 -0.1482  2.0455
   32TCq2    H4  501   3.541   2.974  14.898  1.2669  0.9347 -1.6490
   33MPD2     C  502   3.654   1.215  10.273  0.7894  0.0699  0.5196
   33MPD2    C1  503   3.522   1.220  10.326  0.4957  0.0132  0.0880
   33MPD2    C2  504   3.422   1.297  10.265  0.0037 -0.6259  0.5059
   33MPD2    C3  505   3.462   1.374  10.150 -0.1867  0.4739  0.2561
   33MPD2    C4  506   3.584   1.356  10.091 -0.3569  0.5391 -0.2437
   33MPD2    C5  507   3.682   1.281  10.154 -0.8057 -0.2843 -0.5497
   33MPD2     H  508   3.325   1.308  10.311 -0.4517 -1.2793 -0.2951
   33MPD2    H1  509   3.599   1.406   9.996  3.1757  2.1352  1.1631
   33MPD2    H2  510   3.729   1.154  10.320 -0.2691 -1.7241 -0.1210
   33MPD2    H3  511   3.783   1.283  10.115  0.0116  0.4980  1.5738
   33MPD2     N  512   3.379   1.468  10.085 -0.7442  0.1291  0.0417
   33MPD2    H5  513   3.415   1.514  10.002  2.4722 -0.6459  1.0282
   33MPD2    N1  514   3.498   1.162  10.452  0.5100  0.0455  0.0744
   33MPD2    H7  515   3.567   1.091  10.475 -0.7041 -1.8419 -2.0283
   34TCq2    C1  516   3.258   1.512  10.130  1.3667  0.5745 -0.0994
   34TCq2    O2  517   3.203   1.469  10.228 -0.4482 -0.7126  0.1350
   34TCq2    C2  518   3.210   1.636  10.073  0.4839  0.5472  0.9428
   34TCq2    C3  519   3.097   1.682  10.134  0.0480 -0.3660 -0.3564
   34TCq2    C4  520   3.056   1.802  10.092 -0.1935  0.0821  0.5256
   34TCq2    C5  521   3.128   1.871   9.996 -0.6519  0.4997 -0.7627
   34TCq2    C6  522   3.229   1.816   9.935 -0.3437  0.8350  0.0791
   34TCq2    C7  523   3.288   1.700   9.973 -0.7626 -0.1217  1.1024
   34TCq2    C8  524   3.262   1.855   9.795 -0.5040 -0.1795  0.9333
   34TCq2    O4  525   3.371   1.827   9.743  0.0546 -0.5780 -0.0521
   34TCq2    C9  526   2.930   1.854  10.134  0.4207  0.1923 -0.3831
   34TCq2    O5  527   2.852   1.785  10.204 -0.0811 -0.7229 -0.1901
   34TCq2    O6  528   2.901   1.971  10.093 -0.0601 -0.0463  0.4073
   34TCq2    H2  529   3.042   1.625  10.208  0.4865 -0.7033 -0.2901
   34TCq2    H3  530   3.085   1.965   9.962 -0.4513  0.9631  0.2794
   34TCq2    H4  531   3.372   1.655   9.923 -1.3352 -0.8501  0.8016
   35MPD2     C  532   0.453   2.619  11.962  0.0408 -0.7298 -0.0694
   35MPD2    C1  533   0.431   2.484  11.973 -1.2599  0.2581  0.4139
   35MPD2    C2  534   0.372   2.413  11.868 -0.4766 -0.2353  0.1651
   35MPD2    C3  535   0.330   2.486  11.755  0.4210  0.3289 -0.2638
   35MPD2    C4  536   0.357   2.622  11.750  1.3541  0.5550 -0.0083
   35MPD2    C5  537   0.411   2.688  11.854 -0.3236  0.0298  0.0739
   35MPD2     H  538   0.354   2.307  11.882  1.6640 -0.5745  0.3710
   35MPD2    H1  539   0.325   2.684  11.667 -2.2407  1.1580  1.8116
   35MPD2    H2  540   0.501   2.682  12.036 -0.0080 -1.5036  0.6312
   35MPD2    H3  541   0.417   2.796  11.853 -0.7261  0.0578  3.1569
   35MPD2     N  542   0.263   2.422  11.653 -0.2637  0.2267 -0.9429
   35MPD2    H5  543   0.251   2.321  11.664  0.0042  0.4525  1.4358
   35MPD2    N1  544   0.471   2.423  12.100  0.1363 -0.4516 -0.2777
   35MPD2    H7  545   0.512   2.486  12.169  0.1944  1.1141 -1.7403
   36TCq2    C1  546   0.211   2.475  11.540 -0.3733 -0.9535  0.3788
   36TCq2    O2  547   0.229   2.586  11.493 -0.9144 -0.3946  0.5681
   36TCq2    C2  548   0.120   2.395  11.463 -0.1522 -0.1896  0.0877
   36TCq2    C3  549   0.043   2.462  11.371  0.0156  0.5566  0.0412
   36TCq2    C4  550   4.673   2.393  11.297 -0.2132 -0.2057  0.6354
   36TCq2    C5  551   4.653   2.258  11.319 -0.1260  0.8195 -0.2844
   36TCq2    C6  552   0.010   2.195  11.408  0.1780 -1.3440  0.0196
   36TCq2    C7  553   0.100   2.260  11.489 -0.2550  0.3130 -0.5813
   36TCq2    C8  554   4.710   2.053  11.414  0.0851 -0.4430 -0.0222
   36TCq2    O4  555   4.601   2.018  11.368 -0.9328  0.2778  0.1664
   36TCq2    C9  556   4.599   2.460  11.186 -0.0942 -0.0582 -0.0097
   36TCq2    O5  557   4.497   2.398  11.149 -0.4259 -0.2427  0.0948
   36TCq2    O6  558   4.636   2.572  11.152  0.2264 -0.1884  0.1194
   36TCq2    H2  559   0.059   2.566  11.346 -0.2936  0.9816  1.5777
   36TCq2    H3  560   4.579   2.206  11.258  1.8275 -0.0771 -1.8993
   36TCq2    H4  561   0.146   2.205  11.571 -0.0366  1.4810  0.0746
   37TMC2    C1  562   2.419   2.744  11.531  0.6606  0.0070  0.6308
   37TMC2    C2  563   2.370   2.757  11.405 -0.4256 -0.0267 -0.0058
   37TMC2    C3  564   2.465   2.744  11.304  0.0304 -0.2740 -0.5714
   37TMC2    C4  565   2.553   2.719  11.552  0.6573  0.1882 -0.6305
   37TMC2    C5  566   2.646   2.700  11.451  0.2631  0.5878  0.1387
   37TMC2    C6  567   2.598   2.708  11.326 -0.0154 -0.1520 -0.9704
   37TMC2     C  568   2.316   2.716  11.639  0.7693  0.3698  0.2884
   37TMC2     O  569   2.196   2.736  11.615  0.6016  0.0483 -0.3291
   37TMC2     H  570   2.267   2.789  11.395  0.1937  1.8129 -0.4847
   37TMC2    H1  571   2.590   2.722  11.654  0.7260  1.6512 -0.7020
   37TMC2    H2  572   2.654   2.685  11.236  0.1338 -1.6872 -0.4902
   37TMC2    C7  573   2.764   2.638  11.497  0.1051 -0.1687 -0.0530
   37TMC2    C8  574   2.427   2.792  11.176  0.7660  0.1543  0.1648
   37TMC2    O1  575   2.805   2.665  11.611 -0.6088  0.7318 -0.6584
   37TMC2    O2  576   2.509   2.835  11.094 -0.0168 -0.1646  0.6310
   37TMC2    O5  577   2.295   2.781  11.159 -0.2998 -0.5629 -0.4188
   37TMC2    H5  578   2.251   2.723  11.224 -1.6198  1.3835  0.4177
   38MPD2     C  579   2.205   2.563  12.109 -0.1170 -0.4078  0.2107
   38MPD2    C1  580   2.343   2.547  12.095  0.0562  0.5939 -0.1562
   38MPD2    C2  581   2.392   2.578  11.971 -0.0600 -0.6104  0.8786
   38MPD2    C3  582   2.316   2.628  11.867  0.2957  0.4060  0.3224
   38MPD2    C4  583   2.187   2.647  11.887  0.2486  0.0649  0.1598
   38MPD2    C5  584   2.130   2.622  12.010 -0.0393  0.2684  0.1978
   38MPD2     H  585   2.498   2.569  11.950  0.3767 -1.6224  3.5639
   38MPD2    H1  586   2.124   2.695  11.813  0.3076 -0.1504 -0.0318
   38MPD2    H2  587   2.157   2.539  12.203 -0.8429  2.1301  0.4611
   38MPD2    H3  588   2.026   2.647  12.030 -1.2415 -3.6502 -1.1916
   38MPD2     N  589   2.381   2.661  11.747 -0.4879  0.0590 -0.7236
   38MPD2    H5  590   2.478   2.635  11.741  0.4592  3.0596  1.2545
   38MPD2    N1  591   2.436   2.510  12.193 -0.4346 -0.4357  0.3768
   38MPD2    H7  592   2.531   2.492  12.162  0.3263  2.9275  0.7452
   39MPD2     C  593   1.061   3.361   1.474  0.0798 -0.4425 -0.4881
   39MPD2    C1  594   1.034   3.474   1.548 -0.1316  0.4013 -0.0589
   39MPD2    C2  595   0.922   3.549   1.529 -0.2956 -0.3217  0.1869
   39MPD2    C3  596   0.825   3.510   1.431 -0.2868 -0.4164 -0.4824
   39MPD2    C4  597   0.856   3.407   1.350 -0.3300  0.9161 -0.2683
   39MPD2    C5  598   0.974   3.335   1.375  0.6954  0.9177 -0.6614
   39MPD2     H  599   0.910   3.636   1.592 -1.1446  0.5659 -1.2122
   39MPD2    H1  600   0.791   3.377   1.269 -0.4175  1.8280 -0.5327
   39MPD2    H2  601   1.157   3.313   1.482 -0.2040 -0.8732  0.3105
   39MPD2    H3  602   0.993   3.257   1.302  2.8104  0.0016  0.8517
   39MPD2     N  603   0.702   3.580   1.419  0.2587  0.0254  0.3537
   39MPD2    H5  604   0.643   3.557   1.341 -1.6447  2.4684  1.0621
   39MPD2    N1  605   1.135   3.509   1.642 -0.5918 -0.1081  0.2137
   39MPD2    H7  606   1.223   3.458   1.639  0.1166  1.1535 -0.6003
   40TCq2    C1  607   1.113   3.589   1.751  0.1465 -0.3672  0.9993
   40TCq2    O2  608   1.010   3.621   1.802 -0.1743 -0.0336 -0.4836
   40TCq2    C2  609   1.237   3.621   1.835 -0.1642  0.1107 -0.0052
   40TCq2    C3  610   1.238   3.647   1.968  0.1181  0.1621  0.4732
   40TCq2    C4  611   1.354   3.687   2.030 -0.0141 -0.5036  0.2802
   40TCq2    C5  612   1.468   3.719   1.962  0.6119  0.2709 -0.4670
   40TCq2    C6  613   1.469   3.696   1.832  0.0112 -0.1237  0.4052
   40TCq2    C7  614   1.355   3.655   1.765  0.4865 -0.3773  0.3823
   40TCq2    C8  615   1.582   3.728   1.749  0.0792 -0.0549  0.0549
   40TCq2    O4  616   1.695   3.726   1.795  0.1032  0.4137  0.9612
   40TCq2    C9  617   1.349   3.702   2.174 -0.3045 -0.1803 -0.2791
   40TCq2    O5  618   1.451   3.748   2.231 -0.3362 -0.3411 -0.1614
   40TCq2    O6  619   1.242   3.677   2.236  0.5097 -0.0947  0.4171
   40TCq2    H2  620   1.147   3.627   2.022  0.3068 -0.1877  0.6663
   40TCq2    H3  621   1.558   3.750   2.013  0.5631 -1.3722  0.6258
   40TCq2    H4  622   1.357   3.649   1.657 -0.1870  2.4297  0.2159
   41TMC2    C1  623   4.038   2.380  13.750  0.1002  0.3368 -0.3070
   41TMC2    C2  624   3.907   2.410  13.768 -0.3404 -0.3086 -0.7892
   41TMC2    C3  625   3.877   2.540  13.803  0.4179  0.5548 -0.3558
   41TMC2    C4  626   4.139   2.473  13.741 -0.0478  0.1906 -0.4113
   41TMC2    C5  627   4.104   2.600  13.763 -0.8886  0.2154  0.4192
   41TMC2    C6  628   3.978   2.639  13.796  0.2993  0.1381 -0.5099
   41TMC2     C  629   4.093   2.250  13.759 -0.8143 -0.1898  0.5758
   41TMC2     O  630   4.077   2.175  13.669 -0.0845 -0.6446 -0.5622
   41TMC2     H  631   3.832   2.332  13.773  0.7259 -1.3472 -0.9646
   41TMC2    H1  632   4.244   2.447  13.738  0.0936  0.5037  1.6744
   41TMC2    H2  633   3.957   2.744  13.810 -2.3986 -0.6498  1.4360
   41TMC2    C7  634   4.197   2.704  13.730 -0.2282 -0.0401  0.2135
   41TMC2    C8  635   3.738   2.580  13.791 -0.7456 -0.4990 -0.9199
   41TMC2    O1  636   4.190   2.807  13.792 -0.7263  0.5706  0.0602
   41TMC2    O2  637   3.657   2.527  13.710 -0.5423 -0.6800 -0.2305
   41TMC2    O5  638   3.727   2.708  13.832 -0.3518  0.3021 -0.2068
   41TMC2    H5  639   3.778   2.719  13.916  1.7017 -0.4159 -1.3633
   42MPD2     C  640   4.232   1.999  13.832 -0.2969  0.6133  0.0262
   42MPD2    C1  641   4.247   2.119  13.896 -0.1075 -0.2498 -0.1738
   42MPD2    C2  642   4.342   2.125  13.999  0.5195  0.7019 -0.0697
   42MPD2    C3  643   4.412   2.010  14.040  0.0138  0.4205  0.3924
   42MPD2    C4  644   4.382   1.890  13.982  0.2251 -0.7394 -0.5083
   42MPD2    C5  645   4.300   1.887  13.870 -0.0213 -0.5436  0.7059
   42MPD2     H  646   4.350   2.218  14.055  0.9555 -0.1801  1.3229
   42MPD2    H1  647   4.423   1.796  14.018  2.2793  0.3245 -0.0425
   42MPD2    H2  648   4.170   1.987  13.744  2.4474  0.3031 -1.8603
   42MPD2    H3  649   4.271   1.796  13.820  0.0606 -0.2545  0.1353
   42MPD2     N  650   4.495   2.017  14.154 -0.2770 -0.4573 -0.5282
   42MPD2    H5  651   4.544   1.929  14.170 -0.2830 -0.7951 -2.2687
   42MPD2    N1  652   4.182   2.240  13.860  0.1979  0.1265 -0.3257
   42MPD2    H7  653   4.187   2.314  13.931  1.4190 -0.1077 -0.1713
   43MPD2     C  654   0.801   0.234   0.826  0.4347 -0.3614  0.0796
   43MPD2    C1  655   0.917   0.168   0.872  0.0730  0.1166  0.1242
   43MPD2    C2  656   0.941   0.160   1.007 -0.3398 -0.4836 -0.3182
   43MPD2    C3  657   0.856   0.229   1.092 -0.4936 -0.0886 -0.4860
   43MPD2    C4  658   0.750   0.298   1.046  0.1068 -0.3889 -0.5764
   43MPD2    C5  659   0.716   0.303   0.910  0.2293  0.5516  0.4322
   43MPD2     H  660   1.026   0.104   1.045 -0.9828 -0.5706  0.9908
   43MPD2    H1  661   0.678   0.339   1.117 -0.0941 -0.2097 -0.8844
   43MPD2    H2  662   0.787   0.248   0.719  0.8325 -1.2135 -0.0807
   43MPD2    H3  663   0.633   0.363   0.873 -1.3307 -1.2909  0.9258
   43MPD2     N  664   0.886   0.234   1.232  0.1790  0.1915 -0.0577
   43MPD2    H5  665   0.819   0.277   1.295  1.6022  0.7814  1.0529
   43MPD2    N1  666   1.009   0.091   0.791  0.3051 -0.4581  0.1174
   43MPD2    H7  667   1.088   0.042   0.831 -0.1849 -1.2071  0.1819
   44TCq2    C1  668   1.219   0.094   1.718  0.1357 -0.1432 -0.4581
   44TCq2    O2  669   1.260   4.710   1.677 -0.8002  0.5188  0.6960
   44TCq2    C2  670   1.130   0.177   1.629  0.0190 -0.1220 -0.6223
   44TCq2    C3  671   1.101   0.307   1.666 -0.2313  0.4687  0.2064
   44TCq2    C4  672   1.030   0.382   1.575 -1.0833 -0.0829 -0.6734
   44TCq2    C5  673   0.977   0.329   1.463 -0.2343  0.0188 -0.5777
   44TCq2    C6  674   1.008   0.205   1.430 -0.0508 -0.1264 -0.1544
   44TCq2    C7  675   1.096   0.137   1.501  0.0311  0.2012 -0.4336
   44TCq2    C8  676   0.982   0.159   1.295 -0.7855 -0.3154  0.0847
   44TCq2    O4  677   1.051   0.066   1.254 -0.0615  0.4830  0.3735
   44TCq2    C9  678   1.005   0.521   1.614  0.2112  0.0781 -1.2329
   44TCq2    O5  679   1.059   0.558   1.721  0.4402 -0.2960  0.0369
   44TCq2    O6  680   0.931   0.593   1.543 -0.2982  0.6942  0.7351
   44TCq2    H2  681   1.130   0.352   1.760 -0.0812 -2.0390  1.3810
   44TCq2    H3  682   0.919   0.398   1.403 -1.6427  0.2096  1.0191
   44TCq2    H4  683   1.117   0.034   1.476 -1.2089  0.0318 -0.7661
   45TMC2    C1  684   1.760   2.696   8.996 -0.3589  0.3406 -0.4591
   45TMC2    C2  685   1.860   2.632   8.937 -0.3933  0.3517 -0.3550
   45TMC2    C3  686   1.988   2.646   8.985 -0.2543 -0.2929 -0.4231
   45TMC2    C4  687   1.784   2.759   9.115 -0.4537  0.0818  0.1111
   45TMC2    C5  688   1.911   2.771   9.156  0.0108 -0.0078  0.2615
   45TMC2    C6  689   2.016   2.707   9.098  0.4807 -0.1048 -0.9318
   45TMC2     C  690   1.630   2.637   8.970 -0.6887  0.2079 -0.0723
   45TMC2     O  691   1.630   2.533   8.906 -0.0746  0.2747  0.1396
   45TMC2     H  692   1.848   2.581   8.843  0.5602 -0.5459  0.0189
   45TMC2    H1  693   1.704   2.812   9.167  0.0140 -1.3202  2.2521
   45TMC2    H2  694   2.115   2.697   9.140  0.7514  1.4850 -1.2249
   45TMC2    C7  695   1.943   2.839   9.286 -0.4683 -0.0786  0.1212
   45TMC2    C8  696   2.097   2.617   8.905 -0.6036 -0.9193  0.2721
   45TMC2    O1  697   1.848   2.843   9.362  0.2860  0.1230 -0.2041
   45TMC2    O2  698   2.206   2.670   8.916 -0.1122  0.3633  0.0670
   45TMC2    O5  699   2.090   2.488   8.863  0.1374 -0.5131  0.4728
   45TMC2    H5  700   2.011   2.431   8.874  0.5010 -1.1175 -0.0789
   46MPD2     C  701   1.335   2.550   8.950  0.5116 -0.2429  0.9503
   46MPD2    C1  702   1.373   2.673   8.991 -0.3632 -0.4231  0.3575
   46MPD2    C2  703   1.280   2.766   9.000  0.8309  0.3594  0.4538
   46MPD2    C3  704   1.146   2.739   8.978  0.4111  0.4179 -0.0011
   46MPD2    C4  705   1.108   2.608   8.946  0.0479  0.1566  0.5698
   46MPD2    C5  706   1.207   2.517   8.925 -0.5265  0.4147  0.3349
   46MPD2     H  707   1.310   2.864   9.035 -0.5911  0.8997  0.1799
   46MPD2    H1  708   1.008   2.574   8.924 -0.1773 -0.5728  2.6599
   46MPD2    H2  709   1.409   2.472   8.939 -0.3885 -1.0917  0.9240
   46MPD2    H3  710   1.189   2.416   8.891  0.7403  0.0164  0.8532
   46MPD2     N  711   1.057   2.847   8.992  0.1551  0.0083 -0.3491
   46MPD2    H5  712   1.086   2.941   9.016 -1.4383  0.0387  1.4928
   46MPD2    N1  713   1.516   2.712   9.009 -0.3298 -0.1135 -0.0143
   46MPD2    H7  714   1.526   2.806   9.046 -1.1592 -0.5522  1.3531
   47TMC2    C1  715   2.288   3.138   8.977  0.3669 -0.1063 -0.2795
   47TMC2    C2  716   2.343   3.072   8.866  0.0763 -0.3010  0.4051
   47TMC2    C3  717   2.242   3.015   8.790  0.4145  0.1676  0.0943
   47TMC2    C4  718   2.154   3.147   9.005  0.0389  0.5314  0.0476
   47TMC2    C5  719   2.064   3.087   8.926 -0.1053 -0.5989 -0.0839
   47TMC2    C6  720   2.107   3.013   8.816  1.4292  0.3005 -0.4088
   47TMC2     C  721   2.373   3.185   9.082  0.6996  0.4323  0.1963
   47TMC2     O  722   2.326   3.229   9.187 -0.2582  0.3589  0.5196
   47TMC2     H  723   2.445   3.059   8.833 -0.7491  0.5761 -2.4413
   47TMC2    H1  724   2.115   3.217   9.079 -0.7906 -1.5456  1.5732
   47TMC2    H2  725   2.044   2.954   8.750  0.0328 -1.3156  2.3393
   47TMC2    C7  726   1.930   3.066   8.984 -0.4004  0.1279 -0.2829
   47TMC2    C8  727   2.288   2.938   8.672 -0.8344 -0.0744 -0.4606
   47TMC2    O1  728   1.908   3.100   9.102 -0.3570  0.1585 -0.2916
   47TMC2    O2  729   2.228   2.837   8.645  0.2760 -0.2335 -0.6117
   47TMC2    O5  730   2.366   3.017   8.597 -0.3174 -0.0858  0.5883
   47TMC2    H5  731   2.386   3.110   8.624  0.2266  0.1224 -0.5250
   48MPD2     C  732   2.594   3.246   9.260  0.8616  0.5575  0.2615
   48MPD2    C1  733   2.611   3.187   9.137 -0.3543  0.0573 -0.4288
   48MPD2    C2  734   2.742   3.154   9.095 -0.5248 -0.2528 -0.0775
   48MPD2    C3  735   2.855   3.185   9.170 -0.1191 -0.2733  0.4712
   48MPD2    C4  736   2.830   3.238   9.293  0.1055  0.0836 -0.5062
   48MPD2    C5  737   2.704   3.259   9.341  1.0958  0.1948 -0.1439
   48MPD2     H  738   2.757   3.098   9.003  1.1953 -0.3363  0.2416
   48MPD2    H1  739   2.916   3.263   9.354 -0.2375 -1.8328  0.7469
   48MPD2    H2  740   2.500   3.277   9.305 -1.0453 -1.3578 -2.4469
   48MPD2    H3  741   2.677   3.303   9.436  1.0105 -0.7335  0.2579
   48MPD2     N  742   2.984   3.161   9.123  0.3476 -0.4724  0.0192
   48MPD2    H5  743   2.989   3.109   9.036 -0.5403  0.3521 -0.5291
   48MPD2    N1  744   2.504   3.164   9.053 -0.2475  0.1784 -0.0287
   48MPD2    H7  745   2.524   3.121   8.963  2.1111  0.4771  0.3524
   49MPD2     C  746   2.130   0.015  10.032 -0.8686 -0.2729 -0.0444
   49MPD2    C1  747   2.073   0.138  10.009 -0.3025 -0.2259  0.5625
   49MPD2    C2  748   2.054   0.219  10.116  0.5763 -0.3578 -0.4061
   49MPD2    C3  749   2.087   0.180  10.243  0.3543 -0.0363 -0.2927
   49MPD2    C4  750   2.128   0.052  10.269 -0.0976 -0.5900  0.7610
   49MPD2    C5  751   2.154   4.698  10.156 -0.9145 -0.2040  0.1634
   49MPD2     H  752   2.005   0.314  10.096 -1.3392 -1.6545 -1.8433
   49MPD2    H1  753   2.164   0.021  10.366  3.2906  2.6323  0.5706
   49MPD2    H2  754   2.148   4.664   9.954  0.8025  0.5900 -0.4554
   49MPD2    H3  755   2.206   4.602  10.160 -1.1615 -0.3203  0.6026
   49MPD2     N  756   2.080   0.261  10.360  0.6037  0.6181  0.0582
   49MPD2    H5  757   2.102   0.213  10.446  1.2496  1.4418  0.3519
   49MPD2    N1  758   2.025   0.177   9.885  0.5793  0.3607  0.5356
   49MPD2    H7  759   1.983   0.269   9.882 -0.7753 -0.3329 -1.4368
   50TCq2    C1  760   2.021   0.109   9.763  0.2003  0.7713 -0.5600
   50TCq2    O2  761   2.046   4.716   9.732  0.7857  0.1772 -0.3077
   50TCq2    C2  762   1.969   0.196   9.662 -0.5853 -0.3056 -0.8688
   50TCq2    C3  763   1.881   0.135   9.566  0.2204 -0.0206  0.1957
   50TCq2    C4  764   1.825   0.215   9.469 -0.2818  0.5597  0.0644
   50TCq2    C5  765   1.860   0.347   9.456  0.6425  1.1597  0.5470
   50TCq2    C6  766   1.943   0.397   9.556 -0.1906 -0.0549 -0.4271
   50TCq2    C7  767   2.008   0.326   9.655  0.6938 -0.8041  0.0429
   50TCq2    C8  768   1.990   0.530   9.548 -0.3780 -0.4859 -0.0581
   50TCq2    O4  769   2.032   0.586   9.648 -0.1530 -0.0080 -0.3468
   50TCq2    C9  770   1.753   0.150   9.363  0.4274  0.4164 -0.1585
   50TCq2    O5  771   1.718   0.225   9.269 -0.2909 -0.4411 -0.3753
   50TCq2    O6  772   1.752   0.023   9.361 -0.2454  0.0440  0.3303
   50TCq2    H2  773   1.859   0.029   9.572  1.9380 -0.3664  0.1930
   50TCq2    H3  774   1.811   0.409   9.381 -0.6556  0.8121  1.1223
   50TCq2    H4  775   2.082   0.369   9.721 -1.9104  1.2804  1.5839
   51MPD2     C  776   3.533   2.328   1.475 -0.4332  0.2348 -0.5277
   51MPD2    C1  777   3.595   2.444   1.435  0.1193 -0.0352  0.1606
   51MPD2    C2  778   3.655   2.514   1.536 -0.1099  0.0218 -0.3440
   51MPD2    C3  779   3.660   2.471   1.670  0.6591  0.8686  0.5360
   51MPD2    C4  780   3.610   2.352   1.699 -0.7173  0.5118  0.2593
   51MPD2    C5  781   3.544   2.284   1.602  0.7368  0.1804 -0.2074
   51MPD2     H  782   3.702   2.608   1.512 -1.0261  1.0410  1.7804
   51MPD2    H1  783   3.607   2.327   1.805 -1.3610  2.3099  0.6731
   51MPD2    H2  784   3.476   2.266   1.407 -1.6848  1.1738 -0.3515
   51MPD2    H3  785   3.500   2.191   1.633  0.6947 -0.1162 -1.1591
   51MPD2     N  786   3.702   2.557   1.773 -0.3219 -0.5720 -0.1145
   51MPD2    H5  787   3.693   2.529   1.871  0.2805 -1.9040 -0.4326
   51MPD2    N1  788   3.600   2.483   1.298  0.0131 -0.2108  0.3202
   51MPD2    H7  789   3.644   2.572   1.279  2.0123 -1.1467  0.6008
   52TCq2    C1  790   3.756   2.686   1.764  0.1723  0.3124  0.1000
   52TCq2    O2  791   3.744   2.763   1.670 -0.3430  0.4726 -0.3575
   52TCq2    C2  792   3.792   2.748   1.892 -0.4332 -0.2400  0.9165
   52TCq2    C3  793   3.829   2.662   1.991  0.1382  0.3961 -0.3631
   52TCq2    C4  794   3.880   2.719   2.102 -0.3034 -0.8763 -0.0295
   52TCq2    C5  795   3.893   2.852   2.117  0.7724 -0.2333 -0.5134
   52TCq2    C6  796   3.858   2.935   2.018  0.2241 -0.2959  0.0543
   52TCq2    C7  797   3.799   2.884   1.903 -0.7548  0.1576 -0.4185
   52TCq2    C8  798   3.863   3.076   2.044 -0.1750 -0.3262 -0.1249
   52TCq2    O4  799   3.865   3.151   1.948  0.1848  0.2719 -0.5286
   52TCq2    C9  800   3.928   2.627   2.203 -0.0348  0.1033  0.9865
   52TCq2    O5  801   3.957   2.682   2.313 -0.2802  0.5415 -0.1087
   52TCq2    O6  802   3.910   2.503   2.188  0.5352 -0.7218  0.1106
   52TCq2    H2  803   3.831   2.554   1.987  3.4281  0.4613  0.0420
   52TCq2    H3  804   3.942   2.886   2.207 -0.8636  0.1906  0.2120
   52TCq2    H4  805   3.783   2.947   1.816  2.4929  2.9044  0.9633
   53TMC2    C1  806   3.361   2.397  11.849 -0.7714  0.4870 -0.0381
   53TMC2    C2  807   3.437   2.307  11.917  0.2883  0.5646  0.4542
   53TMC2    C3  808   3.434   2.316  12.054  0.1635  0.2535  0.2424
   53TMC2    C4  809   3.289   2.495  11.909  0.5404 -0.5624  0.8555
   53TMC2    C5  810   3.299   2.504  12.042  0.6068  0.4829  0.5550
   53TMC2    C6  811   3.371   2.419  12.119  0.2495 -0.6630  0.2604
   53TMC2     C  812   3.308   2.345  11.724 -0.3025 -0.4961  0.2163
   53TMC2     O  813   3.352   2.242  11.677 -0.0260  0.6707  0.3098
   53TMC2     H  814   3.472   2.219  11.865  0.9369  1.3154 -0.3649
   53TMC2    H1  815   3.222   2.560  11.854 -1.1413 -2.0248  1.1769
   53TMC2    H2  816   3.373   2.413  12.227  1.2706 -0.9576  0.2172
   53TMC2    C7  817   3.206   2.595  12.102  0.0739 -0.3773 -0.7815
   53TMC2    C8  818   3.526   2.239  12.134  0.5635  0.1871  0.0736
   53TMC2    O1  819   3.140   2.658  12.022 -0.1349  0.1142 -0.2905
   53TMC2    O2  820   3.573   2.290  12.234  0.2847 -0.1757 -0.1613
   53TMC2    O5  821   3.569   2.137  12.054  0.4860 -0.4510 -0.3617
   53TMC2    H5  822   3.496   2.110  11.994  1.2616 -1.5082 -0.8337
   54MPD2     C  823   3.146   2.291  11.461 -0.0070  0.0822  1.0312
   54MPD2    C1  824   3.123   2.396  11.558 -0.0611  0.4804 -0.0230
   54MPD2    C2  825   3.020   2.485  11.522  0.0358  0.8198 -0.0542
   54MPD2    C3  826   2.935   2.470  11.419 -0.8887  0.0019 -0.7271
   54MPD2    C4  827   2.963   2.374  11.327 -0.3956  0.4121  0.5173
   54MPD2    C5  828   3.068   2.288  11.347 -0.1475  0.3099  0.2907
   54MPD2     H  829   3.007   2.574  11.583 -1.2045 -0.4934  1.6047
   54MPD2    H1  830   2.908   2.352  11.236 -1.1344 -0.2107  1.1097
   54MPD2    H2  831   3.227   2.221  11.476  0.5226  1.0870  2.8146
   54MPD2    H3  832   3.092   2.219  11.267  0.4964  0.5653  0.2688
   54MPD2     N  833   2.815   2.548  11.405 -0.0861 -0.5600  0.7301
   54MPD2    H5  834   2.754   2.524  11.328 -0.9141 -2.1186  1.8912
   54MPD2    N1  835   3.198   2.416  11.675  0.3320  0.8382  0.0753
   54MPD2    H7  836   3.167   2.497  11.727 -1.0188  0.7939 -0.6845
   55MPD2     C  837   4.070   0.270   0.071 -0.2179 -0.2862 -0.4167
   55MPD2    C1  838   3.979   0.181   0.125  1.0925  0.3428  0.2447
   55MPD2    C2  839   3.856   0.225   0.167  0.3151 -0.4335 -0.5064
   55MPD2    C3  840   3.811   0.347   0.152  0.1986  0.6416 -0.6957
   55MPD2    C4  841   3.906   0.441   0.107  0.3689  0.4753 -0.7866
   55MPD2    C5  842   4.033   0.398   0.069  0.0217  0.5316 -0.3397
   55MPD2     H  843   3.792   0.151   0.215  0.8778  0.3287  1.4140
   55MPD2    H1  844   3.881   0.546   0.113 -0.4771  0.2264  0.0978
   55MPD2    H2  845   4.164   0.228   0.036  0.3388 -0.4344  1.2460
   55MPD2    H3  846   4.105   0.471   0.034 -0.3156  1.6440  1.2897
   55MPD2     N  847   3.687   0.382   0.199 -0.7900 -0.3973  0.2512
   55MPD2    H5  848   3.633   0.300   0.224 -0.0171 -0.5200  1.5314
   55MPD2    N1  849   4.012   0.042   0.136  0.3869 -0.0097  0.2416
   55MPD2    H7  850   4.105   0.012   0.111  0.4439 -0.0013  0.4486
   56TCq2    C1  851   3.937   4.664   0.197 -0.1208 -0.0719 -0.1018
   56TCq2    O2  852   3.816   4.655   0.225 -0.6316 -0.1865  0.1156
   56TCq2    C2  853   4.006   4.539   0.188 -0.1575 -0.5057  0.5186
   56TCq2    C3  854   4.091   4.519   0.081 -0.3165  0.1141 -0.2239
   56TCq2    C4  855   4.148   4.395   0.080 -0.6747  0.4864 -0.3577
   56TCq2    C5  856   4.121   4.293   0.171 -0.2896 -0.8612 -0.0490
   56TCq2    C6  857   4.022   4.315   0.257  0.1474  0.5714  0.1778
   56TCq2    C7  858   3.957   4.435   0.258  0.9620  0.2350  0.6584
   56TCq2    C8  859   3.969   4.197   0.325 -0.2053  0.4494  0.1017
   56TCq2    O4  860   4.054   4.107   0.342 -0.0420  0.5992 -0.0647
   56TCq2    C9  861   4.223   4.353  17.652  0.0051 -0.7116  0.1804
   56TCq2    O5  862   4.260   4.228  17.649  0.0231 -0.1891 -0.3985
   56TCq2    O6  863   4.193   4.420  17.549  0.3727  0.7316  0.0133
   56TCq2    H2  864   4.108   4.583  17.686  0.1454  0.0308 -0.1971
   56TCq2    H3  865   4.160   4.193   0.155  0.5174 -0.3417 -1.3639
   56TCq2    H4  866   3.888   4.456   0.339 -1.8273 -0.1969 -1.6443
   57TMC2    C1  867   2.982   1.132  13.817 -0.0316 -0.7814 -0.5166
   57TMC2    C2  868   3.068   1.048  13.881 -0.0115  0.4666  0.2567
   57TMC2    C3  869   3.137   0.960  13.798  0.3284  0.0396 -0.2153
   57TMC2    C4  870   2.964   1.134  13.679 -0.3594 -0.6001 -0.1896
   57TMC2    C5  871   3.032   1.036  13.604 -0.7854  0.3971  0.4054
   57TMC2    C6  872   3.122   0.953  13.660  0.0359  0.4824  0.6421
   57TMC2     C  873   2.867   1.186  13.889  0.5154 -0.3619  0.5143
   57TMC2     O  874   2.810   1.286  13.853  0.6414  0.3273 -0.0732
   57TMC2     H  875   3.064   1.044  13.989  0.6806  1.9419  0.3340
   57TMC2    H1  876   2.890   1.199  13.633 -0.9287 -1.3041 -0.2625
   57TMC2    H2  877   3.177   0.875  13.608  0.5186  1.6671 -0.5984
   57TMC2    C7  878   2.964   1.005  13.480 -0.3791 -0.1309  0.1568
   57TMC2    C8  879   3.240   0.870  13.842 -0.3025 -0.1372  0.1092
   57TMC2    O1  880   2.875   1.077  13.447  0.3566 -0.3113 -0.2909
   57TMC2    O2  881   3.277   0.770  13.784  0.0565 -0.4394 -0.5414
   57TMC2    O5  882   3.281   0.895  13.965 -0.1622 -0.1606 -0.3989
   57TMC2    H5  883   3.254   0.980  14.007  1.4531  0.4977 -0.6545
   58MPD2     C  884   2.470   1.077  14.201 -0.1228  0.5423 -0.2339
   58MPD2    C1  885   2.518   1.199  14.152 -0.5169 -0.0534  0.0293
   58MPD2    C2  886   2.633   1.204  14.077 -0.4280  0.4104  0.4461
   58MPD2    C3  887   2.698   1.089  14.045 -0.0701 -0.3014  0.1462
   58MPD2    C4  888   2.651   0.970  14.091  0.3598  0.7607 -0.2859
   58MPD2    C5  889   2.531   0.965  14.162 -0.0198  0.7418 -0.0426
   58MPD2     H  890   2.681   1.297  14.046 -0.2027  0.6402  1.4882
   58MPD2    H1  891   2.703   0.879  14.062 -3.1409 -1.5242  0.6008
   58MPD2    H2  892   2.376   1.064  14.253  0.2214 -2.3210 -0.3146
   58MPD2    H3  893   2.497   0.870  14.203  0.1782 -0.6769 -3.1190
   58MPD2     N  894   2.818   1.086  13.967 -0.2587 -0.0438  0.3547
   58MPD2    H5  895   2.873   1.002  13.980 -1.7386 -1.3425 -1.8619
   58MPD2    N1  896   2.462   1.321  14.196 -0.2296  0.0175  0.1834
   58MPD2    H7  897   2.511   1.405  14.168  0.6167 -0.3646  0.5353
   59MPD2     C  898   0.646   1.227  12.983 -0.2280 -0.1818  0.3199
   59MPD2    C1  899   0.738   1.260  12.883  0.1353  1.4318 -0.1263
   59MPD2    C2  900   0.848   1.337  12.918 -0.1243 -0.5916  0.4931
   59MPD2    C3  901   0.870   1.377  13.050 -0.5347 -0.1823  0.2299
   59MPD2    C4  902   0.777   1.336  13.145 -0.4623 -0.5094  0.5215
   59MPD2    C5  903   0.674   1.261  13.110  0.0004 -0.1602  0.6102
   59MPD2     H  904   0.923   1.358  12.843 -1.2935 -0.5920 -0.6792
   59MPD2    H1  905   0.793   1.363  13.249 -2.5192  2.1505  0.1634
   59MPD2    H2  906   0.556   1.175  12.954 -1.2998  1.3578  0.8879
   59MPD2    H3  907   0.612   1.226  13.192  1.3020 -2.9705  0.3794
   59MPD2     N  908   0.978   1.461  13.073 -0.0287 -0.4072  0.0031
   59MPD2    H5  909   1.031   1.496  12.994 -0.7234 -1.1574 -0.7775
   59MPD2    N1  910   0.724   1.224  12.750 -0.2705 -0.2650 -0.0116
   59MPD2    H7  911   0.794   1.262  12.688  0.3549  1.4166  1.7074
   60TCq2    C1  912   0.623   1.151  12.702  0.1565 -0.1151 -0.3647
   60TCq2    O2  913   0.528   1.110  12.758 -0.0411  0.4220 -0.7071
   60TCq2    C2  914   0.633   1.127  12.557  1.4226 -0.5651 -0.4596
   60TCq2    C3  915   0.574   1.012  12.521  0.0111 -0.0210  0.2816
   60TCq2    C4  916   0.523   1.008  12.397  0.0279  0.6819  0.8413
   60TCq2    C5  917   0.543   1.109  12.310 -0.3792 -0.1969  0.0094
   60TCq2    C6  918   0.609   1.220  12.349  0.3313 -0.2042  0.6582
   60TCq2    C7  919   0.662   1.229  12.479  0.6395 -0.1344 -0.1662
   60TCq2    C8  920   0.630   1.323  12.247 -0.2537  0.0922 -0.2224
   60TCq2    O4  921   0.639   1.272  12.138  0.3089 -0.3858 -0.0291
   60TCq2    C9  922   0.442   0.895  12.358  0.4131 -0.2563 -0.1084
   60TCq2    O5  923   0.355   0.918  12.278 -0.1925  0.5116  0.0963
   60TCq2    O6  924   0.462   0.788  12.423  0.8492  0.4342 -0.1116
   60TCq2    H2  925   0.552   0.941  12.601 -0.2768  0.0839  0.2947
   60TCq2    H3  926   0.509   1.105  12.207  3.0107  2.5459 -1.2039
   60TCq2    H4  927   0.706   1.321  12.517  1.2539 -0.5214  0.0643
   61MPD2     C  928   0.283   2.546  14.688 -0.3456 -0.4204 -1.1399
   61MPD2    C1  929   0.330   2.663  14.739  0.3674 -0.6413  0.0090
   61MPD2    C2  930   0.337   2.779  14.668 -0.8103 -1.0108  0.4011
   61MPD2    C3  931   0.296   2.780  14.532  0.3592 -0.4224  0.1499
   61MPD2    C4  932   0.257   2.656  14.479  0.1959 -0.2298  0.2190
   61MPD2    C5  933   0.252   2.544  14.558  0.2173  0.0533 -0.1440
   61MPD2     H  934   0.365   2.871  14.717 -0.2329 -1.6611  1.2935
   61MPD2    H1  935   0.219   2.642  14.378  1.2199  0.9039 -0.3295
   61MPD2    H2  936   0.260   2.457  14.745 -1.0691  0.6476  0.2459
   61MPD2    H3  937   0.204   2.460  14.509 -0.4134 -0.0212  0.6157
   61MPD2     N  938   0.279   2.895  14.452 -0.6189 -0.0586  0.1191
   61MPD2    H5  939   0.234   2.876  14.363  1.9362 -1.7051 -0.8534
   61MPD2    N1  940   0.353   2.678  14.884 -0.4365  0.1698 -0.0530
   61MPD2    H7  941   0.370   2.772  14.919  0.0095  0.3308 -0.7019
   62TCq2    C1  942   0.315   2.584  14.978 -0.3441 -0.2044  0.4469
   62TCq2    O2  943   0.313   2.460  14.969 -0.0524 -0.8006 -0.0707
   62TCq2    C2  944   0.301   2.647  15.112 -0.3442  0.1899  0.4034
   62TCq2    C3  945   0.309   2.576  15.228 -0.2945  0.1229 -0.8562
   62TCq2    C4  946   0.267   2.629  15.344  0.4126  0.1994 -0.3172
   62TCq2    C5  947   0.233   2.761  15.355 -0.1741  0.1519 -0.8793
   62TCq2    C6  948   0.218   2.829  15.238 -0.2632  0.4797 -0.3536
   62TCq2    C7  949   0.239   2.765  15.115 -0.2381  0.5121  0.5014
   62TCq2    C8  950   0.176   2.966  15.242 -0.5127 -0.2661 -0.3508
   62TCq2    O4  951   0.211   3.028  15.139  0.1870  0.3405  0.0757
   62TCq2    C9  952   0.289   2.555  15.467 -0.7171 -0.6979  0.2566
   62TCq2    O5  953   0.352   2.446  15.455 -0.0269 -0.2198  0.2819
   62TCq2    O6  954   0.224   2.594  15.563  0.2169  0.3083  0.0836
   62TCq2    H2  955   0.355   2.477  15.225 -0.8054 -0.1085 -1.1229
   62TCq2    H3  956   0.212   2.801  15.453  1.5984  1.0091 -0.8555
   62TCq2    H4  957   0.219   2.821  15.025  0.0743  1.4161  0.9926
   63TMC2    C1  958   3.316   3.082  10.635  0.6407  0.7209  0.4680
   63TMC2    C2  959   3.272   3.212  10.646  0.3157 -0.1483  0.5239
   63TMC2    C3  960   3.214   3.270  10.536  1.2265 -0.1257 -0.1462
   63TMC2    C4  961   3.295   3.009  10.521  0.2044 -0.4400  0.3993
   63TMC2    C5  962   3.250   3.077  10.412 -0.5293 -0.4336  0.6251
   63TMC2    C6  963   3.207   3.205  10.416 -0.1352  0.6038  0.1766
   63TMC2     C  964   3.383   3.023  10.753 -0.0170 -0.0345 -0.2226
   63TMC2     O  965   3.392   3.103  10.846  0.1407  0.1412 -0.0868
   63TMC2     H  966   3.269   3.263  10.742  2.3068 -1.4356  1.2628
   63TMC2    H1  967   3.320   2.904  10.512  0.9562 -0.0072 -2.6652
   63TMC2    H2  968   3.192   3.251  10.319  0.0162 -0.2998 -0.2823
   63TMC2    C7  969   3.259   3.008  10.285  0.1561  0.4394  0.1430
   63TMC2    C8  970   3.189   3.415  10.529 -0.3895  0.1366 -0.1614
   63TMC2    O1  971   3.185   3.056  10.202  0.0920 -0.4376  0.0749
   63TMC2    O2  972   3.225   3.484  10.622  0.3865 -0.0969  0.0476
   63TMC2    O5  973   3.081   3.442  10.452  0.0291  0.6737 -0.3529
   63TMC2    H5  974   3.051   3.381  10.381  1.3494 -1.3797  0.8584
   64MPD2     C  975   3.555   2.631  11.039 -0.2684  0.5997 -0.1323
   64MPD2    C1  976   3.512   2.573  10.923  0.5130 -0.4290 -0.5988
   64MPD2    C2  977   3.450   2.662  10.838  0.0355 -0.0104 -0.5076
   64MPD2    C3  978   3.430   2.800  10.865  0.9553  0.1879 -0.0076
   64MPD2    C4  979   3.479   2.854  10.983  0.0131 -0.3913 -0.0213
   64MPD2    C5  980   3.543   2.766  11.066 -0.7306 -0.3170 -0.1020
   64MPD2     H  981   3.407   2.624  10.746  0.6957 -0.4961 -0.6117
   64MPD2    H1  982   3.473   2.961  10.993  0.6001 -0.4417  0.8202
   64MPD2    H2  983   3.603   2.571  11.116 -1.3876  1.8047  1.5037
   64MPD2    H3  984   3.590   2.800  11.158  0.7483  1.8452 -1.6521
   64MPD2     N  985   3.399   2.885  10.750 -0.3059 -0.2426 -0.6583
   64MPD2    H5  986   3.385   2.846  10.657 -0.9963 -0.5160 -0.4437
   64MPD2    N1  987   3.538   2.439  10.899  0.2837 -0.0991  0.2411
   64MPD2    H7  988   3.538   2.412  10.801 -1.2953  1.5543 -0.2003
   65MPD2     C  989   0.973   2.198  15.846  0.5880 -0.2093  0.9436
   65MPD2    C1  990   0.970   2.184  15.710 -0.4054 -0.5005  0.3119
   65MPD2    C2  991   0.957   2.056  15.664  0.0917  0.5543 -0.1987
   65MPD2    C3  992   0.945   1.943  15.742  0.1516 -0.1056 -0.2274
   65MPD2    C4  993   0.942   1.964  15.879  0.9437  0.0953 -0.6875
   65MPD2    C5  994   0.963   2.088  15.928  0.7191  0.3998  0.4045
   65MPD2     H  995   0.953   2.049  15.556  1.7935 -0.0688 -0.2197
   65MPD2    H1  996   0.939   1.884  15.952  0.9353 -0.0151 -0.8104
   65MPD2    H2  997   0.996   2.294  15.890  1.0966 -1.3441  3.1287
   65MPD2    H3  998   0.969   2.090  16.036 -0.3075  0.6319  0.4561
   65MPD2     N  999   0.908   1.812  15.703 -0.3069  0.3256 -0.1762
   65MPD2    H5 1000   0.883   1.753  15.782 -0.0887 -0.0854 -0.4186
   65MPD2    N1 1001   0.972   2.297  15.620  0.3699 -0.2381 -0.0576
   65MPD2    H7 1002   0.967   2.276  15.520  0.7593  1.4495 -0.4364
   66TCq2    C1 1003   0.955   2.438  15.647 -0.6797  0.0320 -0.6921
   66TCq2    O2 1004   0.940   2.499  15.754  0.0463  0.0375  0.2189
   66TCq2    C2 1005   0.950   2.507  15.522 -0.3434  0.6036 -0.2208
   66TCq2    C3 1006   1.008   2.452  15.409 -1.0456 -0.8744  0.0165
   66TCq2    C4 1007   0.985   2.511  15.291  0.0581 -0.4408  0.8259
   66TCq2    C5 1008   0.926   2.630  15.285  0.0733  0.7217  0.1465
   66TCq2    C6 1009   0.868   2.676  15.390  1.0258 -0.2053 -0.2418
   66TCq2    C7 1010   0.888   2.622  15.516  0.1375  0.0523  0.4418
   66TCq2    C8 1011   0.791   2.796  15.364  0.0226  0.2300 -0.4881
   66TCq2    O4 1012   0.809   2.858  15.259  0.0283  0.7728 -0.3304
   66TCq2    C9 1013   1.023   2.449  15.168 -0.6114 -0.0120  0.4107
   66TCq2    O5 1014   0.997   2.505  15.056  0.2052 -0.3139  0.0542
   66TCq2    O6 1015   1.051   2.327  15.162  0.3007  0.0654 -0.3875
   66TCq2    H2 1016   1.076   2.367  15.406  2.5436  1.8703  4.3221
   66TCq2    H3 1017   0.901   2.663  15.186 -0.6486  1.0816  0.4527
   66TCq2    H4 1018   0.849   2.667  15.607 -1.0870 -2.4391  1.1238
   67MPD2     C 1019   0.980   1.738  14.135  0.6136 -0.3871  0.2389
   67MPD2    C1 1020   0.889   1.780  14.227  0.7962 -0.7915  0.0764
   67MPD2    C2 1021   0.756   1.783  14.189 -0.1389  0.5702 -0.1679
   67MPD2    C3 1022   0.713   1.745  14.057 -0.0556 -0.3141  0.1052
   67MPD2    C4 1023   0.808   1.701  13.973  0.0815  0.0231 -0.8423
   67MPD2    C5 1024   0.939   1.696  14.009  0.0274  0.3786  0.5806
   67MPD2     H 1025   0.685   1.813  14.266  0.5177  1.9776 -0.1107
   67MPD2    H1 1026   0.788   1.667  13.872  1.2745 -1.9395 -0.4244
   67MPD2    H2 1027   1.087   1.736  14.151  0.8909  0.2982 -1.4397
   67MPD2    H3 1028   1.016   1.670  13.937 -0.8576 -0.7889  0.0387
   67MPD2     N 1029   0.579   1.735  14.009 -0.4424  0.0465  0.0091
   67MPD2    H5 1030   0.567   1.677  13.926 -0.6216  1.7593 -1.1556
   67MPD2    N1 1031   0.916   1.832  14.354 -0.3246  0.0861 -0.0695
   67MPD2    H7 1032   0.849   1.877  14.415 -0.9864 -0.3062 -0.5091
   68TCq2    C1 1033   1.042   1.836  14.403 -0.4587  0.2161  0.3185
   68TCq2    O2 1034   1.135   1.758  14.386  0.3408 -0.5283  0.1309
   68TCq2    C2 1035   1.062   1.918  14.518 -0.0332 -0.2824 -0.1484
   68TCq2    C3 1036   1.000   2.038  14.530 -0.3836 -0.6055 -0.4813
   68TCq2    C4 1037   1.066   2.132  14.618  0.5453  0.4848 -0.8198
   68TCq2    C5 1038   1.168   2.101  14.706 -0.4385  0.2425  0.6264
   68TCq2    C6 1039   1.225   1.981  14.680 -0.4601  0.2498 -0.1226
   68TCq2    C7 1040   1.180   1.891  14.586  0.6314  0.1230  0.1595
   68TCq2    C8 1041   1.350   1.947  14.751 -0.0792 -0.8168  0.1438
   68TCq2    O4 1042   1.411   1.858  14.700  0.3305 -0.1346 -0.4658
   68TCq2    C9 1043   1.017   2.274  14.638  0.2936  0.1002 -0.4472
   68TCq2    O5 1044   1.046   2.323  14.751  0.0377 -0.8905 -0.2423
   68TCq2    O6 1045   0.926   2.317  14.559  0.0555  0.0557  0.2459
   68TCq2    H2 1046   0.919   2.069  14.466 -0.7266 -1.5432 -0.4979
   68TCq2    H3 1047   1.206   2.176  14.774 -0.2276  1.8289 -1.2273
   68TCq2    H4 1048   1.223   1.792  14.592 -0.4744 -0.4705 -1.6522
   69TMC2    C1 1049   2.772   2.874  12.956  0.0995  0.0072 -0.2172
   69TMC2    C2 1050   2.634   2.884  12.955  0.0721 -0.0659  0.3554
   69TMC2    C3 1051   2.571   2.992  12.893  0.4177 -0.0028 -0.8315
   69TMC2    C4 1052   2.851   2.966  12.896  0.3520 -0.0468 -0.9087
   69TMC2    C5 1053   2.783   3.071  12.835 -0.2171  0.3007  0.0803
   69TMC2    C6 1054   2.644   3.086  12.833 -0.1714 -0.7461  0.6054
   69TMC2     C 1055   2.849   2.749  12.999  0.0489 -0.2707  0.5800
   69TMC2     O 1056   2.785   2.646  12.996 -0.3971  0.3150 -0.6143
   69TMC2     H 1057   2.580   2.793  12.979 -0.6762  1.2129  3.5180
   69TMC2    H1 1058   2.955   2.944  12.878  0.1577 -1.6660 -0.0163
   69TMC2    H2 1059   2.599   3.176  12.792  1.3162  0.1709  0.9750
   69TMC2    C7 1060   2.869   3.115  12.722 -0.1339 -0.3328 -0.1555
   69TMC2    C8 1061   2.453   3.045  12.956 -0.0446  0.2408  0.0301
   69TMC2    O1 1062   2.988   3.137  12.746 -0.0290  0.3481  0.2005
   69TMC2    O2 1063   2.402   3.153  12.926 -0.4910  0.2400 -0.5120
   69TMC2    O5 1064   2.437   2.985  13.073  0.6879 -0.2428  0.2205
   69TMC2    H5 1065   2.498   2.908  13.079 -0.3088 -0.9855  0.9544
   70MPD2     C 1066   3.183   2.730  13.148 -0.0282  0.0004  0.8282
   70MPD2    C1 1067   3.067   2.684  13.094  0.8784  0.8763  0.3960
   70MPD2    C2 1068   3.048   2.547  13.068 -0.2684  0.2776  0.1120
   70MPD2    C3 1069   3.147   2.458  13.097  0.3705  0.0180 -0.1748
   70MPD2    C4 1070   3.261   2.509  13.158  0.5748  0.0774  0.5409
   70MPD2    C5 1071   3.277   2.641  13.188  0.0273 -0.4943 -0.7760
   70MPD2     H 1072   2.951   2.517  13.031  1.0123 -1.7272 -1.6491
   70MPD2    H1 1073   3.339   2.440  13.190  1.5547  1.0676  0.2826
   70MPD2    H2 1074   3.196   2.835  13.169 -0.4164  0.6596 -2.3672
   70MPD2    H3 1075   3.370   2.666  13.238  0.3082 -1.1061 -0.9942
   70MPD2     N 1076   3.144   2.322  13.060  0.7512  0.1462  0.2717
   70MPD2    H5 1077   3.224   2.264  13.084 -0.8029 -1.4655  1.5475
   70MPD2    N1 1078   2.974   2.778  13.045 -0.3534  0.6997  0.2327
   70MPD2    H7 1079   3.006   2.874  13.048  1.9307 -0.0845  0.5790
   71TMC2    C1 1080   0.099   2.714   1.875  0.3336 -0.0433 -0.4797
   71TMC2    C2 1081   0.189   2.622   1.926 -0.0618  0.1034  0.6738
   71TMC2    C3 1082   0.158   2.503   1.985 -0.4909 -1.1558 -0.0647
   71TMC2    C4 1083   4.694   2.675   1.866  0.4441  0.4002 -0.3621
   71TMC2    C5 1084   4.654   2.569   1.936  0.3450 -0.2083  0.1761
   71TMC2    C6 1085   0.023   2.472   1.984  0.3702  0.0937 -0.2710
   71TMC2     C 1086   0.136   2.813   1.777  0.5314 -0.5523 -0.5764
   71TMC2     O 1087   0.069   2.817   1.678 -0.1281 -0.2806  0.4418
   71TMC2     H 1088   0.290   2.662   1.927 -0.5383  1.3138  0.4964
   71TMC2    H1 1089   4.624   2.726   1.800  0.7357 -0.3503 -1.2656
   71TMC2    H2 1090   4.702   2.381   2.023  0.5278  0.7213  1.3543
   71TMC2    C7 1091   4.525   2.508   1.906 -0.2258 -0.2030  0.4649
   71TMC2    C8 1092   0.254   2.394   1.960  0.4875  0.7335 -0.1466
   71TMC2    O1 1093   4.515   2.387   1.923  0.2037 -0.2674 -0.0033
   71TMC2    O2 1094   0.367   2.406   1.911 -0.5910 -0.2020  0.3487
   71TMC2    O5 1095   0.210   2.279   2.022  0.6084 -0.4848 -0.4909
   71TMC2    H5 1096   0.150   2.285   2.100  1.1513  1.5528 -0.2134
   72MPD2     C 1097   0.446   3.182   1.621  0.7343 -0.4749 -0.0486
   72MPD2    C1 1098   0.356   3.115   1.540  0.0222 -1.0284  0.1261
   72MPD2    C2 1099   0.296   3.009   1.602  0.2179 -0.0098 -0.1133
   72MPD2    C3 1100   0.313   2.980   1.736  0.3842  0.2803  0.4192
   72MPD2    C4 1101   0.406   3.049   1.808  0.3063 -0.0568 -0.2790
   72MPD2    C5 1102   0.479   3.147   1.747  0.0031 -0.0828  0.2693
   72MPD2     H 1103   0.233   2.943   1.543  1.3339 -2.2177  1.1565
   72MPD2    H1 1104   0.436   3.020   1.909  1.7669  0.1421 -0.6635
   72MPD2    H2 1105   0.508   3.264   1.585 -0.3260  1.0894  1.6991
   72MPD2    H3 1106   0.546   3.206   1.809 -0.4794 -0.3372  1.0423
   72MPD2     N 1107   0.248   2.885   1.813 -0.5542  0.5493 -0.1209
   72MPD2    H5 1108   0.297   2.864   1.900  0.4578  3.5585  0.0552
   72MPD2    N1 1109   0.338   3.138   1.401  0.7332  0.2151  0.1669
   72MPD2    H7 1110   0.288   3.067   1.349 -0.7158  1.4720 -0.1625
   73TMC2    C1 1111   4.637   0.339  14.093 -0.0372 -0.3494 -0.0192
   73TMC2    C2 1112   4.539   0.399  14.174 -0.9927 -0.9658 -0.3081
   73TMC2    C3 1113   4.566   0.422  14.305 -0.1450  0.6154 -0.3106
   73TMC2    C4 1114   0.033   0.298  14.144 -0.0553  0.4595  0.5997
   73TMC2    C5 1115   0.058   0.340  14.273  0.0891  0.2622 -0.2644
   73TMC2    C6 1116   4.696   0.402  14.355 -0.7078 -0.6638  0.1546
   73TMC2     C 1117   4.660   0.387  13.953  0.8100 -0.3724 -0.4559
   73TMC2     O 1118   0.057   0.383  13.919 -0.6440 -0.0891  0.0301
   73TMC2     H 1119   4.442   0.436  14.145 -0.5153 -0.4976 -1.2952
   73TMC2    H1 1120   0.101   0.235  14.088  1.0680  1.0946  1.2418
   73TMC2    H2 1121   4.712   0.413  14.462  2.4410 -0.9030 -0.3044
   73TMC2    C7 1122   0.197   0.378  14.289  0.8155  0.4588  0.0660
   73TMC2    C8 1123   4.457   0.458  14.397  0.3964  0.6273  0.5944
   73TMC2    O1 1124   0.261   0.369  14.392 -0.5955  0.4146 -0.1247
   73TMC2    O2 1125   4.340   0.428  14.377 -0.3161 -0.2488 -0.3757
   73TMC2    O5 1126   4.512   0.457  14.523  0.0109 -0.1345  0.9393
   73TMC2    H5 1127   4.587   0.519  14.538  0.5461 -0.6333  0.3024
   74MPD2     C 1128   4.578   0.683  13.539 -0.4861 -0.2644  0.0842
   74MPD2    C1 1129   4.690   0.680  13.620 -0.4332 -0.3126  0.2820
   74MPD2    C2 1130   4.680   0.592  13.728  0.2764 -0.0918  0.7858
   74MPD2    C3 1131   4.565   0.521  13.770 -0.2706 -0.6059  0.3274
   74MPD2    C4 1132   4.457   0.542  13.692  0.2983 -0.2496  0.3590
   74MPD2    C5 1133   4.464   0.621  13.582 -0.5658  0.5365  0.7450
   74MPD2     H 1134   0.039   0.577  13.799  0.5821 -0.8316  0.2675
   74MPD2    H1 1135   4.365   0.487  13.709  0.2697 -0.6581 -1.1429
   74MPD2    H2 1136   4.581   0.746  13.450 -1.0757 -0.2539  0.0718
   74MPD2    H3 1137   4.372   0.628  13.525 -0.8701 -1.3117  1.0301
   74MPD2     N 1138   4.555   0.437  13.882  0.4606 -0.3500  0.1537
   74MPD2    H5 1139   4.458   0.416  13.906  0.1217 -0.8519 -1.6555
   74MPD2    N1 1140   0.081   0.764  13.595  0.0204  0.0317 -0.1913
   74MPD2    H7 1141   0.088   0.802  13.501 -1.0085 -0.8877 -0.6510
   75TCq2    C1 1142   0.477   1.785  14.084  0.1500 -0.4328 -0.3821
   75TCq2    O2 1143   0.487   1.862  14.177 -0.4509 -0.0274  0.0410
   75TCq2    C2 1144   0.350   1.737  14.024 -0.5712 -0.5942 -0.5057
   75TCq2    C3 1145   0.260   1.708  14.128 -0.2345  0.4352 -0.0014
   75TCq2    C4 1146   0.132   1.736  14.110 -0.3195  0.2597 -0.6556
   75TCq2    C5 1147   0.088   1.784  13.985  0.3374  0.1753 -0.2567
   75TCq2    C6 1148   0.176   1.808  13.884  0.4013 -0.0929  0.3239
   75TCq2    C7 1149   0.312   1.792  13.911  0.5355  0.1638  0.8959
   75TCq2    C8 1150   0.137   1.842  13.748 -0.4238 -0.1663 -1.1249
   75TCq2    O4 1151   0.196   1.788  13.659 -0.1561  0.4596 -0.3310
   75TCq2    C9 1152   0.043   1.710  14.218 -0.5926  0.1675 -0.2512
   75TCq2    O5 1153   4.645   1.732  14.200  0.1988  0.2341 -0.0312
   75TCq2    O6 1154   0.079   1.628  14.303  0.2652  0.0647 -0.0130
   75TCq2    H2 1155   0.293   1.673  14.225 -0.2639  0.6237  0.0765
   75TCq2    H3 1156   4.705   1.798  13.967  0.3778 -1.2083 -1.5884
   75TCq2    H4 1157   0.387   1.831  13.843 -1.9635  1.8968 -0.8516
   76MPD2     C 1158   4.012   2.780  12.515 -0.2872  0.7057  0.4737
   76MPD2    C1 1159   3.954   2.731  12.400 -0.7387  0.0332 -0.2711
   76MPD2    C2 1160   4.008   2.626  12.330 -0.2584 -0.4209  0.0528
   76MPD2    C3 1161   4.133   2.575  12.368  0.0018 -0.3442  0.0282
   76MPD2    C4 1162   4.193   2.631  12.480 -0.5214 -0.1569 -0.1874
   76MPD2    C5 1163   4.128   2.730  12.553  0.1110 -0.6255 -0.3780
   76MPD2     H 1164   3.962   2.599  12.235 -0.0728 -0.2705 -0.0810
   76MPD2    H1 1165   4.292   2.610  12.518 -0.6960  2.6346  1.7846
   76MPD2    H2 1166   3.964   2.860  12.571  2.4738  1.5180  1.6920
   76MPD2    H3 1167   4.188   2.775  12.631 -0.0791 -2.2629  0.7327
   76MPD2     N 1168   4.208   2.475  12.299 -0.3186 -0.1769  0.4813
   76MPD2    H5 1169   4.293   2.445  12.347 -0.5643 -2.8730 -0.8043
   76MPD2    N1 1170   3.830   2.774  12.344 -0.0741  0.0435 -0.1653
   76MPD2    H7 1171   3.796   2.713  12.271 -1.9922  0.6510  0.2202
   77TCq2    C1 1172   4.179   2.429  12.173  0.1007 -0.6066 -0.2345
   77TCq2    O2 1173   4.092   2.463  12.095  0.5977  0.5463 -0.2892
   77TCq2    C2 1174   4.275   2.325  12.121  0.6721  0.6060  0.1337
   77TCq2    C3 1175   4.241   2.257  12.009  0.4519  0.4850 -0.0253
   77TCq2    C4 1176   4.324   2.155  11.970  0.0328 -0.3532 -0.1050
   77TCq2    C5 1177   4.432   2.116  12.040  0.4429 -0.0961 -0.2385
   77TCq2    C6 1178   4.461   2.187  12.151 -0.4111  0.3103  0.6215
   77TCq2    C7 1179   4.387   2.298  12.197  0.1269  0.1088  0.2676
   77TCq2    C8 1180   4.561   2.122  12.232 -0.1979 -0.0368 -0.1782
   77TCq2    O4 1181   4.638   2.041  12.183 -0.0246  0.0466 -0.5905
   77TCq2    C9 1182   4.293   2.084  11.857 -0.2903 -0.2601  0.4143
   77TCq2    O5 1183   4.183   2.099  11.797 -0.0781 -0.5687 -0.2289
   77TCq2    O6 1184   4.367   1.985  11.826  0.3933  0.6838  0.2190
   77TCq2    H2 1185   4.150   2.275  11.953 -0.0327 -3.0686 -0.3898
   77TCq2    H3 1186   4.485   2.029  12.003  2.2113 -0.0991  2.3681
   77TCq2    H4 1187   4.428   2.359  12.277 -0.1146 -0.6187  0.9444
   78MPD1     C 1188   4.058   2.032   0.195  0.1652  0.3073  0.1245
   78MPD1    C1 1189   4.095   1.904   0.150  0.3756 -0.3181  0.4047
   78MPD1    C2 1190   4.065   1.805   0.234  0.2247 -0.3144 -0.8578
   78MPD1    C3 1191   4.017   1.820   0.364  0.0474  0.1579 -0.0606
   78MPD1    C4 1192   4.005   1.947   0.414  0.2694  0.0843  0.3767
   78MPD1    C5 1193   4.018   2.054   0.327 -0.2008 -0.1396 -0.4003
   78MPD1     H 1194   4.072   1.700   0.209  0.4765 -0.2493 -1.0648
   78MPD1    H1 1195   3.964   1.960   0.514 -2.4559  1.1848 -0.8965
   78MPD1    H2 1196   4.074   2.119   0.132  0.7595 -0.5573 -0.9142
   78MPD1    H3 1197   4.006   2.155   0.364  3.1381 -0.2041  0.8459
   78MPD1     N 1198   3.996   1.719   0.450  0.6201 -0.2067  0.1551
   78MPD1    H5 1199   3.982   1.743   0.548  0.3490 -1.0074  0.3097
   78MPD1    N1 1200   4.139   1.874   0.016 -0.6215 -0.0913  0.6087
   78MPD1    H6 1201   4.195   1.790   0.005 -1.0257 -0.2533 -0.2695
   78MPD1    H7 1202   4.181   1.949  17.653 -1.8888  1.6007  2.0133
   79TCq2    C1 1203   3.977   1.585   0.424  0.3932  0.3126 -0.2507
   79TCq2    O2 1204   3.967   1.527   0.311  0.2608 -0.0052  0.7745
   79TCq2    C2 1205   3.944   1.497   0.533  0.0238  0.4999 -0.3321
   79TCq2    C3 1206   3.976   1.367   0.518 -0.3922 -0.0379 -0.2917
   79TCq2    C4 1207   3.945   1.278   0.615 -0.2513  0.1405  0.0636
   79TCq2    C5 1208   3.883   1.318   0.725  0.4674 -0.0818 -0.4252
   79TCq2    C6 1209   3.856   1.458   0.745  0.0630  0.0561  0.8596
   79TCq2    C7 1210   3.889   1.549   0.652 -0.4686  0.4478 -0.2224
   79TCq2    C8 1211   3.795   1.507   0.862  0.6709  0.5371 -0.1888
   79TCq2    O4 1212   3.781   1.628   0.874 -0.0379  0.0336 -0.1467
   79TCq2    C9 1213   3.977   1.134   0.597  0.7693 -0.5002  0.0384
   79TCq2    O5 1214   3.952   1.055   0.689 -0.5658 -0.0346  0.4154
   79TCq2    O6 1215   4.027   1.099   0.485 -0.0594 -0.1525  0.9017
   79TCq2    H2 1216   4.022   1.334   0.425 -1.6111 -1.8686 -0.2488
   79TCq2    H3 1217   3.847   1.246   0.797 -1.2843  0.5592 -0.6399
   79TCq2    H4 1218   3.875   1.656   0.666 -3.2173  0.1526 -0.6095
   80MPD2     C 1219   3.278   2.064  12.228  0.5527  0.3121  0.9128
   80MPD2    C1 1220   3.170   2.099  12.146  0.5143  0.5794  0.3673
   80MPD2    C2 1221   3.070   2.177  12.201  0.0521  0.0087 -0.3299
   80MPD2    C3 1222   3.080   2.234  12.327  0.3235  0.1885 -1.0357
   80MPD2    C4 1223   3.189   2.201  12.405 -0.5990 -0.1162 -0.1013
   80MPD2    C5 1224   3.286   2.114  12.352 -0.2868 -0.2922  0.1327
   80MPD2     H 1225   2.978   2.187  12.146 -0.0830 -0.4163 -0.1809
   80MPD2    H1 1226   3.206   2.238  12.505  1.9199  0.1916 -0.6382
   80MPD2    H2 1227   3.357   1.996  12.197  1.5912  1.5372  0.9130
   80MPD2    H3 1228   3.368   2.085  12.416  1.0458  0.2434 -1.3228
   80MPD2     N 1229   2.977   2.297  12.397 -0.2700 -0.2496  0.0192
   80MPD2    H5 1230   2.980   2.282  12.497 -3.1574 -3.0250 -0.2958
   80MPD2    N1 1231   3.149   2.044  12.014  0.0651  0.2601 -0.1905
   80MPD2    H7 1232   3.061   2.071  11.971 -0.0357  1.6332  0.8768
   81TCq2    C1 1233   3.248   1.984  11.940 -0.2553  0.0073  0.0630
   81TCq2    O2 1234   3.368   2.001  11.946 -0.4759  0.2382 -0.0655
   81TCq2    C2 1235   3.187   1.961  11.809 -0.4492  0.4665 -1.0118
   81TCq2    C3 1236   3.283   1.955  11.705  0.0231  0.2694  0.3349
   81TCq2    C4 1237   3.243   1.902  11.585  0.0887 -0.6869  0.3242
   81TCq2    C5 1238   3.113   1.866  11.567 -0.1286  0.4868 -0.0343
   81TCq2    C6 1239   3.027   1.872  11.667  0.0930  0.1398 -0.5058
   81TCq2    C7 1240   3.057   1.920  11.791 -0.5910 -0.3851  0.5434
   81TCq2    C8 1241   2.897   1.799  11.650  0.7776 -0.0673 -0.1476
   81TCq2    O4 1242   2.859   1.757  11.541  0.5584  0.0892  0.2722
   81TCq2    C9 1243   3.347   1.876  11.491 -0.1006  0.1386 -0.0069
   81TCq2    O5 1244   3.463   1.851  11.530  0.4744 -0.0783 -0.4082
   81TCq2    O6 1245   3.302   1.805  11.396  0.0491 -0.7871 -0.3789
   81TCq2    H2 1246   3.390   1.974  11.712  0.0031  0.3076  0.5279
   81TCq2    H3 1247   3.085   1.823  11.471  0.3832 -0.9580  0.4781
   81TCq2    H4 1248   2.986   1.931  11.872 -0.0063  0.8270  0.8918
   82MPD2     C 1249   0.802   2.140  10.144 -0.3351  0.1794  0.1984
   82MPD2    C1 1250   0.744   2.017  10.178 -0.0345 -0.3886  0.2320
   82MPD2    C2 1251   0.816   1.916  10.236  0.2488  0.4935 -0.2621
   82MPD2    C3 1252   0.951   1.934  10.267  0.4719  0.3413  0.0441
   82MPD2    C4 1253   1.009   2.062  10.245  0.1355  0.0908 -0.2887
   82MPD2    C5 1254   0.941   2.155  10.169  0.4127 -0.0919  0.1278
   82MPD2     H 1255   0.768   1.821  10.254  1.2216  0.0289 -0.0932
   82MPD2    H1 1256   1.114   2.081  10.265 -0.1349  1.4500 -0.1434
   82MPD2    H2 1257   0.752   2.212  10.080 -0.9593 -0.8506 -0.4782
   82MPD2    H3 1258   0.985   2.251  10.146 -2.1290  1.1656  0.4420
   82MPD2     N 1259   1.031   1.839  10.333 -0.3588 -0.0107 -0.2134
   82MPD2    H5 1260   1.128   1.863  10.352 -0.6962  1.4700 -0.3203
   82MPD2    N1 1261   0.602   2.009  10.158  0.0753 -0.5073  0.4544
   82MPD2    H7 1262   0.562   2.094  10.119 -0.7650 -0.8961  0.4718
   83TCq2    C1 1263   0.991   1.721  10.382  0.1139 -0.4927 -1.1906
   83TCq2    O2 1264   0.883   1.658  10.367  0.3069 -0.1936 -0.1904
   83TCq2    C2 1265   1.099   1.664  10.460  0.0921  0.2590 -0.1128
   83TCq2    C3 1266   1.200   1.743  10.508 -0.1021  0.8015  0.0738
   83TCq2    C4 1267   1.293   1.688  10.595 -0.2426 -0.2791 -0.1286
   83TCq2    C5 1268   1.288   1.563  10.636 -0.2953 -0.0780 -0.0572
   83TCq2    C6 1269   1.192   1.486  10.580  0.0386 -0.2533 -0.2636
   83TCq2    C7 1270   1.092   1.530  10.502 -0.0968  0.1521  0.2652
   83TCq2    C8 1271   1.154   1.376  10.668  0.1494 -0.0083 -0.2827
   83TCq2    O4 1272   1.168   1.389  10.789  0.1916 -0.0265 -0.0182
   83TCq2    C9 1273   1.394   1.775  10.635 -0.1350 -0.6361 -0.4104
   83TCq2    O5 1274   1.409   1.882  10.560  0.2495  0.0467  0.1340
   83TCq2    O6 1275   1.471   1.734  10.729  0.2838  0.3118 -0.0812
   83TCq2    H2 1276   1.206   1.849  10.483 -1.6029  0.6813 -0.7580
   83TCq2    H3 1277   1.360   1.525  10.708  0.2448  0.0168 -0.5476
   83TCq2    H4 1278   1.016   1.463  10.464  0.4592  0.6557 -1.7334
   84TCq2    C1 1279   2.067   0.395  10.372 -0.0976 -0.0917  0.3594
   84TCq2    O2 1280   2.056   0.466  10.274  0.0371  0.5774  0.0565
   84TCq2    C2 1281   2.060   0.445  10.506  0.0711 -0.2775  0.3424
   84TCq2    C3 1282   2.090   0.577  10.515  0.5331  0.1597 -0.5048
   84TCq2    C4 1283   2.067   0.644  10.635 -0.4493  0.1178  0.4214
   84TCq2    C5 1284   2.027   0.572  10.740 -0.2984 -0.5752 -0.2046
   84TCq2    C6 1285   2.007   0.437  10.727  0.2561  0.3423  0.4486
   84TCq2    C7 1286   2.019   0.370  10.611 -0.3049  0.1610  0.1047
   84TCq2    C8 1287   2.010   0.357  10.853 -0.1396  0.2686  0.2190
   84TCq2    O4 1288   2.018   0.414  10.958 -0.0343  0.1962 -0.3159
   84TCq2    C9 1289   2.105   0.788  10.635  0.3132  0.5206  0.8707
   84TCq2    O5 1290   2.184   0.835  10.546  0.5941 -0.0304  0.2561
   84TCq2    O6 1291   2.062   0.865  10.730  0.5302 -0.1002  0.1159
   84TCq2    H2 1292   2.139   0.626  10.431  2.3385  1.1185  1.1146
   84TCq2    H3 1293   2.016   0.624  10.835 -2.5611  1.7499 -1.7440
   84TCq2    H4 1294   1.983   0.269  10.599  2.5083 -0.8641  0.3587
   85MPD2     C 1295   2.206   3.280  15.988 -0.7150  0.0388  0.6557
   85MPD2    C1 1296   2.321   3.196  15.977 -0.8395  0.2965  0.4101
   85MPD2    C2 1297   2.431   3.259  15.915 -0.0065  0.3106  0.1435
   85MPD2    C3 1298   2.435   3.390  15.876 -0.0225 -0.5327 -0.6143
   85MPD2    C4 1299   2.325   3.471  15.896  0.6765 -0.6034  0.8544
   85MPD2    C5 1300   2.212   3.413  15.947 -0.2523  0.1729  0.3694
   85MPD2     H 1301   2.523   3.204  15.901  0.0623  0.7444 -1.0545
   85MPD2    H1 1302   2.317   3.578  15.879 -3.1008 -0.4557  3.4752
   85MPD2    H2 1303   2.117   3.248  16.040 -0.6785  0.1254  0.7721
   85MPD2    H3 1304   2.123   3.473  15.963 -1.3161 -1.1404 -0.6093
   85MPD2     N 1305   2.555   3.439  15.814 -0.3879  0.3943 -0.8707
   85MPD2    H5 1306   2.628   3.371  15.792  0.1469  0.8772 -0.5898
   85MPD2    N1 1307   2.323   3.057  16.017  0.6726  0.3684  0.0963
   85MPD2    H7 1308   2.413   3.014  15.997  1.5019  2.5850 -0.8496
   86TCq2    C1 1309   2.567   3.569  15.778  0.1593 -0.0785 -0.4223
   86TCq2    O2 1310   2.514   3.673  15.815  0.4835 -0.1734  0.2330
   86TCq2    C2 1311   2.655   3.594  15.667  0.9254  0.4015  0.3965
   86TCq2    C3 1312   2.637   3.711  15.611 -0.4405 -0.0229  0.7152
   86TCq2    C4 1313   2.743   3.755  15.530  0.5978  0.6717 -0.5682
   86TCq2    C5 1314   2.858   3.690  15.514  0.0432  0.4083  0.5130
   86TCq2    C6 1315   2.875   3.578  15.584  0.3746 -0.1811  0.2288
   86TCq2    C7 1316   2.774   3.528  15.662 -0.2125 -0.0237  0.1972
   86TCq2    C8 1317   3.006   3.525  15.616 -0.1887 -0.5233  0.2555
   86TCq2    O4 1318   3.014   3.419  15.669 -0.7277  0.0802 -0.3109
   86TCq2    C9 1319   2.713   3.870  15.450  0.2186  0.3601  0.0090
   86TCq2    O5 1320   2.785   3.894  15.350  0.2555  0.0771 -0.3413
   86TCq2    O6 1321   2.599   3.917  15.474 -0.0760 -0.1057 -0.0898
   86TCq2    H2 1322   2.540   3.760  15.610  0.5918  1.9638 -2.2250
   86TCq2    H3 1323   2.930   3.736  15.446 -2.2854  1.0092 -1.5596
   86TCq2    H4 1324   2.798   3.439  15.719  0.5379 -0.4119 -0.7097
   87MPD2     C 1325   0.347   1.765   1.968 -0.0502  0.4691 -0.0978
   87MPD2    C1 1326   0.406   1.801   1.849 -0.1793  0.1665  0.8811
   87MPD2    C2 1327   0.351   1.912   1.784 -0.2029 -1.0594  0.1660
   87MPD2    C3 1328   0.232   1.981   1.819  0.3093  0.0096 -1.0307
   87MPD2    C4 1329   0.177   1.935   1.937 -0.4205  0.0511  0.3369
   87MPD2    C5 1330   0.237   1.833   2.010  0.8906 -0.2941 -0.4046
   87MPD2     H 1331   0.403   1.954   1.698  0.4319 -2.0973  0.0525
   87MPD2    H1 1332   0.082   1.977   1.966 -1.5238 -1.1797 -1.4799
   87MPD2    H2 1333   0.375   1.678   2.026 -2.6621 -0.0146  0.4026
   87MPD2    H3 1334   0.189   1.796   2.100  1.2613  0.2538  0.0187
   87MPD2     N 1335   0.181   2.099   1.756 -0.3473 -0.6064  0.4337
   87MPD2    H5 1336   0.101   2.134   1.807 -1.7831 -0.2032 -2.0649
   87MPD2    N1 1337   0.521   1.734   1.813  0.2624 -0.0803  0.3700
   87MPD2    H7 1338   0.540   1.654   1.873 -0.0377  1.6428  2.7861
   88TCq2    C1 1339   0.591   1.751   1.695  0.5655  0.1399  0.4728
   88TCq2    O2 1340   0.568   1.831   1.605 -0.5302  0.2015 -0.3712
   88TCq2    C2 1341   0.722   1.683   1.690 -0.2215  0.5575 -0.4209
   88TCq2    C3 1342   0.798   1.681   1.804  0.9296  0.0567  0.3363
   88TCq2    C4 1343   0.932   1.666   1.798 -0.3447 -0.4349  0.5540
   88TCq2    C5 1344   0.995   1.689   1.682  0.2881 -0.5610  0.2711
   88TCq2    C6 1345   0.923   1.681   1.568  0.0052  0.3522  0.2967
   88TCq2    C7 1346   0.785   1.682   1.568 -0.7214 -0.2704 -0.3924
   88TCq2    C8 1347   0.968   1.760   1.454 -0.8914  0.4883 -0.7619
   88TCq2    O4 1348   0.926   1.727   1.343  0.3430 -0.0406 -0.0799
   88TCq2    C9 1349   1.011   1.649   1.919  0.4382 -0.9592  0.5617
   88TCq2    O5 1350   1.133   1.675   1.905 -0.8266 -0.1532 -0.3029
   88TCq2    O6 1351   0.957   1.632   2.030 -0.4425  0.5027  0.6333
   88TCq2    H2 1352   0.744   1.679   1.898 -1.0491 -0.9626 -0.8199
   88TCq2    H3 1353   1.104   1.689   1.677  0.2744 -2.4954 -0.0488
   88TCq2    H4 1354   0.732   1.683   1.473 -0.5495  1.7159 -0.4663
   89MPD2     C 1355   1.745   3.780   1.494 -0.3639 -0.0847 -0.7702
   89MPD2    C1 1356   1.621   3.830   1.514 -0.2693  0.4691  0.6456
   89MPD2    C2 1357   1.567   3.909   1.414 -0.0491 -0.3315  0.2307
   89MPD2    C3 1358   1.633   3.938   1.293  0.6691 -0.4341 -0.4688
   89MPD2    C4 1359   1.755   3.875   1.278 -0.0901 -0.3077  0.1602
   89MPD2    C5 1360   1.811   3.806   1.382 -1.1127 -0.0306 -0.8451
   89MPD2     H 1361   1.468   3.952   1.427 -0.2522 -1.1478  1.4671
   89MPD2    H1 1362   1.828   3.902   1.201 -1.3409  0.9065 -0.5912
   89MPD2    H2 1363   1.801   3.731   1.573  0.1957  1.3390 -0.2908
   89MPD2    H3 1364   1.914   3.774   1.368 -0.4753  2.8430 -2.6005
   89MPD2     N 1365   1.574   4.033   1.197  0.2450  0.3590 -0.1078
   89MPD2    H5 1366   1.485   4.074   1.222  0.2717  0.0685  0.4732
   89MPD2    N1 1367   1.543   3.797   1.630 -0.1017 -0.0310 -0.4251
   89MPD2    H7 1368   1.447   3.828   1.623  0.1204  0.4183 -1.4209
   90TCq2    C1 1369   1.633   4.061   1.074  0.1682  0.6258 -0.9069
   90TCq2    O2 1370   1.724   3.999   1.015  0.3159 -0.1156  0.5042
   90TCq2    C2 1371   1.571   4.174   1.012 -0.3206  0.4693 -0.4861
   90TCq2    C3 1372   1.526   4.285   1.082 -0.0162  0.2806  0.0108
   90TCq2    C4 1373   1.488   4.392   1.015  0.3505  0.1334 -0.5882
   90TCq2    C5 1374   1.491   4.401   0.882 -0.2375 -0.6295 -0.3791
   90TCq2    C6 1375   1.533   4.293   0.811 -0.0741  0.2174 -0.5169
   90TCq2    C7 1376   1.577   4.178   0.873 -0.6541 -0.2065 -0.1918
   90TCq2    C8 1377   1.578   4.320   0.681 -0.2806 -0.5064  0.4522
   90TCq2    O4 1378   1.626   4.229   0.613 -0.1078 -0.3119  0.8484
   90TCq2    C9 1379   1.453   4.505   1.100  0.3285 -0.5640  0.4623
   90TCq2    O5 1380   1.428   4.615   1.041 -0.4524  0.2431 -0.7109
   90TCq2    O6 1381   1.500   4.500   1.217 -0.3629  0.3273 -0.0990
   90TCq2    H2 1382   1.532   4.277   1.190  0.2162  0.8248  0.0333
   90TCq2    H3 1383   1.436   4.483   0.836 -0.7142 -1.5465 -1.4405
   90TCq2    H4 1384   1.568   4.081   0.828  0.0804  1.1001 -3.1455
   91TMC2    C1 1385   2.911   4.705  16.646  0.2503 -0.6566  0.3579
   91TMC2    C2 1386   2.963   0.074  16.562  0.9071  0.4133  0.2507
   91TMC2    C3 1387   2.901   0.077  16.436  0.7693  0.6442  0.0943
   91TMC2    C4 1388   2.804   4.624  16.616 -0.1821 -0.0070 -0.5821
   91TMC2    C5 1389   2.742   4.638  16.493 -0.5694  0.6619 -0.3371
   91TMC2    C6 1390   2.793   0.005  16.400  0.0103 -0.3095 -0.1037
   91TMC2     C 1391   2.973   4.669  16.774 -0.3171 -0.1552  0.0691
   91TMC2     O 1392   2.909   4.616  16.863  0.2937 -0.5251 -0.3429
   91TMC2     H 1393   3.056   0.129  16.576  1.9535 -0.8051 -1.9484
   91TMC2    H1 1394   2.782   4.540  16.681 -0.0744  0.9101  0.6477
   91TMC2    H2 1395   2.757   0.024  16.300  0.0544 -1.2316 -0.2954
   91TMC2    C7 1396   2.634   4.550  16.470 -0.2754  0.5108  0.1722
   91TMC2    C8 1397   2.936   0.168  16.337  0.8055 -0.6015  0.8995
   91TMC2    O1 1398   2.598   4.478  16.561  0.5680 -0.8098  0.4212
   91TMC2    O2 1399   2.855   0.231  16.271 -0.4009 -0.3595 -0.2565
   91TMC2    O5 1400   3.072   0.171  16.331  0.1850  0.3417 -0.9674
   91TMC2    H5 1401   3.117   0.097  16.375  1.3238  0.7283 -1.4833
   92MPD2     C 1402   3.175   4.529  16.951  0.2174  0.2454 -0.2904
   92MPD2    C1 1403   3.210   4.614  16.845 -0.2191  0.7464 -0.2089
   92MPD2    C2 1404   3.343   4.632  16.815  0.0638  0.0643 -0.2634
   92MPD2    C3 1405   3.441   4.574  16.895  0.2345 -0.4811 -0.1012
   92MPD2    C4 1406   3.405   4.491  17.000 -0.4985 -0.9691 -0.0550
   92MPD2    C5 1407   3.269   4.470  17.028 -0.0989 -0.1785  0.0727
   92MPD2     H 1408   3.371   4.685  16.724  1.8214 -2.9792 -1.4802
   92MPD2    H1 1409   3.480   4.456  17.069  0.1037  2.0701  0.8302
   92MPD2    H2 1410   3.075   4.489  16.968 -0.1255  0.9489 -0.6905
   92MPD2    H3 1411   3.242   4.403  17.109 -3.2503 -1.4027 -1.9884
   92MPD2     N 1412   3.574   4.584  16.854  0.8150  0.0253 -0.5983
   92MPD2    H5 1413   3.615   4.652  16.792 -0.8225 -0.8973 -2.7197
   92MPD2    N1 1414   3.113   4.675  16.764 -0.0956  0.2444  0.0738
   92MPD2    H7 1415   3.151   4.708  16.676 -0.0192  0.9740  0.3864
   93MPD2     C 1416   4.461   0.122  13.738  0.0183 -0.8618 -0.5343
   93MPD2    C1 1417   4.462   0.005  13.806  0.1613  0.6333 -0.0455
   93MPD2    C2 1418   4.351   4.645  13.808 -0.1790 -0.3287 -0.3991
   93MPD2    C3 1419   4.235   4.682  13.737  0.3534  0.2177  0.6451
   93MPD2    C4 1420   4.239   0.082  13.670  0.0618  0.4894  0.5154
   93MPD2    C5 1421   4.352   0.153  13.667 -0.6650 -0.5975  0.1924
   93MPD2     H 1422   4.357   4.549  13.859 -1.1967  0.3610  1.0226
   93MPD2    H1 1423   4.150   0.109  13.615 -0.5582 -1.2466  0.6721
   93MPD2    H2 1424   4.544   0.193  13.733 -0.2879 -0.6195 -2.2053
   93MPD2    H3 1425   4.365   0.242  13.606  1.8623 -1.1760 -0.0949
   93MPD2     N 1426   4.131   4.593  13.722  0.2069  0.0808  0.2584
   93MPD2    H5 1427   4.073   4.613  13.641  0.1383 -1.5804 -0.1084
   93MPD2    N1 1428   4.576   4.689  13.890  0.1491  0.7930 -0.5813
   93MPD2    H7 1429   4.566   4.614  13.957  1.7173  2.0850  1.0856
   94TCq2    C1 1430   4.705   0.012  13.869 -0.2716 -0.0150  0.8208
   94TCq2    O2 1431   0.029   0.071  13.774 -0.5308 -0.1940 -0.4987
   94TCq2    C2 1432   0.080   4.674  13.966 -0.2046  1.0467 -0.1112
   94TCq2    C3 1433   0.050   4.681  14.102  0.0836  0.4176  0.4250
   94TCq2    C4 1434   0.153   4.708  14.191  0.8151  0.7759 -0.2814
   94TCq2    C5 1435   0.281   0.016  14.155  0.2967  0.1371 -1.0367
   94TCq2    C6 1436   0.306   0.001  14.020  0.2946  0.3328  0.0086
   94TCq2    C7 1437   0.209   4.690  13.929 -0.4326 -0.2241  0.3502
   94TCq2    C8 1438   0.449   0.020  13.976 -1.0445  0.0833 -0.3064
   94TCq2    O4 1439   0.491   4.675  13.881 -0.2750  0.1851  0.3323
   94TCq2    C9 1440   0.121   4.720  14.332 -0.4558 -0.5916 -0.7960
   94TCq2    O5 1441   0.004   0.030  14.366  0.3911  0.8138 -0.1463
   94TCq2    O6 1442   0.219   0.002  14.408 -0.0986 -1.1339 -0.4333
   94TCq2    H2 1443   4.668   4.675  14.130 -0.0889 -1.1910 -0.5461
   94TCq2    H3 1444   0.368   0.021  14.220 -1.5993 -1.8184  1.6573
   94TCq2    H4 1445   0.238   4.694  13.825  0.4628 -2.0167  0.5423
   95TMC2    C1 1446   0.298   1.019  16.197  0.1447 -0.3046 -0.6421
   95TMC2    C2 1447   0.302   0.893  16.142 -1.2003 -0.6554  0.3601
   95TMC2    C3 1448   0.217   0.803  16.203  0.7223  0.0957 -0.9115
   95TMC2    C4 1449   0.231   1.046  16.314 -0.1244 -0.0263 -0.3283
   95TMC2    C5 1450   0.170   0.947  16.383 -0.0012  0.1705  0.4406
   95TMC2    C6 1451   0.152   0.823  16.327  0.0025 -0.0079 -0.3981
   95TMC2     C 1452   0.352   1.127  16.119 -1.1550 -0.1438  0.3845
   95TMC2     O 1453   0.414   1.100  16.016 -0.2875 -0.2020 -0.5469
   95TMC2     H 1454   0.355   0.877  16.049 -0.8030  2.3617  0.0754
   95TMC2    H1 1455   0.242   1.144  16.358  0.0386 -0.6387  0.9997
   95TMC2    H2 1456   0.093   0.744  16.372  0.5109  0.0360  0.3316
   95TMC2    C7 1457   0.151   0.955  16.527  0.3787 -0.0105  0.3782
   95TMC2    C8 1458   0.207   0.672  16.144 -0.4395 -1.0307 -0.3201
   95TMC2    O1 1459   0.121   0.852  16.585 -0.2942 -0.1504 -0.1208
   95TMC2    O2 1460   0.181   0.576  16.212 -0.3747  0.0988 -0.2264
   95TMC2    O5 1461   0.193   0.674  16.014 -0.2264  0.1259  0.1433
   95TMC2    H5 1462   0.171   0.764  15.983 -0.0473 -0.2262 -1.0305
   96MPD2     C 1463   0.379   1.611  15.957 -0.6660  0.2487 -0.0406
   96MPD2    C1 1464   0.457   1.505  15.913 -0.3979 -0.2156 -0.1306
   96MPD2    C2 1465   0.421   1.378  15.960  0.2109 -0.6354  0.1917
   96MPD2    C3 1466   0.322   1.365  16.067  0.1927  0.1168  0.2862
   96MPD2    C4 1467   0.254   1.477  16.107 -0.8373  0.1039  0.3775
   96MPD2    C5 1468   0.283   1.602  16.056  0.5752  0.1806  0.9263
   96MPD2     H 1469   0.473   1.292  15.919  0.3324 -0.0680 -0.8335
   96MPD2    H1 1470   0.178   1.467  16.184  0.9796 -1.3358  1.9749
   96MPD2    H2 1471   0.401   1.710  15.919  0.6616  0.5521  1.4884
   96MPD2    H3 1472   0.220   1.684  16.087  0.4397 -0.1357  1.4739
   96MPD2     N 1473   0.291   1.247  16.141  0.0126  0.5207 -0.2284
   96MPD2    H5 1474   0.222   1.255  16.215 -0.7561 -0.4899 -0.8279
   96MPD2    N1 1475   0.552   1.528  15.813 -0.3394  0.3706 -0.6149
   96MPD2    H7 1476   0.565   1.625  15.787 -4.5998  1.3883  1.1750
   97MPD2     C 1477   2.677   3.597   0.041 -0.4738  0.6331 -0.0467
   97MPD2    C1 1478   2.543   3.614   0.059  0.0690  0.2092 -0.4253
   97MPD2    C2 1479   2.456   3.639  17.650  0.5663 -0.4771  0.5456
   97MPD2    C3 1480   2.507   3.634  17.524 -0.0949  0.1893 -0.1826
   97MPD2    C4 1481   2.647   3.612  17.498 -0.3259 -0.0924 -0.0750
   97MPD2    C5 1482   2.727   3.588  17.606 -0.4062  0.3691 -0.4621
   97MPD2     H 1483   2.354   3.652  17.684  0.1765 -0.1548 -0.7508
   97MPD2    H1 1484   2.690   3.607  17.399 -0.1265 -1.2235  0.0642
   97MPD2    H2 1485   2.736   3.576   0.130 -0.9623 -0.6690 -0.0270
   97MPD2    H3 1486   2.832   3.561  17.597 -0.1112  1.5974 -0.6711
   97MPD2     N 1487   2.422   3.646  17.413  0.0059 -0.0842 -0.1693
   97MPD2    H5 1488   2.472   3.645  17.325  2.5408 -0.0277  1.2370
   97MPD2    N1 1489   2.507   3.584   0.190  0.2864 -0.4118 -0.6806
   97MPD2    H7 1490   2.579   3.553   0.254  1.0305 -1.9928 -2.2673
   98TCq2    C1 1491   2.282   3.660  17.410  0.2124 -0.1727  0.9426
   98TCq2    O2 1492   2.200   3.646  17.496 -0.3466  0.4683  0.2556
   98TCq2    C2 1493   2.219   3.671  17.277 -0.0371 -0.1343 -0.2801
   98TCq2    C3 1494   2.080   3.676  17.272  0.2974 -0.4181  0.3885
   98TCq2    C4 1495   2.011   3.747  17.172  0.4591 -0.3475  0.9463
   98TCq2    C5 1496   2.085   3.811  17.078 -0.2357 -0.1944  0.7398
   98TCq2    C6 1497   2.223   3.809  17.084 -0.4103 -0.0150 -0.1512
   98TCq2    C7 1498   2.292   3.742  17.185  0.3637 -0.4027  0.1144
   98TCq2    C8 1499   2.294   3.939  17.067 -0.7055 -0.7339 -0.1033
   98TCq2    O4 1500   2.416   3.951  17.064  0.2527  0.3700  0.4614
   98TCq2    C9 1501   1.869   3.745  17.165  0.1094 -0.4853  1.2688
   98TCq2    O5 1502   1.822   3.814  17.076  0.1215 -0.2542  0.1310
   98TCq2    O6 1503   1.809   3.680  17.253  0.8981 -0.1443 -0.1660
   98TCq2    H2 1504   2.029   3.621  17.350 -0.1634  0.7496  0.9178
   98TCq2    H3 1505   2.032   3.856  16.995 -0.8841  2.3119  2.5042
   98TCq2    H4 1506   2.400   3.748  17.177  0.2243  0.1133 -1.4067
   99MPD2     C 1507   1.512   0.047   2.140  0.4388  0.0361 -0.1224
   99MPD2    C1 1508   1.409   0.137   2.169 -0.3045 -0.3101 -0.3910
   99MPD2    C2 1509   1.318   0.164   2.071  0.1328 -0.3605 -0.1314
   99MPD2    C3 1510   1.324   0.107   1.947  0.0503  0.3947  0.1718
   99MPD2    C4 1511   1.429   0.023   1.916  0.5548 -0.4122  0.9459
   99MPD2    C5 1512   1.521   4.716   2.010  0.6013  0.4442 -0.1301
   99MPD2     H 1513   1.234   0.229   2.095  1.5243  1.4710 -0.1908
   99MPD2    H1 1514   1.434   4.705   1.815 -1.6470  1.4114  0.1215
   99MPD2    H2 1515   1.574   0.020   2.225 -0.3709  2.5447  1.2805
   99MPD2    H3 1516   1.604   4.649   1.990 -0.8594 -1.0741 -1.0729
   99MPD2     N 1517   1.242   0.152   1.845 -0.5464 -0.5405 -0.3738
   99MPD2    H5 1518   1.176   0.224   1.873  2.3165  2.1633 -0.6975
   99MPD2    N1 1519   1.405   0.204   2.292  0.1249 -0.6225  0.6171
   99MPD2    H7 1520   1.328   0.270   2.299  0.4725 -0.3141  1.4845
  100TCq2    C1 1521   1.485   0.184   2.402  0.1151 -0.4274 -0.7085
  100TCq2    O2 1522   1.558   0.091   2.430 -0.3978 -0.0682  0.0642
  100TCq2    C2 1523   1.465   0.295   2.496  0.3686  0.1272 -0.3854
  100TCq2    C3 1524   1.522   0.289   2.616 -0.4486 -0.0079 -0.6071
  100TCq2    C4 1525   1.522   0.393   2.701 -0.4693  0.2541 -0.4626
  100TCq2    C5 1526   1.447   0.508   2.674  0.0631  0.5061  0.3103
  100TCq2    C6 1527   1.384   0.510   2.556  0.3461 -0.0908 -0.2572
  100TCq2    C7 1528   1.393   0.408   2.464 -0.0550 -0.3464  0.1048
  100TCq2    C8 1529   1.290   0.616   2.529  0.5419  0.0158  0.0219
  100TCq2    O4 1530   1.303   0.714   2.601 -0.6290 -0.2260 -0.4261
  100TCq2    C9 1531   1.591   0.381   2.828  0.1669  0.2385  0.1350
  100TCq2    O5 1532   1.671   0.285   2.852  0.0241 -0.5407  0.1581
  100TCq2    O6 1533   1.580   0.476   2.913  0.0836  0.0363 -0.4142
  100TCq2    H2 1534   1.575   0.198   2.641 -1.3622 -0.6908 -1.1411
  100TCq2    H3 1535   1.445   0.592   2.741  0.9492  1.6311 -1.0821
  100TCq2    H4 1536   1.362   0.433   2.363 -0.0009  0.2509  0.2331
  101MPD2     C 1537   1.530   2.065  12.594  0.3088  0.7200  0.8865
  101MPD2    C1 1538   1.487   2.139  12.699  0.3293  0.1120 -0.3489
  101MPD2    C2 1539   1.436   2.080  12.812  0.3546 -0.3947  0.2652
  101MPD2    C3 1540   1.427   1.933  12.822 -0.2842  0.6649 -0.4046
  101MPD2    C4 1541   1.474   1.857  12.714  0.2122 -0.5896 -0.3697
  101MPD2    C5 1542   1.520   1.927  12.601 -0.3250  0.0605  0.4626
  101MPD2     H 1543   1.408   2.141  12.896 -0.1401  0.7393 -0.7229
  101MPD2    H1 1544   1.472   1.749  12.706 -0.9453 -0.5294 -0.8874
  101MPD2    H2 1545   1.577   2.102  12.504 -0.0350 -1.6204 -0.2556
  101MPD2    H3 1546   1.554   1.868  12.517 -1.9843 -0.8317  0.4198
  101MPD2     N 1547   1.374   1.878  12.944 -0.3246  0.1479  0.5401
  101MPD2    H5 1548   1.355   1.941  13.021 -1.0456  2.1632 -1.2900
  101MPD2    N1 1549   1.494   2.283  12.685  0.5143  0.1088 -0.8131
  101MPD2    H7 1550   1.542   2.316  12.601 -0.8727  0.8630 -1.3131
  102TCq2    C1 1551   1.716   2.680  12.502  0.0306 -0.0226  0.2571
  102TCq2    O2 1552   1.817   2.610  12.494  0.4881 -0.0563  0.2325
  102TCq2    C2 1553   1.627   2.654  12.616  0.5468 -0.3034  0.0241
  102TCq2    C3 1554   1.546   2.757  12.648  0.5790 -0.0772  0.1516
  102TCq2    C4 1555   1.433   2.741  12.725  0.6571  0.1269  0.3449
  102TCq2    C5 1556   1.408   2.618  12.781  0.9860  0.1922  0.7666
  102TCq2    C6 1557   1.492   2.518  12.736 -0.0653 -0.3173 -0.2392
  102TCq2    C7 1558   1.601   2.529  12.648  0.5506  0.6514 -0.1407
  102TCq2    C8 1559   1.449   2.382  12.770  0.6883 -0.8973 -0.0521
  102TCq2    O4 1560   1.363   2.382  12.856 -0.0251 -0.0323  0.0415
  102TCq2    C9 1561   1.339   2.848  12.744  0.4206  0.3881 -0.0601
  102TCq2    O5 1562   1.384   2.965  12.717 -0.4227  0.4858 -0.1487
  102TCq2    O6 1563   1.216   2.808  12.729 -0.0333  0.6780 -0.2980
  102TCq2    H2 1564   1.569   2.858  12.616 -0.4397 -0.1044 -0.6957
  102TCq2    H3 1565   1.317   2.599  12.838 -0.3078 -0.8696 -1.6498
  102TCq2    H4 1566   1.671   2.452  12.616 -0.4483 -0.6239  0.7612
  103TMC2    C1 1567   4.711   2.360  12.974 -0.1407  0.1963 -0.1690
  103TMC2    C2 1568   0.113   2.332  13.017  0.6651 -0.5113 -0.0787
  103TMC2    C3 1569   0.157   2.408  13.124  0.0055 -0.0878  0.9327
  103TMC2    C4 1570   4.629   2.456  13.028 -0.2442 -0.4031  0.3233
  103TMC2    C5 1571   4.678   2.527  13.133  0.0207 -0.2493  0.5151
  103TMC2    C6 1572   0.078   2.503  13.185 -0.5574 -0.2469 -0.5089
  103TMC2     C 1573   4.654   2.286  12.863 -0.7012  0.4325 -0.2911
  103TMC2     O 1574   4.555   2.332  12.813  0.0190  0.4809 -0.7049
  103TMC2     H 1575   0.159   2.238  12.988  1.6834  0.2041 -0.7633
  103TMC2    H1 1576   4.528   2.479  12.995  0.3648  0.3532 -0.9947
  103TMC2    H2 1577   0.096   2.549  13.281  0.6570 -0.3371 -0.7015
  103TMC2    C7 1578   4.571   2.590  13.215  0.2293  0.5451 -0.1716
  103TMC2    C8 1579   0.297   2.391  13.175  0.2457 -0.1542 -0.0179
  103TMC2    O1 1580   4.454   2.559  13.194 -0.0113  0.2200  0.1608
  103TMC2    O2 1581   0.330   2.450  13.280 -0.1424  0.2236  0.3955
  103TMC2    O5 1582   0.379   2.349  13.078 -0.0576 -0.0038  0.0145
  103TMC2    H5 1583   0.341   2.332  12.990  0.1457 -1.6264  0.2404
  104MPD2     C 1584   0.044   1.982  12.689 -0.7365  0.2887 -0.4625
  104MPD2    C1 1585   4.704   2.098  12.703  0.2309  0.9464  0.1799
  104MPD2    C2 1586   4.636   2.154  12.590  0.7438 -0.0480  0.1350
  104MPD2    C3 1587   4.628   2.092  12.464  0.7848  0.2868  0.1210
  104MPD2    C4 1588   4.704   1.973  12.454  0.5211 -0.3497 -0.4320
  104MPD2    C5 1589   0.047   1.926  12.568  0.1517 -0.3575 -0.5058
  104MPD2     H 1590   4.585   2.248  12.612 -0.1643 -1.1360  2.6692
  104MPD2    H1 1591   4.708   1.918  12.360  0.1681  1.2055 -1.3535
  104MPD2    H2 1592   0.103   1.938  12.768  0.9604  2.1422 -0.6949
  104MPD2    H3 1593   0.108   1.837  12.558 -1.4251 -1.5855  0.6493
  104MPD2     N 1594   4.556   2.158  12.357 -0.4881  0.7569 -0.3084
  104MPD2    H5 1595   4.500   2.234  12.395 -0.8039  0.2112  0.3162
  104MPD2    N1 1596   4.721   2.170  12.826 -0.6106 -0.1117  0.3979
  104MPD2    H7 1597   0.057   2.116  12.889  0.4889  0.8050  0.1700
  105MPD2     C 1598   1.415   1.622   0.218  1.0237 -0.3524 -0.3604
  105MPD2    C1 1599   1.372   1.749   0.178  0.5118 -0.0754  0.1233
  105MPD2    C2 1600   1.311   1.835   0.273 -0.0317  0.1807  0.4274
  105MPD2    C3 1601   1.290   1.795   0.404  0.2736  0.6485 -0.1721
  105MPD2    C4 1602   1.336   1.673   0.440 -0.1620 -0.2638  0.3152
  105MPD2    C5 1603   1.391   1.583   0.348 -0.1662 -0.5614 -0.1866
  105MPD2     H 1604   1.295   1.937   0.239  1.6438  0.4788  0.5703
  105MPD2    H1 1605   1.321   1.632   0.539 -0.8007 -1.0051 -0.0845
  105MPD2    H2 1606   1.456   1.559   0.140  0.4358  0.7175 -1.5504
  105MPD2    H3 1607   1.435   1.492   0.387  3.5393  1.6797  0.8404
  105MPD2     N 1608   1.223   1.875   0.491  0.4735  0.2408 -0.4058
  105MPD2    H5 1609   1.205   1.966   0.451  1.0193  0.1926 -0.7572
  105MPD2    N1 1610   1.373   1.799   0.048 -0.0385  0.1126  0.1614
  105MPD2    H7 1611   1.349   1.893   0.021  1.3367 -0.0823 -1.6915
  106TCq2    C1 1612   1.197   1.847   0.625 -0.2351  0.1118  0.3528
  106TCq2    O2 1613   1.212   1.751   0.697  0.2330  0.4091 -0.9269
  106TCq2    C2 1614   1.137   1.967   0.681  0.0739 -0.5699 -0.5547
  106TCq2    C3 1615   1.065   2.050   0.604  0.1989  0.0062 -0.0736
  106TCq2    C4 1616   1.041   2.180   0.640  0.6054 -0.6158 -0.0492
  106TCq2    C5 1617   1.076   2.222   0.764  0.6614 -0.5471 -0.5891
  106TCq2    C6 1618   1.127   2.126   0.851  0.2839  0.2253 -0.0843
  106TCq2    C7 1619   1.172   2.004   0.807 -0.0435 -1.2854  0.4074
  106TCq2    C8 1620   1.141   2.165   0.989 -0.2365 -0.1349  0.2409
  106TCq2    O4 1621   1.158   2.288   1.006 -0.1680  0.4341  0.2317
  106TCq2    C9 1622   0.987   2.276   0.551 -0.9343 -0.3703  0.5768
  106TCq2    O5 1623   0.974   2.395   0.589 -0.0192 -0.0480 -0.0281
  106TCq2    O6 1624   0.908   2.233   0.461  0.6288  0.1708  0.2690
  106TCq2    H2 1625   1.012   2.013   0.516 -0.0210  0.1019  0.0199
  106TCq2    H3 1626   1.058   2.326   0.789  3.3400 -0.1189 -0.4488
  106TCq2    H4 1627   1.220   1.929   0.868  2.8602  0.4451  0.2891
  107TMC2    C1 1628   1.904   0.196  11.623 -0.2770  0.4416  0.0868
  107TMC2    C2 1629   1.866   0.093  11.707  0.0062 -0.4029  0.0123
  107TMC2    C3 1630   1.940   4.700  11.702  0.4421 -0.2473  1.2196
  107TMC2    C4 1631   2.003   0.177  11.527  0.2889  0.5287  0.4382
  107TMC2    C5 1632   2.061   0.056  11.526 -0.4551 -0.3517  0.5884
  107TMC2    C6 1633   2.045   4.682  11.619  0.9272 -0.1701 -0.1408
  107TMC2     C 1634   1.875   0.321  11.685 -0.3808 -0.1645 -0.1699
  107TMC2     O 1635   1.810   0.320  11.792  0.3285  0.1800 -0.0838
  107TMC2     H 1636   1.780   0.092  11.773  0.6367  0.7188  0.8463
  107TMC2    H1 1637   2.035   0.255  11.459 -1.3644  2.1627  1.5324
  107TMC2    H2 1638   2.111   4.596  11.616  0.1986 -0.7005 -1.0295
  107TMC2    C7 1639   2.094   4.714  11.395  0.4396  0.3119 -0.3588
  107TMC2    C8 1640   1.910   4.597  11.785  0.1318 -0.3120  0.3394
  107TMC2    O1 1641   2.116   4.593  11.402 -0.5230  0.1680  0.3333
  107TMC2    O2 1642   1.970   4.491  11.767 -0.2199  0.3072 -0.1568
  107TMC2    O5 1643   1.927   4.661  11.906  0.7794  0.4289  0.4036
  107TMC2    H5 1644   1.886   0.026  11.924  1.3534  0.7076  0.3814
  108MPD2     C 1645   1.951   0.657  11.563 -0.6511  0.2614 -0.6499
  108MPD2    C1 1646   1.904   0.564  11.654  0.0010 -0.3983  0.3891
  108MPD2    C2 1647   1.870   0.611  11.780 -0.4272  0.0244 -0.1173
  108MPD2    C3 1648   1.851   0.748  11.803 -0.2455  0.8581 -0.3362
  108MPD2    C4 1649   1.895   0.842  11.710 -0.3948 -0.2937  0.2387
  108MPD2    C5 1650   1.944   0.789  11.592  0.5115  0.6768  0.5107
  108MPD2     H 1651   1.838   0.543  11.859  0.8037  0.4301  0.7195
  108MPD2    H1 1652   1.884   0.947  11.734 -0.9324 -0.5403  1.0819
  108MPD2    H2 1653   1.974   0.635  11.460  1.7177 -2.8096  0.5643
  108MPD2    H3 1654   1.971   0.865  11.519  0.6056 -0.6049 -0.7932
  108MPD2     N 1655   1.780   0.793  11.920 -0.0988  0.3241  0.2391
  108MPD2    H5 1656   1.745   0.888  11.928 -2.8112 -0.5369 -1.4712
  108MPD2    N1 1657   1.904   0.431  11.610 -0.1055  0.2997 -0.5888
  108MPD2    H7 1658   1.955   0.403  11.527 -0.9715  0.5873 -1.2166
  109MPD2     C 1659   3.344   2.322   0.705 -0.2435 -0.8579 -0.2331
  109MPD2    C1 1660   3.309   2.348   0.835  0.1010  0.6176 -0.1458
  109MPD2    C2 1661   3.289   2.478   0.876 -0.2188  0.4864  0.3746
  109MPD2    C3 1662   3.282   2.583   0.788 -0.1499  0.0748  0.5637
  109MPD2    C4 1663   3.318   2.556   0.654  0.0580  0.0268 -0.8951
  109MPD2    C5 1664   3.350   2.430   0.623  0.1105 -1.0557  0.0321
  109MPD2     H 1665   3.283   2.502   0.982 -1.4078 -0.5385  0.5397
  109MPD2    H1 1666   3.320   2.627   0.573  2.4126 -0.9685 -1.7072
  109MPD2    H2 1667   3.380   2.227   0.668  0.9661 -0.5658  0.1999
  109MPD2    H3 1668   3.368   2.399   0.521  0.2883 -2.1682  0.4001
  109MPD2     N 1669   3.248   2.707   0.846 -0.0181 -0.1590  0.1443
  109MPD2    H5 1670   3.218   2.708   0.943 -0.4932  2.2366 -0.0206
  109MPD2    N1 1671   3.307   2.236   0.923 -0.7474  0.0190  0.5747
  109MPD2    H7 1672   3.314   2.141   0.888 -0.9190 -0.4144  1.7146
  110TCq2    C1 1673   3.210   2.822   0.786 -0.0873  0.8816  0.7466
  110TCq2    O2 1674   3.216   2.853   0.666 -0.6601 -0.5967  0.0723
  110TCq2    C2 1675   3.177   2.927   0.878  0.2792  0.3782 -0.3443
  110TCq2    C3 1676   3.225   2.927   1.005 -0.2727  0.4293 -0.7916
  110TCq2    C4 1677   3.238   3.040   1.080 -0.5511 -0.1898 -0.3502
  110TCq2    C5 1678   3.212   3.161   1.025 -0.2063  0.2464 -0.6918
  110TCq2    C6 1679   3.160   3.165   0.896 -0.5694 -0.6716  0.0616
  110TCq2    C7 1680   3.131   3.052   0.825  0.0782 -0.4216  0.7694
  110TCq2    C8 1681   3.094   3.297   0.861  0.2070  0.3760 -0.4663
  110TCq2    O4 1682   3.050   3.301   0.746 -0.7535 -0.7884  0.6493
  110TCq2    C9 1683   3.285   3.029   1.210 -0.5041 -0.0272  0.5614
  110TCq2    O5 1684   3.289   2.913   1.265 -0.0203 -0.3551 -0.6494
  110TCq2    O6 1685   3.280   3.128   1.287 -0.6530  0.0213 -0.7905
  110TCq2    H2 1686   3.254   2.836   1.056  0.1070 -0.3647 -2.4245
  110TCq2    H3 1687   3.224   3.248   1.089 -0.1401 -0.5162  0.3373
  110TCq2    H4 1688   3.104   3.060   0.720 -0.1855 -0.4608  0.8346
  111TMC2    C1 1689   2.235   3.159  11.049 -0.7934 -0.1770  0.0642
  111TMC2    C2 1690   2.328   3.191  10.954 -0.2945  0.4277 -0.2560
  111TMC2    C3 1691   2.461   3.185  10.985  0.5155  0.0184  1.4845
  111TMC2    C4 1692   2.274   3.142  11.176 -0.1593 -0.2071  0.1595
  111TMC2    C5 1693   2.406   3.143  11.209 -0.2817 -0.1206 -0.3945
  111TMC2    C6 1694   2.506   3.170  11.114  0.6748 -1.0940 -0.4479
  111TMC2     C 1695   2.094   3.180  11.014  0.7772 -0.4868  0.4331
  111TMC2     O 1696   2.071   3.185  10.893 -0.1826  0.1126 -0.2615
  111TMC2     H 1697   2.294   3.203  10.852  3.2319  1.5572 -1.3122
  111TMC2    H1 1698   2.207   3.129  11.260 -0.3325  0.3559  0.1069
  111TMC2    H2 1699   2.614   3.165  11.122  0.8995  0.6372 -2.3283
  111TMC2    C7 1700   2.450   3.103  11.336 -0.3253 -0.2556  0.3219
  111TMC2    C8 1701   2.558   3.241  10.888  0.5501 -0.4667  0.5368
  111TMC2    O1 1702   2.360   3.075  11.417 -0.3318 -0.4210  0.1104
  111TMC2    O2 1703   2.653   3.312  10.920 -0.8604 -0.5302 -0.5806
  111TMC2    O5 1704   2.551   3.156  10.783  0.1567 -0.0856 -0.4944
  111TMC2    H5 1705   2.505   3.073  10.808  2.3899 -1.8737 -2.3222
  112MPD2     C 1706   1.618   3.351  11.116 -0.7439  0.1625  0.3243
  112MPD2    C1 1707   1.661   3.268  11.016 -0.2697 -0.7466 -0.5468
  112MPD2    C2 1708   1.791   3.222  11.020 -0.4333  0.4323  0.1264
  112MPD2    C3 1709   1.880   3.259  11.124  0.5355 -0.1508 -0.0833
  112MPD2    C4 1710   1.838   3.346  11.224 -0.6175  0.1599  0.2223
  112MPD2    C5 1711   1.711   3.394  11.214  0.9320  0.4987  0.3329
  112MPD2     H 1712   1.822   3.152  10.943 -2.3395  0.2192 -0.4479
  112MPD2    H1 1713   1.907   3.388  11.296  0.5316  0.0888 -0.8368
  112MPD2    H2 1714   1.523   3.402  11.118 -1.0333 -0.4405  2.4256
  112MPD2    H3 1715   1.684   3.465  11.291 -0.3687  1.6090 -1.1584
  112MPD2     N 1716   2.014   3.217  11.124 -0.0748 -0.2505 -0.2372
  112MPD2    H5 1717   2.069   3.244  11.205  0.3325 -1.7306 -0.0158
  112MPD2    N1 1718   1.573   3.229  10.914 -0.2367  0.0349 -0.3121
  112MPD2    H7 1719   1.606   3.163  10.844 -0.7521  0.5567 -1.0325
  113MPD2     C 1720   0.369   0.626   1.405  0.3016  0.3663 -0.0368
  113MPD2    C1 1721   0.341   0.751   1.343  0.3705  0.7467 -0.3295
  113MPD2    C2 1722   0.229   0.755   1.262 -0.6794  0.1569  0.4030
  113MPD2    C3 1723   0.132   0.656   1.260 -1.0586 -0.3369 -0.0691
  113MPD2    C4 1724   0.154   0.543   1.329  0.4118  0.5105 -0.3600
  113MPD2    C5 1725   0.276   0.530   1.397 -0.3259  0.1612 -0.5969
  113MPD2     H 1726   0.209   0.844   1.203  0.9550  0.9662  1.0480
  113MPD2    H1 1727   0.083   0.462   1.341  0.1330  1.1334  2.3505
  113MPD2    H2 1728   0.459   0.608   1.463 -0.6158 -0.6641  1.0495
  113MPD2    H3 1729   0.317   0.438   1.438  0.8877  0.6608 -0.6947
  113MPD2     N 1730   0.012   0.655   1.186 -0.6322  0.1857 -0.4169
  113MPD2    H5 1731   4.674   0.574   1.180 -0.3407 -0.2125  1.8705
  113MPD2    N1 1732   0.427   0.859   1.348  0.5226 -0.2004  0.0701
  113MPD2    H7 1733   0.394   0.950   1.317  0.3625 -0.1143  0.4824
  114TCq2    C1 1734   4.688   0.760   1.108 -0.4091 -0.5009 -0.0468
  114TCq2    O2 1735   0.019   0.872   1.089 -0.0210  0.9852  0.8370
  114TCq2    C2 1736   4.575   0.720   1.026 -0.0181 -0.5376 -0.8001
  114TCq2    C3 1737   4.505   0.817   0.956  0.3670  0.7858  0.2963
  114TCq2    C4 1738   4.403   0.780   0.873  0.6173  0.8016  0.0026
  114TCq2    C5 1739   4.366   0.648   0.860 -0.0263  0.5217 -0.5241
  114TCq2    C6 1740   4.437   0.554   0.930  0.0789 -0.1197 -0.3037
  114TCq2    C7 1741   4.539   0.586   1.018  0.4659 -0.0050 -0.1874
  114TCq2    C8 1742   4.380   0.426   0.937 -0.5417  0.6326 -0.7369
  114TCq2    O4 1743   4.331   0.384   0.830 -0.1248 -0.2793 -0.3070
  114TCq2    C9 1744   4.317   0.877   0.813 -0.2021  0.6923  0.1668
  114TCq2    O5 1745   4.360   0.994   0.829 -0.0546  0.0593  0.0180
  114TCq2    O6 1746   4.226   0.852   0.739  0.0749 -0.2459 -0.4500
  114TCq2    H2 1747   4.541   0.919   0.964  0.1158  1.0320 -1.8845
  114TCq2    H3 1748   4.282   0.626   0.795 -1.2764 -1.3104  1.6890
  114TCq2    H4 1749   4.608   0.511   1.055 -0.2478 -0.7693 -0.3760
  115TMC2    C1 1750   0.320   3.142   0.218 -0.5411  0.7711 -0.2356
  115TMC2    C2 1751   0.453   3.114   0.216  0.3874 -0.7891 -0.1493
  115TMC2    C3 1752   0.537   3.214   0.192 -0.2354  0.1590 -0.4277
  115TMC2    C4 1753   0.275   3.270   0.197 -0.1314 -0.2682 -1.4496
  115TMC2    C5 1754   0.367   3.369   0.170  0.4668 -0.7934  0.3067
  115TMC2    C6 1755   0.501   3.345   0.174  0.0783  0.1907  0.5598
  115TMC2     C 1756   0.236   3.024   0.206 -0.1229 -0.0287 -1.0132
  115TMC2     O 1757   0.287   2.922   0.160  0.1368 -0.0462 -0.4508
  115TMC2     H 1758   0.494   3.016   0.239  1.0623 -0.2053  1.1787
  115TMC2    H1 1759   0.173   3.297   0.173 -1.2527 -1.8448  1.4862
  115TMC2    H2 1760   0.576   3.423   0.169  0.6509 -0.3640  0.4425
  115TMC2    C7 1761   0.315   3.500   0.153  0.2776 -0.2041  1.0914
  115TMC2    C8 1762   0.676   3.190   0.237  0.2818  0.2017  0.5244
  115TMC2    O1 1763   0.200   3.514   0.194 -0.1615  0.4256 -0.0401
  115TMC2    O2 1764   0.753   3.272   0.280 -0.1573  0.5046 -0.0556
  115TMC2    O5 1765   0.714   3.082   0.170 -0.0603 -0.4552 -0.6005
  115TMC2    H5 1766   0.637   3.056   0.115  0.3068 -1.0209 -0.8404
  116MPD2     C 1767   4.501   2.792   0.108 -0.3588 -0.8052  0.3757
  116MPD2    C1 1768   4.631   2.753   0.085  0.6072  0.3277 -0.8372
  116MPD2    C2 1769   0.009   2.845   0.104  0.8654 -0.2909 -0.6522
  116MPD2    C3 1770   4.716   2.959   0.184 -0.2576  0.0336 -0.5487
  116MPD2    C4 1771   4.586   2.988   0.220  0.0640  0.5724 -0.1383
  116MPD2    C5 1772   4.488   2.908   0.174 -0.2916 -0.6402  0.4683
  116MPD2     H 1773   0.106   2.830   0.059  1.0727 -1.6447  0.2535
  116MPD2    H1 1774   4.563   3.074   0.281 -1.3904 -0.0571  0.2102
  116MPD2    H2 1775   4.412   2.740   0.075 -0.1744 -0.5222 -0.5656
  116MPD2    H3 1776   4.388   2.937   0.204  0.7444  2.6847  0.6893
  116MPD2     N 1777   0.100   3.050   0.225  0.6078 -0.2487 -0.1308
  116MPD2    H5 1778   0.074   3.132   0.279  1.9922 -0.5020  0.9323
  116MPD2    N1 1779   4.655   2.641   0.003 -0.3455  0.5096 -0.3310
  116MPD2    H7 1780   4.570   2.597  17.658 -0.5286  1.1810 -0.7101
  117TMC2    C1 1781   3.974   0.046  14.039  0.2205  0.7791  0.4798
  117TMC2    C2 1782   4.069   4.686  14.095 -0.3818  0.3223 -0.6915
  117TMC2    C3 1783   4.195   0.020  14.099 -0.4329 -0.9914 -0.1686
  117TMC2    C4 1784   4.003   0.168  14.001 -0.5345 -1.1078  0.6142
  117TMC2    C5 1785   4.130   0.219  14.004 -0.2408 -0.0023 -0.7672
  117TMC2    C6 1786   4.233   0.142  14.050  0.1511 -0.2979  0.5576
  117TMC2     C 1787   3.833   0.008  14.046 -1.1036 -0.0912  0.0744
  117TMC2     O 1788   3.811   4.615  14.081 -0.4468 -0.2739  0.5413
  117TMC2     H 1789   4.046   4.585  14.128 -0.6723  0.3772 -0.7278
  117TMC2    H1 1790   3.929   0.234  13.957 -0.6255 -1.5261  0.1375
  117TMC2    H2 1791   4.336   0.174  14.059  0.3763 -1.0298  0.5907
  117TMC2    C7 1792   4.160   0.356  13.957 -0.0602 -0.4684 -0.0842
  117TMC2    C8 1793   4.308   4.659  14.129  0.5159  0.1681 -0.2721
  117TMC2    O1 1794   4.278   0.383  13.931  0.3011  0.0501 -0.4327
  117TMC2    O2 1795   4.409   4.713  14.180  0.2559  0.2021 -0.8039
  117TMC2    O5 1796   4.261   4.524  14.146 -0.1527  0.7637  0.2707
  117TMC2    H5 1797   4.187   4.509  14.083  1.8554 -1.1856 -1.6502
  118MPD2     C 1798   3.930   0.651  13.930 -0.4868 -0.4633 -0.3148
  118MPD2    C1 1799   4.054   0.588  13.938  0.3442  0.4789 -0.4513
  118MPD2    C2 1800   4.169   0.660  13.913  0.0721  0.5633  0.1874
  118MPD2    C3 1801   4.159   0.789  13.872 -0.6149 -0.7564 -0.4137
  118MPD2    C4 1802   4.035   0.845  13.845  0.2055  0.5302  0.3625
  118MPD2    C5 1803   3.917   0.778  13.878  0.2625  0.1246  0.4506
  118MPD2     H 1804   4.268   0.615  13.912 -0.1986 -0.0537  1.4328
  118MPD2    H1 1805   4.032   0.948  13.812  2.0637  0.6163  0.4453
  118MPD2    H2 1806   3.835   0.607  13.957 -0.3993 -0.1196  0.5536
  118MPD2    H3 1807   3.817   0.816  13.857  0.4363  0.3590  0.0385
  118MPD2     N 1808   4.276   0.866  13.836 -0.4768  0.4920  0.0605
  118MPD2    H5 1809   4.267   0.951  13.782 -1.0400  0.2564 -0.2181
  118MPD2    N1 1810   4.050   0.445  13.969  0.3720  0.3206  0.1674
  118MPD2    H7 1811   3.964   0.409  14.008 -0.3873  0.8557 -1.0100
  119MPD2     C 1812   2.784   1.625  14.314  0.8067  0.6253 -0.3356
  119MPD2    C1 1813   2.660   1.677  14.277 -0.6354 -0.1405  0.4765
  119MPD2    C2 1814   2.623   1.655  14.147 -0.0440  0.4069  0.2212
  119MPD2    C3 1815   2.695   1.572  14.059 -0.0137  0.2752  0.1099
  119MPD2    C4 1816   2.822   1.532  14.102 -0.5324 -0.0496  0.1068
  119MPD2    C5 1817   2.862   1.553  14.229  0.5661 -0.1914  0.3171
  119MPD2     H 1818   2.533   1.704  14.112  0.8199  0.1837 -2.3008
  119MPD2    H1 1819   2.887   1.470  14.042  2.6831  0.9698  2.5588
  119MPD2    H2 1820   2.827   1.635  14.413  0.1547 -1.7318  0.1930
  119MPD2    H3 1821   2.962   1.521  14.255  0.8775 -1.3497 -2.3353
  119MPD2     N 1822   2.656   1.539  13.926  0.2241  0.5594 -0.0731
  119MPD2    H5 1823   2.719   1.482  13.870 -1.7353 -0.0857 -1.6369
  119MPD2    N1 1824   2.590   1.750  14.378  0.3334  0.4465  0.1233
  119MPD2    H7 1825   2.645   1.772  14.460 -0.9518  2.4018  0.4595
  120TCq2    C1 1826   2.531   1.561  13.880  0.3434  0.8612 -0.3044
  120TCq2    O2 1827   2.433   1.609  13.940  0.4800  0.2041 -0.1638
  120TCq2    C2 1828   2.518   1.534  13.738  0.1402  0.3291  0.3633
  120TCq2    C3 1829   2.620   1.489  13.658 -0.2489  0.7142 -0.4576
  120TCq2    C4 1830   2.590   1.452  13.525  0.0795 -0.0599  0.0009
  120TCq2    C5 1831   2.468   1.477  13.472  0.2775  0.2651  0.6745
  120TCq2    C6 1832   2.369   1.531  13.552  0.0813  0.0483 -0.3846
  120TCq2    C7 1833   2.392   1.558  13.683 -0.2960  0.1122 -0.2777
  120TCq2    C8 1834   2.230   1.517  13.514  0.2747 -0.1239  0.9233
  120TCq2    O4 1835   2.211   1.522  13.391 -0.0875  0.3747 -0.9616
  120TCq2    C9 1836   2.694   1.393  13.442 -0.1949 -0.5423 -0.3181
  120TCq2    O5 1837   2.649   1.330  13.344  0.4314  0.5091 -0.6404
  120TCq2    O6 1838   2.818   1.412  13.460  0.2779  0.4057 -0.9180
  120TCq2    H2 1839   2.721   1.464  13.689 -0.6483  1.4716  1.4272
  120TCq2    H3 1840   2.444   1.431  13.377 -0.6178 -1.0026  1.5216
  120TCq2    H4 1841   2.322   1.620  13.738 -0.9378 -2.5651  1.9435
  121TMC2    C1 1842   3.926   3.372  13.909  0.9623 -0.0260  0.7651
  121TMC2    C2 1843   3.903   3.237  13.928  0.2947  0.3119  1.0121
  121TMC2    C3 1844   3.780   3.195  13.894  0.2747 -0.1743 -0.2223
  121TMC2    C4 1845   3.844   3.455  13.836  0.0364  0.4741  0.1629
  121TMC2    C5 1846   3.719   3.408  13.802 -0.3580  0.0077 -0.2964
  121TMC2    C6 1847   3.695   3.276  13.822 -0.0011 -0.7261  0.4413
  121TMC2     C 1848   4.064   3.425  13.911  0.6745 -0.7587  0.2934
  121TMC2     O 1849   4.142   3.362  13.979 -0.0886 -0.2149 -0.1942
  121TMC2     H 1850   3.974   3.170  13.975  1.0904 -0.1382 -0.8093
  121TMC2    H1 1851   3.865   3.561  13.832  0.0388  0.4911  0.6238
  121TMC2    H2 1852   3.603   3.230  13.787 -0.6227 -1.5887  3.1806
  121TMC2    C7 1853   3.656   3.484  13.702 -0.4383 -0.9930 -0.5276
  121TMC2    C8 1854   3.740   3.060  13.895  0.1227 -0.2820 -0.0688
  121TMC2    O1 1855   3.713   3.577  13.655 -0.4000 -0.5320  0.1727
  121TMC2    O2 1856   3.622   3.035  13.916 -0.5843 -0.1328  0.8503
  121TMC2    O5 1857   3.853   2.990  13.929 -0.5179  0.5385  0.7107
  121TMC2    H5 1858   3.928   3.015  13.871 -0.9912 -3.4738 -1.5949
  122MPD2     C 1859   4.307   3.575  13.863 -0.1558 -0.0567  0.0451
  122MPD2    C1 1860   4.202   3.568  13.771  0.0638  0.5226  0.6053
  122MPD2    C2 1861   4.211   3.641  13.656  0.2675 -0.0087 -0.3086
  122MPD2    C3 1862   4.321   3.721  13.623  0.2232 -0.6525  0.3777
  122MPD2    C4 1863   4.417   3.743  13.722  0.1626  0.0038  0.4482
  122MPD2    C5 1864   4.411   3.667  13.838 -0.0591 -0.5921  0.9722
  122MPD2     H 1865   4.133   3.619  13.584  1.5057 -1.7241 -1.1102
  122MPD2    H1 1866   4.508   3.800  13.704 -0.3828  0.7882  0.1733
  122MPD2    H2 1867   4.318   3.517  13.954 -0.0472 -0.0831  0.0154
  122MPD2    H3 1868   4.496   3.663  13.905 -0.4178 -1.6531  1.3603
  122MPD2     N 1869   4.342   3.792  13.494 -0.1805  0.2079 -0.4256
  122MPD2    H5 1870   4.426   3.849  13.486  0.1543 -0.2021  0.1827
  122MPD2    N1 1871   4.087   3.496  13.799 -0.1386 -0.0830 -0.1959
  122MPD2    H7 1872   4.017   3.490  13.726 -0.4278 -1.2242  0.1790
  123MPD2     C 1873   1.137   1.299   9.306  0.0132  0.1052  1.0426
  123MPD2    C1 1874   1.131   1.418   9.238  0.2829  0.1480  0.9744
  123MPD2    C2 1875   1.251   1.474   9.195  0.5204 -0.6810  0.0923
  123MPD2    C3 1876   1.373   1.412   9.214 -0.1117 -0.2676  0.5148
  123MPD2    C4 1877   1.371   1.282   9.264 -0.3751  0.1576  0.3466
  123MPD2    C5 1878   1.254   1.231   9.309 -0.2187  0.1656  0.2666
  123MPD2     H 1879   1.248   1.576   9.158  0.5442 -1.4910 -2.1203
  123MPD2    H1 1880   1.461   1.220   9.269  0.0782  0.8705  1.0830
  123MPD2    H2 1881   1.053   1.254   9.356 -0.6632 -2.5227 -2.4786
  123MPD2    H3 1882   1.255   1.129   9.345 -1.4174  0.3742  0.8655
  123MPD2     N 1883   1.493   1.473   9.165 -0.1222 -0.4076 -0.4037
  123MPD2    H5 1884   1.480   1.568   9.129 -1.1820 -0.2389  0.4232
  123MPD2    N1 1885   0.998   1.467   9.212 -0.0014  0.2090 -0.0708
  123MPD2    H7 1886   0.923   1.407   9.243  0.8870 -1.3265 -0.9013
  124TCq2    C1 1887   1.622   1.426   9.183  0.1288 -0.5977 -0.0435
  124TCq2    O2 1888   1.667   1.334   9.253  0.3579  0.2844 -0.0796
  124TCq2    C2 1889   1.715   1.505   9.100 -0.5127  0.3538  1.6690
  124TCq2    C3 1890   1.681   1.580   8.989  0.2184 -0.0816  0.0752
  124TCq2    C4 1891   1.766   1.679   8.952  0.1816  0.6684  0.4380
  124TCq2    C5 1892   1.884   1.706   9.016  0.1187  0.1861 -0.0042
  124TCq2    C6 1893   1.913   1.625   9.131 -0.3232 -0.3919  0.0139
  124TCq2    C7 1894   1.833   1.520   9.168  0.2719 -0.2941 -0.6589
  124TCq2    C8 1895   1.989   1.670   9.243 -0.4821 -0.5061 -0.4277
  124TCq2    O4 1896   2.025   1.585   9.320  0.2193 -0.0517  0.1089
  124TCq2    C9 1897   1.731   1.755   8.836 -0.8136 -0.1846 -0.1003
  124TCq2    O5 1898   1.622   1.734   8.783  0.0002 -0.5676  0.2429
  124TCq2    O6 1899   1.816   1.842   8.801  0.6887 -0.2034 -0.5365
  124TCq2    H2 1900   1.584   1.566   8.942  0.3117 -1.2868  0.2292
  124TCq2    H3 1901   1.957   1.779   8.984 -0.9340  0.5257 -1.6450
  124TCq2    H4 1902   1.843   1.476   9.266 -1.7564 -1.0037 -0.7935
  125TMC2    C1 1903   1.373   3.198   9.556 -0.4001 -0.3471 -0.2406
  125TMC2    C2 1904   1.277   3.129   9.622 -0.2260  1.3547  0.6359
  125TMC2    C3 1905   1.189   3.059   9.549 -0.1878 -0.0941 -0.3581
  125TMC2    C4 1906   1.390   3.189   9.422 -0.5852 -0.4900 -0.7046
  125TMC2    C5 1907   1.294   3.125   9.351  0.5340  0.5045 -0.5226
  125TMC2    C6 1908   1.189   3.057   9.412  0.1876  0.2112  0.1495
  125TMC2     C 1909   1.464   3.286   9.633  0.3963 -0.4843 -0.7759
  125TMC2     O 1910   1.563   3.331   9.577 -0.0399 -0.6570  0.0550
  125TMC2     H 1911   1.272   3.119   9.730 -0.2321 -0.0549  0.5070
  125TMC2    H1 1912   1.462   3.253   9.372 -1.4776 -0.9507 -2.5894
  125TMC2    H2 1913   1.113   3.001   9.360  1.2622 -0.3466 -0.8051
  125TMC2    C7 1914   1.314   3.093   9.213  0.1782  0.0516 -0.0143
  125TMC2    C8 1915   1.086   2.990   9.624  0.6025 -0.0219  0.5340
  125TMC2    O1 1916   1.223   3.043   9.147  0.0725  0.1408  0.0681
  125TMC2    O2 1917   1.003   3.053   9.684  0.2029 -0.6404  0.1514
  125TMC2    O5 1918   1.059   2.883   9.550  0.3818  0.0453  0.0466
  125TMC2    H5 1919   1.140   2.846   9.509  1.2451  0.2941  1.5272
  126MPD1     C 1920   1.643   3.531  10.051  0.1514 -0.0347 -0.4089
  126MPD1    C1 1921   1.515   3.480  10.082 -0.0332 -0.8589  0.5800
  126MPD1    C2 1922   1.438   3.416   9.982  0.2212 -1.1088  0.0730
  126MPD1    C3 1923   1.499   3.384   9.865  0.2044 -0.2945 -0.0921
  126MPD1    C4 1924   1.631   3.416   9.844  0.1761 -0.2705 -0.2405
  126MPD1    C5 1925   1.698   3.497   9.929  0.1476  0.1564 -0.6838
  126MPD1     H 1926   1.342   3.376  10.012  0.3135 -2.4367 -1.4151
  126MPD1    H1 1927   1.696   3.393   9.760  0.2942 -2.2983  0.4023
  126MPD1    H2 1928   1.706   3.593  10.113 -1.4314  1.1463  0.0170
  126MPD1    H3 1929   1.800   3.523   9.903  0.1551  0.2196 -0.5955
  126MPD1     N 1930   1.421   3.320   9.764 -0.0748  0.1544  0.0435
  126MPD1    H5 1931   1.332   3.284   9.798 -1.0583 -0.8467 -3.6221
  126MPD1    N1 1932   1.458   3.530  10.205  0.1410 -0.2300 -0.2881
  126MPD1    H6 1933   1.528   3.535  10.279 -0.4907 -1.0367  0.3599
  126MPD1    H7 1934   1.375   3.485  10.243  1.3610 -1.3343  1.0277
  127MPD2     C 1935   3.230   2.428   8.656  0.1140 -0.2093  0.3970
  127MPD2    C1 1936   3.330   2.448   8.754 -0.2776 -0.4220 -0.3565
  127MPD2    C2 1937   3.346   2.571   8.819 -0.3688 -0.3253 -0.2409
  127MPD2    C3 1938   3.268   2.678   8.779 -0.3008  0.8662  0.9432
  127MPD2    C4 1939   3.175   2.659   8.678  0.2409  0.1332  0.1689
  127MPD2    C5 1940   3.157   2.534   8.618 -0.1109  0.5624 -0.5362
  127MPD2     H 1941   3.423   2.586   8.894 -0.2015  0.3265 -0.5508
  127MPD2    H1 1942   3.112   2.740   8.645  0.3558 -0.4722 -1.5812
  127MPD2    H2 1943   3.214   2.328   8.618 -0.1405 -0.1262  0.2858
  127MPD2    H3 1944   3.076   2.519   8.548  1.6967 -0.0234 -2.5120
  127MPD2     N 1945   3.283   2.798   8.849 -0.0741 -0.5122  0.5884
  127MPD2    H5 1946   3.338   2.794   8.934  1.8773  2.8940 -0.5145
  127MPD2    N1 1947   3.407   2.334   8.789 -0.4694  0.0745  0.6318
  127MPD2    H7 1948   3.389   2.243   8.747 -0.8120 -0.0567  1.0676
  128TCq2    C1 1949   3.525   2.340   8.854 -0.7430  0.7078 -0.4570
  128TCq2    O2 1950   3.600   2.437   8.866  0.0409 -0.3495  0.1979
  128TCq2    C2 1951   3.554   2.220   8.935  0.0759  0.0978  0.0962
  128TCq2    C3 1952   3.674   2.229   9.014 -0.3318  0.1924 -0.1554
  128TCq2    C4 1953   3.668   2.181   9.136  0.0790 -0.0573 -0.2184
  128TCq2    C5 1954   3.563   2.113   9.177  0.0886 -0.1596 -0.8534
  128TCq2    C6 1955   3.455   2.086   9.102  0.1307 -0.3620  0.9421
  128TCq2    C7 1956   3.448   2.149   8.979  0.4222  0.3746 -0.5450
  128TCq2    C8 1957   3.328   2.043   9.164  0.2035 -0.2904  0.6293
  128TCq2    O4 1958   3.226   2.045   9.101 -0.9420 -1.0750  0.0705
  128TCq2    C9 1959   3.772   2.214   9.226  0.0624  0.3084 -0.4189
  128TCq2    O5 1960   3.753   2.186   9.350 -0.1389  0.1849 -0.4643
  128TCq2    O6 1961   3.886   2.244   9.179 -0.7572 -0.2613 -0.4773
  128TCq2    H2 1962   3.755   2.297   8.989  1.5820 -1.6306  1.1542
  128TCq2    H3 1963   3.563   2.100   9.284  2.7921  2.1643 -0.5488
  128TCq2    H4 1964   3.352   2.141   8.928  1.3827  2.7429 -2.7674
  129MPD2     C 1965   3.641   1.840   0.520  0.5949  0.0707  0.0623
  129MPD2    C1 1966   3.596   1.835   0.653  0.0882 -0.1680  0.2534
  129MPD2    C2 1967   3.615   1.952   0.732  0.1442  0.0883 -0.9701
  129MPD2    C3 1968   3.668   2.063   0.676  0.3174 -0.2567  0.0363
  129MPD2    C4 1969   3.710   2.064   0.545 -0.1228  0.7498  0.2303
  129MPD2    C5 1970   3.697   1.952   0.462  0.0906 -0.2371 -0.7542
  129MPD2     H 1971   3.579   1.957   0.834 -0.0907  2.1138 -1.1506
  129MPD2    H1 1972   3.768   2.148   0.509  2.4569 -1.1939 -0.1958
  129MPD2    H2 1973   3.640   1.753   0.455  1.5927  0.2046 -0.1379
  129MPD2    H3 1974   3.738   1.967   0.362  1.5200 -0.5944 -0.2321
  129MPD2     N 1975   3.673   2.183   0.764 -0.6999 -0.5075  0.1643
  129MPD2    H5 1976   3.648   2.166   0.861  2.9014 -1.0715  1.0184
  129MPD2    N1 1977   3.534   1.722   0.715  0.1692 -0.3522  0.1541
  129MPD2    H7 1978   3.499   1.727   0.809  0.3056 -0.2117  0.1965
  130TCq2    C1 1979   3.534   1.599   0.651  1.0109  0.7164 -0.5615
  130TCq2    O2 1980   3.589   1.551   0.549 -0.0649 -0.3269  0.2886
  130TCq2    C2 1981   3.445   1.504   0.718 -0.0959  0.4359  0.3648
  130TCq2    C3 1982   3.478   1.372   0.692 -0.5394 -0.7771  0.4630
  130TCq2    C4 1983   3.408   1.272   0.761  0.0263  0.7463  0.0119
  130TCq2    C5 1984   3.319   1.301   0.861  0.9075  0.2108 -0.1958
  130TCq2    C6 1985   3.302   1.433   0.888  0.9874 -0.0080 -0.2725
  130TCq2    C7 1986   3.353   1.534   0.810 -0.8732 -0.1789  0.6883
  130TCq2    C8 1987   3.223   1.469   1.002 -0.5651 -0.1364  0.0230
  130TCq2    O4 1988   3.175   1.583   1.002 -0.0752  0.5830 -0.6696
  130TCq2    C9 1989   3.453   1.131   0.745  0.1811  0.3960  0.3711
  130TCq2    O5 1990   3.521   1.120   0.644 -0.6524  0.3579 -0.2721
  130TCq2    O6 1991   3.420   1.055   0.839  0.5219 -0.2322 -1.0889
  130TCq2    H2 1992   3.561   1.347   0.628 -0.6223  0.9799 -0.3300
  130TCq2    H3 1993   3.252   1.228   0.903  2.1622 -0.2838  0.9521
  130TCq2    H4 1994   3.325   1.638   0.821 -2.6580 -0.5298 -0.4281
  131MPD2     C 1995   0.876   2.441   9.195  0.0566 -0.1924 -0.5802
  131MPD2    C1 1996   0.972   2.348   9.216 -0.6093 -0.3333  0.2825
  131MPD2    C2 1997   0.943   2.217   9.187  0.5378 -0.3510  0.4623
  131MPD2    C3 1998   0.817   2.169   9.177 -0.0310  0.2358 -0.4282
  131MPD2    C4 1999   0.709   2.260   9.169 -0.1337 -0.2268  0.5971
  131MPD2    C5 2000   0.749   2.394   9.165  0.0226  0.6436 -0.1952
  131MPD2     H 2001   1.015   2.137   9.200 -0.9757 -1.1288  3.9867
  131MPD2    H1 2002   0.611   2.230   9.131  0.0265  0.5683 -0.4451
  131MPD2    H2 2003   0.884   2.546   9.219  1.9796 -0.6305  0.7055
  131MPD2    H3 2004   0.666   2.463   9.155 -0.7013 -0.1445  0.3072
  131MPD2     N 2005   0.795   2.034   9.149  0.2650 -0.6478 -0.0111
  131MPD2    H5 2006   0.878   1.978   9.131 -0.0573 -0.8127 -0.9707
  131MPD2    N1 2007   1.103   2.391   9.246 -0.3017  0.9716  1.1293
  131MPD2    H7 2008   1.123   2.489   9.267  2.6534  0.9821 -1.5518
  132TCq2    C1 2009   1.682   2.406   9.231 -0.1417  0.2351  0.0193
  132TCq2    O2 2010   1.684   2.318   9.146  0.6242  0.2312  0.1819
  132TCq2    C2 2011   1.556   2.460   9.263 -0.4105  0.2419 -0.6942
  132TCq2    C3 2012   1.538   2.590   9.313 -0.5581 -0.1018  0.0027
  132TCq2    C4 2013   1.411   2.627   9.333  0.6007 -0.1822  0.2563
  132TCq2    C5 2014   1.303   2.543   9.316 -0.3073  0.3227  0.0413
  132TCq2    C6 2015   1.326   2.417   9.268  0.3893 -0.1291  0.8345
  132TCq2    C7 2016   1.454   2.379   9.230 -0.0213  0.5455  0.3029
  132TCq2    C8 2017   1.219   2.323   9.251 -0.6965 -0.8020 -0.2257
  132TCq2    O4 2018   1.244   2.206   9.218 -0.1697 -0.0223 -0.3931
  132TCq2    C9 2019   1.394   2.746   9.408 -0.0548 -0.0527  0.3707
  132TCq2    O5 2020   1.277   2.786   9.433 -0.7429 -0.2132  0.3792
  132TCq2    O6 2021   1.494   2.817   9.437  1.0937  0.5319  0.4186
  132TCq2    H2 2022   1.618   2.662   9.324 -0.4089  0.0268 -1.9707
  132TCq2    H3 2023   1.209   2.569   9.363 -0.4562 -1.1179  0.5483
  132TCq2    H4 2024   1.466   2.275   9.201 -2.8061  0.7625 -1.5779
  133MPD2     C 2025   1.420   3.520   9.276 -0.4119 -0.5158 -0.1292
  133MPD2    C1 2026   1.414   3.449   9.159 -0.1857 -0.1845  0.2614
  133MPD2    C2 2027   1.306   3.392   9.104 -0.3754  0.0894  0.2725
  133MPD2    C3 2028   1.191   3.394   9.170 -0.0348  0.5763 -0.0565
  133MPD2    C4 2029   1.192   3.446   9.300 -0.1817  0.8153 -0.4012
  133MPD2    C5 2030   1.307   3.509   9.349  0.6863 -0.8051  0.5620
  133MPD2     H 2031   1.319   3.336   9.012 -1.1248 -0.0263  0.2364
  133MPD2    H1 2032   1.102   3.444   9.360 -0.6812  1.2108 -1.1410
  133MPD2    H2 2033   1.506   3.566   9.325 -3.5699  0.7127  4.3047
  133MPD2    H3 2034   1.311   3.563   9.443 -2.5827  0.6181 -0.1418
  133MPD2     N 2035   1.063   3.341   9.125  0.2608  0.2714  0.2190
  133MPD2    H5 2036   0.993   3.334   9.198  2.6150 -3.2422  2.1766
  133MPD2    N1 2037   1.545   3.442   9.099 -0.4205 -0.3148 -0.3383
  133MPD2    H7 2038   1.628   3.469   9.150  0.8211 -2.2161 -1.3843
  134TCq2    C1 2039   1.569   3.408   8.965  0.2612  0.3314  0.9909
  134TCq2    O2 2040   1.491   3.374   8.876 -0.0689 -0.5678  0.9758
  134TCq2    C2 2041   1.705   3.438   8.930  0.3465  0.6745 -0.7864
  134TCq2    C3 2042   1.797   3.507   9.004 -0.4571  0.5226 -0.2756
  134TCq2    C4 2043   1.924   3.522   8.952 -0.2491 -0.2627  0.6969
  134TCq2    C5 2044   1.962   3.467   8.832  0.1563 -0.2764  0.1366
  134TCq2    C6 2045   1.866   3.394   8.763  0.3046 -0.3184 -0.2720
  134TCq2    C7 2046   1.739   3.382   8.802 -0.7567  0.5501 -0.8227
  134TCq2    C8 2047   1.901   3.306   8.653  0.4186  0.7019  0.4887
  134TCq2    O4 2048   1.821   3.223   8.615 -0.1345  0.1487  0.2954
  134TCq2    C9 2049   2.027   3.590   9.022 -0.0754  0.0334  0.7815
  134TCq2    O5 2050   2.136   3.596   8.966 -0.3335  0.0627  0.1053
  134TCq2    O6 2051   2.003   3.630   9.140  0.0824  0.6853 -0.7094
  134TCq2    H2 2052   1.774   3.553   9.099  2.3961  2.4390 -0.5273
  134TCq2    H3 2053   2.063   3.483   8.794  0.1396 -0.0188  0.2032
  134TCq2    H4 2054   1.673   3.310   8.755 -1.1312  0.3743 -0.0311
  135MPD2     C 2055   3.073   3.474   8.849  0.0919  0.1009 -0.3489
  135MPD2    C1 2056   3.101   3.502   8.981  0.3920  0.0224  0.0961
  135MPD2    C2 2057   3.228   3.481   9.021  0.4986 -0.5669  0.2430
  135MPD2    C3 2058   3.321   3.422   8.940 -0.0713 -0.1447 -0.3173
  135MPD2    C4 2059   3.297   3.389   8.806  0.1813 -0.3715  0.6495
  135MPD2    C5 2060   3.170   3.422   8.765 -0.7993 -0.5603 -0.0611
  135MPD2     H 2061   3.257   3.508   9.121 -0.0617 -1.1757  0.5679
  135MPD2    H1 2062   3.382   3.355   8.747 -0.0006  0.1976  0.0554
  135MPD2    H2 2063   2.972   3.489   8.811 -0.0374  0.8891  0.2828
  135MPD2    H3 2064   3.146   3.400   8.662  0.2532 -1.0426 -0.2103
  135MPD2     N 2065   3.456   3.392   8.981 -0.5263  0.3101  0.1102
  135MPD2    H5 2066   3.519   3.354   8.911 -1.4384 -1.0238  0.0170
  135MPD2    N1 2067   3.006   3.545   9.080  0.0740  0.2851  0.0861
  135MPD2    H7 2068   3.035   3.549   9.177 -2.1031 -0.9763  0.8033
  136TCq2    C1 2069   2.872   3.560   9.059 -0.0303  0.6091 -0.2116
  136TCq2    O2 2070   2.807   3.548   8.951 -0.2645 -0.9078  0.3594
  136TCq2    C2 2071   2.796   3.590   9.182  0.3846 -0.3060  1.1774
  136TCq2    C3 2072   2.655   3.586   9.183 -0.1864  0.4651 -0.2489
  136TCq2    C4 2073   2.598   3.606   9.298 -0.3291 -1.0494  0.3393
  136TCq2    C5 2074   2.660   3.611   9.420  0.3238  0.4352 -0.4067
  136TCq2    C6 2075   2.797   3.599   9.422  0.1322 -0.3435  0.4989
  136TCq2    C7 2076   2.867   3.600   9.303  0.0765 -0.0754 -1.2395
  136TCq2    C8 2077   2.861   3.668   9.529  0.5368 -0.3036 -0.2113
  136TCq2    O4 2078   2.971   3.712   9.500 -0.4377  0.7983 -0.1297
  136TCq2    C9 2079   2.453   3.630   9.288  0.5129 -0.0994  0.1711
  136TCq2    O5 2080   2.381   3.657   9.390 -0.5877  0.1396  0.3837
  136TCq2    O6 2081   2.411   3.622   9.172 -0.3464  0.1313  0.4996
  136TCq2    H2 2082   2.603   3.578   9.088 -1.1922 -2.4116  0.5627
  136TCq2    H3 2083   2.600   3.633   9.508  0.6331 -1.1598  0.2021
  136TCq2    H4 2084   2.976   3.593   9.307  0.1578  2.4542  1.0201
  137MPD2     C 2085   3.677   2.589   9.949  0.1797  0.0969  0.5986
  137MPD2    C1 2086   3.559   2.614   9.888  0.3604  0.0566  0.2159
  137MPD2    C2 2087   3.447   2.615   9.969  0.1980 -0.0877 -0.0340
  137MPD2    C3 2088   3.454   2.598  10.105  0.0760 -0.6883  0.5053
  137MPD2    C4 2089   3.579   2.583  10.169 -0.1193 -0.0082 -0.1094
  137MPD2    C5 2090   3.684   2.576  10.081  0.1388 -0.5374  0.2370
  137MPD2     H 2091   3.348   2.623   9.924  0.9209 -1.3753 -1.8376
  137MPD2    H1 2092   3.591   2.559  10.274  0.4770 -1.3852 -0.4933
  137MPD2    H2 2093   3.770   2.584   9.894  0.0602  0.1737  0.3880
  137MPD2    H3 2094   3.776   2.534  10.118  0.2532  0.2132  0.7865
  137MPD2     N 2095   3.328   2.610  10.179  0.4849 -0.0202  0.1213
  137MPD2    H5 2096   3.246   2.639  10.126 -0.4749 -0.4642  1.3593
  137MPD2    N1 2097   3.559   2.642   9.754 -0.1635 -0.4918  0.4419
  137MPD2    H7 2098   3.643   2.679   9.712 -1.7005  0.4700 -1.7776
  138TCq2    C1 2099   3.445   2.651   9.682 -0.3961 -0.6496 -0.6027
  138TCq2    O2 2100   3.330   2.631   9.714  0.2941  0.7029 -1.0754
  138TCq2    C2 2101   3.474   2.680   9.545 -0.0222 -0.5139  0.0044
  138TCq2    C3 2102   3.583   2.617   9.489 -0.5734  0.3055  0.4437
  138TCq2    C4 2103   3.595   2.629   9.351  0.0341  0.8943  0.3938
  138TCq2    C5 2104   3.506   2.694   9.263  0.1013  0.4214 -0.5922
  138TCq2    C6 2105   3.394   2.748   9.323 -0.5588  0.3054  0.0078
  138TCq2    C7 2106   3.380   2.741   9.461 -0.4607 -0.5766 -0.1966
  138TCq2    C8 2107   3.272   2.771   9.240 -0.0761 -0.7366 -0.0442
  138TCq2    O4 2108   3.297   2.791   9.121 -0.0058  0.0039  0.7054
  138TCq2    C9 2109   3.705   2.555   9.291 -0.4446  0.1819 -0.4126
  138TCq2    O5 2110   3.719   2.552   9.165  0.1799 -0.3210  0.0481
  138TCq2    O6 2111   3.794   2.507   9.364  0.5455  0.2962 -0.0661
  138TCq2    H2 2112   3.657   2.555   9.538  0.5129  1.0102 -0.2908
  138TCq2    H3 2113   3.505   2.685   9.154 -0.3520  1.2470 -0.6548
  138TCq2    H4 2114   3.293   2.783   9.511  1.0279  1.0919  1.0173
  139TMC2    C1 2115   3.641   0.854  13.255  0.0408  0.3418 -0.2736
  139TMC2    C2 2116   3.565   0.842  13.141  0.3973  0.0874  0.8160
  139TMC2    C3 2117   3.435   0.885  13.151  1.0801 -0.9897 -0.8735
  139TMC2    C4 2118   3.600   0.934  13.361  0.6923 -0.7738  0.1780
  139TMC2    C5 2119   3.465   0.958  13.364  0.4923  0.3984  0.0550
  139TMC2    C6 2120   3.375   0.943  13.265  0.3583 -0.0672 -0.3921
  139TMC2     C 2121   3.772   0.799  13.251 -0.5649 -0.1995 -0.8666
  139TMC2     O 2122   3.828   0.793  13.140 -0.2962 -0.1162  0.6145
  139TMC2     H 2123   3.594   0.786  13.053 -1.9357  0.2842 -0.0785
  139TMC2    H1 2124   3.682   0.964  13.425 -0.3742  0.8320  0.7928
  139TMC2    H2 2125   3.277   0.989  13.263 -0.2317 -1.3882 -1.6397
  139TMC2    C7 2126   3.421   1.040  13.475 -0.8316  0.2963 -0.3289
  139TMC2    C8 2127   3.353   0.902  13.029  0.0395  0.0193 -0.0911
  139TMC2    O1 2128   3.317   1.103  13.471  0.3639 -0.1622  0.0963
  139TMC2    O2 2129   3.239   0.945  13.025 -0.1169 -0.1541  0.2609
  139TMC2    O5 2130   3.433   0.900  12.922  0.4644 -0.4265  0.0316
  139TMC2    H5 2131   3.527   0.883  12.942  1.0048 -0.3881 -2.4779
  140MPD2     C 2132   3.937   0.605  13.519 -0.2544  0.1613  0.1511
  140MPD2    C1 2133   3.911   0.653  13.390  0.1570  0.3519  0.3338
  140MPD2    C2 2134   3.977   0.592  13.289  0.3953 -0.9689  0.3675
  140MPD2    C3 2135   4.078   0.499  13.307 -0.0171  0.0533  0.2249
  140MPD2    C4 2136   4.114   0.463  13.434  0.5759  0.3003 -0.3726
  140MPD2    C5 2137   4.042   0.517  13.533  0.0146  0.2174  0.3064
  140MPD2     H 2138   3.948   0.611  13.186 -0.0263  0.1323  0.6793
  140MPD2    H1 2139   4.203   0.405  13.456  0.4682  0.6096  0.9356
  140MPD2    H2 2140   3.875   0.634  13.604 -1.1879  0.3517 -0.5900
  140MPD2    H3 2141   4.059   0.493  13.637 -0.2961  1.9755  0.7738
  140MPD2     N 2142   4.147   0.452  13.195 -0.7446 -0.0058  0.2153
  140MPD2    H5 2143   4.136   0.498  13.104 -1.1444 -1.3312 -0.3985
  140MPD2    N1 2144   3.821   0.758  13.376  0.2501 -0.1724  0.0604
  140MPD2    H7 2145   3.761   0.777  13.456  0.8815  0.2791  0.4347
  141TCq2    C1 2146   4.524   2.123  14.233 -0.8455 -0.2512  0.9324
  141TCq2    O2 2147   4.487   2.238  14.223  0.0804  0.0561 -0.2038
  141TCq2    C2 2148   4.598   2.089  14.357  0.0013 -0.7059 -0.7165
  141TCq2    C3 2149   4.585   1.968  14.404  0.5412  0.1874  0.6068
  141TCq2    C4 2150   4.612   1.947  14.531 -0.0718 -0.2549 -0.3545
  141TCq2    C5 2151   4.640   2.050  14.618  0.1531  0.0121 -0.0453
  141TCq2    C6 2152   4.642   2.172  14.571  0.6815 -0.3603 -0.1806
  141TCq2    C7 2153   4.619   2.198  14.441  0.3399 -0.0942 -0.0384
  141TCq2    C8 2154   4.680   2.270  14.674 -0.2036  0.3002  0.1548
  141TCq2    O4 2155   0.029   2.228  14.762  0.7809  0.2178 -0.0822
  141TCq2    C9 2156   4.599   1.807  14.572 -0.0712  0.5480  0.5374
  141TCq2    O5 2157   4.513   1.731  14.518 -0.4959 -0.4141  0.3107
  141TCq2    O6 2158   4.659   1.773  14.676 -0.2789 -0.2883  0.0962
  141TCq2    H2 2159   4.536   1.887  14.351 -1.2076  1.9971 -0.5479
  141TCq2    H3 2160   4.648   2.037  14.726 -1.4944  1.2894  0.2326
  141TCq2    H4 2161   4.628   2.299  14.403  0.5103 -0.1519 -0.1508
  142MPD2     C 2162   2.067   1.310  10.468 -0.0497 -0.2832  0.1503
  142MPD2    C1 2163   2.097   1.250  10.352 -0.3210 -0.1388  0.6742
  142MPD2    C2 2164   2.184   1.302  10.265 -0.1397  0.0320 -0.4226
  142MPD2    C3 2165   2.244   1.422  10.287 -0.0781 -0.3656 -0.6790
  142MPD2    C4 2166   2.221   1.487  10.409 -0.4044  0.2062 -0.2419
  142MPD2    C5 2167   2.126   1.431  10.500  0.0829  0.2968 -0.6699
  142MPD2     H 2168   2.209   1.242  10.178 -0.4780  0.1159 -0.5793
  142MPD2    H1 2169   2.284   1.568  10.445  1.2762 -1.2681  0.1386
  142MPD2    H2 2170   1.993   1.270  10.535  0.4485 -0.5099  0.5623
  142MPD2    H3 2171   2.094   1.476  10.593  0.8856 -2.1462  0.7992
  142MPD2     N 2172   2.339   1.480  10.194 -0.2238  0.2142 -0.7557
  142MPD2    H5 2173   2.361   1.577  10.218  0.6751  0.1011 -1.1227
  142MPD2    N1 2174   2.016   1.137  10.317  0.0910 -0.0641 -0.2739
  142MPD2    H7 2175   1.961   1.103  10.396 -0.1270  0.5911 -0.1474
  143TCq2    C1 2176   2.376   1.434  10.073 -0.3125 -0.1083 -0.0002
  143TCq2    O2 2177   2.353   1.330  10.012 -0.2787  0.0199 -0.1644
  143TCq2    C2 2178   2.426   1.541   9.991 -0.2915 -0.0281 -0.3256
  143TCq2    C3 2179   2.484   1.648  10.063  0.6472 -0.7340 -0.4576
  143TCq2    C4 2180   2.493   1.770  10.004  0.1985  0.3964 -0.1293
  143TCq2    C5 2181   2.427   1.800   9.889  0.0829  0.2018 -0.5695
  143TCq2    C6 2182   2.383   1.691   9.814 -0.3844 -0.4340 -0.1869
  143TCq2    C7 2183   2.385   1.564   9.865  0.0207  0.3040 -0.0797
  143TCq2    C8 2184   2.316   1.715   9.686 -0.7652 -0.6958  0.9343
  143TCq2    O4 2185   2.251   1.624   9.641 -0.1882 -0.5897  0.2429
  143TCq2    C9 2186   2.571   1.873  10.074 -0.4951 -0.5428 -0.0334
  143TCq2    O5 2187   2.612   1.976  10.011  0.2434  0.2217  0.4352
  143TCq2    O6 2188   2.575   1.870  10.202 -0.4706  0.1674 -0.0588
  143TCq2    H2 2189   2.530   1.636  10.160  2.8306  3.2569 -1.0152
  143TCq2    H3 2190   2.437   1.901   9.849  0.3154 -0.4200 -2.0602
  143TCq2    H4 2191   2.360   1.484   9.797  1.8190  1.2957 -1.9119
  144MPD2     C 2192   4.662   0.013   1.003 -0.4699  0.0871  0.4081
  144MPD2    C1 2193   4.695   4.615   0.943  0.3933  0.0718 -0.2214
  144MPD2    C2 2194   0.091   4.560   0.982 -0.6700  0.5035 -0.3935
  144MPD2    C3 2195   0.185   4.627   1.062 -0.4337  0.1710  0.4710
  144MPD2    C4 2196   0.148   0.023   1.123 -1.2622  0.4275  0.4435
  144MPD2    C5 2197   0.026   0.075   1.089  0.5089  0.5526 -0.0178
  144MPD2     H 2198   0.117   4.470   0.926  2.2139  1.1407 -0.0972
  144MPD2    H1 2199   0.214   0.082   1.185  0.6638 -0.4204 -0.8095
  144MPD2    H2 2200   4.573   0.068   0.977 -0.4477  0.0663  0.2878
  144MPD2    H3 2201   4.716   0.168   1.135 -3.2387 -0.4884 -0.5234
  144MPD2     N 2202   0.319   4.586   1.080  0.4955 -0.2428  0.4139
  144MPD2    H5 2203   0.381   4.636   1.143 -0.5164 -1.6882  2.5464
  144MPD2    N1 2204   4.605   4.553   0.845  0.4384 -0.5641 -0.3661
  144MPD2    H7 2205   4.629   4.456   0.827 -1.2372 -1.0028 -0.2174
  145TCq2    C1 2206   0.360   4.463   1.041  0.3773  0.3971  0.0327
  145TCq2    O2 2207   0.297   4.372   0.985  0.0019  0.5225  0.4121
  145TCq2    C2 2208   0.506   4.451   1.052 -0.1449  0.3459  0.0064
  145TCq2    C3 2209   0.574   4.380   0.958  0.1069  0.4666  1.2249
  145TCq2    C4 2210   0.710   4.378   0.950  0.2906 -0.5271  0.0385
  145TCq2    C5 2211   0.777   4.435   1.057 -0.4494  0.4595  1.0542
  145TCq2    C6 2212   0.708   4.506   1.155 -0.4487 -0.0156 -0.6188
  145TCq2    C7 2213   0.574   4.513   1.158  0.6378 -0.3278  0.6549
  145TCq2    C8 2214   0.776   4.516   1.279  0.4583  0.0115 -0.0657
  145TCq2    O4 2215   0.885   4.455   1.281 -0.4015 -0.4051  0.4985
  145TCq2    C9 2216   0.779   4.327   0.830 -0.3319 -0.0814  0.0878
  145TCq2    O5 2217   0.882   4.258   0.850  0.1277 -0.2818 -0.4167
  145TCq2    O6 2218   0.704   4.318   0.727  0.9772  0.1142  0.1730
  145TCq2    H2 2219   0.518   4.349   0.871  0.6509  2.6286  0.1039
  145TCq2    H3 2220   0.885   4.422   1.060 -0.5635 -0.2675  1.9722
  145TCq2    H4 2221   0.515   4.554   1.240  0.8789 -1.0182  1.1759
  146TMC2    C1 2222   1.201   3.538  12.502 -0.2463  0.0103 -0.6421
  146TMC2    C2 2223   1.068   3.505  12.506 -0.6439  0.0009  0.3235
  146TMC2    C3 2224   1.023   3.423  12.410  0.3276  0.0215  0.6556
  146TMC2    C4 2225   1.291   3.489  12.412  0.0669 -0.1561  0.4824
  146TMC2    C5 2226   1.235   3.401  12.318  0.3690  0.2455 -0.6245
  146TMC2    C6 2227   1.102   3.377  12.309  0.2931  0.0800 -0.3857
  146TMC2     C 2228   1.249   3.606  12.623 -0.3363 -0.4149  0.4699
  146TMC2     O 2229   1.181   3.695  12.679  0.5015 -0.2096  0.1062
  146TMC2     H 2230   1.001   3.550  12.578  1.1593  0.4745  1.7286
  146TMC2    H1 2231   1.396   3.515  12.412  0.3000 -1.1213  0.8246
  146TMC2    H2 2232   1.067   3.312  12.230  1.1971 -0.8004 -0.0594
  146TMC2    C7 2233   1.317   3.348  12.213 -0.6251 -0.6321  0.1376
  146TMC2    C8 2234   0.886   3.412  12.380  0.0124  1.2048 -0.3002
  146TMC2    O1 2235   1.270   3.335  12.106  0.0742  0.6790 -1.0897
  146TMC2    O2 2236   0.814   3.512  12.369 -0.0489 -0.0634  0.1644
  146TMC2    O5 2237   0.861   3.289  12.332 -0.3505  0.3044  0.4499
  146TMC2    H5 2238   0.933   3.222  12.331 -3.9320 -3.6071 -0.5267
  147MPD2     C 2239   1.769   3.309  12.000  0.1255  0.0473  0.1271
  147MPD2    C1 2240   1.799   3.306  12.135 -1.0097  0.0337  0.0616
  147MPD2    C2 2241   1.691   3.316  12.219  0.3860  0.5540 -0.4266
  147MPD2    C3 2242   1.560   3.325  12.168  0.9373  0.5622 -0.0763
  147MPD2    C4 2243   1.544   3.329  12.028  0.5723  0.2395 -0.2589
  147MPD2    C5 2244   1.645   3.320  11.950  0.4505  0.1064 -0.3566
  147MPD2     H 2245   1.696   3.329  12.326 -1.5070 -0.8155 -0.1649
  147MPD2    H1 2246   1.445   3.332  11.984  1.4109  2.1268 -2.0121
  147MPD2    H2 2247   1.854   3.290  11.936  1.6500 -1.0630  2.4947
  147MPD2    H3 2248   1.634   3.314  11.842  2.0746  0.3996 -0.5447
  147MPD2     N 2249   1.450   3.332  12.251 -0.2121  0.2941  0.2648
  147MPD2    H5 2250   1.457   3.337  12.352 -0.1486 -1.3322  0.3316
  147MPD2    N1 2251   1.939   3.298  12.172  0.6347 -0.6315  0.0475
  147MPD2    H7 2252   2.008   3.306  12.098 -1.2195  0.0656 -1.6133
  148MPD2     C 2253   1.485   2.302  10.063 -0.4722  0.2225  0.8321
  148MPD2    C1 2254   1.530   2.182  10.018  0.3349  0.2646  0.1316
  148MPD2    C2 2255   1.441   2.092   9.967  0.8525  0.5507 -0.2740
  148MPD2    C3 2256   1.307   2.128   9.946  0.6106 -0.6102  0.1715
  148MPD2    C4 2257   1.263   2.251   9.998  0.1350 -0.1870  0.2550
  148MPD2    C5 2258   1.353   2.337  10.053  0.8180  0.1094 -0.3779
  148MPD2     H 2259   1.479   1.998   9.929 -0.0654 -0.7186  1.9287
  148MPD2    H1 2260   1.157   2.277   9.995 -0.3377 -2.0023  0.9284
  148MPD2    H2 2261   1.548   2.382  10.101 -1.1748  1.0507  0.2622
  148MPD2    H3 2262   1.309   2.431  10.084  1.6154 -0.0562  1.2869
  148MPD2     N 2263   1.226   2.027   9.891  0.7126 -0.2059 -0.0642
  148MPD2    H5 2264   1.275   1.943   9.863  3.4497  0.7285  2.0331
  148MPD2    N1 2265   1.675   2.160  10.007  0.2702  0.2399  0.0913
  148MPD2    H7 2266   1.705   2.071   9.971 -0.9439  0.6964 -2.0697
  149TCq2    C1 2267   1.776   2.244  10.046  0.1687  0.5564 -0.3025
  149TCq2    O2 2268   1.765   2.360  10.098  0.1916 -0.5199  0.0981
  149TCq2    C2 2269   1.912   2.187  10.048  0.3802 -0.4494  0.5778
  149TCq2    C3 2270   2.018   2.269  10.068  0.6970  0.3012  0.2750
  149TCq2    C4 2271   2.144   2.213  10.084  0.4669  1.2879  0.1276
  149TCq2    C5 2272   2.167   2.084  10.052  1.0129 -0.0409  0.0797
  149TCq2    C6 2273   2.055   2.007  10.035 -0.7023  0.5919 -0.4275
  149TCq2    C7 2274   1.930   2.052  10.039 -0.1135  0.5870  0.6036
  149TCq2    C8 2275   2.073   1.869  10.027 -0.2621  0.0682  0.6894
  149TCq2    O4 2276   2.179   1.824  10.066 -0.0065 -0.1116 -0.1551
  149TCq2    C9 2277   2.259   2.305  10.094 -0.4773 -0.1778  0.6833
  149TCq2    O5 2278   2.380   2.269  10.082 -0.3509 -0.0549  0.3276
  149TCq2    O6 2279   2.228   2.418  10.138  0.0399 -0.3142  0.3611
  149TCq2    H2 2280   1.997   2.375  10.077  1.3002  0.6182 -2.0659
  149TCq2    H3 2281   2.265   2.039  10.062  0.3600 -0.8266  2.9867
  149TCq2    H4 2282   1.844   1.987  10.049 -0.6830  1.2154 -0.1702
  150MPD2     C 2283   3.054   1.650  12.213 -0.2896 -0.4640 -0.1249
  150MPD2    C1 2284   3.099   1.599  12.091  0.2211  0.7544 -0.3412
  150MPD2    C2 2285   3.232   1.628  12.046  0.3198 -0.4186 -0.3076
  150MPD2    C3 2286   3.322   1.696  12.125  0.1337 -0.2641  0.9486
  150MPD2    C4 2287   3.272   1.745  12.246  0.2977 -0.0758  0.7654
  150MPD2    C5 2288   3.141   1.727  12.285  0.1977 -0.5067  0.7583
  150MPD2     H 2289   3.266   1.579  11.955  1.4605 -0.1370 -0.0376
  150MPD2    H1 2290   3.329   1.802  12.318 -1.6276  2.2089  0.5001
  150MPD2    H2 2291   2.962   1.622  12.264 -0.3793  0.4713  0.2214
  150MPD2    H3 2292   3.114   1.758  12.385  1.4234 -0.2730  1.0038
  150MPD2     N 2293   3.450   1.731  12.071  0.1555  0.3246  0.3192
  150MPD2    H5 2294   3.456   1.696  11.976  2.7516 -0.0986  0.6393
  150MPD2    N1 2295   3.012   1.515  12.007  1.1110  1.0715  0.1473
  150MPD2    H7 2296   2.937   1.470  12.058  1.1380  1.1226  0.2320
  151TCq2    C1 2297   3.551   1.810  12.125 -0.0200  0.2403  0.9740
  151TCq2    O2 2298   3.558   1.856  12.235  0.0019 -0.1912  0.1676
  151TCq2    C2 2299   3.648   1.839  12.028  0.2865  0.1778  0.9441
  151TCq2    C3 2300   3.666   1.753  11.919 -0.0296 -0.1154  0.8622
  151TCq2    C4 2301   3.796   1.730  11.873  0.1320 -0.1118  0.3151
  151TCq2    C5 2302   3.903   1.790  11.924 -0.1270 -0.3342  0.2505
  151TCq2    C6 2303   3.885   1.883  12.023 -0.0362 -0.8366  0.3747
  151TCq2    C7 2304   3.759   1.900  12.077  0.0065  0.0087 -0.9296
  151TCq2    C8 2305   3.986   1.965  12.082 -0.5906 -0.1922  0.9530
  151TCq2    O4 2306   3.956   2.072  12.142 -0.0506 -0.4773 -0.2595
  151TCq2    C9 2307   3.807   1.640  11.762 -0.0451 -1.0980 -0.0484
  151TCq2    O5 2308   3.924   1.603  11.729 -0.0237 -0.8205  0.0725
  151TCq2    O6 2309   3.704   1.613  11.700 -0.4986 -0.3554 -0.2695
  151TCq2    H2 2310   3.588   1.720  11.853  1.0491 -1.2400  0.1558
  151TCq2    H3 2311   4.001   1.762  11.887 -0.4842 -2.9483  1.3361
  151TCq2    H4 2312   3.743   1.961  12.165  3.1232  0.0566 -0.4029
  152MPD2     C 2313   3.109   0.907  12.704 -0.4566 -0.7201  0.3712
  152MPD2    C1 2314   3.155   0.993  12.603 -0.6845 -0.2940 -0.5867
  152MPD2    C2 2315   3.062   1.053  12.517 -0.0900  0.4489  0.1019
  152MPD2    C3 2316   2.928   1.039  12.545  0.2448 -0.1935 -0.0975
  152MPD2    C4 2317   2.885   0.942  12.639  0.3716 -0.4367  0.2836
  152MPD2    C5 2318   2.975   0.876  12.719 -0.0550 -0.3768  0.5499
  152MPD2     H 2319   3.093   1.118  12.436  3.1002  1.4902  2.1647
  152MPD2    H1 2320   2.780   0.919  12.653  0.5258 -0.7847  0.8645
  152MPD2    H2 2321   3.175   0.859  12.776  2.6649  2.2405 -0.5117
  152MPD2    H3 2322   2.943   0.806  12.795  0.1709 -0.6569  0.3855
  152MPD2     N 2323   2.836   1.128  12.480 -0.6235  0.0107  0.0828
  152MPD2    H5 2324   2.877   1.196  12.418 -0.2842  0.3117  0.6334
  152MPD2    N1 2325   3.300   1.006  12.597 -0.5762  0.1514 -0.3910
  152MPD2    H7 2326   3.363   0.970  12.668  0.0018 -3.1185 -2.5649
  153TCq2    C1 2327   3.368   1.076  12.503 -0.1706 -0.1699 -0.8069
  153TCq2    O2 2328   3.327   1.146  12.416 -0.0500  0.2698 -0.5866
  153TCq2    C2 2329   3.510   1.080  12.543 -0.1409  0.1021  0.4573
  153TCq2    C3 2330   3.554   0.988  12.633 -0.8081  0.1168 -0.4432
  153TCq2    C4 2331   3.687   0.995  12.670  0.2504  0.5156  0.6564
  153TCq2    C5 2332   3.758   1.109  12.642 -0.4958  0.2118 -0.0068
  153TCq2    C6 2333   3.700   1.208  12.565  0.1313 -0.4489  0.0532
  153TCq2    C7 2334   3.574   1.194  12.517  0.4973  0.0284  0.8278
  153TCq2    C8 2335   3.793   1.306  12.505  0.0258 -0.1399  0.5185
  153TCq2    O4 2336   3.772   1.342  12.391  0.2068  0.2459  0.0605
  153TCq2    C9 2337   3.745   0.906  12.767 -0.5323 -0.2742 -0.0361
  153TCq2    O5 2338   3.675   0.839  12.841 -0.7446 -0.2333  0.4226
  153TCq2    O6 2339   3.870   0.905  12.772  0.2088  0.2726 -0.4185
  153TCq2    H2 2340   3.502   0.894  12.648  1.1775 -0.5490  2.3200
  153TCq2    H3 2341   3.861   1.115  12.676  0.5496  0.6715 -3.2797
  153TCq2    H4 2342   3.533   1.273  12.456  2.1224  0.0929 -0.1711
  154MPD2     C 2343   0.272   1.795   0.442 -0.2463  0.1356  0.1626
  154MPD2    C1 2344   0.264   1.664   0.493 -0.5525  0.2701 -0.7006
  154MPD2    C2 2345   0.148   1.617   0.546  0.2652 -0.1274 -0.5092
  154MPD2    C3 2346   0.044   1.708   0.584  0.0806  0.0515  0.4338
  154MPD2    C4 2347   0.055   1.838   0.541 -0.1839  0.4642 -0.3877
  154MPD2    C5 2348   0.166   1.877   0.468 -0.3087 -0.7440  0.2588
  154MPD2     H 2349   0.147   1.519   0.591 -0.5032  0.4922  0.8296
  154MPD2    H1 2350   4.704   1.917   0.553  0.6190  1.2914 -0.9800
  154MPD2    H2 2351   0.361   1.831   0.392 -1.1601 -0.9454 -2.2378
  154MPD2    H3 2352   0.182   1.979   0.436  0.2638 -0.7089  0.6737
  154MPD2     N 2353   4.678   1.666   0.687  0.3845 -0.8132  0.3212
  154MPD2    H5 2354   4.694   1.569   0.714 -0.0685 -0.5228  1.6363
  154MPD2    N1 2355   0.386   1.588   0.484 -0.2525  0.5996 -0.5982
  154MPD2    H7 2356   0.459   1.629   0.427 -0.0156  0.1311 -0.6310
  155TCq2    C1 2357   0.413   1.465   0.540  0.3251  0.1465  0.4284
  155TCq2    O2 2358   0.347   1.403   0.619  0.2460  0.0521  0.2968
  155TCq2    C2 2359   0.513   1.403   0.466  0.5571 -1.0770 -0.5206
  155TCq2    C3 2360   0.546   1.273   0.510  0.0866 -0.2513  0.1195
  155TCq2    C4 2361   0.641   1.200   0.442 -0.2190  0.9151  0.7007
  155TCq2    C5 2362   0.710   1.254   0.341  0.1584  0.2927  0.2230
  155TCq2    C6 2363   0.683   1.380   0.304  0.3918  0.1907  0.2784
  155TCq2    C7 2364   0.582   1.455   0.358  0.4469  0.0818  0.2163
  155TCq2    C8 2365   0.766   1.431   0.196  0.0718 -0.6822  0.3842
  155TCq2    O4 2366   0.833   1.352   0.130 -0.5429 -0.0773 -0.2577
  155TCq2    C9 2367   0.660   1.068   0.483 -0.4255 -0.3910  0.5688
  155TCq2    O5 2368   0.706   0.988   0.396  0.4854  0.3612  0.3663
  155TCq2    O6 2369   0.611   1.041   0.591 -0.0644 -0.5167 -0.1998
  155TCq2    H2 2370   0.474   1.230   0.579  0.2697  0.4522  0.7519
  155TCq2    H3 2371   0.786   1.199   0.287 -0.8482  0.0745 -0.9805
  155TCq2    H4 2372   0.562   1.557   0.328 -1.3436 -0.2966  0.1060
  156MPD2     C 2373   3.770   4.057  12.588  0.2509 -1.2560  0.1689
  156MPD2    C1 2374   3.736   4.003  12.466  0.0484 -0.4768  0.0246
  156MPD2    C2 2375   3.629   4.059  12.392 -0.2482 -0.5534 -0.2050
  156MPD2    C3 2376   3.569   4.169  12.444 -0.4373 -0.2983  0.3575
  156MPD2    C4 2377   3.621   4.235  12.554 -0.0917  0.1604 -0.1702
  156MPD2    C5 2378   3.724   4.176  12.626  0.1597  0.1331 -0.0322
  156MPD2     H 2379   3.596   4.006  12.304 -0.6256 -1.9152  0.7506
  156MPD2    H1 2380   3.573   4.324  12.593 -2.3036 -1.0218 -0.1811
  156MPD2    H2 2381   3.843   4.006  12.651  2.0707 -0.6533 -1.4325
  156MPD2    H3 2382   3.762   4.210  12.721 -1.8418  2.6239 -0.1326
  156MPD2     N 2383   3.456   4.214  12.374  0.2519  0.6846  0.5582
  156MPD2    H5 2384   3.423   4.169  12.289  0.5009  0.8205  0.3873
  156MPD2    N1 2385   3.794   3.878  12.432  0.5086 -0.0032 -0.1695
  156MPD2    H7 2386   3.839   3.823  12.505 -1.7075 -0.5554  0.7989
  157TCq2    C1 2387   3.796   3.823  12.310 -0.4230 -0.1585 -0.0904
  157TCq2    O2 2388   3.787   3.886  12.204  0.1083 -0.0850 -0.0959
  157TCq2    C2 2389   3.825   3.683  12.309  0.1627  0.6941  0.0877
  157TCq2    C3 2390   3.839   3.609  12.419 -0.0150 -0.2061  0.4656
  157TCq2    C4 2391   3.825   3.470  12.410 -0.3327 -0.8479  0.1860
  157TCq2    C5 2392   3.783   3.408  12.288 -0.2426  0.9677 -0.1819
  157TCq2    C6 2393   3.780   3.491  12.180 -0.1219  0.5621  1.2369
  157TCq2    C7 2394   3.807   3.626  12.187  0.5141  0.0169  0.8966
  157TCq2    C8 2395   3.718   3.441  12.056  0.8698 -0.3702 -0.0165
  157TCq2    O4 2396   3.720   3.318  12.038  0.0754  0.6186 -0.2150
  157TCq2    C9 2397   3.846   3.396  12.530  0.2883  0.4710  0.2822
  157TCq2    O5 2398   3.906   3.461  12.619  0.0727  0.0416  0.8202
  157TCq2    O6 2399   3.795   3.280  12.538  0.2122  0.2639  0.5829
  157TCq2    H2 2400   3.861   3.651  12.516 -0.6234  1.8557 -0.2736
  157TCq2    H3 2401   3.763   3.302  12.298 -1.9469  1.4486  1.5135
  157TCq2    H4 2402   3.811   3.694  12.103 -2.0376  1.1873  1.7272
  158TMC2    C1 2403   3.770   2.006  13.351  0.7323 -0.0624 -0.7131
  158TMC2    C2 2404   3.835   2.011  13.226  0.8853  0.5330  0.1926
  158TMC2    C3 2405   3.760   2.069  13.123 -0.2078  0.4280  0.2780
  158TMC2    C4 2406   3.640   2.043  13.377  0.2845  0.3130 -0.6144
  158TMC2    C5 2407   3.571   2.100  13.271  0.5208  0.5859 -0.5186
  158TMC2    C6 2408   3.629   2.100  13.143 -0.7655 -0.3187 -0.3850
  158TMC2     C 2409   3.833   1.940  13.462 -0.6757  0.0408 -0.4610
  158TMC2     O 2410   3.925   1.865  13.442  0.0986  0.0508  0.1986
  158TMC2     H 2411   3.938   1.981  13.215  0.6911 -0.1746  0.3402
  158TMC2    H1 2412   3.591   2.037  13.474  0.5896 -1.8023 -0.5741
  158TMC2    H2 2413   3.570   2.135  13.059  0.6372 -0.4928 -1.4319
  158TMC2    C7 2414   3.430   2.103  13.279  0.2936 -0.1023  0.3686
  158TMC2    C8 2415   3.817   2.045  12.988 -0.2505  0.6197 -0.2563
  158TMC2    O1 2416   3.373   2.152  13.184  0.2337  0.3706 -0.6955
  158TMC2    O2 2417   3.919   1.980  12.965  0.2906 -0.0846 -0.2857
  158TMC2    O5 2418   3.775   2.153  12.914  0.2289  0.1867 -0.3614
  158TMC2    H5 2419   3.724   2.223  12.960  1.8867 -0.6021  2.6395
  159MPD2     C 2420   3.888   1.839  13.952 -0.4226  0.1220  0.4966
  159MPD2    C1 2421   3.847   1.972  13.944 -0.3863 -0.0891  0.3971
  159MPD2    C2 2422   3.827   2.026  13.821  0.1173 -0.0093 -0.1687
  159MPD2    C3 2423   3.829   1.942  13.705  0.0856 -0.2830 -0.0368
  159MPD2    C4 2424   3.858   1.808  13.720  0.1228 -0.3806  0.1654
  159MPD2    C5 2425   3.899   1.756  13.843  0.0793  0.0495  0.3505
  159MPD2     H 2426   3.814   2.133  13.806 -3.3600 -0.6065 -1.3326
  159MPD2    H1 2427   3.854   1.735  13.640  0.3652  1.2592 -1.3456
  159MPD2    H2 2428   3.898   1.796  14.051  0.0075  0.2118  0.4931
  159MPD2    H3 2429   3.929   1.653  13.859 -0.5843 -0.1866  0.0628
  159MPD2     N 2430   3.792   1.994  13.583  0.1823 -0.8112 -0.1593
  159MPD2    H5 2431   3.759   2.089  13.599 -0.6073 -1.1402  0.1268
  159MPD2    N1 2432   3.833   2.050  14.061  0.3051  0.0085 -0.8097
  159MPD2    H7 2433   3.849   2.009  14.152 -1.1106 -2.2499 -1.5585
  160TMC2    C1 2434   3.601   0.595   0.708 -0.5467  0.5205 -0.0497
  160TMC2    C2 2435   3.666   0.640   0.597 -0.1380  0.4414 -0.2183
  160TMC2    C3 2436   3.804   0.657   0.607 -0.1666 -0.2534  0.0568
  160TMC2    C4 2437   3.661   0.572   0.831 -0.0065  0.0679 -0.0519
  160TMC2    C5 2438   3.795   0.603   0.839 -0.2295  0.5483  0.0711
  160TMC2    C6 2439   3.867   0.643   0.727 -0.6193  0.2841 -0.6722
  160TMC2     C 2440   3.463   0.565   0.702 -0.2407  0.2025  0.1319
  160TMC2     O 2441   3.432   0.470   0.770  0.2615  0.4332  0.0778
  160TMC2     H 2442   3.621   0.642   0.499 -0.2534 -1.4745 -0.1959
  160TMC2    H1 2443   3.606   0.524   0.911 -1.9531 -0.6963 -1.8349
  160TMC2    H2 2444   3.974   0.629   0.727 -0.5159  1.0977 -1.3456
  160TMC2    C7 2445   3.858   0.568   0.961  0.0937  0.2332  0.4202
  160TMC2    C8 2446   3.868   0.766   0.525  0.4140  0.9303 -0.5258
  160TMC2    O1 2447   3.815   0.462   1.014 -0.2870 -0.0061  0.3582
  160TMC2    O2 2448   3.991   0.779   0.519  0.0304  0.0480 -0.0270
  160TMC2    O5 2449   3.773   0.820   0.451  0.1694 -0.2912  0.7595
  160TMC2    H5 2450   3.685   0.834   0.491  0.2449  1.9478  0.1950
  161MPD2     C 2451   3.169   0.569   0.642  0.4250  0.1382  0.7812
  161MPD2    C1 2452   3.264   0.638   0.576 -0.1337 -0.2086  0.1769
  161MPD2    C2 2453   3.240   0.718   0.465  0.5933  0.3847  0.4885
  161MPD2    C3 2454   3.110   0.722   0.413  0.1207 -0.3055 -0.2307
  161MPD2    C4 2455   3.017   0.651   0.479  0.3469 -0.7465 -0.1795
  161MPD2    C5 2456   3.042   0.576   0.587  0.0289  0.6005  0.2248
  161MPD2     H 2457   3.319   0.775   0.416 -1.1136  0.1204 -2.6204
  161MPD2    H1 2458   2.917   0.644   0.437  0.8802  0.3677 -1.6380
  161MPD2    H2 2459   3.185   0.505   0.727  0.1202  0.0486  0.7722
  161MPD2    H3 2460   2.968   0.528   0.650  1.0112  0.1253  1.0138
  161MPD2     N 2461   3.069   0.806   0.306 -0.2223  0.1541 -0.1687
  161MPD2    H5 2462   2.974   0.804   0.271 -0.5258 -2.2768  0.8473
  161MPD2    N1 2463   3.402   0.640   0.606 -0.5582  0.0738 -0.3912
  161MPD2    H7 2464   3.459   0.709   0.558 -1.6257  0.6451 -0.8442
  162TMC2    C1 2465   2.251   2.811   1.432 -0.2820 -0.0963 -0.2415
  162TMC2    C2 2466   2.227   2.930   1.497  0.4835 -0.4958 -0.4507
  162TMC2    C3 2467   2.316   2.977   1.587 -0.2254 -0.0914 -0.1665
  162TMC2    C4 2468   2.358   2.731   1.461  0.5195 -0.0892 -0.3953
  162TMC2    C5 2469   2.443   2.778   1.560 -0.7704 -0.6165 -0.1707
  162TMC2    C6 2470   2.431   2.904   1.619  0.0813 -0.2927 -0.1179
  162TMC2     C 2471   2.185   2.783   1.309 -0.9831  0.0186  0.3522
  162TMC2     O 2472   2.178   2.666   1.281  0.7202 -0.0093  0.0842
  162TMC2     H 2473   2.141   2.995   1.482 -0.9508 -2.0448  1.0197
  162TMC2    H1 2474   2.370   2.633   1.415  0.6408 -0.9551  1.5123
  162TMC2    H2 2475   2.508   2.940   1.686 -1.8649 -0.1961  2.0783
  162TMC2    C7 2476   2.568   2.705   1.578  0.1900 -0.0705 -0.2321
  162TMC2    C8 2477   2.297   3.109   1.647  0.2224  0.0348  0.2369
  162TMC2    O1 2478   2.670   2.765   1.610 -0.4796 -0.6933  0.1020
  162TMC2    O2 2479   2.225   3.196   1.600  0.2855 -0.0365 -0.1245
  162TMC2    O5 2480   2.328   3.099   1.778  0.0801  0.3678  0.3563
  162TMC2    H5 2481   2.353   3.008   1.802  0.6243  0.0919 -1.2383
  163MPD2     C 2482   1.989   2.921   0.868  0.6779  0.1017  0.6967
  163MPD2    C1 2483   2.001   2.801   0.924 -0.1214  0.2996 -0.3289
  163MPD2    C2 2484   2.043   2.793   1.056  0.3512  0.8372  0.4005
  163MPD2    C3 2485   2.078   2.906   1.129 -1.2717  0.1553 -0.3059
  163MPD2    C4 2486   2.065   3.027   1.063  0.0485  0.1428 -0.2214
  163MPD2    C5 2487   2.017   3.035   0.937 -0.3866  0.2991  0.4331
  163MPD2     H 2488   2.052   2.695   1.102 -2.1752 -0.0519 -0.9867
  163MPD2    H1 2489   2.096   3.112   1.123  0.0015 -0.7835  1.1190
  163MPD2    H2 2490   1.937   2.924   0.773  0.5335 -0.8066  0.7390
  163MPD2    H3 2491   1.992   3.130   0.890  3.0702  0.8030 -0.4115
  163MPD2     N 2492   2.144   2.900   1.249  0.5595 -0.0150 -0.7507
  163MPD2    H5 2493   2.188   2.986   1.280  0.8588 -0.8863  1.2607
  163MPD2    N1 2494   1.968   2.692   0.846  0.3932 -0.4974  0.1607
  163MPD2    H7 2495   1.931   2.730   0.760 -2.3933 -2.0733  0.6821
  164TCq2    C1 2496   1.851   2.824  11.616 -0.0141 -0.2198  0.6215
  164TCq2    O2 2497   1.839   2.910  11.705 -0.0498 -0.2732  0.1791
  164TCq2    C2 2498   1.858   2.860  11.474 -1.0921  0.3684  0.4427
  164TCq2    C3 2499   1.919   2.766  11.396  0.0794 -0.0941 -0.4996
  164TCq2    C4 2500   1.908   2.772  11.256  1.1378  1.2635  0.0382
  164TCq2    C5 2501   1.816   2.853  11.197  0.3778  0.5180  0.0934
  164TCq2    C6 2502   1.742   2.944  11.276 -0.3238  0.1046  0.9215
  164TCq2    C7 2503   1.761   2.939  11.414 -0.0427 -0.3416  0.1361
  164TCq2    C8 2504   1.614   2.990  11.219 -0.0126 -0.0713  0.1852
  164TCq2    O4 2505   1.583   2.936  11.112  0.8089  0.5095  0.2029
  164TCq2    C9 2506   1.998   2.700  11.176  0.1280  0.4241 -0.5519
  164TCq2    O5 2507   1.991   2.704  11.049 -0.0580  0.2965 -0.2658
  164TCq2    O6 2508   2.090   2.642  11.236  0.3588 -0.4442  0.2149
  164TCq2    H2 2509   1.994   2.700  11.437 -1.7552 -2.1987 -0.5507
  164TCq2    H3 2510   1.797   2.845  11.091 -2.0905 -1.4290  0.6982
  164TCq2    H4 2511   1.713   3.011  11.480  0.1953 -0.6533  0.6526
  165MPD2     C 2512   3.779   3.239   2.349  0.6224  0.3079 -1.0673
  165MPD2    C1 2513   3.840   3.221   2.231  0.0049 -0.3935 -0.0896
  165MPD2    C2 2514   3.928   3.320   2.188 -0.3681  0.2094  0.5590
  165MPD2    C3 2515   3.948   3.439   2.256 -0.0727  0.3537  0.0533
  165MPD2    C4 2516   3.880   3.455   2.371 -1.2372 -0.3979 -0.0627
  165MPD2    C5 2517   3.789   3.363   2.410 -0.6502 -0.0035 -0.0850
  165MPD2     H 2518   3.987   3.300   2.098 -1.0251  0.3042  0.1097
  165MPD2    H1 2519   3.876   3.547   2.429 -1.0919 -0.8107  0.6123
  165MPD2    H2 2520   3.719   3.160   2.392  2.2569 -1.5652 -2.2458
  165MPD2    H3 2521   3.745   3.383   2.507  2.4120 -2.0289  1.7454
  165MPD2     N 2522   4.042   3.535   2.212 -0.1222 -1.1593 -0.3897
  165MPD2    H5 2523   4.099   3.505   2.134  1.4227 -2.1803  1.1162
  165MPD2    N1 2524   3.815   3.101   2.167  0.2228  0.4909 -0.3029
  165MPD2    H7 2525   3.755   3.037   2.218 -0.4778 -0.5259 -2.3977
  166TCq2    C1 2526   4.059   3.659   2.264  0.2756 -0.4015 -0.2893
  166TCq2    O2 2527   3.983   3.728   2.331 -0.3074  0.2489 -0.1365
  166TCq2    C2 2528   4.180   3.720   2.221  0.1384  0.3374  0.3681
  166TCq2    C3 2529   4.295   3.648   2.230 -0.1066  0.7161  1.0176
  166TCq2    C4 2530   4.415   3.699   2.198 -0.1984 -0.4726 -0.7232
  166TCq2    C5 2531   4.415   3.826   2.141  0.7137 -0.1726 -0.0005
  166TCq2    C6 2532   4.296   3.888   2.132  0.1504  0.0710  0.2077
  166TCq2    C7 2533   4.172   3.841   2.169  0.0962  0.7603 -0.0097
  166TCq2    C8 2534   4.318   4.030   2.098  1.2021 -0.0023  0.2091
  166TCq2    O4 2535   4.403   4.052   2.013  0.3643 -0.6939  0.0147
  166TCq2    C9 2536   4.543   3.626   2.213  0.0202  0.1117  0.2417
  166TCq2    O5 2537   4.527   3.508   2.255 -0.0831  0.7654  0.5929
  166TCq2    O6 2538   4.653   3.684   2.187 -0.2482  0.5555 -0.0635
  166TCq2    H2 2539   4.291   3.552   2.280  1.5342 -0.8307 -1.8291
  166TCq2    H3 2540   4.514   3.860   2.116 -0.4392  1.1297 -2.7751
  166TCq2    H4 2541   4.080   3.896   2.157  0.9306  1.8730 -1.3229
  167TMC2    C1 2542   1.225   2.473  12.477  0.0418 -0.1411 -0.0306
  167TMC2    C2 2543   1.169   2.551  12.571 -0.1152 -0.4102 -0.0776
  167TMC2    C3 2544   1.089   2.492  12.671  0.3951 -0.3988 -0.8178
  167TMC2    C4 2545   1.220   2.338  12.479  0.1738 -0.5869  0.2236
  167TMC2    C5 2546   1.149   2.283  12.585  0.3718  0.0657 -0.3338
  167TMC2    C6 2547   1.076   2.358  12.681 -0.7500  0.2755 -0.0001
  167TMC2     C 2548   1.264   2.537  12.360  0.0053 -0.1280 -0.3305
  167TMC2     O 2549   1.297   2.657  12.362 -0.3362 -0.6192  0.2009
  167TMC2     H 2550   1.171   2.658  12.552  0.1701 -0.6643 -1.4268
  167TMC2    H1 2551   1.281   2.282  12.409 -0.3361 -0.2692 -0.4804
  167TMC2    H2 2552   1.014   2.316  12.760 -0.1462  0.2965  0.4873
  167TMC2    C7 2553   1.122   2.145  12.605  0.3498  0.0356 -0.1181
  167TMC2    C8 2554   1.002   2.578  12.753  0.6155 -0.5280  0.0726
  167TMC2    O1 2555   1.057   2.107  12.698  0.4078 -0.3607 -0.0140
  167TMC2    O2 2556   0.912   2.525  12.815  0.0697 -0.1976 -0.0546
  167TMC2    O5 2557   0.986   2.685  12.671  0.5826  1.2704 -0.5472
  167TMC2    H5 2558   1.078   2.720  12.664  1.2406 -0.7687 -2.1245
  168MPD2     C 2559   1.353   2.610  12.089  0.0733  0.3117  0.5732
  168MPD2    C1 2560   1.276   2.495  12.119  0.6213 -0.4144  0.0079
  168MPD2    C2 2561   1.228   2.415  12.015 -0.6446  0.4643 -0.1529
  168MPD2    C3 2562   1.267   2.434  11.885 -0.0473  0.1953  0.6830
  168MPD2    C4 2563   1.343   2.548  11.857 -0.0297 -0.0018 -0.0731
  168MPD2    C5 2564   1.387   2.636  11.953  0.7356 -0.5581  0.3510
  168MPD2     H 2565   1.173   2.327  12.047  1.8769 -0.9827  0.1913
  168MPD2    H1 2566   1.365   2.584  11.757 -1.0453  1.6757  0.3105
  168MPD2    H2 2567   1.414   2.665  12.160 -0.9358 -0.9453  2.3932
  168MPD2    H3 2568   1.466   2.707  11.933  1.6378 -1.2885  1.2959
  168MPD2     N 2569   1.222   2.342  11.787  0.2581 -0.3981  0.0348
  168MPD2    H5 2570   1.156   2.275  11.826  1.5953 -1.7587 -0.0395
  168MPD2    N1 2571   1.244   2.459  12.253  0.3141  0.0432  0.2989
  168MPD2    H7 2572   1.194   2.372  12.268  0.0320 -0.0645 -1.3033
  169MPD1     C 2573   2.704   1.529   8.455  0.1498 -0.1812  0.0737
  169MPD1    C1 2574   2.629   1.497   8.569  0.0406 -1.0070 -0.0402
  169MPD1    C2 2575   2.695   1.476   8.693  0.0338 -0.1370  0.0934
  169MPD1    C3 2576   2.830   1.499   8.698 -0.0295  0.0867 -0.6039
  169MPD1    C4 2577   2.900   1.521   8.584 -1.0348 -0.4112  0.4522
  169MPD1    C5 2578   2.845   1.531   8.462  0.0430 -0.0962 -0.2974
  169MPD1     H 2579   2.638   1.464   8.784  0.3084  0.4383  0.3406
  169MPD1    H1 2580   3.008   1.511   8.588 -1.0691 -0.1033  2.1402
  169MPD1    H2 2581   2.658   1.551   8.360 -1.2216 -0.3771  0.6830
  169MPD1    H3 2582   2.910   1.545   8.376 -0.1083  1.9907 -0.0838
  169MPD1     N 2583   2.881   1.506   8.832  0.4803  0.3744  0.1290
  169MPD1    H5 2584   2.810   1.497   8.904  0.4065  3.0005  0.3718
  169MPD1    N1 2585   2.493   1.536   8.564  0.0755 -0.8672 -0.0107
  169MPD1    H6 2586   2.443   1.492   8.642 -0.9268 -0.9022 -0.6611
  169MPD1    H7 2587   2.459   1.508   8.472  2.6217 -0.5477 -1.0372
  170MPD1     C 2588   2.223   4.108  12.851 -0.5896 -0.3813  0.1663
  170MPD1    C1 2589   2.177   4.235  12.867  0.0443  1.3879  0.2368
  170MPD1    C2 2590   2.197   4.287  12.995 -0.1687 -0.2970  0.1259
  170MPD1    C3 2591   2.253   4.212  13.100 -0.2598 -0.2617 -0.3708
  170MPD1    C4 2592   2.290   4.087  13.076 -0.2731  0.2452  0.6807
  170MPD1    C5 2593   2.277   4.031  12.952  0.5879  0.1744 -0.1146
  170MPD1     H 2594   2.176   4.391  13.020 -0.1423 -0.4447  0.7642
  170MPD1    H1 2595   2.322   4.021  13.156 -1.0102 -0.4579  0.3911
  170MPD1    H2 2596   2.229   4.063  12.752 -0.4020  0.0819 -0.0393
  170MPD1    H3 2597   2.303   3.927  12.944 -1.7009 -0.2618 -2.1225
  170MPD1     N 2598   2.264   4.275  13.228 -0.4587  0.0957  0.5680
  170MPD1    H5 2599   2.231   4.371  13.233 -0.3914  0.1519 -0.1100
  170MPD1    N1 2600   2.134   4.302  12.756  0.5910 -0.1602  0.4030
  170MPD1    H6 2601   2.068   4.375  12.782 -0.4618 -0.9284 -0.1156
  170MPD1    H7 2602   2.085   4.237  12.695  1.4498 -1.1122  0.7350
  171MPD1     C 2603   0.971   0.535  15.754  0.2088  0.7142 -0.0753
  171MPD1    C1 2604   1.037   0.414  15.725 -1.1905 -0.3201 -0.3704
  171MPD1    C2 2605   1.146   0.367  15.795  0.3212 -0.1777 -0.0365
  171MPD1    C3 2606   1.209   0.456  15.883 -0.2091 -0.2137 -0.5115
  171MPD1    C4 2607   1.141   0.573  15.910 -0.2935 -0.3055  0.0389
  171MPD1    C5 2608   1.026   0.615  15.850 -0.2172  0.8965 -0.0116
  171MPD1     H 2609   1.184   0.272  15.760  1.3777 -0.2515  1.3512
  171MPD1    H1 2610   1.190   0.648  15.972  0.3091 -1.4308  0.9199
  171MPD1    H2 2611   0.890   0.563  15.687  0.8757  0.6170 -0.9234
  171MPD1    H3 2612   0.988   0.715  15.867  0.9303  1.2631  0.3532
  171MPD1     N 2613   1.334   0.438  15.939  0.5696  0.2279  0.3365
  171MPD1    H5 2614   1.369   0.518  15.991  1.8672  0.3573 -0.7302
  171MPD1    N1 2615   0.977   0.327  15.637 -0.1155  0.1154  0.1081
  171MPD1    H6 2616   0.937   0.381  15.561  1.6580 -1.1786 -1.7588
  171MPD1    H7 2617   1.053   0.270  15.600 -2.1656 -1.7023 -1.2359
  172MPD1     C 2618   0.115   3.933   0.668 -0.0466  0.0846  0.1441
  172MPD1    C1 2619   0.047   4.038   0.619  0.4662  0.0170  0.2756
  172MPD1    C2 2620   0.102   4.161   0.622  0.1994  0.4198 -0.0938
  172MPD1    C3 2621   0.228   4.185   0.663  0.8122  0.4570  0.1820
  172MPD1    C4 2622   0.302   4.074   0.706  0.2509  0.3528 -0.0521
  172MPD1    C5 2623   0.245   3.948   0.711  0.9147  0.4644 -0.0084
  172MPD1     H 2624   0.034   4.237   0.586 -1.1489 -0.2778  1.0170
  172MPD1    H1 2625   0.406   4.080   0.736 -0.2667  0.0793  1.8284
  172MPD1    H2 2626   0.073   3.833   0.671  0.3688 -0.1260 -1.2713
  172MPD1    H3 2627   0.296   3.859   0.748 -0.2000 -0.2782 -0.2569
  172MPD1     N 2628   0.303   4.316   0.655 -0.1472  0.6368 -0.3691
  172MPD1    H5 2629   0.395   4.317   0.697  1.0320  1.6259 -2.9896
  172MPD1    N1 2630   4.627   4.021   0.588 -0.3465  0.5319  0.7877
  172MPD1    H6 2631   4.608   3.925   0.560  1.6206  0.3715 -0.0006
  172MPD1    H7 2632   4.592   4.078   0.512 -1.9804  2.2135  2.8111
  173MPD1     C 2633   1.569   0.014  15.643 -0.3220 -0.2260 -0.6154
  173MPD1    C1 2634   1.437   4.714  15.611  0.0292 -0.2605 -0.2088
  173MPD1    C2 2635   1.419   4.614  15.515  0.1557 -0.4741 -0.8290
  173MPD1    C3 2636   1.521   4.571  15.433 -0.8774  0.0351  0.4865
  173MPD1    C4 2637   1.644   4.620  15.446  0.7002  0.3643 -1.0162
  173MPD1    C5 2638   1.665   4.695  15.560  0.4271  0.1262  0.3063
  173MPD1     H 2639   1.317   4.582  15.498 -0.0817 -0.1613  0.0436
  173MPD1    H1 2640   1.727   4.586  15.386  0.6564 -0.6401 -0.5089
  173MPD1    H2 2641   1.600   0.073  15.728 -0.7429 -1.2076  0.2209
  173MPD1    H3 2642   1.764   0.011  15.581  1.2988 -2.4525  0.8798
  173MPD1     N 2643   1.491   4.463  15.341 -0.0388  0.2573  0.1363
  173MPD1    H5 2644   1.393   4.443  15.324 -0.3874  0.0975  2.3101
  173MPD1    N1 2645   1.334   0.019  15.701  0.2425 -0.2424 -0.2270
  173MPD1    H6 2646   1.243   0.023  15.656  0.0882 -1.4064 -0.0226
  173MPD1    H7 2647   1.348   0.113  15.738 -0.7884  0.0686 -0.6185
  174MPD1     C 2648   1.680   4.089  14.430  0.8887 -0.0015  0.4503
  174MPD1    C1 2649   1.599   4.193  14.467 -0.3667  0.2804  0.1342
  174MPD1    C2 2650   1.545   4.192  14.596  0.4969 -0.0011  0.6916
  174MPD1    C3 2651   1.547   4.084  14.679  0.0292 -0.8765 -0.0136
  174MPD1    C4 2652   1.620   3.974  14.634  0.2246 -0.4529 -0.2452
  174MPD1    C5 2653   1.684   3.976  14.506 -0.3195  0.7621 -0.4316
  174MPD1     H 2654   1.509   4.287  14.633  1.0304  0.1328  0.8714
  174MPD1    H1 2655   1.628   3.887  14.699  0.1428 -0.7357 -0.6098
  174MPD1    H2 2656   1.733   4.086  14.335 -1.5827  0.5339 -0.9567
  174MPD1    H3 2657   1.751   3.900  14.469 -1.5856  0.0704 -1.3218
  174MPD1     N 2658   1.496   4.085  14.809  0.5385 -0.4609  0.2746
  174MPD1    H5 2659   1.497   4.004  14.870 -2.2577 -2.8418 -2.8571
  174MPD1    N1 2660   1.600   4.309  14.390  0.3192 -0.0243 -0.2622
  174MPD1    H6 2661   1.513   4.361  14.405  1.2394  1.2917  0.4910
  174MPD1    H7 2662   1.604   4.275  14.294  0.7272 -0.2873 -0.1526
  175MPD1     C 2663   0.079   0.282  16.010  0.1692 -0.3986 -0.5571
  175MPD1    C1 2664   4.689   0.271  16.088 -0.1729  0.4186 -0.4583
  175MPD1    C2 2665   4.688   0.236  16.220  0.0235  0.0035  0.5343
  175MPD1    C3 2666   0.084   0.204  16.282  0.1285 -0.9957 -0.5135
  175MPD1    C4 2667   0.203   0.202  16.207  0.2529 -0.9848  0.1019
  175MPD1    C5 2668   0.198   0.240  16.076  0.2864  1.1302 -0.1450
  175MPD1     H 2669   4.602   0.234  16.285  0.0509  0.6269  0.5940
  175MPD1    H1 2670   0.304   0.183  16.243  0.1480  0.6262  1.2589
  175MPD1    H2 2671   0.083   0.309  15.905 -0.0960  1.9282  0.0508
  175MPD1    H3 2672   0.283   0.231  16.010  0.3576  3.0988 -0.3102
  175MPD1     N 2673   0.093   0.184  16.425  0.1047  0.6767  0.0932
  175MPD1    H5 2674   0.186   0.162  16.459 -0.7937 -0.4747  1.8419
  175MPD1    N1 2675   4.565   0.314  16.028  0.4279  0.5326  0.1857
  175MPD1    H6 2676   4.476   0.275  16.056 -0.5577  2.1409 -0.7235
  175MPD1    H7 2677   4.567   0.320  15.926 -1.1818 -1.4742  0.0551
  176MPD1     C 2678   1.660   2.171  17.200 -0.0759  0.0681 -0.0200
  176MPD1    C1 2679   1.642   2.138  17.335  0.3409 -0.0306 -0.2007
  176MPD1    C2 2680   1.548   2.214  17.409  0.1594  0.4721  0.3956
  176MPD1    C3 2681   1.480   2.325  17.354 -0.3883  0.7303  0.1633
  176MPD1    C4 2682   1.507   2.362  17.222 -0.0822 -0.6347  0.3737
  176MPD1    C5 2683   1.585   2.277  17.148  0.5906 -0.1258 -0.2382
  176MPD1     H 2684   1.526   2.182  17.510 -0.5125  0.9087  0.3802
  176MPD1    H1 2685   1.444   2.436  17.175 -0.2633 -1.7351 -1.1219
  176MPD1    H2 2686   1.730   2.112  17.142 -0.5815  0.9019 -1.4736
  176MPD1    H3 2687   1.601   2.295  17.042  0.6932  1.3791  0.0431
  176MPD1     N 2688   1.398   2.399  17.445 -0.5517 -0.3570  0.1424
  176MPD1    H5 2689   1.408   2.397  17.546  0.5724  0.8201  0.0610
  176MPD1    N1 2690   1.700   2.020  17.382  0.2800 -0.0720 -0.1766
  176MPD1    H6 2691   1.687   2.001  17.481  1.8500 -0.8242 -0.1146
  176MPD1    H7 2692   1.800   2.035  17.369  0.2343 -0.2887 -0.8096
  177MPD1     C 2693   4.034   2.825   9.186 -0.0389 -0.2272  0.0118
  177MPD1    C1 2694   4.006   2.844   9.052  0.8291  0.5855 -0.3327
  177MPD1    C2 2695   3.882   2.900   9.021 -0.3230  0.4258  0.3969
  177MPD1    C3 2696   3.789   2.932   9.114 -0.1605  0.6872 -0.6080
  177MPD1    C4 2697   3.816   2.903   9.244  0.1969 -0.1000  0.0433
  177MPD1    C5 2698   3.942   2.861   9.285  0.1105  0.3596  0.3393
  177MPD1     H 2699   3.850   2.912   8.918  0.8537  0.7532  0.0699
  177MPD1    H1 2700   3.745   2.930   9.321 -1.6826 -0.8431 -1.4318
  177MPD1    H2 2701   4.127   2.783   9.223 -2.1505 -1.5782  3.8160
  177MPD1    H3 2702   3.948   2.841   9.391 -1.3143 -1.2795  0.1119
  177MPD1     N 2703   3.654   2.978   9.075  0.5614 -0.4373 -0.5822
  177MPD1    H5 2704   3.637   2.985   8.975 -0.0265  1.3241 -0.3474
  177MPD1    N1 2705   4.080   2.771   8.952 -0.8108  0.4495  0.2336
  177MPD1    H6 2706   4.077   2.802   8.855 -1.5548 -2.1539 -0.5682
  177MPD1    H7 2707   4.180   2.771   8.973 -0.3694 -2.0967 -1.8180
  178MPD1     C 2708   2.237   3.239   0.585  0.0362  0.0592  0.1337
  178MPD1    C1 2709   2.175   3.313   0.489  0.3292 -0.2757  0.2346
  178MPD1    C2 2710   2.216   3.322   0.359  0.3613 -0.7005  0.4546
  178MPD1    C3 2711   2.332   3.261   0.325 -0.1659  0.0451  0.7879
  178MPD1    C4 2712   2.397   3.186   0.422 -0.1243 -0.4289 -0.6697
  178MPD1    C5 2713   2.346   3.167   0.548 -0.2507  0.0480  0.4066
  178MPD1     H 2714   2.150   3.380   0.295 -0.0622 -0.2199  1.3329
  178MPD1    H1 2715   2.485   3.127   0.399 -1.0073 -1.0232 -2.5432
  178MPD1    H2 2716   2.195   3.235   0.685  1.5836  1.1269  0.8348
  178MPD1    H3 2717   2.385   3.102   0.626 -0.6619 -0.9982 -0.2630
  178MPD1     N 2718   2.384   3.257   0.190  0.4901  0.2834  0.0903
  178MPD1    H5 2719   2.467   3.199   0.181  1.2854  1.5796 -0.9007
  178MPD1    N1 2720   2.043   3.345   0.523 -1.1966 -0.2046  0.2397
  178MPD1    H6 2721   1.995   3.403   0.454 -3.5717 -1.6223  0.6985
  178MPD1    H7 2722   2.028   3.377   0.619 -1.6934 -0.7095  0.3314
  179MPD1     C 2723   2.305   2.168  15.868  0.1590 -0.5822  0.8781
  179MPD1    C1 2724   2.195   2.198  15.789  0.1182  0.2929 -0.1401
  179MPD1    C2 2725   2.138   2.103  15.718 -0.2335  0.5106  0.2984
  179MPD1    C3 2726   2.190   1.973  15.731 -0.2995  0.5373 -0.9152
  179MPD1    C4 2727   2.288   1.942  15.820  0.5778 -0.0474  0.3183
  179MPD1    C5 2728   2.357   2.042  15.881  0.6659  0.6052  0.6922
  179MPD1     H 2729   2.056   2.126  15.652  0.5697  1.1765 -0.4697
  179MPD1    H1 2730   2.332   1.843  15.826  0.4194 -0.2093 -1.2563
  179MPD1    H2 2731   2.369   2.243  15.912 -2.3735  1.5797  0.8551
  179MPD1    H3 2732   2.451   2.019  15.930  0.2216  2.2441  2.3166
  179MPD1     N 2733   2.136   1.852  15.666  0.9378  0.0798  0.1624
  179MPD1    H5 2734   2.186   1.766  15.688 -1.0422 -1.3296 -0.8558
  179MPD1    N1 2735   2.165   2.329  15.758  0.1136  0.2165 -0.2097
  179MPD1    H6 2736   2.067   2.352  15.749 -0.4071 -1.2558  1.8038
  179MPD1    H7 2737   2.198   2.404  15.818 -0.3057 -1.6926  2.3918
  180MPD1     C 2738   1.555   3.101  15.076  0.3811 -0.0128  0.0368
  180MPD1    C1 2739   1.677   3.157  15.034  0.2361  0.0792  0.0926
  180MPD1    C2 2740   1.699   3.163  14.895  0.1081 -0.5435  0.3459
  180MPD1    C3 2741   1.609   3.103  14.809 -1.0229  0.0514  0.5613
  180MPD1    C4 2742   1.496   3.041  14.855  0.4779  0.0651  0.0685
  180MPD1    C5 2743   1.478   3.034  14.993 -0.2191  0.6197 -0.3844
  180MPD1     H 2744   1.791   3.208  14.860  0.2155 -0.1061  1.1821
  180MPD1    H1 2745   1.420   3.001  14.790 -1.8317 -0.0036  2.8268
  180MPD1    H2 2746   1.521   3.120  15.177  0.8178  2.2356 -0.2233
  180MPD1    H3 2747   1.386   2.994  15.034  1.6235 -3.4164 -0.2545
  180MPD1     N 2748   1.652   3.098  14.674 -0.3204  0.7325  0.2285
  180MPD1    H5 2749   1.736   3.153  14.656  0.2907 -0.2877 -0.0717
  180MPD1    N1 2750   1.747   3.238  15.121  0.0017  0.3566 -0.0445
  180MPD1    H6 2751   1.742   3.208  15.218  0.3947 -1.4820 -0.6027
  180MPD1    H7 2752   1.845   3.229  15.094 -0.0074 -1.3098  0.4929
  181MPD1     C 2753   2.637   0.764   9.319  0.2893 -0.0655  0.2928
  181MPD1    C1 2754   2.683   0.637   9.279 -1.2682  0.1023 -0.2349
  181MPD1    C2 2755   2.720   0.551   9.385  0.6982  0.1745 -0.5685
  181MPD1    C3 2756   2.710   0.589   9.517  0.5678  0.4414  0.2747
  181MPD1    C4 2757   2.673   0.718   9.545  0.1518  0.1479 -0.3911
  181MPD1    C5 2758   2.633   0.807   9.451 -0.1154  0.6467 -0.1027
  181MPD1     H 2759   2.750   0.449   9.364 -1.0387 -0.2515 -0.9999
  181MPD1    H1 2760   2.663   0.741   9.650  2.6537  0.5181 -0.2235
  181MPD1    H2 2761   2.616   0.845   9.251 -0.0487 -0.3728  0.0331
  181MPD1    H3 2762   2.605   0.904   9.492 -2.3219 -0.4905  1.0804
  181MPD1     N 2763   2.746   0.503   9.629 -0.2552  0.2923  0.0246
  181MPD1    H5 2764   2.763   0.555   9.714 -0.1668 -0.3410  0.3975
  181MPD1    N1 2765   2.713   0.604   9.142  0.3047 -0.6901  0.5463
  181MPD1    H6 2766   2.640   0.645   9.083 -0.3930  1.2359  2.7597
  181MPD1    H7 2767   2.722   0.504   9.124  1.9402 -0.7570  1.7719
  182MPD1     C 2768   4.408   2.747   1.322  0.0677  0.8363  0.4917
  182MPD1    C1 2769   4.460   2.846   1.408  0.3844 -0.6062 -0.0156
  182MPD1    C2 2770   4.470   2.971   1.365 -0.0542 -0.0849  0.5310
  182MPD1    C3 2771   4.447   2.998   1.231 -0.3516  0.5995  0.0840
  182MPD1    C4 2772   4.378   2.902   1.153  0.1438 -0.0600 -0.3458
  182MPD1    C5 2773   4.355   2.773   1.197  0.7664 -0.0129  0.5020
  182MPD1     H 2774   4.509   3.050   1.429 -0.7226  2.3696 -2.1107
  182MPD1    H1 2775   4.340   2.936   1.058 -1.4116  0.8289  0.6065
  182MPD1    H2 2776   4.402   2.649   1.367 -0.4919  0.5437 -0.2159
  182MPD1    H3 2777   4.301   2.696   1.144  2.1974 -0.1620 -0.7214
  182MPD1     N 2778   4.469   3.123   1.174 -0.3316 -0.3807  0.8280
  182MPD1    H5 2779   4.433   3.136   1.080  0.2299 -0.8471  0.5506
  182MPD1    N1 2780   4.492   2.806   1.538 -0.6870  0.1263 -0.4601
  182MPD1    H6 2781   4.580   2.849   1.564 -1.3672  0.6193  1.0041
  182MPD1    H7 2782   4.518   2.708   1.542  4.3587  1.3825 -2.5886
  183MPD1     C 2783   4.537   4.482   9.783  0.3477 -0.0605 -0.5612
  183MPD1    C1 2784   4.498   4.372   9.863 -0.2891  0.1041  0.1746
  183MPD1    C2 2785   4.414   4.393   9.972  0.1886  0.1292  0.2858
  183MPD1    C3 2786   4.385   4.521  10.020 -0.3878  0.3401 -0.0570
  183MPD1    C4 2787   4.436   4.627   9.952 -0.0162  0.2909 -0.2623
  183MPD1    C5 2788   4.515   4.606   9.841  0.3120 -0.7700 -0.2187
  183MPD1     H 2789   4.383   4.312  10.037  0.6537 -0.9106 -0.7915
  183MPD1    H1 2790   4.417   0.008   9.980 -1.3742 -0.5275  1.7884
  183MPD1    H2 2791   4.596   4.471   9.692  2.7297  1.8728  0.7245
  183MPD1    H3 2792   4.559   4.699   9.808 -0.3122 -0.0985  0.8514
  183MPD1     N 2793   4.296   4.528  10.134  0.9787  0.1296  0.1347
  183MPD1    H5 2794   4.272   4.446  10.188  0.4487 -0.8644 -1.6231
  183MPD1    N1 2795   4.521   4.242   9.810  0.5629  0.3280 -0.4188
  183MPD1    H6 2796   4.542   4.177   9.886 -0.9185  0.5399  0.1796
  183MPD1    H7 2797   4.606   4.235   9.755  1.0347 -0.1052  0.3536
  184MPD1     C 2798   3.107   2.265  10.622  1.2847 -0.1679 -0.3600
  184MPD1    C1 2799   3.017   2.268  10.514  0.1891  0.2760 -0.0547
  184MPD1    C2 2800   3.058   2.262  10.386 -0.0732 -0.0108 -0.1370
  184MPD1    C3 2801   3.194   2.270  10.358 -0.1431  0.5691 -0.3518
  184MPD1    C4 2802   3.287   2.276  10.456 -0.0213 -0.6134  0.4874
  184MPD1    C5 2803   3.243   2.262  10.590 -0.4316  0.1877 -0.5227
  184MPD1     H 2804   2.985   2.260  10.306  0.4224 -0.2545 -0.5818
  184MPD1    H1 2805   3.391   2.303  10.439 -0.4526  0.2976 -0.7408
  184MPD1    H2 2806   3.080   2.261  10.726  0.0510  1.2812 -0.6299
  184MPD1    H3 2807   3.315   2.255  10.670 -0.6637  0.9918 -0.2389
  184MPD1     N 2808   3.248   2.271  10.231 -0.0488  0.1037 -0.2675
  184MPD1    H5 2809   3.342   2.235  10.229  0.2034  0.7376  0.7225
  184MPD1    N1 2810   2.873   2.261  10.536  0.4836  0.1618  0.3415
  184MPD1    H6 2811   2.815   2.290  10.457  4.3699  0.0364 -2.5740
  184MPD1    H7 2812   2.853   2.314  10.620  0.6310 -1.9214  1.6897
  185MPD1     C 2813   3.166   2.451   9.180  0.1661  0.6809 -0.6015
  185MPD1    C1 2814   3.068   2.399   9.262  0.3453  0.7678 -0.7580
  185MPD1    C2 2815   3.100   2.340   9.382 -0.1192  0.3538 -0.5560
  185MPD1    C3 2816   3.232   2.336   9.428  0.8885  0.2477 -0.2739
  185MPD1    C4 2817   3.326   2.383   9.339  0.4196  0.4465 -0.4262
  185MPD1    C5 2818   3.298   2.439   9.218 -0.8875 -0.6068 -0.4370
  185MPD1     H 2819   3.022   2.307   9.449  2.2486 -1.4929  1.2478
  185MPD1    H1 2820   3.427   2.371   9.379 -0.2524 -0.9679  0.8320
  185MPD1    H2 2821   3.147   2.492   9.081  0.1081  0.2748 -0.7593
  185MPD1    H3 2822   3.382   2.484   9.166 -1.1231 -0.6330 -0.8433
  185MPD1     N 2823   3.281   2.283   9.550  0.2310 -0.5225 -0.1672
  185MPD1    H5 2824   3.382   2.277   9.563  0.3598  1.7550 -0.0485
  185MPD1    N1 2825   2.932   2.420   9.236  0.1151 -0.5909 -0.2366
  185MPD1    H6 2826   2.910   2.445   9.140 -2.3483 -1.3191  0.1346
  185MPD1    H7 2827   2.904   2.490   9.305 -1.3073 -1.0901 -0.3045
  186MPD1     C 2828   2.648   1.541  15.907  0.0455  0.2892  0.2284
  186MPD1    C1 2829   2.524   1.505  15.955 -0.0268 -0.2482  0.3172
  186MPD1    C2 2830   2.455   1.605  16.025  0.0141 -0.5329  0.9016
  186MPD1    C3 2831   2.509   1.728  16.043  0.3986  1.2671 -0.0307
  186MPD1    C4 2832   2.631   1.764  15.985  0.0091  0.0138 -0.3365
  186MPD1    C5 2833   2.702   1.668  15.922  0.0849 -0.4221  0.0407
  186MPD1     H 2834   2.356   1.583  16.063 -0.7358  0.6809 -0.3228
  186MPD1    H1 2835   2.675   1.862  15.993  2.6599 -1.2783  0.8346
  186MPD1    H2 2836   2.706   1.464  15.856 -1.5173 -1.1405  0.6021
  186MPD1    H3 2837   2.798   1.693  15.878 -0.0495  1.2662  0.7097
  186MPD1     N 2838   2.451   1.833  16.118 -0.3043 -0.0879  0.6838
  186MPD1    H5 2839   2.504   1.919  16.128 -1.8611  1.0563 -0.8709
  186MPD1    N1 2840   2.476   1.374  15.952 -0.2397 -0.3370  0.0971
  186MPD1    H6 2841   2.519   1.325  15.874 -0.5664 -2.0997  1.0157
  186MPD1    H7 2842   2.375   1.376  15.937  0.1623  1.8805 -2.2414
  187MPD1     C 2843   0.999   3.798   0.498  0.6898  0.2095  0.0231
  187MPD1    C1 2844   0.992   3.925   0.450 -0.7387 -0.4074  0.3812
  187MPD1    C2 2845   1.031   3.947   0.318  0.4800  0.1294 -0.1146
  187MPD1    C3 2846   1.093   3.847   0.245  0.3567 -0.0973  0.4386
  187MPD1    C4 2847   1.111   3.721   0.301  0.3131 -0.3424  0.1460
  187MPD1    C5 2848   1.067   3.698   0.426  0.2187 -0.2534  0.8978
  187MPD1     H 2849   1.014   4.042   0.269 -1.3872  0.0196  0.3463
  187MPD1    H1 2850   1.165   3.644   0.247  0.7372 -0.7357  1.1339
  187MPD1    H2 2851   0.964   3.772   0.597 -1.4677  1.6778 -0.3663
  187MPD1    H3 2852   1.077   3.603   0.476  1.0005 -1.7823 -2.1298
  187MPD1     N 2853   1.142   3.864   0.111 -0.3495  0.2017 -0.2316
  187MPD1    H5 2854   1.186   3.786   0.064  2.6254 -0.4721  3.6243
  187MPD1    N1 2855   0.922   4.025   0.520 -0.1411  0.5337  0.6096
  187MPD1    H6 2856   0.952   4.115   0.484  2.9413 -1.7201 -2.4973
  187MPD1    H7 2857   0.930   4.020   0.621  0.8360 -0.4582  0.4752
  188MPD1     C 2858   1.342   3.670  10.588 -0.0615  0.2504 -0.1435
  188MPD1    C1 2859   1.418   3.556  10.614 -0.4531  0.2405  0.2272
  188MPD1    C2 2860   1.381   3.443  10.550 -0.0667  0.0858 -0.1300
  188MPD1    C3 2861   1.268   3.440  10.463 -0.6831 -0.6128  0.3802
  188MPD1    C4 2862   1.178   3.544  10.458 -0.0901  0.1576 -0.3654
  188MPD1    C5 2863   1.223   3.660  10.510  0.3173  0.2798  0.1201
  188MPD1     H 2864   1.443   3.355  10.555  1.1356  0.9805  0.6359
  188MPD1    H1 2865   1.103   3.536  10.380  0.5705  1.8839 -1.1635
  188MPD1    H2 2866   1.356   3.767  10.634 -0.9960 -0.3995  1.5137
  188MPD1    H3 2867   1.160   3.747  10.497  0.5487 -0.0344 -3.1378
  188MPD1     N 2868   1.226   3.326  10.389 -0.0967 -0.0080  0.5709
  188MPD1    H5 2869   1.149   3.353  10.329  1.6260 -1.7566 -2.3724
  188MPD1    N1 2870   1.545   3.575  10.670 -1.2721  0.4319 -0.6362
  188MPD1    H6 2871   1.579   3.491  10.717 -1.9908  0.5694  0.1199
  188MPD1    H7 2872   1.543   3.650  10.739 -0.2568 -0.1394  0.0246
  189MPD1     C 2873   3.228   3.983   0.089  0.6471 -0.0523  0.1792
  189MPD1    C1 2874   3.154   3.932  17.679  0.8066 -0.5540  0.4870
  189MPD1    C2 2875   3.069   4.016  17.602 -0.1379 -0.2718 -0.1383
  189MPD1    C3 2876   3.037   4.140  17.649 -0.0100 -0.3644 -0.2670
  189MPD1    C4 2877   3.099   4.173   0.072  0.6220 -0.1146 -0.1367
  189MPD1    C5 2878   3.187   4.098   0.143 -0.3669  0.4192  0.0986
  189MPD1     H 2879   3.023   3.980  17.510 -0.6127 -1.0212  0.3926
  189MPD1    H1 2880   3.072   4.262   0.128 -0.1518 -1.5066  1.6919
  189MPD1    H2 2881   3.307   3.922   0.131 -1.5263 -1.3990  2.2809
  189MPD1    H3 2882   3.237   4.134   0.232  0.3239 -1.7112  0.5636
  189MPD1     N 2883   2.947   4.226  17.582  0.1604 -0.4411 -0.5481
  189MPD1    H5 2884   2.900   4.187  17.501 -0.1798 -1.2798  0.0577
  189MPD1    N1 2885   3.189   3.810  17.619 -0.5007 -0.2176 -0.2567
  189MPD1    H6 2886   3.114   3.768  17.564 -0.5396  0.3980 -0.6860
  189MPD1    H7 2887   3.210   3.751   0.009 -0.7382 -0.0945 -0.1017
  190MPD1     C 2888   2.072   2.328  14.817 -0.6004  0.1301  0.4905
  190MPD1    C1 2889   2.187   2.301  14.892 -0.0188  0.7614 -0.0624
  190MPD1    C2 2890   2.199   2.357  15.015  0.2212  0.5893 -0.0099
  190MPD1    C3 2891   2.096   2.424  15.077 -0.1783 -0.3441 -0.2438
  190MPD1    C4 2892   1.980   2.449  15.000 -0.3950 -0.4567 -0.1019
  190MPD1    C5 2893   1.971   2.404  14.871  0.6825 -0.1427  0.4365
  190MPD1     H 2894   2.287   2.344  15.076 -0.5034 -1.0973  0.6527
  190MPD1    H1 2895   1.899   2.508  15.042  0.4304 -0.6143  1.7427
  190MPD1    H2 2896   2.063   2.294  14.715 -2.4671 -0.8082  0.9777
  190MPD1    H3 2897   1.883   2.419  14.808  1.1052  2.0229  0.3639
  190MPD1     N 2898   2.099   2.471  15.211 -0.3140  0.1194 -0.1937
  190MPD1    H5 2899   2.185   2.450  15.261  0.0304 -0.0829 -0.8825
  190MPD1    N1 2900   2.287   2.225  14.836  0.0494 -0.3135 -0.5700
  190MPD1    H6 2901   2.252   2.150  14.778 -0.2843 -1.8489  1.6027
  190MPD1    H7 2902   2.356   2.185  14.899 -2.1510 -1.6242  1.0366
  191MPD1     C 2903   1.391   4.635  13.219 -0.4591 -0.1244 -0.9498
  191MPD1    C1 2904   1.452   4.626  13.096  0.2817 -0.4389 -0.2646
  191MPD1    C2 2905   1.398   4.696  12.989 -0.2911 -0.0727  0.2819
  191MPD1    C3 2906   1.289   0.056  13.002 -0.1513  0.3145 -0.6852
  191MPD1    C4 2907   1.224   0.064  13.120 -0.2556 -0.1167  0.0206
  191MPD1    C5 2908   1.284   4.715  13.224  0.2679 -0.1453  0.0117
  191MPD1     H 2909   1.454   4.685  12.897 -1.4687 -0.5604 -0.3718
  191MPD1    H1 2910   1.130   0.113  13.144  1.0036  1.8839  0.9354
  191MPD1    H2 2911   1.430   4.591  13.310 -2.6949 -0.4937 -0.1753
  191MPD1    H3 2912   1.246   4.722  13.325  0.6280 -0.8790  0.1976
  191MPD1     N 2913   1.246   0.127  12.884  0.4562 -0.0963  0.6881
  191MPD1    H5 2914   1.284   0.089  12.798  1.0524  2.0217  0.0297
  191MPD1    N1 2915   1.582   4.578  13.085 -0.5050 -0.2371  0.1622
  191MPD1    H6 2916   1.605   4.542  12.992 -1.3537  2.0180 -0.9299
  191MPD1    H7 2917   1.595   4.501  13.150 -0.8014  1.2582  1.9715
  192MPD1     C 2918   0.450   0.714  12.883 -0.4180 -0.5583  0.0430
  192MPD1    C1 2919   0.520   0.644  12.977  0.1593  0.2437 -0.0067
  192MPD1    C2 2920   0.635   0.577  12.939  0.5908 -0.0033 -0.2106
  192MPD1    C3 2921   0.688   0.594  12.814  0.2669  0.2387 -0.5479
  192MPD1    C4 2922   0.615   0.671  12.717 -0.7141 -0.7072 -0.6439
  192MPD1    C5 2923   0.502   0.735  12.761 -0.2050  0.1161 -0.5585
  192MPD1     H 2924   0.684   0.514  13.012 -0.2934 -0.6260 -0.1618
  192MPD1    H1 2925   0.658   0.693  12.620 -1.8937  1.1259 -0.7493
  192MPD1    H2 2926   0.352   0.753  12.909 -0.4165  0.6905 -1.8693
  192MPD1    H3 2927   0.435   0.781  12.689 -0.9463  2.7111  1.8511
  192MPD1     N 2928   0.806   0.529  12.776 -0.0604 -0.2914  0.1749
  192MPD1    H5 2929   0.856   0.475  12.846  1.9108  0.7209 -0.4575
  192MPD1    N1 2930   0.456   0.607  13.100 -0.3240  0.5661 -0.0023
  192MPD1    H6 2931   0.519   0.573  13.172 -1.4100 -1.8501 -0.2132
  192MPD1    H7 2932   0.405   0.686  13.140  0.4890  0.8534  0.4774
  193MPD1     C 2933   1.234   0.155  17.151  0.1314 -0.1840  0.3943
  193MPD1    C1 2934   1.274   0.254  17.236 -0.5303  0.5177 -0.6351
  193MPD1    C2 2935   1.338   0.361  17.176 -0.4069  0.3010 -0.7109
  193MPD1    C3 2936   1.357   0.376  17.041 -0.0603  0.0958  0.9753
  193MPD1    C4 2937   1.312   0.273  16.955 -0.0919  0.2658 -0.2918
  193MPD1    C5 2938   1.255   0.169  17.018  1.1254 -0.2054  0.2584
  193MPD1     H 2939   1.377   0.444  17.235  0.8053  0.8968 -2.3408
  193MPD1    H1 2940   1.340   0.263  16.851  0.8166  0.0781 -0.0262
  193MPD1    H2 2941   1.180   0.068  17.186 -0.8019 -0.5947 -2.0405
  193MPD1    H3 2942   1.231   0.085  16.953  1.2724 -0.0851  0.0462
  193MPD1     N 2943   1.432   0.485  16.991 -0.0557 -0.6527  0.4070
  193MPD1    H5 2944   1.437   0.475  16.891  0.8159  1.5361  0.2297
  193MPD1    N1 2945   1.230   0.257  17.366 -0.1932  0.7488 -0.0737
  193MPD1    H6 2946   1.292   0.311  17.426 -1.0895  1.6049  0.0951
  193MPD1    H7 2947   1.209   0.160  17.390  2.2475 -0.3041 -2.2435
  194MPD1     C 2948   4.162   3.061  17.007  0.7922  0.6837 -0.3459
  194MPD1    C1 2949   4.138   2.951  16.931  0.0319 -0.1427 -0.1483
  194MPD1    C2 2950   4.166   2.827  16.987 -0.6936 -0.0498  0.4211
  194MPD1    C3 2951   4.217   2.816  17.113  0.2303 -0.5717  0.2861
  194MPD1    C4 2952   4.240   2.926  17.187  0.0086 -0.2140  0.4969
  194MPD1    C5 2953   4.210   3.047  17.135  0.2241  0.0640  0.0480
  194MPD1     H 2954   4.154   2.736  16.929  1.3857 -0.7899  1.1746
  194MPD1    H1 2955   4.282   2.909  17.286  0.7495  2.0760  0.5633
  194MPD1    H2 2956   4.129   3.157  16.970 -1.0820  0.7987  1.6300
  194MPD1    H3 2957   4.225   3.130  17.203 -0.4320 -0.3240  0.6638
  194MPD1     N 2958   4.259   2.695  17.170 -0.8415 -0.1964 -0.2211
  194MPD1    H5 2959   4.300   2.695  17.263  2.0862 -2.3829 -1.4806
  194MPD1    N1 2960   4.121   2.965  16.791 -0.4039  0.7601  0.3988
  194MPD1    H6 2961   4.079   2.881  16.752 -0.0890  0.2209  1.2215
  194MPD1    H7 2962   4.081   3.053  16.758 -0.1049  1.0215  0.7365
  195MPD1     C 2963   0.636   4.444   0.093 -0.2442  1.0372 -0.2024
  195MPD1    C1 2964   0.715   4.384  17.687  0.3836  0.5141  0.1082
  195MPD1    C2 2965   0.745   4.252   0.019  0.4532 -0.6929 -0.1938
  195MPD1    C3 2966   0.681   4.181   0.121  0.4004  0.8518  0.0144
  195MPD1    C4 2967   0.598   4.249   0.206  0.2031  0.4514  0.2987
  195MPD1    C5 2968   0.578   4.379   0.193 -0.3181 -0.1094  0.0523
  195MPD1     H 2969   0.824   4.213  17.647  0.0140 -1.8105 -0.0675
  195MPD1    H1 2970   0.540   4.200   0.282 -0.7164 -1.3017 -1.5382
  195MPD1    H2 2971   0.626   4.552   0.090 -1.9909  0.8753 -0.5386
  195MPD1    H3 2972   0.515   4.439   0.258 -2.6452 -0.8002 -1.5706
  195MPD1     N 2973   0.698   4.042   0.144  0.7409 -0.2033 -0.4293
  195MPD1    H5 2974   0.645   4.011   0.225 -0.6525  0.4040 -1.0980
  195MPD1    N1 2975   0.790   4.459  17.598  0.3107  1.0996  0.1738
  195MPD1    H6 2976   0.725   4.535  17.576  2.3811  2.3310 -1.7074
  195MPD1    H7 2977   0.798   4.409  17.510  1.2733  0.0035  0.8905
  196MPD1     C 2978   4.570   2.815   0.758  0.6114 -0.2673  0.7466
  196MPD1    C1 2979   4.626   2.930   0.696  0.1271 -0.6160 -0.0133
  196MPD1    C2 2980   4.696   3.018   0.778  0.6851  0.5606  0.2716
  196MPD1    C3 2981   4.705   3.003   0.918 -0.2139 -0.8628 -0.2647
  196MPD1    C4 2982   4.656   2.885   0.968  0.0084 -0.4366  0.4044
  196MPD1    C5 2983   4.586   2.793   0.891  0.5936  0.0885 -0.1383
  196MPD1     H 2984   0.011   3.111   0.737  0.8983 -0.9899 -3.0558
  196MPD1    H1 2985   4.662   2.877   1.076 -2.0769 -0.0802  0.5392
  196MPD1    H2 2986   4.528   2.736   0.697 -0.3667  1.2789 -0.6029
  196MPD1    H3 2987   4.538   2.710   0.941 -0.2060  0.4187 -0.3497
  196MPD1     N 2988   0.058   3.088   1.003  0.2531 -0.6185  0.0514
  196MPD1    H5 2989   0.091   3.050   1.091 -2.1505 -2.2343  0.2688
  196MPD1    N1 2990   4.632   2.943   0.559  0.0271  0.2647 -0.7052
  196MPD1    H6 2991   4.665   3.038   0.545  1.3981  0.2914  2.6693
  196MPD1    H7 2992   4.539   2.927   0.520  0.3586 -0.5382 -1.1944
  197MPD1     C 2993   4.553   0.627  17.424 -0.2643 -0.1884 -0.3249
  197MPD1    C1 2994   4.663   0.612  17.509 -0.2081  0.3739 -1.0876
  197MPD1    C2 2995   0.062   0.628  17.441 -0.0142  0.4741  0.4949
  197MPD1    C3 2996   0.069   0.640  17.298 -0.2641 -0.1700 -0.3267
  197MPD1    C4 2997   4.680   0.634  17.223 -0.5492  1.0248 -0.1535
  197MPD1    C5 2998   4.558   0.638  17.286 -0.0165 -0.4229  0.2512
  197MPD1     H 2999   0.160   0.624  17.488  0.1176  0.4376  0.2207
  197MPD1    H1 3000   4.689   0.654  17.116 -1.3643  1.8155 -0.0720
  197MPD1    H2 3001   4.456   0.639  17.472 -0.9937  0.3939 -1.9421
  197MPD1    H3 3002   4.468   0.658  17.229  0.3145 -2.6751 -1.0685
  197MPD1     N 3003   0.191   0.663  17.223 -0.4299  0.3401 -0.2211
  197MPD1    H5 3004   0.177   0.660  17.123  2.2102 -1.3134 -0.5410
  197MPD1    N1 3005   4.655   0.636  17.649  0.9127  0.2385 -0.3054
  197MPD1    H6 3006   0.016   0.591  17.688  0.0920 -0.3272  0.7865
  197MPD1    H7 3007   4.576   0.584  17.687  0.4661  0.3404 -1.0885
  198MPD1     C 3008   2.672   0.064  15.391  0.3671  0.6039  0.1274
  198MPD1    C1 3009   2.710   0.012  15.506 -1.0954 -1.1003  0.2255
  198MPD1    C2 3010   2.630   4.641  15.557  0.0348  0.1864  0.1165
  198MPD1    C3 3011   2.527   4.588  15.491 -0.0439  0.0865 -0.1539
  198MPD1    C4 3012   2.510   4.628  15.364  0.2857  0.1049 -0.5223
  198MPD1    C5 3013   2.584   0.007  15.313 -0.1368  1.3821  0.5445
  198MPD1     H 3014   2.640   4.614  15.661  1.7442  1.5780  0.2984
  198MPD1    H1 3015   2.436   4.583  15.299  1.7024 -0.3307 -1.8327
  198MPD1    H2 3016   2.736   0.143  15.353 -0.9473 -0.3952 -4.2816
  198MPD1    H3 3017   2.575   0.048  15.213  0.3144 -1.6970 -0.7267
  198MPD1     N 3018   2.452   4.484  15.555  0.2421  0.2267  0.2494
  198MPD1    H5 3019   2.471   4.477  15.654 -1.6326 -0.3600  0.5591
  198MPD1    N1 3020   2.808   0.089  15.577  0.2370  0.8502 -0.0462
  198MPD1    H6 3021   2.850   0.034  15.652  2.3597  2.0611 -0.3506
  198MPD1    H7 3022   2.881   0.127  15.517 -0.3450  2.0975  0.0414
  199MPD1     C 3023   3.427   0.570  10.264  0.0199  0.1189  0.1946
  199MPD1    C1 3024   3.490   0.683  10.209  0.1110  0.8487 -0.7764
  199MPD1    C2 3025   3.399   0.782  10.158  0.0283 -0.1620 -0.0922
  199MPD1    C3 3026   3.264   0.759  10.145  0.3133  0.4805  0.5937
  199MPD1    C4 3027   3.204   0.657  10.216 -0.2718 -0.0233  0.0417
  199MPD1    C5 3028   3.284   0.566  10.273 -0.0466  0.1209  0.5845
  199MPD1     H 3029   3.431   0.878  10.120 -1.2198  1.0209  1.8553
  199MPD1    H1 3030   3.097   0.643  10.226 -0.1876 -1.7799 -1.4541
  199MPD1    H2 3031   3.491   0.487  10.291 -1.5077 -1.2989 -0.5169
  199MPD1    H3 3032   3.253   0.489  10.343 -0.1966 -1.3003 -1.0426
  199MPD1     N 3033   3.170   0.857  10.092 -0.5355  0.0946 -0.1803
  199MPD1    H5 3034   3.072   0.831  10.101 -0.6196  0.1796 -0.8056
  199MPD1    N1 3035   3.630   0.701  10.220 -0.1136 -0.4025  0.0799
  199MPD1    H6 3036   3.655   0.773  10.152 -2.2197 -2.0120 -2.3706
  199MPD1    H7 3037   3.675   0.613  10.197  1.5459 -0.1333  2.2088
  200MPD1     C 3038   2.501   0.154  14.825 -0.1600 -0.2181  0.1321
  200MPD1    C1 3039   2.554   0.169  14.702  0.5633  0.0604  0.0364
  200MPD1    C2 3040   2.689   0.201  14.702 -0.5842  0.1690  0.1141
  200MPD1    C3 3041   2.759   0.234  14.818  0.1281 -0.1819  0.4085
  200MPD1    C4 3042   2.700   0.226  14.933  0.7564 -0.6775  0.5844
  200MPD1    C5 3043   2.573   0.175  14.937  0.2121 -0.1346 -0.6401
  200MPD1     H 3044   2.748   0.208  14.611  1.3108 -0.0861  1.3311
  200MPD1    H1 3045   2.756   0.235  15.026  1.4809 -2.0398  0.2828
  200MPD1    H2 3046   2.405   0.104  14.833  0.6756 -2.3326 -2.9071
  200MPD1    H3 3047   2.533   0.143  15.032 -0.3132 -2.1180 -1.5371
  200MPD1     N 3048   2.902   0.248  14.807  0.0086  0.1022  0.3798
  200MPD1    H5 3049   2.941   0.229  14.716  0.6727 -0.0689  0.6967
  200MPD1    N1 3050   2.485   0.115  14.593  0.1923 -0.2130 -0.0832
  200MPD1    H6 3051   2.509   0.167  14.509  0.6614  0.7152  0.6241
  200MPD1    H7 3052   2.386   0.130  14.612 -0.0042 -0.0166 -1.2465
  201MPD1     C 3053   0.654   4.549  13.015 -0.0936 -0.4671 -0.3119
  201MPD1    C1 3054   0.663   4.481  13.131  0.3180  0.9766 -0.3578
  201MPD1    C2 3055   0.741   4.362  13.131  0.1665 -0.2597 -0.6393
  201MPD1    C3 3056   0.798   4.306  13.019  0.5622 -0.0618  0.2309
  201MPD1    C4 3057   0.776   4.381  12.903  0.5921 -0.2993 -0.6437
  201MPD1    C5 3058   0.714   4.507  12.902  0.5981 -0.6309 -0.3288
  201MPD1     H 3059   0.759   4.317  13.228 -1.6757 -0.3313 -0.3390
  201MPD1    H1 3060   0.806   4.337  12.809  0.3005  2.5045 -2.0258
  201MPD1    H2 3061   0.596   4.640  13.007 -1.3203 -1.1584  0.7048
  201MPD1    H3 3062   0.702   4.569  12.813 -1.0660 -0.2522  0.1525
  201MPD1     N 3063   0.859   4.176  13.025 -0.4119 -0.2710  0.1712
  201MPD1    H5 3064   0.870   4.138  13.119  2.8203  0.3593  0.0535
  201MPD1    N1 3065   0.624   4.547  13.246 -0.0742 -0.0240  0.3925
  201MPD1    H6 3066   0.600   4.484  13.322 -0.2120  1.2109  1.3725
  201MPD1    H7 3067   0.534   4.588  13.220 -0.7347 -1.3487  0.6076
  202MPD1     C 3068   3.970   3.742   9.665 -0.2266 -0.1572 -0.0403
  202MPD1    C1 3069   3.990   3.600   9.673 -0.3187  0.1047 -0.4195
  202MPD1    C2 3070   4.090   3.567   9.767 -0.1802 -0.5024  0.1745
  202MPD1    C3 3071   4.114   3.655   9.868  0.1129  0.0375 -0.1551
  202MPD1    C4 3072   4.072   3.780   9.867  0.0170  0.1301 -0.6017
  202MPD1    C5 3073   3.997   3.825   9.762  0.8755 -0.2367 -1.2105
  202MPD1     H 3074   4.110   3.460   9.772 -0.3121 -0.5370 -0.0523
  202MPD1    H1 3075   4.087   3.850   9.948 -1.4343 -0.7566  0.4335
  202MPD1    H2 3076   3.905   3.787   9.591 -0.4039 -1.2415 -0.5428
  202MPD1    H3 3077   3.971   3.930   9.761  2.6543  0.2267  2.0183
  202MPD1     N 3078   4.177   3.622   9.988 -0.1828  0.2016 -0.2758
  202MPD1    H5 3079   4.196   3.693  10.058  1.4174  0.8789 -1.3880
  202MPD1    N1 3080   3.977   3.532   9.553  0.5124 -0.5007  0.0908
  202MPD1    H6 3081   3.972   3.434   9.580 -0.9193 -0.1989  0.9137
  202MPD1    H7 3082   3.883   3.553   9.518  1.1048  1.6191 -0.1870
  203MPD1     C 3083   4.254   0.498  12.412  0.1885 -0.6329  0.4224
  203MPD1    C1 3084   4.230   0.379  12.352  0.2476  1.0518  0.3471
  203MPD1    C2 3085   4.301   0.270  12.413  0.4764  0.0680  0.0726
  203MPD1    C3 3086   4.394   0.290  12.515 -0.1378 -0.0273  0.1430
  203MPD1    C4 3087   4.420   0.415  12.566  0.4150  0.0236 -0.0985
  203MPD1    C5 3088   4.349   0.520  12.512  0.1988 -0.3680 -0.5364
  203MPD1     H 3089   4.265   0.171  12.391 -0.7393  0.7022 -0.7965
  203MPD1    H1 3090   4.495   0.447  12.638 -1.6240  1.3929  1.3988
  203MPD1    H2 3091   4.200   0.583  12.373  1.3776  0.4958  1.2365
  203MPD1    H3 3092   4.378   0.620  12.541 -0.8217  0.5855 -2.7952
  203MPD1     N 3093   4.455   0.180  12.567 -0.3934 -0.0881  0.1072
  203MPD1    H5 3094   4.427   0.095  12.520  3.6708 -1.5659  0.3569
  203MPD1    N1 3095   4.118   0.351  12.267 -0.3690 -0.0446 -0.1150
  203MPD1    H6 3096   4.132   0.270  12.207 -1.4914 -1.7731  1.9466
  203MPD1    H7 3097   4.104   0.430  12.204  0.0153 -0.5024 -0.7689
  204MPD1     C 3098   3.933   1.686  17.524  0.2258  0.0871  0.0020
  204MPD1    C1 3099   3.834   1.672  17.429  0.1957 -0.3798  0.2189
  204MPD1    C2 3100   3.813   1.549  17.386 -0.3238 -0.7942 -0.0776
  204MPD1    C3 3101   3.857   1.430  17.443 -0.0451  0.0587 -0.4910
  204MPD1    C4 3102   3.953   1.446  17.546  0.4483 -0.2963 -0.4062
  204MPD1    C5 3103   3.996   1.573  17.579 -0.5857 -0.5501 -0.0638
  204MPD1     H 3104   3.727   1.547  17.319 -0.4184 -1.8889  0.0679
  204MPD1    H1 3105   4.008   1.364  17.590  0.0211  0.4688  1.5197
  204MPD1    H2 3106   3.964   1.782  17.563 -0.8694  1.2158 -1.9028
  204MPD1    H3 3107   4.090   1.597  17.628 -0.1594 -2.7691  0.2019
  204MPD1     N 3108   3.805   1.305  17.397 -0.4774 -0.3270 -0.1398
  204MPD1    H5 3109   3.749   1.296  17.312 -2.0130  2.7551  0.5439
  204MPD1    N1 3110   3.777   1.786  17.367  0.7114  0.3596  0.0155
  204MPD1    H6 3111   3.780   1.859  17.438  0.6522  0.0114  0.3780
  204MPD1    H7 3112   3.681   1.776  17.335  0.7310 -0.1057  0.1100
  205MPD1     C 3113   4.123   0.046  16.788  0.8415  0.4002 -0.1377
  205MPD1    C1 3114   4.190   4.675  16.871  0.1739  0.7921  0.2379
  205MPD1    C2 3115   4.141   4.667  16.997  0.0817  0.1588  0.3521
  205MPD1    C3 3116   4.033   0.013  17.040  0.2724 -0.0862  0.2303
  205MPD1    C4 3117   3.970   0.100  16.951 -0.0918 -0.6105 -0.5514
  205MPD1    C5 3118   4.017   0.115  16.823  0.5347 -0.6422  0.0505
  205MPD1     H 3119   4.188   4.598  17.065 -0.8349 -0.9633 -0.1577
  205MPD1    H1 3120   3.879   0.155  16.970 -0.2743 -0.7466 -1.0434
  205MPD1    H2 3121   4.170   0.059  16.691  1.9723  1.6778  0.5856
  205MPD1    H3 3122   3.974   0.192  16.760 -0.6372 -1.7856 -0.5528
  205MPD1     N 3123   3.981   0.008  17.175  0.0843  0.2209 -0.7758
  205MPD1    H5 3124   3.910   0.075  17.203 -2.1624 -2.3237 -0.3515
  205MPD1    N1 3125   4.309   4.610  16.833  0.1165 -0.5179  0.2533
  205MPD1    H6 3126   4.291   4.594  16.734  1.5969  2.4958 -0.4954
  205MPD1    H7 3127   4.312   4.518  16.877 -1.0093 -1.8838 -2.4903
  206MPD1     C 3128   3.690   2.354  16.501  0.1907 -0.9288  0.2678
  206MPD1    C1 3129   3.767   2.267  16.422 -0.7480  0.5672 -0.4300
  206MPD1    C2 3130   3.791   2.297  16.290  0.4134  0.3547  0.0436
  206MPD1    C3 3131   3.725   2.406  16.236 -0.6803  0.5137  0.8136
  206MPD1    C4 3132   3.657   2.493  16.314 -0.3837 -0.5103  0.0154
  206MPD1    C5 3133   3.643   2.474  16.456 -0.4559 -0.1773 -0.4470
  206MPD1     H 3134   3.850   2.223  16.236  0.3576  0.5782 -0.3226
  206MPD1    H1 3135   3.622   2.587  16.274  0.5845  1.1200  3.0752
  206MPD1    H2 3136   3.666   2.342  16.606 -2.2337  1.5223 -0.0179
  206MPD1    H3 3137   3.587   2.541  16.520  0.7360 -0.3639  0.7788
  206MPD1     N 3138   3.726   2.428  16.097  0.0153 -0.7570  0.1589
  206MPD1    H5 3139   3.657   2.490  16.056  0.5967 -1.0241 -1.2265
  206MPD1    N1 3140   3.820   2.150  16.481 -0.2552  0.4293 -0.9298
  206MPD1    H6 3141   3.792   2.142  16.578  1.0638 -5.1914 -0.9742
  206MPD1    H7 3142   3.784   2.066  16.435  1.5964 -0.7998 -0.1614
  207MPD1     C 3143   1.588   0.949   9.494 -0.3309 -0.2035 -0.2433
  207MPD1    C1 3144   1.505   0.874   9.578  0.0995 -0.4803  0.1635
  207MPD1    C2 3145   1.556   0.820   9.697 -0.4260 -0.3089  0.4748
  207MPD1    C3 3146   1.697   0.830   9.727  0.5678  0.4390  0.0032
  207MPD1    C4 3147   1.778   0.878   9.628 -0.2356 -0.2410  0.7235
  207MPD1    C5 3148   1.722   0.943   9.518  0.1039 -0.0891 -0.8916
  207MPD1     H 3149   1.483   0.806   9.775 -0.5480  0.5789  0.5183
  207MPD1    H1 3150   1.882   0.898   9.651 -0.1720 -0.9042  0.9985
  207MPD1    H2 3151   1.544   0.994   9.405 -0.1591 -0.4144 -0.4367
  207MPD1    H3 3152   1.784   0.984   9.439 -0.8168 -1.5192 -2.3554
  207MPD1     N 3153   1.756   0.812   9.853 -0.4640 -0.3266  0.9222
  207MPD1    H5 3154   1.856   0.819   9.869 -0.5057 -0.1606  1.1147
  207MPD1    N1 3155   1.370   0.881   9.552  0.1823 -0.1259  0.2744
  207MPD1    H6 3156   1.330   0.798   9.595  0.5649  0.2956  1.4592
  207MPD1    H7 3157   1.355   0.895   9.452 -0.1295  2.6050  0.6963
  208MPD1     C 3158   4.443   3.829  17.215  0.3940 -0.4453  0.0474
  208MPD1    C1 3159   4.386   3.705  17.209  0.0695  0.0749  0.2302
  208MPD1    C2 3160   4.327   3.668  17.325 -0.1721  0.2365 -0.2582
  208MPD1    C3 3161   4.352   3.724  17.447 -0.1010  0.6254  0.4890
  208MPD1    C4 3162   4.439   3.826  17.452 -0.4083  0.4153  0.2654
  208MPD1    C5 3163   4.477   3.888  17.339 -0.1760  0.2539 -0.7975
  208MPD1     H 3164   4.252   3.591  17.316 -0.7977  0.8011  0.0960
  208MPD1    H1 3165   4.453   3.881  17.545  1.1892  0.1696  0.1707
  208MPD1    H2 3166   4.484   3.869  17.123  0.3004 -1.6322 -0.5212
  208MPD1    H3 3167   4.531   3.982  17.339  1.2852 -0.5988  0.9217
  208MPD1     N 3168   4.280   3.671  17.563 -0.5099  0.1906 -0.3031
  208MPD1    H5 3169   4.201   3.610  17.541 -0.9479  1.6334 -2.6999
  208MPD1    N1 3170   4.351   3.647  17.085 -0.2670  0.4231 -0.0689
  208MPD1    H6 3171   4.427   3.649  17.017 -0.6905  1.4329 -0.4991
  208MPD1    H7 3172   4.339   3.547  17.098  0.9049  0.2147 -0.5396
  209MPD1     C 3173   1.292   0.181  11.767  0.5120 -0.0348  0.0580
  209MPD1    C1 3174   1.328   0.303  11.810 -0.2565  0.1173  0.6388
  209MPD1    C2 3175   1.393   0.384  11.721 -0.5296 -0.2580  0.8289
  209MPD1    C3 3176   1.417   0.350  11.586 -0.0840 -0.5913  1.7430
  209MPD1    C4 3177   1.370   0.226  11.548 -0.5291 -0.1736 -0.4381
  209MPD1    C5 3178   1.312   0.137  11.637 -0.0799  0.9180  1.1957
  209MPD1     H 3179   1.424   0.481  11.756 -0.6771 -0.5990  1.8987
  209MPD1    H1 3180   1.375   0.195  11.444  1.4872 -1.3145 -0.0022
  209MPD1    H2 3181   1.239   0.104  11.822 -2.1707  2.9074  1.5704
  209MPD1    H3 3182   1.262   0.047  11.604  1.5553  1.4408 -2.7004
  209MPD1     N 3183   1.467   0.453  11.498  0.0043  0.2412  0.1620
  209MPD1    H5 3184   1.501   0.538  11.543  0.4249 -1.2832  2.7363
  209MPD1    N1 3185   1.320   0.337  11.948 -0.1575 -0.4132 -0.1580
  209MPD1    H6 3186   1.245   0.293  12.001 -0.8554 -0.5122 -1.2340
  209MPD1    H7 3187   1.328   0.438  11.961 -0.9322 -0.4003  0.2652
  210MPD1     C 3188   1.961   1.264  11.564 -0.0883 -0.4129  0.2899
  210MPD1    C1 3189   1.835   1.223  11.596  0.0706  0.1064 -0.0485
  210MPD1    C2 3190   1.774   1.116  11.538  0.0870 -0.7685  0.6382
  210MPD1    C3 3191   1.836   1.061  11.427  0.2870  0.6563 -0.0812
  210MPD1    C4 3192   1.961   1.103  11.388 -0.2119 -0.2633  0.0589
  210MPD1    C5 3193   2.025   1.199  11.463  0.3217 -0.2571 -0.2246
  210MPD1     H 3194   1.672   1.082  11.556 -0.3896  0.4567  0.1976
  210MPD1    H1 3195   2.013   1.061  11.303 -1.3954 -2.5330  0.4327
  210MPD1    H2 3196   2.007   1.344  11.619  0.0868 -0.9160  0.8693
  210MPD1    H3 3197   2.126   1.232  11.442  0.2188  0.9436  1.1702
  210MPD1     N 3198   1.770   0.971  11.340  0.0173 -0.5057  0.4192
  210MPD1    H5 3199   1.821   0.942  11.258  0.1940 -0.0818  0.3778
  210MPD1    N1 3200   1.786   1.284  11.712 -0.2189 -0.3129 -0.0755
  210MPD1    H6 3201   1.685   1.293  11.725 -0.2818  0.0353 -0.7651
  210MPD1    H7 3202   1.822   1.379  11.723 -1.3715  0.0919  0.2073
  211MPD1     C 3203   4.572   4.163  16.639  0.4297 -0.4104 -0.7043
  211MPD1    C1 3204   4.541   4.267  16.555  0.2386 -0.4876  0.0318
  211MPD1    C2 3205   4.417   4.334  16.562  0.0776  0.0249 -0.0289
  211MPD1    C3 3206   4.333   4.304  16.663 -0.6209  0.7220  0.3008
  211MPD1    C4 3207   4.361   4.198  16.750  0.3262 -0.6481  1.0272
  211MPD1    C5 3208   4.481   4.134  16.734  0.5733 -0.2429  0.3820
  211MPD1     H 3209   4.397   4.407  16.485 -0.6603  1.6300  1.6817
  211MPD1    H1 3210   4.296   4.166  16.831  0.4014 -0.9307  0.9756
  211MPD1    H2 3211   4.653   4.090  16.632  1.6236  0.8544 -0.0210
  211MPD1    H3 3212   4.490   4.054  16.807  0.5925 -1.5869 -1.0773
  211MPD1     N 3213   4.213   4.377  16.659  0.2055 -0.0123  0.2065
  211MPD1    H5 3214   4.205   4.433  16.575  0.2260 -1.1823 -0.5710
  211MPD1    N1 3215   4.624   4.288  16.441  0.0449  0.7499  0.3175
  211MPD1    H6 3216   4.716   4.251  16.461  0.1438  0.3052 -0.9944
  211MPD1    H7 3217   4.633   4.385  16.411  0.8382 -0.0653 -2.0483
  212MPD1     C 3218   2.864   3.111  16.403 -0.6012 -0.5496 -0.3532
  212MPD1    C1 3219   2.984   3.044  16.405 -0.0256 -0.3397 -0.1658
  212MPD1    C2 3220   2.987   2.926  16.473  1.1725  0.0381 -0.1066
  212MPD1    C3 3221   2.876   2.890  16.562 -0.2521 -0.4834  0.1449
  212MPD1    C4 3222   2.766   2.972  16.574 -0.6786  0.4541  0.2041
  212MPD1    C5 3223   2.762   3.082  16.489 -0.7925 -0.0782  0.1448
  212MPD1     H 3224   3.075   2.863  16.468  0.9061 -0.3354 -0.0635
  212MPD1    H1 3225   2.679   2.950  16.636  1.1992 -1.0078  2.3306
  212MPD1    H2 3226   2.851   3.199  16.340  0.5882  0.5449  0.9527
  212MPD1    H3 3227   2.672   3.142  16.501 -0.7182  0.3809 -1.5714
  212MPD1     N 3228   2.887   2.782  16.659 -0.0530 -0.1025  0.0235
  212MPD1    H5 3229   2.799   2.751  16.699  0.2931  1.4733  1.9738
  212MPD1    N1 3230   3.084   3.069  16.309  0.7732  0.1144 -0.0767
  212MPD1    H6 3231   3.088   3.166  16.279  2.6853 -0.5045 -1.8884
  212MPD1    H7 3232   3.173   3.037  16.347  1.9292  2.6251 -0.6331
  213MPD1     C 3233   1.743   3.686  16.552  0.6805 -0.0002 -0.5380
  213MPD1    C1 3234   1.639   3.594  16.554 -0.2378  0.5053 -0.1799
  213MPD1    C2 3235   1.615   3.541  16.429 -0.1839  0.3758  0.8647
  213MPD1    C3 3236   1.709   3.539  16.332 -0.3990 -0.1990 -0.1896
  213MPD1    C4 3237   1.826   3.610  16.350  0.2773  0.2788 -0.2386
  213MPD1    C5 3238   1.843   3.686  16.460  0.0163 -0.4330 -0.4467
  213MPD1     H 3239   1.520   3.489  16.419  1.2240 -1.6720 -2.1054
  213MPD1    H1 3240   1.906   3.621  16.277  0.7104 -0.4959  0.1231
  213MPD1    H2 3241   1.764   3.752  16.636  1.0855 -3.3834  2.0367
  213MPD1    H3 3242   1.936   3.736  16.483  0.9819 -2.5209  0.1373
  213MPD1     N 3243   1.678   3.473  16.207 -0.4009 -0.4570  0.7296
  213MPD1    H5 3244   1.582   3.441  16.204 -0.0266 -1.6124  1.2062
  213MPD1    N1 3245   1.533   3.608  16.646  0.1236 -0.1550 -0.2683
  213MPD1    H6 3246   1.471   3.527  16.644  0.8947 -0.6718 -4.8739
  213MPD1    H7 3247   1.569   3.627  16.739 -0.4744 -0.0929 -0.0532
  214MPD1     C 3248   1.072   2.832  15.806 -0.7285  0.2399  0.2815
  214MPD1    C1 3249   1.132   2.862  15.926  0.0741 -0.0648  0.4859
  214MPD1    C2 3250   1.218   2.968  15.928 -0.8041  0.5490  0.1981
  214MPD1    C3 3251   1.262   3.027  15.806  0.0914 -0.1767  0.1203
  214MPD1    C4 3252   1.214   2.978  15.686  0.4379  0.1114  0.3852
  214MPD1    C5 3253   1.125   2.877  15.694 -0.1959  0.6207 -0.4564
  214MPD1     H 3254   1.274   2.993  16.018  0.3699 -1.4290  0.0008
  214MPD1    H1 3255   1.264   3.010  15.595 -0.7097 -1.3817 -0.7657
  214MPD1    H2 3256   0.993   2.758  15.801  0.3999 -0.7301 -2.7557
  214MPD1    H3 3257   1.073   2.837  15.607  1.5323 -0.7621 -0.8520
  214MPD1     N 3258   1.379   3.105  15.801 -0.3573  0.1923 -0.0076
  214MPD1    H5 3259   1.407   3.137  15.709  0.5542  2.0208  0.9105
  214MPD1    N1 3260   1.093   2.810  16.047  0.2059 -0.2377  0.1390
  214MPD1    H6 3261   1.055   2.716  16.048  0.1564 -0.2321 -0.6443
  214MPD1    H7 3262   1.161   2.814  16.122  0.0573  1.5936  0.1809
  215MPD1     C 3263   1.876   3.726  10.626  0.5486 -0.1505  0.7816
  215MPD1    C1 3264   1.858   3.762  10.763  0.5371  0.0899 -0.0500
  215MPD1    C2 3265   1.841   3.898  10.787  0.5659 -0.0646 -0.1273
  215MPD1    C3 3266   1.863   3.998  10.696 -0.0803 -0.0483  0.2934
  215MPD1    C4 3267   1.887   3.957  10.568  0.0348 -0.0905  0.7090
  215MPD1    C5 3268   1.885   3.820  10.536  0.6972 -0.1119 -0.2215
  215MPD1     H 3269   1.799   3.929  10.882 -0.1039  0.7697 -0.7056
  215MPD1    H1 3270   1.903   4.022  10.483 -3.4461  0.2948  0.3270
  215MPD1    H2 3271   1.886   3.625  10.588 -2.2555  0.2187 -0.9589
  215MPD1    H3 3272   1.899   3.789  10.433 -1.0244 -0.8592 -0.2254
  215MPD1     N 3273   1.867   4.134  10.737 -0.2312 -0.0574 -0.1343
  215MPD1    H5 3274   1.879   4.160  10.834 -3.5796 -0.0862  0.2664
  215MPD1    N1 3275   1.810   3.666  10.856  0.5826  0.2576 -0.2973
  215MPD1    H6 3276   1.826   3.567  10.839  1.5240  0.6270 -1.5483
  215MPD1    H7 3277   1.837   3.681  10.953  2.1727  0.3362 -0.7504
  216MPD1     C 3278   3.999   2.441  17.463  0.5668 -0.7897  0.3250
  216MPD1    C1 3279   3.978   2.425  17.331 -0.0813 -0.5603  0.4602
  216MPD1    C2 3280   4.007   2.301  17.280 -0.7106  0.6671 -0.3569
  216MPD1    C3 3281   4.056   2.197  17.362  0.0766  0.7025  1.1076
  216MPD1    C4 3282   4.087   2.224  17.495 -0.1504  0.7528 -0.2935
  216MPD1    C5 3283   4.047   2.343  17.542  0.8959  0.0357  0.5035
  216MPD1     H 3284   3.977   2.278  17.178 -0.1105 -0.0975 -0.3601
  216MPD1    H1 3285   4.137   2.153  17.561  0.9754  0.9979 -0.9021
  216MPD1    H2 3286   3.973   2.533  17.514  1.8408 -0.8651  1.1086
  216MPD1    H3 3287   4.052   2.367  17.648  1.0644  1.1912  0.2411
  216MPD1     N 3288   4.081   2.072  17.305 -0.5436 -0.2243 -0.7216
  216MPD1    H5 3289   4.052   2.054  17.209  3.7994 -0.9127 -1.9295
  216MPD1    N1 3290   3.897   2.516  17.256 -0.0203 -0.1381  0.1677
  216MPD1    H6 3291   3.919   2.494  17.159  0.6335  1.2302  0.0123
  216MPD1    H7 3292   3.908   2.614  17.282  0.2518  0.0764 -0.7800
  217MPD1     C 3293   4.292   3.044   8.627  0.1685 -0.1382  0.4574
  217MPD1    C1 3294   4.174   3.088   8.581 -0.4083 -0.0624 -0.3625
  217MPD1    C2 3295   4.086   3.147   8.673 -0.4319 -0.3123 -0.2210
  217MPD1    C3 3296   4.129   3.170   8.800  0.1544  0.0505  0.1099
  217MPD1    C4 3297   4.258   3.130   8.839  0.0391  0.0853 -0.0610
  217MPD1    C5 3298   4.337   3.060   8.754  0.5032  0.1961  0.5829
  217MPD1     H 3299   3.985   3.157   8.635 -0.8507 -0.4109  0.8808
  217MPD1    H1 3300   4.297   3.134   8.940  0.1305  0.8846 -0.1292
  217MPD1    H2 3301   4.368   2.995   8.567 -1.6944  0.1908 -2.1617
  217MPD1    H3 3302   4.436   3.030   8.784  0.6844 -0.3001 -0.5169
  217MPD1     N 3303   4.049   3.234   8.894  0.5990  0.4074 -0.0774
  217MPD1    H5 3304   4.094   3.236   8.985  0.7478 -0.0220 -0.1409
  217MPD1    N1 3305   4.130   3.038   8.463 -0.0755 -0.1436 -0.3617
  217MPD1    H6 3306   4.062   3.103   8.425  0.5079  0.7451  0.1131
  217MPD1    H7 3307   4.199   3.020   8.390 -0.3219 -1.6778 -0.2077
  218MPD1     C 3308   0.617   0.262  13.082 -0.2467  0.2102 -0.0141
  218MPD1    C1 3309   0.736   0.229  13.143  0.4017  0.4836 -0.2024
  218MPD1    C2 3310   0.829   0.154  13.068 -0.3691 -0.1154 -0.4416
  218MPD1    C3 3311   0.809   0.138  12.933 -0.1060  0.0104 -0.5453
  218MPD1    C4 3312   0.693   0.175  12.873 -0.6250  0.2086  0.3226
  218MPD1    C5 3313   0.597   0.228  12.953 -0.1246  0.5176  0.3410
  218MPD1     H 3314   0.921   0.115  13.109 -1.1502 -1.1559  0.3222
  218MPD1    H1 3315   0.680   0.147  12.769  1.3333 -0.3087  0.2159
  218MPD1    H2 3316   0.528   0.302  13.129 -0.0297  0.9970 -0.2568
  218MPD1    H3 3317   0.507   0.257  12.900 -0.7912 -2.1396 -0.0245
  218MPD1     N 3318   0.907   0.062  12.863  0.0737  0.0983  0.0390
  218MPD1    H5 3319   0.969   0.006  12.921  0.8557 -0.1072 -0.9882
  218MPD1    N1 3320   0.761   0.259  13.276  0.5027 -0.3210  0.0892
  218MPD1    H6 3321   0.854   0.300  13.280 -0.6334  2.2556 -0.1846
  218MPD1    H7 3322   0.696   0.329  13.311  0.1394 -1.0466  0.8678
  219MPD1     C 3323   1.594   4.601  12.017  0.0372  0.0808 -0.6961
  219MPD1    C1 3324   1.513   4.712  12.048  0.3086  0.1295  0.5638
  219MPD1    C2 3325   1.429   4.704  12.159  0.3836 -0.8395 -0.4544
  219MPD1    C3 3326   1.395   4.586  12.224  0.0853 -0.0854  0.4086
  219MPD1    C4 3327   1.477   4.483  12.185  0.0122  0.1199 -0.0729
  219MPD1    C5 3328   1.575   4.488  12.090 -0.0390 -0.0507 -0.5497
  219MPD1     H 3329   1.371   0.070  12.184  1.4677 -0.7403  1.6963
  219MPD1    H1 3330   1.467   4.384  12.227 -0.3546  0.3353  0.3452
  219MPD1    H2 3331   1.659   4.597  11.930 -1.6191 -1.6949 -1.8447
  219MPD1    H3 3332   1.629   4.396  12.067  0.9644 -0.1554  2.2353
  219MPD1     N 3333   1.303   4.575  12.326  0.5403 -0.6321  0.0263
  219MPD1    H5 3334   1.282   4.478  12.350  1.4667 -1.0414 -0.8327
  219MPD1    N1 3335   1.536   0.115  11.984 -0.4047 -0.1950 -0.1715
  219MPD1    H6 3336   1.457   0.179  11.988  0.5326  0.9695 -0.3114
  219MPD1    H7 3337   1.549   0.085  11.888 -0.8906  0.2412 -0.3700
  220MPD1     C 3338   1.693   3.843   9.917  0.5681  0.3151 -0.5660
  220MPD1    C1 3339   1.698   3.930  10.015  0.7742 -0.1355  0.0022
  220MPD1    C2 3340   1.602   4.028  10.016 -0.1341  0.7285 -0.6585
  220MPD1    C3 3341   1.496   4.047   9.924  0.0303 -0.1170  0.9802
  220MPD1    C4 3342   1.502   3.962   9.820  0.5222  0.8641 -0.3102
  220MPD1    C5 3343   1.597   3.860   9.820  0.3995  0.6546  0.2055
  220MPD1     H 3344   1.610   4.105  10.091  1.8797 -0.0210 -0.1059
  220MPD1    H1 3345   1.433   3.973   9.737  0.5966 -0.8183 -0.5874
  220MPD1    H2 3346   1.757   3.755   9.910 -1.6861 -1.4130  0.4141
  220MPD1    H3 3347   1.602   3.802   9.728  0.5901 -0.0487  0.6636
  220MPD1     N 3348   1.410   4.162   9.930  0.3471 -0.2593  0.1842
  220MPD1    H5 3349   1.430   4.227  10.006 -0.1234  2.1186 -1.7438
  220MPD1    N1 3350   1.780   3.916  10.130 -0.2155  0.3646  0.4210
  220MPD1    H6 3351   1.865   3.862  10.112 -0.0303  0.6799  0.3615
  220MPD1    H7 3352   1.806   4.003  10.176 -0.5633 -0.0594  1.4259
  221MPD1     C 3353   2.841   4.211  16.757  0.2296 -0.1669 -0.6598
  221MPD1    C1 3354   2.854   4.095  16.683 -0.0554  0.7683 -0.8683
  221MPD1    C2 3355   2.975   4.055  16.626 -0.2893 -0.0134 -0.0101
  221MPD1    C3 3356   3.088   4.130  16.653  0.5656 -0.6720 -0.0479
  221MPD1    C4 3357   3.080   4.253  16.714  0.3874 -0.0264  0.8538
  221MPD1    C5 3358   2.956   4.285  16.768  0.5093 -0.5858  0.2245
  221MPD1     H 3359   2.979   3.973  16.555 -1.0758  0.5354 -0.6952
  221MPD1    H1 3360   3.156   4.330  16.715  1.6226 -1.2411 -0.5408
  221MPD1    H2 3361   2.747   4.251  16.795 -0.7877 -0.4714 -2.7947
  221MPD1    H3 3362   2.944   4.372  16.832 -1.4427 -1.1103  0.5891
  221MPD1     N 3363   3.222   4.094  16.631 -0.8564 -0.1757  0.0230
  221MPD1    H5 3364   3.301   4.151  16.659 -0.5454  0.5115 -2.2289
  221MPD1    N1 3365   2.740   4.023  16.644  1.0074 -0.4602 -0.5006
  221MPD1    H6 3366   2.657   4.038  16.700 -0.3705  1.1609 -2.9517
  221MPD1    H7 3367   2.756   3.925  16.625  0.3133 -0.2771 -2.0840
  222MPD1     C 3368   2.646   3.019  16.987 -0.1023  0.4808 -0.5033
  222MPD1    C1 3369   2.540   3.064  17.056  0.2080  0.3414  0.2051
  222MPD1    C2 3370   2.504   3.016  17.176 -1.0496  0.6989 -0.5814
  222MPD1    C3 3371   2.596   2.939  17.243  0.3236 -0.5185 -0.1991
  222MPD1    C4 3372   2.714   2.900  17.177 -0.1916  0.7788  0.0436
  222MPD1    C5 3373   2.736   2.938  17.046  0.5347  0.8252  0.7566
  222MPD1     H 3374   2.418   3.055  17.230 -0.4539  1.6547 -0.3247
  222MPD1    H1 3375   2.783   2.829  17.223 -1.0162 -0.6110 -0.8714
  222MPD1    H2 3376   2.669   3.059  16.889  0.4593 -1.6973 -1.2696
  222MPD1    H3 3377   2.819   2.897  16.989 -0.3753  0.3667 -0.2424
  222MPD1     N 3378   2.574   2.897  17.379 -0.0891  0.7158 -0.8035
  222MPD1    H5 3379   2.645   2.837  17.420 -1.9862 -1.0695 -0.1486
  222MPD1    N1 3380   2.441   3.149  16.993 -0.0416 -0.1355  0.3122
  222MPD1    H6 3381   2.466   3.207  16.913  0.2986  0.3981  0.8017
  222MPD1    H7 3382   2.384   3.205  17.056  0.4590  1.1779 -0.4202
  223MPD1     C 3383   2.898   2.148  17.468  0.4738 -0.0189  0.0755
  223MPD1    C1 3384   2.866   2.247  17.372 -0.5384  0.2779 -0.4549
  223MPD1    C2 3385   2.809   2.366  17.416 -0.5214 -0.2185 -0.5293
  223MPD1    C3 3386   2.765   2.382  17.548  0.4036  0.0174  0.2243
  223MPD1    C4 3387   2.794   2.288  17.638 -0.0045  0.0138 -0.3134
  223MPD1    C5 3388   2.862   2.178  17.599  0.3130  0.3579 -0.5995
  223MPD1     H 3389   2.791   2.444  17.343 -0.2952  0.8319  0.5271
  223MPD1    H1 3390   2.769   2.290   0.053 -1.2610 -0.3913 -0.6126
  223MPD1    H2 3391   2.956   2.057  17.456  1.4877  0.8525 -1.5773
  223MPD1    H3 3392   2.879   2.101  17.674  2.1492  1.7487  0.3999
  223MPD1     N 3393   2.689   2.497  17.576 -0.0458 -0.3146  0.5798
  223MPD1    H5 3394   2.692   2.579  17.517  0.0270  0.2408  1.3464
  223MPD1    N1 3395   2.907   2.231  17.238 -0.0468 -0.5269  0.4013
  223MPD1    H6 3396   2.899   2.136  17.204  0.9021  0.2926 -2.1586
  223MPD1    H7 3397   2.854   2.293  17.177 -1.2961 -2.1614 -0.1500
  224MPD1     C 3398   3.443   3.854   9.036 -0.0257  0.0707  0.2689
  224MPD1    C1 3399   3.496   3.983   9.020  0.4406  0.6275  0.5090
  224MPD1    C2 3400   3.523   4.051   9.141  0.3701 -0.4744 -0.4227
  224MPD1    C3 3401   3.512   3.988   9.267 -0.7721 -0.0573  0.3630
  224MPD1    C4 3402   3.481   3.854   9.270 -0.5492 -0.6429  0.2789
  224MPD1    C5 3403   3.444   3.794   9.157  0.8879 -0.5002  0.3684
  224MPD1     H 3404   3.542   4.157   9.130 -0.2370 -0.0996  1.9807
  224MPD1    H1 3405   3.488   3.798   9.363 -0.3629  1.4020  1.4849
  224MPD1    H2 3406   3.410   3.794   8.952 -1.7741  0.6960  0.5060
  224MPD1    H3 3407   3.422   3.687   9.161  0.8472 -0.4954  0.2778
  224MPD1     N 3408   3.550   4.048   9.389 -0.0803 -0.2113  0.3820
  224MPD1    H5 3409   3.554   3.989   9.471 -1.7456 -0.1738  0.4967
  224MPD1    N1 3410   3.497   4.050   8.902 -0.3899  0.4399 -0.6871
  224MPD1    H6 3411   3.517   3.982   8.829 -1.0963 -1.2502  0.6916
  224MPD1    H7 3412   3.563   4.126   8.893 -0.9312  1.0908  0.7969
  225MPD1     C 3413   1.118   0.970  12.645 -0.4697 -0.0159  0.9331
  225MPD1    C1 3414   1.146   1.068  12.547 -0.1799  0.2165 -0.0388
  225MPD1    C2 3415   1.061   1.066  12.439  0.3992  0.0170 -0.5504
  225MPD1    C3 3416   0.956   0.968  12.421  0.3158  0.9659 -0.2163
  225MPD1    C4 3417   0.937   0.881  12.520 -0.5568  0.5772  0.6834
  225MPD1    C5 3418   1.014   0.887  12.635 -0.6285 -0.0329 -0.1826
  225MPD1     H 3419   1.070   1.149  12.369 -2.1806  0.2381 -0.6425
  225MPD1    H1 3420   0.855   0.811  12.511  0.9470 -1.1922  0.7716
  225MPD1    H2 3421   1.177   0.969  12.736 -2.3350  0.4399  2.1261
  225MPD1    H3 3422   0.991   0.824  12.721  0.1539  0.9140  0.7231
  225MPD1     N 3423   0.875   0.961  12.306  1.3326  0.6907 -0.3107
  225MPD1    H5 3424   0.808   0.887  12.285 -1.3934  2.3851  2.3894
  225MPD1    N1 3425   1.239   1.168  12.572  1.1661  0.1281  0.2425
  225MPD1    H6 3426   1.324   1.139  12.620  1.3013  0.3004  0.1092
  225MPD1    H7 3427   1.268   1.196  12.478 -1.3287  0.9945 -0.2696
  226MPD1     C 3428   3.909   0.127   9.505 -0.2144  0.5410 -0.1186
  226MPD1    C1 3429   3.892   0.123   9.638  0.1174  0.4608  0.3137
  226MPD1    C2 3430   3.783   0.182   9.702  0.1161 -0.2180 -0.0007
  226MPD1    C3 3431   3.691   0.254   9.635 -0.3697 -0.1421  0.0199
  226MPD1    C4 3432   3.702   0.258   9.501  0.1047  0.0479 -0.1933
  226MPD1    C5 3433   3.804   0.195   9.436  0.7602  0.6183  0.4127
  226MPD1     H 3434   3.782   0.169   9.810 -0.6247  0.9990  0.1388
  226MPD1    H1 3435   3.639   0.321   9.438  1.0777  1.7460  0.5545
  226MPD1    H2 3436   3.996   0.086   9.454 -0.4515 -0.0642 -0.0282
  226MPD1    H3 3437   3.804   0.212   9.329  0.0465 -1.5818  0.0593
  226MPD1     N 3438   3.590   0.323   9.709 -0.3922  0.1610  0.3753
  226MPD1    H5 3439   3.568   0.295   9.804  0.3894 -1.7687 -0.0030
  226MPD1    N1 3440   3.973   0.034   9.705 -0.7523  0.0338  0.4289
  226MPD1    H6 3441   3.976   0.077   9.798 -1.7302 -0.8601  0.8789
  226MPD1    H7 3442   4.072   0.040   9.681 -1.4256  1.7656 -1.9432
  227MPD1     C 3443   2.944   1.089   9.624  0.7723 -0.0470 -0.2122
  227MPD1    C1 3444   3.081   1.083   9.621  0.3928  0.4323 -0.1085
  227MPD1    C2 3445   3.141   0.970   9.669  0.3699  0.2821 -0.4251
  227MPD1    C3 3446   3.070   0.856   9.711  0.4616 -0.3271 -0.5216
  227MPD1    C4 3447   2.931   0.864   9.700  0.0808 -0.9282 -0.1463
  227MPD1    C5 3448   2.873   0.976   9.642  0.1237 -0.4914 -0.5426
  227MPD1     H 3449   3.246   0.972   9.694  0.5195 -0.7000 -0.9414
  227MPD1    H1 3450   2.860   0.788   9.728  0.9916 -1.1857  1.4375
  227MPD1    H2 3451   2.883   1.176   9.605  0.2254  0.0767  2.1780
  227MPD1    H3 3452   2.765   0.981   9.636  0.1056  0.9443  0.9305
  227MPD1     N 3453   3.148   0.740   9.744 -0.1069 -0.6140 -0.2069
  227MPD1    H5 3454   3.247   0.761   9.740 -0.2350  0.1698  0.9132
  227MPD1    N1 3455   3.158   1.204   9.604 -0.3357 -0.9210 -0.0390
  227MPD1    H6 3456   3.259   1.191   9.602 -0.3782 -1.6279  3.0045
  227MPD1    H7 3457   3.134   1.269   9.678  2.5153  1.8134 -1.5148
  228MPD1     C 3458   2.540   3.390  11.627  1.1952  0.3088  0.3154
  228MPD1    C1 3459   2.626   3.339  11.726  0.3426  0.1353 -0.1240
  228MPD1    C2 3460   2.576   3.328  11.855  0.6425  0.5637 -0.1728
  228MPD1    C3 3461   2.443   3.358  11.885  0.3690  0.1211  0.3569
  228MPD1    C4 3462   2.366   3.401  11.784  0.2518  0.4717  0.1415
  228MPD1    C5 3463   2.412   3.412  11.659  0.5460  0.0518  0.2773
  228MPD1     H 3464   2.635   3.297  11.940 -1.0570  1.5654  1.3881
  228MPD1    H1 3465   2.263   3.428  11.800  0.5364  1.4473  0.3175
  228MPD1    H2 3466   2.563   3.389  11.521  0.5004  1.6556  0.1503
  228MPD1    H3 3467   2.346   3.438  11.577 -2.0607  1.4264  2.8221
  228MPD1     N 3468   2.376   3.345  12.008  0.1316 -0.4048 -0.0703
  228MPD1    H5 3469   2.281   3.382  12.003  0.9361  1.6843  0.2826
  228MPD1    N1 3470   2.763   3.303  11.697  0.7129  0.2421  0.3463
  228MPD1    H6 3471   2.793   3.227  11.758  2.3403  0.5257 -0.0979
  228MPD1    H7 3472   2.769   3.267  11.602 -0.0139  1.9532 -0.3475
  229MPD1     C 3473   2.835   1.916  14.962  0.0903  0.1227 -0.1193
  229MPD1    C1 3474   2.716   1.904  15.028 -0.5035 -0.4729  0.4917
  229MPD1    C2 3475   2.626   1.813  14.997 -0.4831 -0.0865 -0.0560
  229MPD1    C3 3476   2.662   1.717  14.903 -0.4210 -0.5289 -0.3617
  229MPD1    C4 3477   2.772   1.740  14.822  0.0048  0.4955 -0.2102
  229MPD1    C5 3478   2.867   1.835  14.857  0.1207 -0.3206  0.6949
  229MPD1     H 3479   2.530   1.821  15.047  0.7009  1.1369  2.0174
  229MPD1    H1 3480   2.795   1.693  14.728  0.5855 -1.0519  0.7196
  229MPD1    H2 3481   2.905   1.994  14.988 -1.1206  1.0757  0.3178
  229MPD1    H3 3482   2.960   1.848  14.803 -0.0010 -0.1654  0.5222
  229MPD1     N 3483   2.584   1.598  14.883 -0.1070 -0.4411 -0.0932
  229MPD1    H5 3484   2.610   1.538  14.806  0.2253  1.1954 -1.2508
  229MPD1    N1 3485   2.682   1.995  15.131 -0.0136 -0.4935 -0.2415
  229MPD1    H6 3486   2.766   2.029  15.177 -1.0966  0.5019  1.0189
  229MPD1    H7 3487   2.619   1.945  15.193  0.0058 -2.9289 -2.2191
  230MPD1     C 3488   1.749   0.918  15.016  0.4740 -0.1302  0.2305
  230MPD1    C1 3489   1.849   0.842  15.071 -0.0080 -0.0986  0.1599
  230MPD1    C2 3490   1.978   0.887  15.057 -0.2140 -0.3250  0.6713
  230MPD1    C3 3491   1.997   1.016  15.016 -0.3181  0.6361  0.6395
  230MPD1    C4 3492   1.895   1.096  14.966  0.5824 -0.2061  0.6184
  230MPD1    C5 3493   1.764   1.043  14.969  0.0642  0.7288 -0.3823
  230MPD1     H 3494   2.054   0.814  15.080  0.4542  0.4160  0.8008
  230MPD1    H1 3495   1.902   1.198  14.929 -1.6057 -0.5019 -0.6208
  230MPD1    H2 3496   1.646   0.886  15.026  0.4903  0.0098  0.8556
  230MPD1    H3 3497   1.675   1.097  14.937 -1.4212 -1.8633 -0.5834
  230MPD1     N 3498   2.124   1.069  15.008  0.1778  0.2558  0.3254
  230MPD1    H5 3499   2.202   1.005  15.006  0.0134  0.0268  1.1135
  230MPD1    N1 3500   1.828   0.712  15.122  0.3888  0.3403 -0.2603
  230MPD1    H6 3501   1.736   0.708  15.165 -0.0458  1.0378 -1.1292
  230MPD1    H7 3502   1.899   0.704  15.196 -1.2317 -1.5850  1.0902
  231MPD1     C 3503   4.619   3.849  15.524  0.5613  0.6216  0.0149
  231MPD1    C1 3504   0.004   3.929  15.489 -0.0086 -0.3804 -0.4068
  231MPD1    C2 3505   0.129   3.879  15.506  0.0891 -0.7728 -0.0800
  231MPD1    C3 3506   0.149   3.754  15.550  0.4842  0.5817 -0.2896
  231MPD1    C4 3507   0.043   3.676  15.587 -0.7689 -0.3904  0.0388
  231MPD1    C5 3508   4.640   3.724  15.574  0.1408 -0.5428 -0.4774
  231MPD1     H 3509   0.207   3.942  15.464 -0.4388  0.6289  1.0387
  231MPD1    H1 3510   0.054   3.576  15.628 -1.2060  0.4020  2.0924
  231MPD1    H2 3511   4.518   3.886  15.512 -0.1691 -2.7574 -4.1208
  231MPD1    H3 3512   4.559   3.662  15.609 -1.6084  2.3181  0.5349
  231MPD1     N 3513   0.284   3.706  15.566 -0.3758 -0.0659 -0.3541
  231MPD1    H5 3514   0.358   3.765  15.532  0.2537 -1.6259 -1.7040
  231MPD1    N1 3515   4.701   4.043  15.412  0.1874 -0.6018 -0.0862
  231MPD1    H6 3516   4.611   4.090  15.418  0.6158  0.1886  0.2482
  231MPD1    H7 3517   0.052   4.114  15.416 -1.3808  1.1223 -1.6903
  232MPD1     C 3518   3.078   1.387  17.538 -0.2828 -0.6043 -0.1905
  232MPD1    C1 3519   2.993   1.486  17.583  0.1334 -0.0264 -0.4037
  232MPD1    C2 3520   2.856   1.467  17.588 -0.2883  0.3992 -0.6972
  232MPD1    C3 3521   2.794   1.350  17.538 -0.6437  0.2053 -0.0002
  232MPD1    C4 3522   2.879   1.251  17.496 -0.3749  0.1191  0.2714
  232MPD1    C5 3523   3.017   1.267  17.509  0.2901  0.2932  0.7246
  232MPD1     H 3524   2.785   1.548  17.600  0.6366  1.5827 -3.1076
  232MPD1    H1 3525   2.838   1.153  17.474  1.8010 -0.9191  0.9244
  232MPD1    H2 3526   3.186   1.394  17.536 -0.5109  2.1693 -2.5643
  232MPD1    H3 3527   3.077   1.178  17.496  0.3444  0.2725  1.1230
  232MPD1     N 3528   2.655   1.333  17.544  0.1312 -0.8482  0.0980
  232MPD1    H5 3529   2.594   1.413  17.556  2.1998  0.7575 -0.1527
  232MPD1    N1 3530   3.044   1.616  17.595  0.0199  0.1188  0.0171
  232MPD1    H6 3531   3.000   1.681  17.660  1.4972  1.4871 -0.3384
  232MPD1    H7 3532   3.145   1.628  17.604 -0.1279  2.1301 -0.8573
  233MPD1     C 3533   3.898   0.110   1.399  0.4596  0.3716  0.6603
  233MPD1    C1 3534   3.878   0.087   1.536  0.0185  0.1467 -0.1946
  233MPD1    C2 3535   3.913   4.693   1.592  0.1116 -0.4183 -1.1253
  233MPD1    C3 3536   3.979   4.597   1.520 -0.8443 -0.0450  0.5284
  233MPD1    C4 3537   3.998   4.620   1.383 -0.5036 -0.2015  0.4936
  233MPD1    C5 3538   3.956   0.012   1.325 -0.3084  0.2178  0.4095
  233MPD1     H 3539   3.895   4.679   1.698  2.3005 -2.0172 -0.9672
  233MPD1    H1 3540   4.044   4.552   1.313 -1.3386 -1.6399  1.3386
  233MPD1    H2 3541   3.864   0.203   1.355 -1.4893 -1.0687 -0.8817
  233MPD1    H3 3542   3.966   0.031   1.219 -1.6909 -0.1786  0.1979
  233MPD1     N 3543   4.012   4.469   1.573  0.1481 -0.2096 -1.0888
  233MPD1    H5 3544   4.058   4.405   1.509  0.2759  0.5225 -1.7235
  233MPD1    N1 3545   3.845   0.202   1.614  0.4660 -0.0556  0.1816
  233MPD1    H6 3546   3.752   0.189   1.653  0.8088 -0.9262  0.6997
  233MPD1    H7 3547   3.846   0.294   1.571  0.3408 -0.0132  0.2713
  234MPD1     C 3548   3.931   2.882  10.844 -0.0353  0.1143 -0.0931
  234MPD1    C1 3549   4.010   2.993  10.843  0.3429  0.0472 -0.5863
  234MPD1    C2 3550   4.005   3.074  10.723  0.3520 -0.3771 -0.5443
  234MPD1    C3 3551   3.925   3.045  10.617 -0.8853 -0.1676 -0.2515
  234MPD1    C4 3552   3.849   2.933  10.619 -0.0918 -0.5825 -0.7397
  234MPD1    C5 3553   3.843   2.859  10.737 -0.8385  0.0263 -0.1335
  234MPD1     H 3554   4.070   3.159  10.705 -2.3285  1.9015  0.4633
  234MPD1    H1 3555   3.778   2.924  10.537 -0.9696 -2.3604  0.2108
  234MPD1    H2 3556   3.924   2.817  10.931 -0.4915  2.3699  1.5669
  234MPD1    H3 3557   3.770   2.779  10.733  1.0417 -1.8082  1.4976
  234MPD1     N 3558   3.931   3.137  10.507  1.0151  0.0943  0.1129
  234MPD1    H5 3559   3.987   3.220  10.522  1.7906 -0.5055  0.5548
  234MPD1    N1 3560   4.105   3.010  10.941 -0.0512 -0.2100 -0.3001
  234MPD1    H6 3561   4.099   2.949  11.023  2.4151 -1.8720 -1.3530
  234MPD1    H7 3562   4.104   3.106  10.974 -1.8600  0.1229 -1.3216
  235MPD1     C 3563   0.220   1.102   9.160 -0.0564 -0.4463  0.5177
  235MPD1    C1 3564   0.339   1.089   9.230 -0.1444 -0.1009 -0.6909
  235MPD1    C2 3565   0.444   1.176   9.206 -0.0318  0.7188 -0.0586
  235MPD1    C3 3566   0.421   1.294   9.133 -0.8272  0.1926 -0.2350
  235MPD1    C4 3567   0.298   1.307   9.064  0.2835  0.6435 -0.8073
  235MPD1    C5 3568   0.200   1.211   9.080 -0.5432 -0.0312  0.9922
  235MPD1     H 3569   0.535   1.165   9.263 -0.0484 -1.7702 -0.5174
  235MPD1    H1 3570   0.283   1.394   9.001 -1.3392  0.9133 -0.0432
  235MPD1    H2 3571   0.136   1.035   9.175 -1.5189  0.9656 -1.2150
  235MPD1    H3 3572   0.115   1.223   9.013  0.0810  1.6763  0.5006
  235MPD1     N 3573   0.517   1.399   9.123 -0.1160 -0.1757 -0.3820
  235MPD1    H5 3574   0.607   1.385   9.166 -0.3098 -1.9231 -0.5179
  235MPD1    N1 3575   0.360   0.973   9.311 -0.5930 -0.6302  0.4712
  235MPD1    H6 3576   0.421   0.998   9.389 -0.3395 -4.7250  1.6166
  235MPD1    H7 3577   0.273   0.937   9.351 -0.0093 -3.0231 -0.4221
  236MPD1     C 3578   0.257   2.061   9.650  0.2734  0.9313 -0.3282
  236MPD1    C1 3579   0.274   1.930   9.664 -0.3908 -0.7178  0.2345
  236MPD1    C2 3580   0.399   1.878   9.698 -0.0840  0.1114  0.4703
  236MPD1    C3 3581   0.503   1.965   9.718  0.5760 -0.3134  0.2339
  236MPD1    C4 3582   0.481   2.102   9.697 -0.2321  0.4964  0.6219
  236MPD1    C5 3583   0.354   2.151   9.654 -0.4207 -0.6280  0.1814
  236MPD1     H 3584   0.401   1.770   9.710 -0.2976  0.6329  5.1801
  236MPD1    H1 3585   0.566   2.169   9.690 -0.3979  0.5150 -1.2995
  236MPD1    H2 3586   0.157   2.095   9.624 -0.5890 -0.2657  1.3725
  236MPD1    H3 3587   0.339   2.254   9.624 -2.7944 -0.6502  1.2480
  236MPD1     N 3588   0.636   1.928   9.751  0.0846 -0.4465 -0.5286
  236MPD1    H5 3589   0.710   1.994   9.729 -2.6679  2.4652 -1.1008
  236MPD1    N1 3590   0.167   1.853   9.628 -0.1312  0.0280  0.1845
  236MPD1    H6 3591   0.075   1.898   9.625 -0.3805 -0.5420 -0.9011
  236MPD1    H7 3592   0.149   1.777   9.693  1.8810 -0.0118  0.6985
  237MPD1     C 3593   0.839   4.525  15.572  0.0027 -0.2450 -0.0673
  237MPD1    C1 3594   0.739   4.518  15.668 -0.1272 -0.0684  0.6901
  237MPD1    C2 3595   0.610   4.541  15.620 -0.3369  0.0521  0.2774
  237MPD1    C3 3596   0.580   4.558  15.485 -0.3433  0.8142  0.2544
  237MPD1    C4 3597   0.685   4.534  15.402  0.3293 -0.1894  0.2732
  237MPD1    C5 3598   0.815   4.517  15.437 -0.6184  0.6036 -0.2613
  237MPD1     H 3599   0.534   4.555  15.695 -0.1505  4.1544 -0.2705
  237MPD1    H1 3600   0.664   4.526  15.296 -1.3459 -2.8291  0.7955
  237MPD1    H2 3601   0.939   4.522  15.612 -0.5853 -0.6337  1.3855
  237MPD1    H3 3602   0.899   4.520  15.368 -0.8376  1.1495 -0.5008
  237MPD1     N 3603   0.451   4.588  15.420 -0.3328 -0.0197 -0.0951
  237MPD1    H5 3604   0.446   4.607  15.321  1.4228  0.2951 -0.1223
  237MPD1    N1 3605   0.773   4.525  15.805 -0.2363 -0.1117  0.0431
  237MPD1    H6 3606   0.865   4.485  15.821  0.0874  0.0353 -1.4260
  237MPD1    H7 3607   0.703   4.468  15.851 -1.5820  0.6986 -0.9649
  238MPD1     C 3608   3.537   3.284  14.858  0.1081  0.2775 -0.4027
  238MPD1    C1 3609   3.454   3.256  14.965  1.1367  0.1800 -0.0024
  238MPD1    C2 3610   3.321   3.252  14.926  0.1461 -0.1355 -0.3469
  238MPD1    C3 3611   3.275   3.285  14.799  0.4549 -0.0488  0.4091
  238MPD1    C4 3612   3.365   3.335  14.709  0.6045 -0.3396  0.0361
  238MPD1    C5 3613   3.501   3.331  14.738 -0.5266 -0.6413  0.0852
  238MPD1     H 3614   3.253   3.201  14.993  1.1949 -0.6641  0.3101
  238MPD1    H1 3615   3.336   3.367  14.610 -1.2611  0.4106  0.8376
  238MPD1    H2 3616   3.641   3.260  14.878  0.2685  0.0223 -1.5457
  238MPD1    H3 3617   3.568   3.373  14.665  0.0446  2.8644  2.6385
  238MPD1     N 3618   3.138   3.288  14.763  0.1457 -0.0481 -0.3517
  238MPD1    H5 3619   3.129   3.314  14.665  0.1348  0.2357 -0.2763
  238MPD1    N1 3620   3.502   3.201  15.088  0.6601  0.4138 -0.0334
  238MPD1    H6 3621   3.434   3.199  15.164  0.6036 -0.0383 -0.0972
  238MPD1    H7 3622   3.581   3.260  15.113 -0.3402  1.0468  1.6794
  239MPD1     C 3623   3.052   4.121  15.027  0.2565 -0.1024 -0.1798
  239MPD1    C1 3624   3.089   4.098  14.898  0.0989 -0.2280 -0.5271
  239MPD1    C2 3625   3.024   4.153  14.787 -0.3726  0.4116 -0.0937
  239MPD1    C3 3626   2.911   4.227  14.807  0.1099 -1.0254  0.6824
  239MPD1    C4 3627   2.875   4.257  14.936  0.6762  0.5151  0.7350
  239MPD1    C5 3628   2.946   4.208  15.044 -0.2435  0.3022 -0.4509
  239MPD1     H 3629   3.059   4.129  14.688 -0.1406  1.8059 -0.3463
  239MPD1    H1 3630   2.787   4.313  14.967 -0.1534 -1.4915  1.9747
  239MPD1    H2 3631   3.106   4.076  15.109  1.4708  2.6954  0.5701
  239MPD1    H3 3632   2.903   4.233  15.140 -1.4174 -2.0971 -0.3268
  239MPD1     N 3633   2.843   4.287  14.699 -0.5249  0.2849  0.3565
  239MPD1    H5 3634   2.754   4.329  14.721 -1.6346 -1.1967 -1.2749
  239MPD1    N1 3635   3.211   4.033  14.883  0.1229 -0.5718  0.1942
  239MPD1    H6 3636   3.245   3.995  14.971  1.3171  0.2441  0.0927
  239MPD1    H7 3637   3.210   3.964  14.809 -1.3872 -0.6752  0.3100
  240MPD1     C 3638   1.879   4.190  13.990 -0.3917 -0.5594 -0.2281
  240MPD1    C1 3639   1.846   4.320  14.035 -0.3674  0.3711 -0.4816
  240MPD1    C2 3640   1.877   4.347  14.169  0.2840  0.0522  0.5307
  240MPD1    C3 3641   1.962   4.257  14.240 -0.5468 -0.1681 -0.0840
  240MPD1    C4 3642   2.010   4.141  14.182 -0.3001  0.5059  0.4467
  240MPD1    C5 3643   1.968   4.112  14.058  0.2298 -0.1297  0.2902
  240MPD1     H 3644   1.838   4.441  14.207  1.3534  1.1112 -1.0019
  240MPD1    H1 3645   2.069   4.065  14.232 -0.2283  0.3299  0.0920
  240MPD1    H2 3646   1.838   4.160  13.895 -1.4777  1.6405 -0.4670
  240MPD1    H3 3647   1.995   4.014  14.021  0.8690  0.5206 -0.9613
  240MPD1     N 3648   1.981   4.282  14.379  0.5468  0.4435  0.2322
  240MPD1    H5 3649   1.933   4.355  14.430  0.9088 -0.8756  2.5053
  240MPD1    N1 3650   1.762   4.405  13.961 -0.1481  0.0859 -0.2272
  240MPD1    H6 3651   1.763   4.399  13.859 -0.3961  2.5100 -0.3901
  240MPD1    H7 3652   1.759   4.500  13.997  3.3937  0.3845 -0.7049
  241MPD1     C 3653   1.753   0.273  14.777 -0.0794  0.3881  0.1550
  241MPD1    C1 3654   1.825   0.205  14.878  0.4866  0.8177 -0.0459
  241MPD1    C2 3655   1.854   0.069  14.862  0.0596  0.6676  0.3258
  241MPD1    C3 3656   1.810   0.008  14.746  0.6034 -0.5738  0.3470
  241MPD1    C4 3657   1.741   0.075  14.649 -0.6303  0.3614  0.4455
  241MPD1    C5 3658   1.709   0.210  14.666  0.6509  0.7824  0.0018
  241MPD1     H 3659   1.922   0.021  14.931  0.2980  1.0913  0.3850
  241MPD1    H1 3660   1.716   0.034  14.552  0.9355  2.1350 -0.7141
  241MPD1    H2 3661   1.735   0.380  14.784  1.2130  0.5758  0.6067
  241MPD1    H3 3662   1.654   0.259  14.587 -1.4137  0.7701  1.4424
  241MPD1     N 3663   1.843   4.592  14.717 -0.1081  0.0588 -0.5568
  241MPD1    H5 3664   1.843   4.558  14.621 -0.7052 -2.4869  0.3684
  241MPD1    N1 3665   1.855   0.274  15.001 -0.5554 -0.3733 -0.2205
  241MPD1    H6 3666   1.948   0.243  15.028  0.6063  1.2847 -2.3503
  241MPD1    H7 3667   1.869   0.367  14.963  0.0652  0.6679  2.4900
  242MPD1     C 3668   1.670   2.219  15.920 -0.0988  0.2293 -0.0687
  242MPD1    C1 3669   1.727   2.095  15.885  0.3175  0.2763 -0.1125
  242MPD1    C2 3670   1.780   2.077  15.756  0.6568  0.4857  0.3086
  242MPD1    C3 3671   1.764   2.177  15.663  0.2925  0.0801  0.4863
  242MPD1    C4 3672   1.698   2.294  15.698 -0.1664 -0.0818  0.1354
  242MPD1    C5 3673   1.663   2.319  15.826  0.2010  0.2294  0.8115
  242MPD1     H 3674   1.838   1.987  15.738  1.3020  1.0728 -0.5199
  242MPD1    H1 3675   1.678   2.380  15.635  0.0135 -0.0655  0.1010
  242MPD1    H2 3676   1.642   2.247  16.021 -0.3130 -1.2331  0.2772
  242MPD1    H3 3677   1.623   2.415  15.855  2.4806  1.1327  0.9554
  242MPD1     N 3678   1.812   2.147  15.534  0.2015 -0.7337 -0.2311
  242MPD1    H5 3679   1.855   2.056  15.521  1.6603 -0.1274  0.3293
  242MPD1    N1 3680   1.743   2.000  15.988  0.1255  0.7151 -0.3138
  242MPD1    H6 3681   1.732   1.902  15.961 -4.0001  1.5178 -1.5934
  242MPD1    H7 3682   1.677   2.024  16.062  1.0726  2.3701 -0.0152
  243MPD1     C 3683   3.582   1.198   0.103  0.0742  0.2976 -0.1327
  243MPD1    C1 3684   3.494   1.090   0.114 -0.3057 -0.4139  0.1145
  243MPD1    C2 3685   3.431   1.055   0.000 -0.1660 -0.2210  0.7240
  243MPD1    C3 3686   3.406   1.144  17.590 -0.2344 -0.4939 -0.3227
  243MPD1    C4 3687   3.479   1.262  17.590 -0.4563  0.3502 -0.3929
  243MPD1    C5 3688   3.570   1.284   0.002  0.2378 -0.2890  0.1062
  243MPD1     H 3689   3.379   0.960   0.008  1.4260 -0.9562  2.4304
  243MPD1    H1 3690   3.466   1.330  17.506  3.3500  0.1048 -1.2019
  243MPD1    H2 3691   3.661   1.213   0.176  0.9340  0.1726 -1.0423
  243MPD1    H3 3692   3.623   1.376  17.673 -0.3151  0.3846  1.8263
  243MPD1     N 3693   3.348   1.079  17.476 -0.1750 -0.5696  0.1343
  243MPD1    H5 3694   3.305   0.987  17.484 -3.1983  0.8374  0.0338
  243MPD1    N1 3695   3.516   0.996   0.211 -0.3688  0.3547  0.1388
  243MPD1    H6 3696   3.436   0.934   0.203 -0.9554  1.1319 -0.0177
  243MPD1    H7 3697   3.538   1.048   0.296 -1.9920  2.8821 -0.9895
  244MPD1     C 3698   2.528   1.036  16.901  0.5249  0.3975 -0.0664
  244MPD1    C1 3699   2.621   1.008  16.803  0.4018  0.2370  0.1393
  244MPD1    C2 3700   2.750   0.974  16.839 -0.1250 -0.8060 -0.5095
  244MPD1    C3 3701   2.791   0.988  16.971 -0.6093 -0.3469  0.9538
  244MPD1    C4 3702   2.702   1.035  17.070 -0.4989  0.5353 -0.1958
  244MPD1    C5 3703   2.573   1.050  17.030 -0.3954 -0.6840 -0.0452
  244MPD1     H 3704   2.823   0.932  16.771 -0.1799 -0.4181 -0.8089
  244MPD1    H1 3705   2.726   1.059  17.173  1.3975 -1.3313 -0.1933
  244MPD1    H2 3706   2.421   1.043  16.883  0.5779  2.4832  0.4896
  244MPD1    H3 3707   2.497   1.074  17.104  0.3845  0.1500  0.4728
  244MPD1     N 3708   2.928   0.973  17.001  0.2145  0.1624 -0.0122
  244MPD1    H5 3709   2.991   0.964  16.922 -0.3796  0.9205 -0.5756
  244MPD1    N1 3710   2.573   0.978  16.671 -0.5731  0.8553 -1.1275
  244MPD1    H6 3711   2.502   1.047  16.644 -0.0418  1.7199 -0.3000
  244MPD1    H7 3712   2.645   0.980  16.599 -0.0738 -0.5606 -0.6454
  245MPD1     C 3713   0.758   1.698  12.932 -0.7908 -0.5020  0.6502
  245MPD1    C1 3714   0.694   1.675  13.049  0.0289 -0.7060  0.0555
  245MPD1    C2 3715   0.729   1.752  13.156 -0.6278 -0.0152  0.1048
  245MPD1    C3 3716   0.843   1.836  13.155 -0.1654 -1.0209 -1.1719
  245MPD1    C4 3717   0.900   1.860  13.032 -0.0734  0.1939 -0.5615
  245MPD1    C5 3718   0.857   1.787  12.925  0.5942  0.2218  0.1842
  245MPD1     H 3719   0.671   1.759  13.248  1.4070 -2.2527  1.5712
  245MPD1    H1 3720   0.969   1.942  13.017  0.1485  0.3404  1.1857
  245MPD1    H2 3721   0.731   1.639  12.845  0.4614  1.6515 -1.1839
  245MPD1    H3 3722   0.915   1.803  12.835 -0.4636 -1.7988 -0.8413
  245MPD1     N 3723   0.866   1.921  13.270 -0.5155 -0.3230 -0.2897
  245MPD1    H5 3724   0.798   1.912  13.345  0.6152 -2.3351  0.4916
  245MPD1    N1 3725   0.576   1.602  13.063 -0.1370 -0.6348  0.5480
  245MPD1    H6 3726   0.572   1.570  13.160  2.8950 -1.6205  0.3229
  245MPD1    H7 3727   0.572   1.517  13.008  1.0916  1.5518 -2.9434
  246MPD1     C 3728   2.243   3.151   8.311  0.4049  0.1468 -0.1912
  246MPD1    C1 3729   2.276   3.282   8.341 -0.3563 -0.0536  0.0523
  246MPD1    C2 3730   2.199   3.340   8.434  0.0532  0.1663 -0.0879
  246MPD1    C3 3731   2.084   3.281   8.485  0.5519 -0.0157  0.3940
  246MPD1    C4 3732   2.046   3.158   8.440 -0.0343  0.9296  0.2548
  246MPD1    C5 3733   2.136   3.087   8.364 -0.3129  0.4368 -0.0341
  246MPD1     H 3734   2.212   3.444   8.463  1.5770 -0.2485  0.7223
  246MPD1    H1 3735   1.964   3.103   8.485 -1.7787  1.7625 -1.8895
  246MPD1    H2 3736   2.294   3.105   8.226 -0.7947 -1.9656  0.2239
  246MPD1    H3 3737   2.113   2.985   8.334 -1.1870  0.2955  1.1315
  246MPD1     N 3738   2.019   3.345   8.593 -0.7542 -0.6773 -0.0256
  246MPD1    H5 3739   2.065   3.430   8.623 -0.9173 -1.4365  2.3967
  246MPD1    N1 3740   2.376   3.342   8.261 -0.4523  0.0341  0.3656
  246MPD1    H6 3741   2.444   3.400   8.310 -0.5907  0.3975  0.1269
  246MPD1    H7 3742   2.433   3.279   8.205  0.1501 -0.1855  1.2235
  247MPD1     C 3743   0.187   1.205  16.974  0.1226  0.2893 -0.1419
  247MPD1    C1 3744   0.162   1.074  16.955  0.0354  0.8013  0.4068
  247MPD1    C2 3745   0.145   1.025  16.826 -0.4687  0.2916  0.1996
  247MPD1    C3 3746   0.186   1.109  16.716  0.4012 -0.0650 -0.4663
  247MPD1    C4 3747   0.237   1.229  16.744  0.0533  0.4835  0.6149
  247MPD1    C5 3748   0.238   1.279  16.872 -0.0307 -0.2803 -0.1747
  247MPD1     H 3749   0.119   0.921  16.810  2.2086 -0.2140 -0.8304
  247MPD1    H1 3750   0.288   1.282  16.664  1.4284  0.7401  1.6618
  247MPD1    H2 3751   0.180   1.254  17.070 -0.6375  1.5940 -0.8583
  247MPD1    H3 3752   0.262   1.384  16.884  0.8973 -0.4751 -0.3268
  247MPD1     N 3753   0.182   1.072  16.581  0.0551 -0.2808 -0.1828
  247MPD1    H5 3754   0.210   1.149  16.521  0.9544  0.0228  0.6270
  247MPD1    N1 3755   0.110   1.000  17.066 -0.4749  0.1865 -0.0466
  247MPD1    H6 3756   0.145   1.030  17.157  0.0665 -1.8043  0.3976
  247MPD1    H7 3757   0.134   0.903  17.044 -1.4556 -0.0868  0.1146
  248MPD1     C 3758   1.015   1.814   0.005 -0.4754 -0.3422  0.1520
  248MPD1    C1 3759   0.930   1.865   0.099  0.4203 -0.3823 -0.4874
  248MPD1    C2 3760   0.858   1.776   0.168  0.3867 -0.3923 -0.2128
  248MPD1    C3 3761   0.864   1.643   0.146 -0.3567 -0.9043 -0.4167
  248MPD1    C4 3762   0.958   1.590   0.057 -0.1295 -0.9855 -0.1603
  248MPD1    C5 3763   1.034   1.678  17.679  0.0822 -0.2395  0.3896
  248MPD1     H 3764   0.786   1.813   0.241 -0.1354  1.8761 -1.8994
  248MPD1    H1 3765   0.985   1.487   0.039  2.4020  0.5205 -4.9237
  248MPD1    H2 3766   1.074   1.877  17.630  0.0572 -1.2125 -0.2132
  248MPD1    H3 3767   1.105   1.637  17.608 -2.7984  1.1391 -3.2279
  248MPD1     N 3768   0.777   1.566   0.220 -0.1395 -0.2684 -0.4871
  248MPD1    H5 3769   0.720   1.610   0.291  0.1554  0.2426 -0.5655
  248MPD1    N1 3770   0.899   2.004   0.102  0.4802 -0.2426 -0.6905
  248MPD1    H6 3771   0.986   2.054   0.081 -0.3544  0.9369 -1.3268
  248MPD1    H7 3772   0.859   2.033   0.191 -1.2740  1.6766 -2.1024
  249MPD1     C 3773   2.154   0.935   9.266  0.4085  0.1079 -0.4765
  249MPD1    C1 3774   2.138   0.828   9.182  0.3138 -0.1078 -0.5435
  249MPD1    C2 3775   2.071   0.718   9.235  0.4714 -0.4832  0.1917
  249MPD1    C3 3776   2.036   0.700   9.371  0.4690 -0.3413  0.4053
  249MPD1    C4 3777   2.081   0.806   9.450 -0.2903 -0.7454 -0.7465
  249MPD1    C5 3778   2.137   0.923   9.401  0.4573 -0.0886  0.4205
  249MPD1     H 3779   2.038   0.648   9.159 -1.6483  0.7395 -0.0182
  249MPD1    H1 3780   2.083   0.798   9.559  0.3121  0.5351 -0.6649
  249MPD1    H2 3781   2.195   1.028   9.226  1.7601  0.4369  1.6834
  249MPD1    H3 3782   2.182   1.000   9.463 -1.3571 -0.5624  2.3335
  249MPD1     N 3783   1.982   0.572   9.418 -0.0160  0.0358 -0.1283
  249MPD1    H5 3784   1.955   0.498   9.354  0.4053 -0.9031  0.7968
  249MPD1    N1 3785   2.146   0.851   9.041 -0.2428  0.3350 -0.9092
  249MPD1    H6 3786   2.215   0.925   9.030 -1.7990  2.0019  0.5436
  249MPD1    H7 3787   2.184   0.768   8.995 -2.6876 -0.3219 -1.7336
  250MPD2     C 3788   2.853   4.600  13.013  0.0301  0.4094 -0.1297
  250MPD2    C1 3789   2.886   4.672  12.903  1.0348 -0.0258  0.5973
  250MPD2    C2 3790   2.828   4.655  12.775  0.0898  0.7021 -0.0091
  250MPD2    C3 3791   2.730   4.558  12.767  1.1237 -0.6147 -0.0768
  250MPD2    C4 3792   2.712   4.470  12.873 -0.3575  0.1753 -0.1457
  250MPD2    C5 3793   2.767   4.494  12.996 -0.6534 -0.3321 -0.3175
  250MPD2     H 3794   2.840   0.003  12.693  0.7993  0.4743 -0.0985
  250MPD2    H1 3795   2.636   4.393  12.865  1.0219 -1.1485 -0.6945
  250MPD2    H2 3796   2.895   4.628  13.110  0.1303  0.3031 -0.1422
  250MPD2    H3 3797   2.753   4.418  13.071  1.9849 -1.7652 -1.2704
  250MPD2     N 3798   2.653   4.532  12.655 -0.4329 -0.5294  0.0183
  250MPD2    H5 3799   2.578   4.465  12.667  0.2894 -1.3695 -0.1801
  250MPD2    N1 3800   2.976   0.057  12.911 -0.1492 -0.2431  0.6134
  250MPD2    H7 3801   3.000   0.090  13.004 -0.4174  1.1205  0.1937
  251TMC3    C1 3802   3.130   0.222  12.856 -0.1403  0.8999 -0.5499
  251TMC3    C2 3803   3.089   0.320  12.950 -0.1233 -0.1845 -0.2734
  251TMC3    C3 3804   3.180   0.412  12.996 -0.4420  0.2899 -0.0242
  251TMC3    C4 3805   3.264   0.215  12.827 -0.2821 -0.0371  0.0303
  251TMC3    C5 3806   3.353   0.298  12.882  0.4910 -0.2602 -0.8670
  251TMC3    C6 3807   3.313   0.398  12.969 -0.8245 -0.0566 -0.7193
  251TMC3     C 3808   3.045   0.116  12.812 -0.5602 -0.3806 -0.1961
  251TMC3     O 3809   3.059   0.086  12.691 -0.8831  0.3803  0.1154
  251TMC3     H 3810   2.983   0.331  12.972 -0.4566 -0.6563 -1.6246
  251TMC3    H1 3811   3.294   0.124  12.776  0.0892  1.2571 -2.0502
  251TMC3    H2 3812   3.395   0.456  13.010  0.2311 -0.8728 -1.6884
  251TMC3    C7 3813   3.498   0.278  12.855 -0.2625 -0.1130 -0.0296
  251TMC3    C8 3814   3.146   0.496  13.098 -0.6509  0.2055 -0.4917
  251TMC3    O1 3815   3.565   0.358  12.917  0.5344 -0.2324 -0.1751
  251TMC3    O2 3816   3.226   0.527  13.184 -0.5008 -0.0263  0.1168
  252TMC3    C1 3817   3.043   1.553   9.013  0.3392  0.4075 -0.1059
  252TMC3    C2 3818   3.176   1.579   9.033  0.3780 -0.3630  0.1458
  252TMC3    C3 3819   3.215   1.641   9.144  0.1519 -0.5187  0.5520
  252TMC3    C4 3820   2.949   1.595   9.101 -0.3471 -0.3348  0.1423
  252TMC3    C5 3821   2.991   1.652   9.220  0.3519  0.0238  0.6143
  252TMC3    C6 3822   3.126   1.667   9.246  0.7432  0.3122 -0.2512
  252TMC3     C 3823   3.010   1.546   8.870 -0.2126  0.2193 -0.2635
  252TMC3     O 3824   3.102   1.552   8.794  0.7548 -0.4144 -0.6877
  252TMC3     H 3825   3.255   1.543   8.968  0.3030 -1.6459  0.7693
  252TMC3    H1 3826   2.847   1.567   9.078  0.8214 -3.3153 -1.5709
  252TMC3    H2 3827   3.163   1.719   9.334  0.4480  0.8854 -0.4626
  252TMC3    C7 3828   2.890   1.674   9.322 -0.2007 -0.1581  0.3568
  252TMC3    C8 3829   3.358   1.677   9.155  0.1075 -0.7305 -0.6352
  252TMC3    O1 3830   2.773   1.683   9.283  0.2949  0.6160 -0.5288
  252TMC3    O2 3831   3.426   1.669   9.054 -0.4456 -0.4254  0.5403
  253MPD2     C 3832   0.213   0.288  15.453  0.5167 -0.1169 -0.0368
  253MPD2    C1 3833   0.085   0.236  15.459 -0.2400  0.4613 -0.1420
  253MPD2    C2 3834   0.043   0.164  15.568 -0.8327  0.3790 -0.1396
  253MPD2    C3 3835   0.127   0.136  15.677  0.3407  0.2278 -0.0436
  253MPD2    C4 3836   0.255   0.191  15.669  0.1322 -0.2344 -0.6369
  253MPD2    C5 3837   0.292   0.264  15.563  0.0676  0.0129  0.4079
  253MPD2     H 3838   4.661   0.132  15.569 -0.7250  0.0488  0.3492
  253MPD2    H1 3839   0.325   0.173  15.749  0.2360 -1.5427 -1.0370
  253MPD2    H2 3840   0.253   0.339  15.366  1.4146 -2.1847 -0.8552
  253MPD2    H3 3841   0.393   0.303  15.565  0.3150 -0.6505  0.6902
  253MPD2     N 3842   0.086   0.053  15.784 -0.1120 -0.4793 -0.1176
  253MPD2    H5 3843   0.157   0.021  15.848 -1.7577 -0.8457  1.5024
  253MPD2    N1 3844   4.718   0.267  15.350  0.2357  0.0282  0.5163
  253MPD2    H7 3845   0.025   0.331  15.277  0.5789  0.8204  1.3540
  254TMC3    C1 3846   4.689   4.613  15.904 -0.3766  0.0808  0.3474
  254TMC3    C2 3847   4.567   4.548  15.904  0.3873  0.0746 -0.4140
  254TMC3    C3 3848   4.521   4.508  16.030  0.1986  0.9272 -0.9746
  254TMC3    C4 3849   0.041   4.636  16.022 -0.3992 -0.4691 -0.4207
  254TMC3    C5 3850   4.710   4.583  16.139  0.3828 -0.3917  0.3062
  254TMC3    C6 3851   4.586   4.523  16.142  0.7528 -0.5860 -0.5957
  254TMC3     C 3852   4.686   0.003  15.812  0.4024 -0.0052  0.5797
  254TMC3     O 3853   4.576   0.034  15.775 -0.0879 -0.2270  0.3528
  254TMC3     H 3854   4.506   4.530  15.816  0.1010  0.6847 -0.3425
  254TMC3    H1 3855   0.130   4.698  16.024  0.0014 -1.0154 -1.4775
  254TMC3    H2 3856   4.538   4.491  16.234  0.1207 -0.4606 -0.8837
  254TMC3    C7 3857   0.071   4.568  16.252  0.2780 -0.5527 -0.0464
  254TMC3    C8 3858   4.387   4.565  16.052 -0.8212 -0.2513  0.0840
  254TMC3    O1 3859   0.018   4.534  16.356  0.2232  0.0609 -1.4004
  254TMC3    O2 3860   4.326   4.551  16.160 -0.2150 -0.3127 -0.3902
  255MPD2     C 3861   2.969   3.213  10.801  0.2580 -0.1740 -0.3790
  255MPD2    C1 3862   2.903   3.194  10.686  1.0922 -0.2665  0.6632
  255MPD2    C2 3863   2.906   3.072  10.622 -0.5734 -0.2704 -0.0116
  255MPD2    C3 3864   2.972   2.969  10.671  0.4046 -0.2784  1.1768
  255MPD2    C4 3865   3.046   2.991  10.789 -0.0512  0.2564 -1.1021
  255MPD2    C5 3866   3.041   3.106  10.850 -0.1505 -0.0259  0.3847
  255MPD2     H 3867   2.851   3.063  10.529 -0.1422  1.8991 -0.4577
  255MPD2    H1 3868   3.105   2.920  10.847 -1.0659  0.2200 -0.1019
  255MPD2    H2 3869   2.955   3.299  10.864  1.0399  0.8205 -1.5660
  255MPD2    H3 3870   3.097   3.113  10.943  2.8207 -0.6955 -1.3583
  255MPD2     N 3871   2.968   2.841  10.604  0.0453 -0.2115 -0.1981
  255MPD2    H5 3872   2.909   2.832  10.522  1.7334 -1.3000 -1.2776
  255MPD2    N1 3873   2.836   3.304  10.631  0.1862  0.0194  0.2373
  255MPD2    H7 3874   2.843   3.388  10.689 -0.3191  0.7138 -0.7178
  256TMC3    C1 3875   2.653   3.417  10.516 -0.5918  0.3240  0.7964
  256TMC3    C2 3876   2.723   3.516  10.455 -0.2027  0.1051 -0.5306
  256TMC3    C3 3877   2.677   3.555  10.332 -0.4662 -0.1447  0.3090
  256TMC3    C4 3878   2.530   3.377  10.476  0.0397 -0.0347 -0.0645
  256TMC3    C5 3879   2.487   3.412  10.350 -0.5232  0.2100 -0.7759
  256TMC3    C6 3880   2.562   3.503  10.276 -0.2108 -0.3905  0.2782
  256TMC3     C 3881   2.741   3.300  10.527 -0.4147  0.3517 -0.2185
  256TMC3     O 3882   2.704   3.204  10.460 -0.2486  0.2183 -0.4407
  256TMC3     H 3883   2.821   3.535  10.498 -1.0888 -0.0678  1.5750
  256TMC3    H1 3884   2.478   3.312  10.545 -1.0007  2.0996  1.1323
  256TMC3    H2 3885   2.536   3.530  10.175  1.4841  0.0652 -0.0251
  256TMC3    C7 3886   2.427   3.303  10.271  0.4907 -0.4472 -0.0366
  256TMC3    C8 3887   2.772   3.623  10.251  0.3501  1.0001  0.3142
  256TMC3    O1 3888   2.439   3.314  10.148 -0.0965  0.2883  0.2081
  256TMC3    O2 3889   2.876   3.648  10.302  0.0695 -0.1106  0.0344
  257MPD2     C 3890   2.372   0.369  13.225 -0.1598  0.7261  0.9880
  257MPD2    C1 3891   2.315   0.276  13.145  0.3851 -0.7534 -0.4500
  257MPD2    C2 3892   2.282   0.155  13.197  0.0100  0.3287 -0.5389
  257MPD2    C3 3893   2.308   0.130  13.328 -0.5900 -0.0942 -0.4714
  257MPD2    C4 3894   2.362   0.227  13.411  0.5015  0.4805  0.2478
  257MPD2    C5 3895   2.394   0.346  13.357 -0.1485 -0.3220  0.1722
  257MPD2     H 3896   2.250   0.075  13.131  0.5043  1.1369 -1.7600
  257MPD2    H1 3897   2.386   0.206  13.515 -1.4955  0.0039  0.6066
  257MPD2    H2 3898   2.400   0.468  13.190 -1.1964  0.6608 -0.0158
  257MPD2    H3 3899   2.435   0.429  13.413 -1.2234  0.6973 -0.5467
  257MPD2     N 3900   2.285   0.001  13.376 -0.3733 -0.7537 -0.0352
  257MPD2    H5 3901   2.240   4.662  13.309  0.7673  0.7790 -2.1962
  257MPD2    N1 3902   2.291   0.312  13.008  0.5824 -0.4740 -0.6381
  257MPD2    H7 3903   2.325   0.403  12.981 -0.2227 -0.9865 -3.4046
  258TMC3    C1 3904   2.303   4.536  13.521  0.2105 -0.6967  0.1045
  258TMC3    C2 3905   2.319   4.455  13.412  0.2618  0.0873 -0.2741
  258TMC3    C3 3906   2.345   4.323  13.431 -0.5376  0.3255  0.5391
  258TMC3    C4 3907   2.293   4.499  13.650  0.6873 -0.5087 -0.0813
  258TMC3    C5 3908   2.316   4.368  13.665  0.4860 -0.6997 -0.0292
  258TMC3    C6 3909   2.339   4.280  13.561  0.2953  0.2578 -0.1882
  258TMC3     C 3910   2.326   4.677  13.502  0.7413 -0.5687  1.0639
  258TMC3     O 3911   2.387   0.006  13.592 -0.0703 -0.2101  0.2370
  258TMC3     H 3912   2.340   4.494  13.313  0.8445  0.4608 -0.0009
  258TMC3    H1 3913   2.286   4.570  13.732  0.0940  1.9930 -2.3093
  258TMC3    H2 3914   2.361   4.175  13.578  0.3424  0.2729 -0.1554
  258TMC3    C7 3915   2.324   4.316  13.801  0.0139  0.1694 -0.4898
  258TMC3    C8 3916   2.326   4.221  13.332  0.9735 -0.7019 -0.5323
  258TMC3    O1 3917   2.245   4.374  13.874 -0.5606  0.3024 -0.2351
  258TMC3    O2 3918   2.360   4.104  13.361 -0.5208 -0.5157  0.4353
  259MPD2     C 3919   1.502   2.230   0.904  0.2894  0.4342  0.4150
  259MPD2    C1 3920   1.498   2.091   0.920  0.0793 -0.1959  0.6314
  259MPD2    C2 3921   1.505   2.006   0.810  1.2981  0.4147  0.1865
  259MPD2    C3 3922   1.517   2.058   0.683  0.7174  0.5605 -0.1305
  259MPD2    C4 3923   1.500   2.197   0.669 -0.2530  0.6315 -0.7575
  259MPD2    C5 3924   1.489   2.277   0.777  0.5114  0.5919 -0.0349
  259MPD2     H 3925   1.529   1.900   0.820  3.9211  0.9986  0.1184
  259MPD2    H1 3926   1.495   2.244   0.572  1.7011  0.9578 -0.7023
  259MPD2    H2 3927   1.498   2.297   0.989  0.9724 -2.0516  2.3971
  259MPD2    H3 3928   1.462   2.381   0.762  1.4318  0.5296 -2.0973
  259MPD2     N 3929   1.551   1.974   0.573 -0.1797  0.1539 -0.1100
  259MPD2    H5 3930   1.588   1.882   0.593  0.0938  0.7951  2.4622
  259MPD2    N1 3931   1.507   2.048   1.050 -0.1929 -0.3005  0.1764
  259MPD2    H7 3932   1.534   2.119   1.117 -2.0620  0.8500 -0.2973
  260TMC3    C1 3933   1.651   1.930   0.355 -0.1097 -0.3973  0.0800
  260TMC3    C2 3934   1.676   1.981   0.233 -0.0145 -1.2330  0.0605
  260TMC3    C3 3935   1.782   1.940   0.164  0.8295  0.0986 -0.2749
  260TMC3    C4 3936   1.741   1.855   0.419 -0.2433  0.6042 -0.0990
  260TMC3    C5 3937   1.853   1.821   0.351 -0.6108 -0.5095  0.2147
  260TMC3    C6 3938   1.881   1.865   0.222 -0.1664 -0.5566  0.2697
  260TMC3     C 3939   1.567   2.017   0.443  0.2307 -0.0920  0.7566
  260TMC3     O 3940   1.512   2.106   0.376 -0.0423 -0.1515  0.0809
  260TMC3     H 3941   1.591   2.020   0.178 -0.2748 -2.2910 -0.2793
  260TMC3    H1 3942   1.734   1.831   0.525 -0.0014  2.4036  0.3167
  260TMC3    H2 3943   1.985   1.863   0.192  0.0673  0.7999  1.0125
  260TMC3    C7 3944   1.893   1.684   0.351  0.3686 -0.2656 -0.2871
  260TMC3    C8 3945   1.740   1.878   0.035  0.5909 -0.1190 -0.0762
  260TMC3    O1 3946   1.945   1.642   0.246  0.4755  0.1586  0.3378
  260TMC3    O2 3947   1.661   1.940  17.659 -0.0282 -0.1175  0.5545
  261MPD2     C 3948   2.701   4.479  11.810  0.0467  0.2426 -0.1335
  261MPD2    C1 3949   2.702   4.591  11.896  0.0609  0.4350 -0.1606
  261MPD2    C2 3950   2.775   4.704  11.859 -0.4109  0.3684 -0.0581
  261MPD2    C3 3951   2.844   4.701  11.745  0.0989  0.0383  0.5832
  261MPD2    C4 3952   2.846   4.594  11.661  0.1146  0.5698 -0.5968
  261MPD2    C5 3953   2.775   4.480  11.700 -1.0479  0.4782 -0.2007
  261MPD2     H 3954   2.781   0.071  11.920  0.1395  2.1457 -2.7290
  261MPD2    H1 3955   2.899   4.598  11.566  0.3856  1.4447 -0.4083
  261MPD2    H2 3956   2.657   4.383  11.833  0.6537 -0.2328 -0.9740
  261MPD2    H3 3957   2.777   4.387  11.644  0.1164  2.4995 -3.5047
  261MPD2     N 3958   2.922   0.097  11.716 -0.0216 -0.2955  0.0922
  261MPD2    H5 3959   2.911   0.179  11.775 -1.1386 -0.6219  0.3251
  261MPD2    N1 3960   2.631   4.592  12.020 -0.1973 -0.2080 -0.0053
  261MPD2    H7 3961   2.646   4.675  12.077 -0.5945  0.3757 -0.7457
  262TMC3    C1 3962   3.062   0.253  11.601 -0.4150  0.7976 -0.0092
  262TMC3    C2 3963   2.986   0.362  11.636  0.2892 -0.0754  1.0813
  262TMC3    C3 3964   3.054   0.475  11.647  0.3499  0.1632 -0.4656
  262TMC3    C4 3965   3.195   0.257  11.576  0.6577  0.1917 -0.0146
  262TMC3    C5 3966   3.262   0.379  11.578  0.1678 -0.0227 -0.0013
  262TMC3    C6 3967   3.187   0.493  11.614  0.2016  0.6915 -0.1126
  262TMC3     C 3968   3.002   0.119  11.608  1.4915 -0.4042 -0.3287
  262TMC3     O 3969   3.048   0.039  11.528 -0.0406 -0.1621  0.4808
  262TMC3     H 3970   2.878   0.361  11.635  0.2928 -0.4789  1.0020
  262TMC3    H1 3971   3.253   0.169  11.550  0.4154  0.1002 -0.2371
  262TMC3    H2 3972   3.231   0.587  11.645 -3.4422  2.3267  0.1886
  262TMC3    C7 3973   3.396   0.395  11.529  0.1290 -0.3273 -0.4744
  262TMC3    C8 3974   2.977   0.596  11.678 -0.5882  0.1170  0.1962
  262TMC3    O1 3975   3.462   0.290  11.532 -0.1934 -0.2104 -0.2512
  262TMC3    O2 3976   3.022   0.699  11.632 -0.2956 -0.1323 -0.3983
  263MPD2     C 3977   4.217   4.093  11.536 -0.4138 -0.0157  0.0342
  263MPD2    C1 3978   4.335   4.148  11.484  0.2678 -0.1590  0.3626
  263MPD2    C2 3979   4.331   4.204  11.355  0.9490  0.3163 -0.5198
  263MPD2    C3 3980   4.211   4.201  11.278 -0.0956  0.0872 -0.4711
  263MPD2    C4 3981   4.095   4.138  11.331  0.2886  0.0770 -0.0865
  263MPD2    C5 3982   4.099   4.085  11.459  0.4293  0.3167 -0.5303
  263MPD2     H 3983   4.418   4.261  11.324 -1.5656  2.8056 -2.9949
  263MPD2    H1 3984   4.000   4.128  11.279  0.9883  0.4699 -1.4525
  263MPD2    H2 3985   4.226   4.038  11.629 -1.1690  2.4607  1.5663
  263MPD2    H3 3986   4.016   4.028  11.501 -0.5880  0.9335 -1.6895
  263MPD2     N 3987   4.212   4.260  11.149  0.6335  0.0376  0.0025
  263MPD2    H5 3988   4.303   4.293  11.117  0.0471  0.8330 -0.8539
  263MPD2    N1 3989   4.450   4.140  11.571 -0.6781  0.0592 -0.0902
  263MPD2    H7 3990   4.436   4.095  11.661 -3.1902 -0.8516 -0.9498
  264TMC3    C1 3991   4.121   4.389  10.972 -0.0495 -0.8845 -0.1808
  264TMC3    C2 3992   4.014   4.469  10.957  0.0915  0.0660  0.0590
  264TMC3    C3 3993   4.008   4.550  10.847 -0.2112  0.4884  0.2726
  264TMC3    C4 3994   4.227   4.398  10.881  0.4888  0.2162  0.5411
  264TMC3    C5 3995   4.220   4.489  10.778 -0.2081  0.1411  0.0592
  264TMC3    C6 3996   4.109   4.566  10.752  0.5043 -0.3176  0.1144
  264TMC3     C 3997   4.103   4.284  11.065 -1.1593  0.3081 -0.5703
  264TMC3     O 3998   3.992   4.231  11.082 -0.1452 -0.5439  0.2523
  264TMC3     H 3999   3.930   4.477  11.026  0.6555  0.1398  0.7325
  264TMC3    H1 4000   4.307   4.325  10.884 -0.7436 -1.1169  0.8638
  264TMC3    H2 4001   4.094   4.638  10.673  0.0712 -1.5696 -0.9484
  264TMC3    C7 4002   4.326   4.496  10.684  0.0049 -0.1647  0.2723
  264TMC3    C8 4003   3.942   4.679  10.877  0.0447 -0.1654 -1.0358
  264TMC3    O1 4004   4.383   4.393  10.645 -0.3005 -0.5009  0.0627
  264TMC3    O2 4005   3.946   0.039  10.788 -0.1614  0.3383  0.0639
  265MPD2     C 4006   1.796   4.452  16.083  0.2491  0.3096 -0.4418
  265MPD2    C1 4007   1.778   4.543  15.983 -1.3106 -1.2747 -0.1163
  265MPD2    C2 4008   1.831   4.525  15.853  0.2086  0.1884 -0.4409
  265MPD2    C3 4009   1.889   4.400  15.815  0.3269 -0.4508 -0.1822
  265MPD2    C4 4010   1.905   4.311  15.920  0.7341 -0.4885  0.4356
  265MPD2    C5 4011   1.867   4.342  16.050  0.0890  0.8129  0.1770
  265MPD2     H 4012   1.818   4.606  15.783 -1.0328  1.0816  0.8074
  265MPD2    H1 4013   1.948   4.213  15.902  1.1628 -0.6910  2.5507
  265MPD2    H2 4014   1.774   4.459  16.189  2.4882 -0.0032  0.0476
  265MPD2    H3 4015   1.884   4.272  16.131 -0.1880 -0.3286 -0.7468
  265MPD2     N 4016   1.926   4.362  15.684  0.3327  0.6183 -0.7743
  265MPD2    H5 4017   1.951   4.265  15.669  1.9122  0.5766  2.1722
  265MPD2    N1 4018   1.716   4.672  16.018  0.7290  0.0231 -0.5090
  265MPD2    H7 4019   1.726   0.034  15.962 -0.9952 -0.4627 -1.5338
  266TMC3    C1 4020   1.605   0.118  16.147 -0.5678 -0.2327  0.1896
  266TMC3    C2 4021   1.563   0.157  16.273 -0.8254  0.6342 -1.0946
  266TMC3    C3 4022   1.479   0.262  16.273 -0.4583 -0.0277  0.9160
  266TMC3    C4 4023   1.559   0.191  16.035  0.5699  0.3760  0.6412
  266TMC3    C5 4024   1.490   0.307  16.046 -0.3133  0.3852 -0.2491
  266TMC3    C6 4025   1.438   0.335  16.167 -0.7657 -0.7397 -0.0872
  266TMC3     C 4026   1.651   4.704  16.136 -0.5116 -0.1475 -0.2765
  266TMC3     O 4027   1.628   4.627  16.229  0.3786 -0.6497  0.1648
  266TMC3     H 4028   1.599   0.100  16.358 -1.6089 -0.1812 -1.3043
  266TMC3    H1 4029   1.592   0.154  15.939 -0.9594 -1.8364  0.9554
  266TMC3    H2 4030   1.360   0.409  16.178 -0.4462 -0.4504  0.2124
  266TMC3    C7 4031   1.404   0.320  15.929 -0.0652  0.5560 -0.1820
  266TMC3    C8 4032   1.409   0.300  16.403  0.1969 -0.6350  0.2834
  266TMC3    O1 4033   1.384   0.224  15.857 -0.2397  0.0980  0.0242
  266TMC3    O2 4034   1.412   0.222  16.500 -0.1554 -0.5913  0.0686
  267MPD2     C 4035   4.286   1.211   0.029  0.2123 -0.6720 -0.0628
  267MPD2    C1 4036   4.293   1.350   0.028 -0.8100 -0.6568 -0.0697
  267MPD2    C2 4037   4.301   1.410  17.595 -0.2080  0.2517 -0.3775
  267MPD2    C3 4038   4.295   1.344  17.472 -0.0479 -0.6742  0.1804
  267MPD2    C4 4039   4.289   1.205  17.475  0.6180 -0.9794  0.1349
  267MPD2    C5 4040   4.279   1.138  17.598  0.6728 -0.5026  0.1711
  267MPD2     H 4041   4.295   1.518  17.592 -2.4846  0.1685  1.6178
  267MPD2    H1 4042   4.284   1.141  17.388 -0.7899 -1.5554  0.6441
  267MPD2    H2 4043   4.296   1.155   0.122 -2.0219 -1.1380 -0.1116
  267MPD2    H3 4044   4.275   1.029  17.597  0.5199 -0.4915 -1.6092
  267MPD2     N 4045   4.281   1.419  17.361  0.3449  0.2463  0.0140
  267MPD2    H5 4046   4.241   1.364  17.285 -0.0518 -0.3452  0.6487
  267MPD2    N1 4047   4.309   1.418   0.150 -0.3973  0.4584  0.4698
  267MPD2    H7 4048   4.306   1.365   0.236 -0.9215 -0.8221 -0.3486
  268TMC3    C1 4049   4.365   1.588   0.308  0.2864  0.3473  0.3815
  268TMC3    C2 4050   4.396   1.724   0.307 -0.4642  0.2290  0.7733
  268TMC3    C3 4051   4.383   1.790   0.426 -0.3944  0.0781 -0.7520
  268TMC3    C4 4052   4.326   1.519   0.414  0.4284 -0.0595 -0.6508
  268TMC3    C5 4053   4.315   1.588   0.526  0.0893  0.0882  0.2752
  268TMC3    C6 4054   4.338   1.726   0.534 -0.5167  0.1854  0.0283
  268TMC3     C 4055   4.329   1.552   0.167 -0.1247 -0.3399 -0.5734
  268TMC3     O 4056   4.316   1.640   0.083 -0.0490 -0.0694  0.3055
  268TMC3     H 4057   4.417   1.770   0.211  0.7655 -0.3581  0.7525
  268TMC3    H1 4058   4.296   1.415   0.413  1.1323 -0.2783  0.4975
  268TMC3    H2 4059   4.342   1.771   0.633 -0.7697 -1.8966  0.9837
  268TMC3    C7 4060   4.302   1.508   0.648 -0.0263  0.1884 -0.3053
  268TMC3    C8 4061   4.369   1.929   0.416  0.6498  0.1539 -0.2415
  268TMC3    O1 4062   4.317   1.385   0.654  0.4348 -0.0047 -0.0531
  268TMC3    O2 4063   4.320   1.983   0.517 -1.0094 -0.0343 -0.2524
  269MPD2     C 4064   3.711   0.318  15.824 -0.2143 -0.4370  0.4132
  269MPD2    C1 4065   3.585   0.374  15.823 -0.2444 -0.1585 -0.0958
  269MPD2    C2 4066   3.568   0.497  15.759 -0.0739 -0.4638  0.3671
  269MPD2    C3 4067   3.674   0.570  15.705  0.1482 -0.4280  0.1804
  269MPD2    C4 4068   3.801   0.508  15.714 -0.1504 -0.3641 -0.5021
  269MPD2    C5 4069   3.816   0.385  15.776  0.4823 -0.7851  0.5097
  269MPD2     H 4070   3.467   0.535  15.751  0.2194  0.6860  2.0845
  269MPD2    H1 4071   3.890   0.560  15.678 -0.5471  0.4048 -0.3725
  269MPD2    H2 4072   3.729   0.219  15.865 -0.8061 -0.8780 -0.3937
  269MPD2    H3 4073   3.915   0.343  15.762 -0.3592 -2.2121 -1.1034
  269MPD2     N 4074   3.653   0.696  15.652  0.2365  0.6367 -0.0915
  269MPD2    H5 4075   3.557   0.730  15.652 -0.0487 -0.2956 -4.6164
  269MPD2    N1 4076   3.479   0.299  15.878  1.3151  0.0609  0.3569
  269MPD2    H7 4077   3.507   0.206  15.909  1.5513  0.1096  0.2928
  270TMC3    C1 4078   3.274   0.202  15.900 -0.5551 -0.3456 -1.0045
  270TMC3    C2 4079   3.176   0.152  15.822  0.6807  0.5539 -0.0561
  270TMC3    C3 4080   3.107   0.040  15.872  0.1413 -0.0176 -0.2785
  270TMC3    C4 4081   3.313   0.145  16.019  0.3533 -0.3475  0.4662
  270TMC3    C5 4082   3.251   0.025  16.059  1.1155 -0.5891 -0.4714
  270TMC3    C6 4083   3.148   4.694  15.984 -0.6834  0.6542  0.0630
  270TMC3     C 4084   3.346   0.319  15.859  0.0149  0.0157 -0.3236
  270TMC3     O 4085   3.282   0.398  15.792  0.3803  0.4336  0.1229
  270TMC3     H 4086   3.150   0.204  15.731  3.5109  0.8430 -0.6779
  270TMC3    H1 4087   3.390   0.186  16.084 -0.6103  0.2994  1.1957
  270TMC3    H2 4088   3.098   4.600  16.004 -0.8455  0.8133  0.4155
  270TMC3    C7 4089   3.337   4.653  16.134  0.7189 -0.3307  0.1900
  270TMC3    C8 4090   3.052   4.674  15.773 -0.2853  0.0923  0.4850
  270TMC3    O1 4091   3.450   4.683  16.151  0.0781  0.0372  0.0670
  270TMC3    O2 4092   2.960   4.602  15.808 -0.0833 -0.4135  0.8526
  271MPD2     C 4093   2.880   0.016  13.967 -0.2924 -0.1710  0.6424
  271MPD2    C1 4094   2.832   0.008  14.097 -0.1089  0.5227 -0.2292
  271MPD2    C2 4095   2.697   0.053  14.120 -0.4252  1.1057  0.1955
  271MPD2    C3 4096   2.613   0.092  14.013 -0.6702 -0.5014  0.4489
  271MPD2    C4 4097   2.663   0.094  13.885  0.2793 -1.1593 -0.7339
  271MPD2    C5 4098   2.792   0.051  13.866  0.4175 -0.4028  0.0307
  271MPD2     H 4099   2.671   0.055  14.225 -0.9616  1.9926  0.0484
  271MPD2    H1 4100   2.597   0.110  13.801 -2.0080  1.0528  1.4868
  271MPD2    H2 4101   2.976   4.701  13.933  0.5089  1.7058  0.8283
  271MPD2    H3 4102   2.829   0.048  13.764  1.5907 -2.1355  0.5021
  271MPD2     N 4103   2.481   0.128  14.026 -0.2137  0.7844  0.1336
  271MPD2    H5 4104   2.431   0.146  13.940  0.5736  2.7584  0.1107
  271MPD2    N1 4105   2.907   4.685  14.209 -0.2057  0.1114  0.0546
  271MPD2    H7 4106   2.860   4.680  14.299  0.2686  3.3632  0.4724
  272TMC3    C1 4107   3.105   4.609  14.332  0.2748 -0.1782 -0.0377
  272TMC3    C2 4108   3.232   4.555  14.330  0.9468 -1.0458 -0.2223
  272TMC3    C3 4109   3.295   4.515  14.448  0.5462 -0.6125  0.2598
  272TMC3    C4 4110   3.030   4.614  14.447  0.3936 -0.1932  1.2191
  272TMC3    C5 4111   3.095   4.569  14.563  0.1691 -0.0061 -0.1238
  272TMC3    C6 4112   3.215   4.503  14.564 -0.0454 -0.8365  0.3919
  272TMC3     C 4113   3.040   4.639  14.200  0.0698 -0.5993  0.3958
  272TMC3     O 4114   3.117   4.632  14.107  0.2933 -0.5375 -0.1917
  272TMC3     H 4115   3.288   4.563  14.237  0.4769  0.9655 -0.3377
  272TMC3    H1 4116   2.944   4.680  14.446 -0.2696 -1.0387  2.2541
  272TMC3    H2 4117   3.260   4.455  14.650  1.6185 -1.7063 -0.9966
  272TMC3    C7 4118   3.020   4.592  14.681 -0.2637  0.4858  0.3642
  272TMC3    C8 4119   3.429   4.480  14.445 -0.1122  0.2386 -0.5713
  272TMC3    O1 4120   2.899   4.600  14.671 -0.1127  0.0224  0.2974
  272TMC3    O2 4121   3.484   4.488  14.336 -0.1953 -0.0520  0.6479
  273MPD2     C 4122   4.433   2.913  12.400 -0.6834  0.5352  0.9634
  273MPD2    C1 4123   4.550   2.962  12.347 -0.3222  0.6906  0.1412
  273MPD2    C2 4124   4.557   3.001  12.213 -0.2844 -0.1527  0.5212
  273MPD2    C3 4125   4.447   2.981  12.135 -0.2103 -0.5633  0.4391
  273MPD2    C4 4126   4.334   2.933  12.188 -0.4505  0.0928  0.1661
  273MPD2    C5 4127   4.328   2.893  12.316  0.4316  0.0087  1.0661
  273MPD2     H 4128   4.645   3.042  12.165  0.2044 -0.6986  0.9435
  273MPD2    H1 4129   4.249   2.918  12.122 -1.8875  3.7886  1.1545
  273MPD2    H2 4130   4.429   2.856  12.492 -1.9172  0.8346  1.0902
  273MPD2    H3 4131   4.244   2.838  12.357  0.2109  0.2447  0.9237
  273MPD2     N 4132   4.449   2.994  11.990 -0.3419 -0.2583  0.3613
  273MPD2    H5 4133   4.357   2.973  11.953  0.1175 -0.4445 -0.6740
  273MPD2    N1 4134   4.656   2.971  12.439  0.3722 -0.2319  0.3859
  273MPD2    H7 4135   4.649   2.929  12.532  0.2909 -1.5839 -0.2408
  274TMC3    C1 4136   4.530   3.061  11.776 -0.2271 -0.8723  0.0618
  274TMC3    C2 4137   4.429   2.990  11.715  0.8668  0.0983  0.4978
  274TMC3    C3 4138   4.413   3.012  11.583 -0.5331  0.2356 -0.8545
  274TMC3    C4 4139   4.614   3.142  11.703 -0.0045  0.2442  0.6337
  274TMC3    C5 4140   4.600   3.147  11.572 -0.0974  0.0379  0.4323
  274TMC3    C6 4141   4.503   3.080  11.509 -0.5339 -0.3258  0.4844
  274TMC3     C 4142   4.559   3.037  11.917  0.2935 -0.1934 -0.2756
  274TMC3     O 4143   4.674   3.057  11.956 -0.0062  0.2282 -0.2632
  274TMC3     H 4144   4.367   2.922  11.772  2.9421 -1.2453  1.1390
  274TMC3    H1 4145   4.700   3.183  11.754  1.8618 -1.8460 -0.7866
  274TMC3    H2 4146   4.487   3.094  11.402  0.6206  1.2715  0.5067
  274TMC3    C7 4147   4.681   3.238  11.495 -0.8631 -0.5379  0.4671
  274TMC3    C8 4148   4.284   2.978  11.522  0.4258  0.0987  0.2068
  274TMC3    O1 4149   4.676   3.223  11.376  0.3890  0.4075  0.0427
  274TMC3    O2 4150   4.281   2.972  11.399 -0.7951 -0.1768 -0.6446
  275MPD2     C 4151   4.461   1.086  14.476 -0.6904  0.4611  0.4188
  275MPD2    C1 4152   4.385   1.093  14.592  0.1781  0.3257 -0.0151
  275MPD2    C2 4153   4.254   1.051  14.600  0.2291 -0.1148 -0.6064
  275MPD2    C3 4154   4.193   0.996  14.489  0.6403  0.3739 -0.1345
  275MPD2    C4 4155   4.275   0.977  14.377 -0.4278 -0.4124  0.3256
  275MPD2    C5 4156   4.406   1.015  14.371  0.5355  0.0293 -1.2815
  275MPD2     H 4157   4.196   1.064  14.691 -1.4605  0.2498 -1.7369
  275MPD2    H1 4158   4.232   0.935  14.287 -1.1656  0.9280  0.0465
  275MPD2    H2 4159   4.561   1.126  14.466 -0.3109 -0.0429  2.2699
  275MPD2    H3 4160   4.460   1.018  14.277 -0.1908  3.3472 -1.5749
  275MPD2     N 4161   4.063   0.940  14.486 -0.5260 -0.0816 -0.3114
  275MPD2    H5 4162   4.038   0.890  14.401  1.3586  0.2443 -1.0525
  275MPD2    N1 4163   4.434   1.159  14.711  0.0691 -0.2412  0.1147
  275MPD2    H7 4164   4.367   1.160  14.787  0.3413  0.2390  0.3487
  276TMC3    C1 4165   4.569   1.269  14.865 -0.4755 -0.4618 -0.0588
  276TMC3    C2 4166   4.467   1.258  14.952 -0.0462  0.0170 -0.1442
  276TMC3    C3 4167   4.492   1.322  15.071  0.6029 -0.1537 -0.1066
  276TMC3    C4 4168   4.688   1.329  14.894 -0.4630 -0.4875  0.1243
  276TMC3    C5 4169   4.703   1.390  15.018 -0.3758  0.0449  0.0370
  276TMC3    C6 4170   4.605   1.389  15.102  0.1835 -0.5687  0.2753
  276TMC3     C 4171   4.560   1.213  14.736  0.2768  0.5245 -0.1360
  276TMC3     O 4172   4.653   1.229  14.660  0.7788  0.0472 -0.2231
  276TMC3     H 4173   4.375   1.202  14.951 -0.3513  0.5152  0.1181
  276TMC3    H1 4174   0.056   1.329  14.834  0.2326  1.1597  1.1462
  276TMC3    H2 4175   4.615   1.416  15.206 -0.5658  2.3724 -0.4198
  276TMC3    C7 4176   0.113   1.406  15.067  0.7706 -0.4444  0.1918
  276TMC3    C8 4177   4.416   1.256  15.179  0.0998 -0.3814  0.8966
  276TMC3    O1 4178   0.141   1.373  15.177 -0.1123  0.4966  0.4550
  276TMC3    O2 4179   4.391   1.331  15.271  0.4580  0.4699 -0.4594
  277MPD2     C 4180   1.713   4.720  13.380  0.1934  0.3452  0.7170
  277MPD2    C1 4181   1.606   0.074  13.420  0.4620  0.5085  0.5177
  277MPD2    C2 4182   1.544   0.036  13.542  0.4187 -0.2093  0.5514
  277MPD2    C3 4183   1.578   4.644  13.608  0.3518 -0.4615  0.1887
  277MPD2    C4 4184   1.686   4.570  13.563  0.1860 -0.4984 -0.3228
  277MPD2    C5 4185   1.755   4.609  13.446  0.5621 -0.2504 -0.1904
  277MPD2     H 4186   1.471   0.106  13.580  0.1823 -0.2136  0.1083
  277MPD2    H1 4187   1.723   4.485  13.618  1.8015 -0.3153 -1.1280
  277MPD2    H2 4188   1.768   0.030  13.292 -1.8198  0.9717 -0.3050
  277MPD2    H3 4189   1.842   4.550  13.416  0.7482  0.8518 -1.7730
  277MPD2     N 4190   1.489   4.600  13.706 -0.1581  0.0503  0.3140
  277MPD2    H5 4191   1.410   4.662  13.721  0.0096 -0.2018  2.1231
  277MPD2    N1 4192   1.561   0.181  13.335 -0.1081  0.0357 -0.5281
  277MPD2    H7 4193   1.596   0.185  13.240  1.3163  0.7691  0.0288
  278TMC3    C1 4194   1.372   4.446  13.838  0.1874 -0.1800 -0.1568
  278TMC3    C2 4195   1.314   4.320  13.824 -0.3093 -0.3995  0.6308
  278TMC3    C3 4196   1.178   4.311  13.835  0.3535 -0.7012  0.8386
  278TMC3    C4 4197   1.297   4.556  13.867 -0.0581 -0.2705 -0.1745
  278TMC3    C5 4198   1.163   4.545  13.888  1.1250 -0.3327 -0.1623
  278TMC3    C6 4199   1.095   4.419  13.862 -0.4189  0.5582 -0.6208
  278TMC3     C 4200   1.490   4.464  13.755 -0.1359  0.1564 -0.9660
  278TMC3     O 4201   1.563   4.372  13.726 -0.2034  0.4267  0.3306
  278TMC3     H 4202   1.369   4.237  13.780  0.0592  0.4939 -0.6083
  278TMC3    H1 4203   1.347   4.646  13.902 -2.9005  0.5923  1.6329
  278TMC3    H2 4204   0.987   4.413  13.867 -0.2888 -0.8572  0.4822
  278TMC3    C7 4205   1.100   4.671  13.921  0.1003 -0.6361 -0.2868
  278TMC3    C8 4206   1.133   4.203  13.747 -0.4470  0.5721  0.7385
  278TMC3    O1 4207   1.173   0.038  13.958  0.4021 -0.3978 -0.0165
  278TMC3    O2 4208   1.030   4.230  13.693 -0.1433  0.3898  0.3225
  279MPD2     C 4209   0.896   4.378   0.439  0.7338 -0.2108  0.1949
  279MPD2    C1 4210   0.848   4.503   0.464  0.1994 -0.0147 -0.1445
  279MPD2    C2 4211   0.872   4.602   0.368  0.1437 -0.5418  0.0863
  279MPD2    C3 4212   0.951   4.580   0.252  0.4232 -0.0442  0.5025
  279MPD2    C4 4213   1.007   4.453   0.237  0.6477 -0.0098  0.2707
  279MPD2    C5 4214   0.977   4.351   0.334  0.4080  0.0645 -0.2237
  279MPD2     H 4215   0.823   4.697   0.389 -4.2009 -2.6585 -0.4156
  279MPD2    H1 4216   1.070   4.416   0.157 -0.3141 -1.4500  0.1809
  279MPD2    H2 4217   0.883   4.295   0.507 -0.3604 -1.3320 -1.3843
  279MPD2    H3 4218   1.013   4.249   0.323 -1.4738 -0.7330  1.1360
  279MPD2     N 4219   0.974   4.681   0.154 -0.2630  0.0267 -0.2097
  279MPD2    H5 4220   1.029   4.660   0.072 -2.0966 -2.3889 -0.8341
  279MPD2    N1 4221   0.747   4.515   0.558  0.2110  0.0997 -0.1772
  279MPD2    H7 4222   0.732   4.434   0.618  1.3712 -0.4306 -0.6144
  280TMC3    C1 4223   0.564   4.600   0.668  0.6729 -0.7598  0.1318
  280TMC3    C2 4224   0.462   4.510   0.631 -0.1363  0.0568 -0.0273
  280TMC3    C3 4225   0.332   4.545   0.657  0.9149 -0.0793  0.0280
  280TMC3    C4 4226   0.530   4.708   0.741 -0.4336  0.2692 -0.3193
  280TMC3    C5 4227   0.396   0.002   0.775 -0.4407 -0.6352 -0.2332
  280TMC3    C6 4228   0.293   4.652   0.731 -0.5189 -0.2388  0.2324
  280TMC3     C 4229   0.667   4.623   0.579  0.3563  0.3228 -0.7056
  280TMC3     O 4230   0.691   0.016   0.553 -0.0417 -0.8307  0.3218
  280TMC3     H 4231   0.486   4.427   0.566 -1.5926  0.7035 -1.3830
  280TMC3    H1 4232   0.602   0.056   0.782 -0.4126 -0.6576  1.1871
  280TMC3    H2 4233   0.189   4.668   0.758 -0.2631 -0.5715  1.3766
  280TMC3    C7 4234   0.370   0.110   0.869  0.1559 -0.5131 -0.1831
  280TMC3    C8 4235   0.240   4.433   0.645 -0.1285 -0.0905  0.6170
  280TMC3    O1 4236   0.449   0.114   0.959 -0.5895  0.3656  0.0453
  280TMC3    O2 4237   0.123   4.462   0.645 -0.1877  0.0176 -0.0287
  281TMC3    C1 4238   4.264   0.311  13.058  0.7691 -0.1202  0.0933
  281TMC3    C2 4239   4.188   0.361  12.954  0.2207 -0.5652 -0.5918
  281TMC3    C3 4240   4.180   0.294  12.837 -0.0260 -0.3813 -0.8773
  281TMC3    C4 4241   4.334   0.190  13.049  0.6927 -0.2638  0.4283
  281TMC3    C5 4242   4.327   0.127  12.929  0.3344 -0.7214  0.1662
  281TMC3    C6 4243   4.252   0.170  12.828 -0.2179 -0.6390 -0.1457
  281TMC3     C 4244   4.245   0.357  13.193 -0.2223  0.4653 -0.1021
  281TMC3     O 4245   4.289   0.287  13.286 -0.2238  0.4634  0.1256
  281TMC3     H 4246   4.146   0.460  12.962 -0.8309 -1.2045  1.7589
  281TMC3    H1 4247   4.402   0.158  13.127  0.3942  0.2174  0.8922
  281TMC3    H2 4248   4.261   0.121  12.732  1.2769 -0.2480 -0.1939
  281TMC3    C7 4249   4.331   4.703  12.931 -0.4206  0.3088  0.2326
  281TMC3    C8 4250   4.043   0.277  12.804 -0.1373 -0.7060  0.1911
  281TMC3    O1 4251   4.346   4.647  12.822  0.0848 -0.4003  0.0996
  281TMC3    O2 4252   3.964   0.354  12.855  0.1312  0.0229 -0.2058
  282MPD2     C 4253   1.622   1.895  15.177  0.2922  0.1422  0.3263
  282MPD2    C1 4254   1.505   1.960  15.207 -0.5499 -0.2156 -0.2818
  282MPD2    C2 4255   1.416   1.997  15.105 -0.3635 -0.0434 -0.5464
  282MPD2    C3 4256   1.452   1.967  14.978 -0.5611  0.0110  0.9497
  282MPD2    C4 4257   1.565   1.898  14.948 -0.2948 -0.2968  0.4154
  282MPD2    C5 4258   1.647   1.852  15.052 -0.2863  0.2319  0.0466
  282MPD2     H 4259   1.319   2.035  15.135 -0.7027 -0.4094 -1.1925
  282MPD2    H1 4260   1.604   1.871  14.850 -1.0221 -0.0377  0.0572
  282MPD2    H2 4261   1.701   1.860  15.244  0.0532 -1.1431 -0.0505
  282MPD2    H3 4262   1.733   1.797  15.015 -0.8643 -0.1859 -0.6838
  282MPD2     N 4263   1.355   2.003  14.877 -0.3650 -0.0514  0.0179
  282MPD2    H5 4264   1.268   2.046  14.908 -0.9539 -1.1418 -0.1273
  282MPD2    N1 4265   1.463   1.986  15.339 -0.0933  0.0925  0.0998
  282MPD2    H7 4266   1.382   2.045  15.350  0.2752  0.6049  0.0749
  283TMC3    C1 4267   1.470   1.988  15.570  0.5082 -0.1476  0.0985
  283TMC3    C2 4268   1.415   2.111  15.565 -0.3108  0.4911  0.4488
  283TMC3    C3 4269   1.336   2.147  15.673 -0.1330 -0.6068 -0.5203
  283TMC3    C4 4270   1.446   1.892  15.654  0.1979 -1.0067  0.8235
  283TMC3    C5 4271   1.365   1.930  15.757  0.4148  0.2322  0.1294
  283TMC3    C6 4272   1.316   2.055  15.774 -0.7774 -0.1805 -0.8828
  283TMC3     C 4273   1.529   1.940  15.448 -0.1443 -0.0629  0.9132
  283TMC3     O 4274   1.629   1.870  15.454  0.2042  0.1758 -0.4036
  283TMC3     H 4275   1.443   2.183  15.489 -2.8022  1.1517  0.1509
  283TMC3    H1 4276   1.493   1.796  15.636 -1.1588 -1.4841 -0.1865
  283TMC3    H2 4277   1.258   2.088  15.860  0.8600  0.4461 -0.0297
  283TMC3    C7 4278   1.311   1.833  15.848  0.7617  1.2401  0.2425
  283TMC3    C8 4279   1.340   2.289  15.720  0.0773 -0.7525  0.3522
  283TMC3    O1 4280   1.232   1.857  15.940  0.3240 -0.0073  0.2584
  283TMC3    O2 4281   1.313   2.313  15.838  0.4966 -0.0736  0.0094
  284MPD2     C 4282   3.916   1.125  11.567 -0.1255  0.5053 -0.0850
  284MPD2    C1 4283   4.033   1.064  11.519  0.2375  0.8368 -0.4978
  284MPD2    C2 4284   4.052   0.931  11.551  0.4871  0.7211  0.5697
  284MPD2    C3 4285   3.974   0.863  11.644  0.6391  0.5088 -0.5208
  284MPD2    C4 4286   3.860   0.933  11.691 -0.2941 -0.4899  0.7752
  284MPD2    C5 4287   3.829   1.058  11.644  0.0361 -0.4127 -0.5247
  284MPD2     H 4288   4.143   0.883  11.517  0.0894  0.8314 -0.6446
  284MPD2    H1 4289   3.783   0.881  11.747 -0.6124 -1.5366 -0.6263
  284MPD2    H2 4290   3.892   1.228  11.544  0.0036  0.3185 -1.0440
  284MPD2    H3 4291   3.735   1.096  11.682  1.1650  1.6433  0.2054
  284MPD2     N 4292   4.019   0.736  11.683 -0.1811 -0.4689  1.0290
  284MPD2    H5 4293   4.105   0.709  11.635  1.2811  1.2833  2.6191
  284MPD2    N1 4294   4.138   1.124  11.443 -0.4995  0.3903 -0.1256
  284MPD2    H7 4295   4.222   1.071  11.422 -1.3915 -0.0425 -2.6342
  285TMC3    C1 4296   4.257   1.285  11.316  0.3793 -0.4961  0.6662
  285TMC3    C2 4297   4.313   1.188  11.239  0.0948  0.4796  1.1245
  285TMC3    C3 4298   4.446   1.211  11.204 -0.4187 -0.0350 -0.0159
  285TMC3    C4 4299   4.306   1.400  11.349  0.4684 -0.1354  0.2168
  285TMC3    C5 4300   4.439   1.422  11.306  0.4769 -0.0556  0.7315
  285TMC3    C6 4301   4.512   1.327  11.235  0.7097 -0.6325 -0.6476
  285TMC3     C 4302   4.135   1.253  11.393 -0.2020  0.2489 -0.3527
  285TMC3     O 4303   4.052   1.338  11.420 -0.6715  0.5897  0.1844
  285TMC3     H 4304   4.255   1.101  11.211 -0.5384  1.0939  0.5064
  285TMC3    H1 4305   4.249   1.478  11.398  1.4276  0.4923  0.3383
  285TMC3    H2 4306   4.613   1.347  11.201  1.1111  0.1706  1.0194
  285TMC3    C7 4307   4.499   1.549  11.357 -0.1492 -0.4344 -0.0055
  285TMC3    C8 4308   4.512   1.105  11.129 -0.3352 -0.2748 -0.4480
  285TMC3    O1 4309   4.427   1.643  11.382 -0.2510 -0.0033  0.4909
  285TMC3    O2 4310   4.442   1.010  11.090 -0.0566 -0.1063 -0.4846
  286MPD2     C 4311   0.257   4.387   1.896 -0.1390 -0.7484  0.1649
  286MPD2    C1 4312   0.186   4.375   1.783  0.1757 -0.8604  0.3159
  286MPD2    C2 4313   0.218   4.271   1.700  0.1633 -0.0680  0.1436
  286MPD2    C3 4314   0.313   4.171   1.732 -0.1510 -0.8307  0.7808
  286MPD2    C4 4315   0.382   4.187   1.857  0.8351 -0.3702  0.2921
  286MPD2    C5 4316   0.354   4.295   1.930  0.5461  0.4197 -0.4066
  286MPD2     H 4317   0.172   4.275   1.602  0.8895  1.4970 -0.1216
  286MPD2    H1 4318   0.460   4.118   1.889  0.0143 -1.0099  0.9321
  286MPD2    H2 4319   0.246   4.469   1.966 -0.9151 -1.3926  0.7760
  286MPD2    H3 4320   0.406   4.312   2.023 -2.5815 -1.0730  1.6166
  286MPD2     N 4321   0.347   4.053   1.663  0.8740 -0.3999 -0.2363
  286MPD2    H5 4322   0.413   3.985   1.702 -0.7630 -1.2218  1.1100
  286MPD2    N1 4323   0.088   4.465   1.737  0.0276  0.1533 -0.2293
  286MPD2    H7 4324   0.046   4.443   1.648 -1.7811 -1.0057  0.9150
  287TMC3    C1 4325   0.347   3.885   1.498 -0.2212 -0.0147 -0.0127
  287TMC3    C2 4326   0.274   3.836   1.398  0.2207  0.6882  0.0567
  287TMC3    C3 4327   0.331   3.740   1.323 -0.8214 -1.1992 -0.4977
  287TMC3    C4 4328   0.470   3.843   1.525  0.0473 -0.7192  0.1477
  287TMC3    C5 4329   0.524   3.738   1.462 -0.4489  0.1578 -0.6959
  287TMC3    C6 4330   0.457   3.690   1.349  0.5899 -0.2420 -0.6923
  287TMC3     C 4331   0.299   4.016   1.548 -0.3932  0.2551  0.7122
  287TMC3     O 4332   0.209   4.073   1.489  0.1092 -0.0684 -0.4344
  287TMC3     H 4333   0.175   3.878   1.388 -0.7319 -1.2487  1.4959
  287TMC3    H1 4334   0.535   3.892   1.597  1.6540 -0.7159 -1.3279
  287TMC3    H2 4335   0.475   3.611   1.278  1.3419 -1.4250  0.8057
  287TMC3    C7 4336   0.651   3.680   1.506 -0.3141 -0.1746  0.0146
  287TMC3    C8 4337   0.249   3.687   1.211 -0.2070 -0.3929  0.4299
  287TMC3    O1 4338   0.694   3.707   1.612 -0.3558 -0.2428  0.9748
  287TMC3    O2 4339   0.283   3.575   1.169  0.9012  0.1970 -0.6339
  288TMC3    C1 4340   1.448   4.165  15.006 -0.1246 -0.2428 -0.0833
  288TMC3    C2 4341   1.345   4.091  15.061  0.3376  0.0040 -0.8297
  288TMC3    C3 4342   1.320   4.118  15.192  0.1010 -0.3140  0.2352
  288TMC3    C4 4343   1.530   4.250  15.077  0.4414 -0.5685  0.0984
  288TMC3    C5 4344   1.505   4.269  15.206  0.4574 -0.0019 -0.3619
  288TMC3    C6 4345   1.400   4.209  15.267 -0.3925 -0.5614  0.0940
  288TMC3     C 4346   1.461   4.201  14.872  1.0107  0.5973 -0.0383
  288TMC3     O 4347   1.493   4.321  14.858 -0.1497 -0.0155 -0.2011
  288TMC3     H 4348   1.273   4.039  14.998  1.0197 -2.7510  0.6564
  288TMC3    H1 4349   1.614   4.303  15.032  0.4990 -1.2473 -0.6001
  288TMC3    H2 4350   1.368   4.246  15.363  1.4283 -1.6628  1.1155
  288TMC3    C7 4351   1.572   4.382  15.270 -0.4502  0.5074 -0.0409
  288TMC3    C8 4352   1.224   4.036  15.261 -0.4731 -0.1017 -0.1849
  288TMC3    O1 4353   1.694   4.393  15.257 -0.2704 -0.6459 -0.0310
  288TMC3    O2 4354   1.178   3.938  15.206  0.0853  0.3734 -0.2331
  289MPD2     C 4355   1.966   3.668  14.852 -0.0869  0.3911  0.1387
  289MPD2    C1 4356   1.884   3.783  14.861  0.1631  0.0900  0.3759
  289MPD2    C2 4357   1.752   3.769  14.895 -0.4121 -0.0346 -0.1167
  289MPD2    C3 4358   1.702   3.643  14.909 -0.0015  0.0439 -0.0305
  289MPD2    C4 4359   1.777   3.532  14.894  0.2332 -0.6994 -0.1914
  289MPD2    C5 4360   1.911   3.549  14.861 -0.2075  0.8340  0.0488
  289MPD2     H 4361   1.696   3.862  14.898 -1.3916 -0.6321 -0.0779
  289MPD2    H1 4362   1.734   3.434  14.912 -0.4201 -0.0224  1.8673
  289MPD2    H2 4363   2.070   3.670  14.819 -0.5885 -0.4634 -1.4606
  289MPD2    H3 4364   1.987   3.471  14.857 -0.3971  0.5576  2.1252
  289MPD2     N 4365   1.563   3.613  14.924 -0.6289 -0.1718  0.0618
  289MPD2    H5 4366   1.534   3.518  14.940 -0.3766 -0.6272 -2.2248
  289MPD2    N1 4367   1.940   3.908  14.832 -0.1806 -0.8673  0.2096
  289MPD2    H7 4368   2.037   3.912  14.801  0.3512 -2.1003  1.7123
  290TMC3    C1 4369   1.332   3.643  14.930  0.7904  0.3430  0.5770
  290TMC3    C2 4370   1.270   3.665  14.814  0.1016  1.2630  0.3740
  290TMC3    C3 4371   1.176   3.579  14.769  0.2030 -0.1352 -0.4843
  290TMC3    C4 4372   1.306   3.545  15.019 -0.3416  0.3592  0.9183
  290TMC3    C5 4373   1.215   3.459  14.971 -0.4949  0.5821 -0.2797
  290TMC3    C6 4374   1.146   3.476  14.849  0.1877  0.4266 -0.2359
  290TMC3     C 4375   1.466   3.704  14.934 -0.4425  0.4632  0.7483
  290TMC3     O 4376   1.456   3.822  14.917 -0.0476  0.0672  0.1368
  290TMC3     H 4377   1.297   3.747  14.748  1.4785  0.4562 -0.0702
  290TMC3    H1 4378   1.357   3.530  15.113 -1.1159 -2.1560  0.9508
  290TMC3    H2 4379   1.057   3.424  14.815  0.2904  1.3590 -1.9803
  290TMC3    C7 4380   1.208   3.320  15.028 -0.6781  0.6403 -0.0331
  290TMC3    C8 4381   1.095   3.605  14.648  0.1138  0.1938 -0.7207
  290TMC3    O1 4382   1.167   3.302  15.139  0.5350 -0.0945 -0.0619
  290TMC3    O2 4383   1.007   3.521  14.619 -0.4240 -0.2503 -0.6178
  291MPD2     C 4384   0.251   3.475   0.564 -0.3574  0.0917  0.6672
  291MPD2    C1 4385   0.371   3.406   0.562  0.1788 -0.9723  0.6005
  291MPD2    C2 4386   0.492   3.468   0.512 -0.0215  0.0496  0.5485
  291MPD2    C3 4387   0.482   3.596   0.456  0.2216 -0.0198  0.7973
  291MPD2    C4 4388   0.355   3.657   0.454 -0.3858 -0.1331  0.9182
  291MPD2    C5 4389   0.246   3.599   0.510  0.6416 -0.8470 -0.6237
  291MPD2     H 4390   0.570   3.396   0.489  1.1983  1.8492 -0.9136
  291MPD2    H1 4391   0.335   3.752   0.406 -0.7143 -0.7613 -0.1965
  291MPD2    H2 4392   0.156   3.429   0.589 -0.5895  0.8514  1.1745
  291MPD2    H3 4393   0.150   3.646   0.490 -1.2948 -4.4908  0.2612
  291MPD2     N 4394   0.586   3.664   0.392  0.2594  0.5772  0.0925
  291MPD2    H5 4395   0.559   3.751   0.347  0.0538  0.8497  0.7531
  291MPD2    N1 4396   0.369   3.260   0.582 -0.3382  0.7707  0.1293
  291MPD2    H7 4397   0.461   3.219   0.569 -0.2839  0.6960  0.7758
  292TMC3    C1 4398   0.291   3.042   0.639  0.3834 -0.4388 -0.9481
  292TMC3    C2 4399   0.371   3.040   0.747  0.0293 -0.7597 -0.4040
  292TMC3    C3 4400   0.387   2.921   0.811  0.7705  0.0778  0.6911
  292TMC3    C4 4401   0.224   2.927   0.592 -0.1185 -0.4319 -0.5345
  292TMC3    C5 4402   0.240   2.806   0.662  0.3498  0.5052 -0.6345
  292TMC3    C6 4403   0.326   2.807   0.768  0.3852 -0.1045  0.4537
  292TMC3     C 4404   0.266   3.172   0.579 -0.1888  0.4889  0.3146
  292TMC3     O 4405   0.155   3.183   0.528  0.1319 -0.4344  0.1736
  292TMC3     H 4406   0.424   3.125   0.789  1.1834 -1.0054 -1.3590
  292TMC3    H1 4407   0.166   2.929   0.500 -1.1969 -0.2419  0.1542
  292TMC3    H2 4408   0.346   2.711   0.814 -2.1917 -1.2591 -0.8532
  292TMC3    C7 4409   0.221   2.681   0.594 -0.0363 -0.4245  0.1186
  292TMC3    C8 4410   0.468   2.913   0.936  0.4782  0.1240  0.5124
  292TMC3    O1 4411   0.290   2.581   0.613 -0.3573 -0.0948  0.0829
  292TMC3    O2 4412   0.564   2.993   0.947  0.3090 -0.4962  0.3974
  293MPD2     C 4413   2.539   0.175  12.606 -0.3670  0.0982  0.1447
  293MPD2    C1 4414   2.454   0.089  12.673 -0.4591 -0.0254 -0.0696
  293MPD2    C2 4415   2.479   0.057  12.803  0.0211  0.0052 -0.1858
  293MPD2    C3 4416   2.570   0.138  12.873  0.2343  0.9381  0.6991
  293MPD2    C4 4417   2.649   0.235  12.807 -0.1887 -0.8109 -0.9007
  293MPD2    C5 4418   2.632   0.251  12.671  0.4756  0.4572  0.9864
  293MPD2     H 4419   2.418   4.714  12.864  0.3205  0.8301  1.0194
  293MPD2    H1 4420   2.732   0.286  12.853 -0.9976  2.1205 -2.6795
  293MPD2    H2 4421   2.520   0.211  12.505 -1.7260  1.3277  0.8424
  293MPD2    H3 4422   2.691   0.329  12.625  2.3249 -0.6386  1.5062
  293MPD2     N 4423   2.584   0.120  13.008  0.0311  0.2218  0.1676
  293MPD2    H5 4424   2.540   0.037  13.049  2.4292 -1.6081 -0.9640
  293MPD2    N1 4425   2.358   0.045  12.582 -0.1898  0.5149  0.3972
  293MPD2    H7 4426   2.375   0.080  12.488  1.8477 -0.0900  0.5370
  294TMC3    C1 4427   2.160   4.691  12.491  0.5454  0.5579  0.6361
  294TMC3    C2 4428   2.110   4.566  12.464 -0.1787 -0.4863  0.3411
  294TMC3    C3 4429   2.063   4.543  12.340 -0.2803 -0.0866  0.5843
  294TMC3    C4 4430   2.162   0.071  12.394 -0.0669 -0.1121  0.5742
  294TMC3    C5 4431   2.118   0.043  12.270 -0.0310  0.7664  0.0536
  294TMC3    C6 4432   2.066   4.637  12.239 -0.6701 -0.0203 -0.1306
  294TMC3     C 4433   2.247   4.695  12.606  0.2779  0.9893  0.5227
  294TMC3     O 4434   2.214   4.627  12.707  0.8292 -0.2418  0.0557
  294TMC3     H 4435   2.122   4.492  12.543 -1.9960  0.4009  1.4578
  294TMC3    H1 4436   2.196   0.172  12.414 -1.1288 -0.0787  2.2784
  294TMC3    H2 4437   2.027   4.625  12.139 -1.0618  0.1670  0.0001
  294TMC3    C7 4438   2.106   0.156  12.175  0.1284  0.8841 -0.0967
  294TMC3    C8 4439   1.978   4.424  12.328 -0.2542  0.0021 -0.3843
  294TMC3    O1 4440   2.107   0.264  12.234 -0.6465  0.1759 -0.0874
  294TMC3    O2 4441   1.951   4.369  12.436 -0.0636 -0.6337 -0.1531
  295MPD2     C 4442   3.509   3.247   0.873  0.6959 -0.3154  0.5103
  295MPD2    C1 4443   3.473   3.154   0.776 -0.3155 -0.4334 -1.2745
  295MPD2    C2 4444   3.503   3.024   0.804 -0.0122 -0.6659  0.4624
  295MPD2    C3 4445   3.575   2.982   0.914 -0.3075 -0.4940 -0.2511
  295MPD2    C4 4446   3.601   3.075   1.008  0.1990 -0.2139  1.1513
  295MPD2    C5 4447   3.574   3.207   0.989  0.0364 -0.0422  0.5550
  295MPD2     H 4448   3.476   2.948   0.732  1.2855 -0.5520 -0.1506
  295MPD2    H1 4449   3.662   3.039   1.090 -1.5865 -0.9093  2.1535
  295MPD2    H2 4450   3.489   3.354   0.871 -1.0191 -0.6584 -1.5739
  295MPD2    H3 4451   3.589   3.280   1.068  2.8372 -1.9485  1.7960
  295MPD2     N 4452   3.609   2.847   0.947  0.7480  0.2061  0.3013
  295MPD2    H5 4453   3.649   2.831   1.039 -0.0356  0.9674  0.7667
  295MPD2    N1 4454   3.402   3.185   0.654 -0.1541  0.4793  0.2430
  295MPD2    H7 4455   3.385   3.103   0.596  0.6910  0.2300  0.3510
  296TMC3    C1 4456   3.636   2.621   0.906 -0.2157 -0.0218  0.4661
  296TMC3    C2 4457   3.576   2.577   1.024  0.0019 -0.0152  0.1587
  296TMC3    C3 4458   3.594   2.450   1.061  0.4198  0.3150 -0.5333
  296TMC3    C4 4459   3.679   2.533   0.813  0.0528 -0.2838 -0.1463
  296TMC3    C5 4460   3.690   2.404   0.850 -0.0211  0.0977 -0.2317
  296TMC3    C6 4461   3.651   2.355   0.973 -0.9024 -0.3982 -0.0752
  296TMC3     C 4462   3.606   2.753   0.849 -0.0690  0.2387 -0.6478
  296TMC3     O 4463   3.631   2.767   0.732 -0.1862  0.2385  0.0914
  296TMC3     H 4464   3.543   2.654   1.092 -0.8180 -0.5823  0.3946
  296TMC3    H1 4465   3.722   2.564   0.719  0.7570  1.8012  0.8602
  296TMC3    H2 4466   3.673   2.255   1.008  2.2037  0.0931 -0.6683
  296TMC3    C7 4467   3.714   2.314   0.736 -0.3538  0.4604 -0.4513
  296TMC3    C8 4468   3.571   2.398   1.199  0.7306 -0.5824  0.0865
  296TMC3    O1 4469   3.762   2.358   0.629  0.6546  0.4413 -1.1315
  296TMC3    O2 4470   3.569   2.279   1.199  0.0017  0.2572 -0.1200
  297MPD2     C 4471   0.675   0.229  16.617  0.4530  0.2801 -0.0277
  297MPD2    C1 4472   0.613   0.347  16.666 -0.6751  0.1392 -0.1043
  297MPD2    C2 4473   0.687   0.462  16.661  0.6874  0.2649  0.4229
  297MPD2    C3 4474   0.819   0.463  16.612 -0.1495  0.0956  0.6034
  297MPD2    C4 4475   0.877   0.348  16.563 -0.2471  0.8549  0.2266
  297MPD2    C5 4476   0.802   0.229  16.563 -0.3587 -0.4802  0.0545
  297MPD2     H 4477   0.643   0.557  16.689  0.7237  1.3957 -3.3224
  297MPD2    H1 4478   0.971   0.351  16.508  0.4188  1.5606  1.4147
  297MPD2    H2 4479   0.619   0.136  16.612 -1.9611  1.6056  2.5549
  297MPD2    H3 4480   0.830   0.137  16.514  0.2469 -0.4697  0.3809
  297MPD2     N 4481   0.892   0.584  16.595  0.1733  0.0719 -0.4018
  297MPD2    H5 4482   0.980   0.577  16.545  0.4834  1.3142 -0.0296
  297MPD2    N1 4483   0.486   0.359  16.728 -0.2797  0.1917  0.1619
  297MPD2    H7 4484   0.442   0.450  16.739  0.0394  0.4023 -0.3035
  298TMC3    C1 4485   0.264   0.292  16.740  0.4071 -0.0393 -0.2140
  298TMC3    C2 4486   0.188   0.208  16.669  0.2986 -0.5850 -0.8657
  298TMC3    C3 4487   0.055   0.245  16.645  0.2896 -0.3235 -0.4342
  298TMC3    C4 4488   0.217   0.399  16.813 -0.4802  0.2490 -0.2264
  298TMC3    C5 4489   0.082   0.421  16.801  0.2811  0.5218 -0.2040
  298TMC3    C6 4490   4.721   0.346  16.716  0.1591 -0.4080 -0.6080
  298TMC3     C 4491   0.401   0.249  16.740 -0.1017 -0.6193 -0.0882
  298TMC3     O 4492   0.429   0.128  16.748  0.3994  0.5188  0.0168
  298TMC3     H 4493   0.224   0.119  16.617  0.6419 -0.0099 -1.6042
  298TMC3    H1 4494   0.279   0.458  16.879  0.8954  0.5868 -1.8202
  298TMC3    H2 4495   4.614   0.363  16.711  0.1493  0.1794  1.4222
  298TMC3    C7 4496   0.029   0.543  16.854 -0.4053  0.8224 -0.0443
  298TMC3    C8 4497   4.717   0.217  16.516  0.9739 -0.1478  0.6997
  298TMC3    O1 4498   0.098   0.602  16.933 -0.2832 -0.1110 -0.4614
  298TMC3    O2 4499   4.603   0.254  16.497  0.0624 -0.2711 -0.1066
  299MPD2     C 4500   1.333   0.111  10.410 -0.0385 -0.4063 -1.3768
  299MPD2    C1 4501   1.285   0.223  10.348  0.8063 -0.2464  0.2163
  299MPD2    C2 4502   1.177   0.210  10.263  0.2988  0.5361 -0.0849
  299MPD2    C3 4503   1.113   0.086  10.245 -0.6949  0.2942  0.4132
  299MPD2    C4 4504   1.166   4.698  10.304 -0.0431 -0.3674 -0.8284
  299MPD2    C5 4505   1.276   4.709  10.383  0.1616  0.4335  0.6111
  299MPD2     H 4506   1.130   0.301  10.227 -0.6787  0.1480  0.2082
  299MPD2    H1 4507   1.125   4.601  10.279 -1.4200  0.0157 -0.0846
  299MPD2    H2 4508   1.420   0.103  10.474 -0.6435  1.1242 -0.3567
  299MPD2    H3 4509   1.319   4.619  10.426 -0.0445 -0.0551 -0.2022
  299MPD2     N 4510   1.006   0.070  10.160 -0.2148 -0.2927  0.0123
  299MPD2    H5 4511   0.961   4.702  10.164  3.2761 -2.0191  0.3701
  299MPD2    N1 4512   1.339   0.350  10.391  0.1175  0.6730 -0.2047
  299MPD2    H7 4513   1.408   0.358  10.465  1.2301 -4.1785 -0.7263
  300TMC3    C1 4514   0.809   0.153  10.033  0.2339  0.8095 -0.9248
  300TMC3    C2 4515   0.761   0.282   9.992 -0.9838 -0.1745  0.4264
  300TMC3    C3 4516   0.629   0.303  10.002  0.4640  0.2420  0.4858
  300TMC3    C4 4517   0.729   0.068  10.103  0.1642  0.3907  0.9206
  300TMC3    C5 4518   0.595   0.094  10.106 -0.4897  0.0285 -0.7482
  300TMC3    C6 4519   0.536   0.210  10.057  0.0444  0.5029 -0.4789
  300TMC3     C 4520   0.946   0.173  10.085  0.5706 -0.1227 -0.2350
  300TMC3     O 4521   0.998   0.280  10.057 -0.6764 -0.0720 -0.2329
  300TMC3     H 4522   0.830   0.353   9.947  1.0584 -2.2776  0.2063
  300TMC3    H1 4523   0.772   4.699  10.144  1.2609  0.0552 -0.9682
  300TMC3    H2 4524   0.428   0.225  10.058 -0.4639 -3.0489 -0.5796
  300TMC3    C7 4525   0.520   4.720  10.189 -0.1373  1.0044 -0.4153
  300TMC3    C8 4526   0.597   0.442   9.981  0.2669 -0.5160  0.9194
  300TMC3    O1 4527   0.557   4.603  10.192  0.0741 -0.0323 -0.6009
  300TMC3    O2 4528   0.685   0.526   9.971 -0.3479 -0.1767  0.2529
  301MPD2     C 4529   3.348   1.719   0.367 -0.5355 -1.0621  0.5107
  301MPD2    C1 4530   3.232   1.667   0.419  0.1443  0.4681  0.6347
  301MPD2    C2 4531   3.187   1.544   0.369  0.3631  0.7865  0.0858
  301MPD2    C3 4532   3.247   1.484   0.259  0.5245 -0.3035 -0.1232
  301MPD2    C4 4533   3.367   1.534   0.218 -0.6070 -0.0207  0.5196
  301MPD2    C5 4534   3.422   1.645   0.277  1.1278  0.4296  0.1283
  301MPD2     H 4535   3.094   1.500   0.402  0.6265 -0.2132 -0.4919
  301MPD2    H1 4536   3.431   1.468   0.160 -1.6298  1.2049 -1.9806
  301MPD2    H2 4537   3.399   1.804   0.411 -1.6131 -1.1881  2.0133
  301MPD2    H3 4538   3.524   1.675   0.254  1.2368 -1.4634 -1.7549
  301MPD2     N 4539   3.198   1.361   0.205  0.7223 -0.1157  0.4216
  301MPD2    H5 4540   3.261   1.313   0.141 -0.0738 -0.2543 -0.2554
  301MPD2    N1 4541   3.164   1.735   0.526  0.1941  0.1631  0.1279
  301MPD2    H7 4542   3.077   1.690   0.555 -0.3796  2.1956  1.5638
  302TMC3    C1 4543   3.040   1.192   0.170  0.1304  0.1820  0.0984
  302TMC3    C2 4544   3.127   1.088   0.170  0.0428  0.4300  0.1540
  302TMC3    C3 4545   3.094   0.958   0.137  1.1723  0.3847  0.1177
  302TMC3    C4 4546   2.910   1.170   0.136 -0.7273 -0.1291 -0.2632
  302TMC3    C5 4547   2.881   1.040   0.088  0.3333 -0.3798  0.0099
  302TMC3    C6 4548   2.969   0.932   0.095  0.3142  0.5512  0.1836
  302TMC3     C 4549   3.070   1.317   0.224  0.1154  0.5258 -0.2586
  302TMC3     O 4550   2.973   1.368   0.281 -0.0582 -0.1453  0.5647
  302TMC3     H 4551   3.229   1.106   0.203 -0.2524 -0.3713  1.4760
  302TMC3    H1 4552   2.841   1.254   0.134  1.2343  1.4669 -0.6507
  302TMC3    H2 4553   2.933   0.832   0.074 -2.7677  1.2916  1.9748
  302TMC3    C7 4554   2.747   1.000   0.099 -0.1668 -0.6119 -0.0405
  302TMC3    C8 4555   3.156   0.861   0.223  0.1727  0.1360  0.1196
  302TMC3    O1 4556   2.708   0.904   0.033 -0.4894  0.2268  0.2052
  302TMC3    O2 4557   3.279   0.872   0.231  0.4081 -0.5144  0.3079
  303MPD2     C 4558   2.409   0.329  10.777 -0.4956  0.0913 -0.0095
  303MPD2    C1 4559   2.465   0.213  10.732 -0.0299  0.3167 -0.4075
  303MPD2    C2 4560   2.504   0.204  10.596  0.0433 -0.2203  0.6944
  303MPD2    C3 4561   2.462   0.304  10.504 -0.4749  0.4034 -0.4159
  303MPD2    C4 4562   2.397   0.413  10.555  0.2759  0.1666  0.1134
  303MPD2    C5 4563   2.374   0.429  10.688  0.8786  1.7783 -0.1237
  303MPD2     H 4564   2.565   0.119  10.567 -1.0577  0.0630 -2.3854
  303MPD2    H1 4565   2.353   0.490  10.492  0.9370  1.9030  1.7783
  303MPD2    H2 4566   2.383   0.343  10.882 -0.4353 -1.6589  0.2451
  303MPD2    H3 4567   2.325   0.518  10.726 -1.2282  2.2808 -4.0594
  303MPD2     N 4568   2.462   0.300  10.364  0.4094 -0.0598  0.7081
  303MPD2    H5 4569   2.430   0.385  10.319  1.9741 -1.0676 -2.3508
  303MPD2    N1 4570   2.487   0.114  10.828 -0.0050 -0.0938  0.0671
  303MPD2    H7 4571   2.434   0.124  10.914  0.2690  0.5453  0.1614
  304TMC3    C1 4572   2.578   4.633  10.925  0.2142 -0.2480 -0.3132
  304TMC3    C2 4573   2.463   4.561  10.935  0.2437 -0.1078 -0.1495
  304TMC3    C3 4574   2.459   4.424  10.933 -1.3118  0.2620  0.5683
  304TMC3    C4 4575   2.698   4.573  10.940 -0.5167  0.6330 -0.4114
  304TMC3    C5 4576   2.696   4.433  10.950 -0.1837  0.1435 -0.8581
  304TMC3    C6 4577   2.578   4.359  10.955 -0.1649  0.1232  0.5911
  304TMC3     C 4578   2.575   0.008  10.817  0.1111  0.1525  0.2428
  304TMC3     O 4579   2.662   4.716  10.732  0.2782 -0.1438  0.0620
  304TMC3     H 4580   2.374   4.616  10.908  1.1409 -0.1954 -3.3598
  304TMC3    H1 4581   2.790   4.628  10.923  0.8758 -1.4674  0.3604
  304TMC3    H2 4582   2.575   4.252  10.972 -0.0891  0.0278 -0.0174
  304TMC3    C7 4583   2.793   4.355  10.880 -0.0877  0.2229  0.4032
  304TMC3    C8 4584   2.395   4.386  10.813 -0.0556  0.0823 -0.0252
  304TMC3    O1 4585   2.759   4.244  10.847  0.3046 -0.3551 -0.1026
  304TMC3    O2 4586   2.301   4.453  10.768 -0.3441 -0.3594 -0.6501
  305MPD2     C 4587   1.521   2.156  13.756  0.0437  0.2331 -0.5724
  305MPD2    C1 4588   1.458   2.035  13.778 -0.0335  0.1393  0.3691
  305MPD2    C2 4589   1.402   1.970  13.670 -0.3585 -0.7524  0.1793
  305MPD2    C3 4590   1.416   2.015  13.536  0.2670  0.6780  0.2109
  305MPD2    C4 4591   1.484   2.132  13.513  0.1118  0.1759 -0.2636
  305MPD2    C5 4592   1.533   2.198  13.620 -0.5539  0.1805  0.4202
  305MPD2     H 4593   1.348   1.878  13.691 -1.6030 -0.3705 -1.3384
  305MPD2    H1 4594   1.488   2.180  13.416 -0.0848 -2.3182 -1.4913
  305MPD2    H2 4595   1.559   2.220  13.834  3.4907 -0.0234 -2.0293
  305MPD2    H3 4596   1.589   2.289  13.607  2.4713 -1.6969  0.3380
  305MPD2     N 4597   1.361   1.945  13.420 -0.0908 -0.3567 -0.3424
  305MPD2    H5 4598   1.380   1.993  13.333  3.2393 -1.4555 -0.2339
  305MPD2    N1 4599   1.427   2.008  13.916  0.3022  0.1129  0.1297
  305MPD2    H7 4600   1.485   2.059  13.982  0.1789  0.9439 -0.4040
  306TMC3    C1 4601   1.336   1.925  14.118 -0.0271 -0.1474 -0.3252
  306TMC3    C2 4602   1.369   1.800  14.163 -0.9843 -0.2699 -0.8046
  306TMC3    C3 4603   1.440   1.796  14.277 -0.3758 -0.2472 -0.0924
  306TMC3    C4 4604   1.381   2.038  14.181  0.1817 -0.6244  0.4573
  306TMC3    C5 4605   1.458   2.028  14.292 -0.6232  0.6357 -0.1442
  306TMC3    C6 4606   1.486   1.905  14.347 -0.2289  0.4792  0.2778
  306TMC3     C 4607   1.335   1.921  13.974 -0.1677 -0.2954 -0.4457
  306TMC3     O 4608   1.281   1.828  13.917  0.1827  0.0181  0.0830
  306TMC3     H 4609   1.353   1.707  14.109 -0.7761 -0.5095 -0.4546
  306TMC3    H1 4610   1.350   2.137  14.150  2.6293  0.1637  0.4739
  306TMC3    H2 4611   1.530   1.879  14.443 -1.2492 -0.7324  0.4245
  306TMC3    C7 4612   1.470   2.146  14.372 -0.0294 -0.3234 -0.6300
  306TMC3    C8 4613   1.477   1.663  14.336 -0.0873 -0.4286 -0.4409
  306TMC3    O1 4614   1.427   2.253  14.331  0.0665 -0.7761 -0.2336
  306TMC3    O2 4615   1.595   1.640  14.360  0.4351 -0.1420 -0.0873
  307MPD2     C 4616   3.825   3.983   0.461 -0.5599  0.4085 -0.0924
  307MPD2    C1 4617   3.774   4.108   0.439 -0.2387  0.5405  1.2078
  307MPD2    C2 4618   3.642   4.137   0.469 -0.7344  0.1715  0.0443
  307MPD2    C3 4619   3.564   4.051   0.532  0.5471  0.4819  0.2523
  307MPD2    C4 4620   3.613   3.926   0.560 -1.2477 -0.8256  0.0373
  307MPD2    C5 4621   3.741   3.898   0.528  0.1204  0.1097 -0.2908
  307MPD2     H 4622   3.612   4.239   0.450  1.4713  0.5701 -1.2720
  307MPD2    H1 4623   3.557   3.848   0.609 -0.3495 -0.6020  1.4119
  307MPD2    H2 4624   3.916   3.941   0.420  0.3669  1.8505  0.5189
  307MPD2    H3 4625   3.775   3.796   0.541  0.7336  0.4670  0.8783
  307MPD2     N 4626   3.438   4.096   0.561 -1.2468  0.2319  0.2728
  307MPD2    H5 4627   3.418   4.195   0.571 -0.6700  0.3751  0.0038
  307MPD2    N1 4628   3.840   4.212   0.366  0.0444  0.4561 -0.4334
  307MPD2    H7 4629   3.786   4.291   0.330 -1.5173 -0.1613  0.5570
  308TMC3    C1 4630   3.044   4.196   0.552  0.3542  0.1692  0.2570
  308TMC3    C2 4631   3.073   4.303   0.629  0.8237 -0.3072 -0.0616
  308TMC3    C3 4632   3.179   4.306   0.707 -0.6774 -0.1842 -0.0483
  308TMC3    C4 4633   3.110   4.077   0.559  0.4604  0.2030  0.1835
  308TMC3    C5 4634   3.223   4.084   0.633  0.1346 -1.0339 -0.3867
  308TMC3    C6 4635   3.259   4.191   0.709 -0.2015  0.8596 -0.3841
  308TMC3     C 4636   2.957   4.210   0.437 -0.5533  0.1114  0.7994
  308TMC3     O 4637   2.916   4.107   0.383  0.1028 -0.4922 -0.4197
  308TMC3     H 4638   3.002   4.385   0.626 -0.6159 -1.5757 -0.8690
  308TMC3    H1 4639   3.092   3.994   0.492  2.0163 -0.4154  0.5221
  308TMC3    H2 4640   3.350   4.197   0.768  0.4157 -0.6279 -1.2038
  308TMC3    C7 4641   3.336   4.010   0.585  0.5691 -0.1163 -0.3871
  308TMC3    C8 4642   3.224   4.421   0.784 -0.0064 -0.5777 -0.6698
  308TMC3    O1 4643   3.338   3.891   0.566  0.8002 -0.4101 -0.4556
  308TMC3    O2 4644   3.289   4.392   0.882  0.3520 -0.1774 -0.1326
  309MPD2     C 4645   3.166   0.637  17.134 -0.7454  0.0690  0.1169
  309MPD2    C1 4646   3.149   0.645  16.995 -0.2453 -0.4057 -0.0024
  309MPD2    C2 4647   3.025   0.629  16.939  0.3452 -0.0627 -0.7210
  309MPD2    C3 4648   2.919   0.610  17.024  0.3552  0.5817 -0.5173
  309MPD2    C4 4649   2.938   0.600  17.160  1.0474  0.0276 -0.0172
  309MPD2    C5 4650   3.062   0.602  17.214 -0.2424 -0.1948  0.2742
  309MPD2     H 4651   3.010   0.634  16.832  1.0524  0.3275 -0.7998
  309MPD2    H1 4652   2.862   0.564  17.228 -0.4078  3.1036 -0.0102
  309MPD2    H2 4653   3.271   0.638  17.160 -0.4374  1.9805 -1.2144
  309MPD2    H3 4654   3.076   0.564  17.315  2.0752 -2.9153 -1.0718
  309MPD2     N 4655   2.782   0.617  16.984  0.3238  0.0122 -0.7539
  309MPD2    H5 4656   2.715   0.630  17.060  1.1425  0.4437 -0.1090
  309MPD2    N1 4657   3.250   0.673  16.901  0.3865 -0.3314  0.3235
  309MPD2    H7 4658   3.224   0.656  16.804  0.9724 -0.1428  0.1320
  310TMC3    C1 4659   3.434   0.744  16.803 -0.0638  0.8305 -0.5892
  310TMC3    C2 4660   3.351   0.798  16.707 -0.5536 -0.5676 -0.0735
  310TMC3    C3 4661   3.376   0.769  16.573 -0.2937 -0.9232  0.1285
  310TMC3    C4 4662   3.544   0.681  16.766 -0.2142 -0.5580  0.0755
  310TMC3    C5 4663   3.567   0.648  16.634  0.4382  0.1007 -0.3241
  310TMC3    C6 4664   3.477   0.685  16.537  0.2232  0.6575 -1.0796
  310TMC3     C 4665   3.377   0.703  16.928 -0.0120  0.1109  0.3463
  310TMC3     O 4666   3.444   0.715  17.031  0.2564 -0.0969  0.1058
  310TMC3     H 4667   3.272   0.871  16.722  0.4546 -0.1951  3.5018
  310TMC3    H1 4668   3.612   0.643  16.841  0.3401  0.9919  0.3538
  310TMC3    H2 4669   3.474   0.645  16.436 -0.7086  2.0310 -1.5931
  310TMC3    C7 4670   3.653   0.535  16.612  0.3724  0.5014 -0.1519
  310TMC3    C8 4671   3.302   0.846  16.474  0.0988 -0.0749  0.4333
  310TMC3    O1 4672   3.703   0.476  16.708  0.0990  0.2332  0.1539
  310TMC3    O2 4673   3.189   0.867  16.510 -0.2182 -0.2722 -0.1846
  311MPD2     C 4674   0.399   1.435  12.620  0.2216 -0.2564  0.0512
  311MPD2    C1 4675   0.383   1.569  12.668 -0.0984 -0.6209 -0.6388
  311MPD2    C2 4676   0.285   1.590  12.756  0.5545 -0.0204 -0.5448
  311MPD2    C3 4677   0.195   1.496  12.796 -0.1863  0.6023  0.0602
  311MPD2    C4 4678   0.214   1.370  12.751  0.5423  1.6209  0.5720
  311MPD2    C5 4679   0.320   1.342  12.671 -0.0443 -1.1539  0.2129
  311MPD2     H 4680   0.275   1.690  12.797  2.1572 -0.9996  2.2798
  311MPD2    H1 4681   0.150   1.287  12.780 -0.2075  1.9346 -0.2013
  311MPD2    H2 4682   0.479   1.409  12.551 -0.2244 -1.5874  0.0477
  311MPD2    H3 4683   0.328   1.242  12.630 -0.6289 -0.4761 -1.5711
  311MPD2     N 4684   0.077   1.525  12.864  0.0983  0.0460  0.4397
  311MPD2    H5 4685   0.032   1.440  12.897  1.9287 -0.0236  2.6821
  311MPD2    N1 4686   0.470   1.673  12.631 -0.4853 -0.3081  0.6957
  311MPD2    H7 4687   0.444   1.766  12.660 -1.0972 -0.4742  0.6853
  312TMC3    C1 4688   4.622   1.642  12.949 -1.0137 -0.7674  0.0697
  312TMC3    C2 4689   4.530   1.557  12.886  0.7922  0.4157 -0.2126
  312TMC3    C3 4690   4.416   1.525  12.952  0.0798  0.4148 -0.3221
  312TMC3    C4 4691   4.603   1.698  13.067  0.3513 -0.4849  0.2338
  312TMC3    C5 4692   4.494   1.661  13.132  0.0243 -0.3868  0.1204
  312TMC3    C6 4693   4.405   1.575  13.077  0.3201  0.2940 -0.6964
  312TMC3     C 4694   0.035   1.649  12.903  0.4211  0.3980  0.2388
  312TMC3     O 4695   0.099   1.753  12.928 -0.2056 -0.0437  0.1496
  312TMC3     H 4696   4.557   1.519  12.788  0.0802  1.0486 -0.6513
  312TMC3    H1 4697   4.687   1.753  13.108  0.3926  1.1800 -2.1118
  312TMC3    H2 4698   4.322   1.542  13.139  1.4786 -1.3300 -0.0319
  312TMC3    C7 4699   4.457   1.740  13.251 -0.4667 -0.0452 -0.5413
  312TMC3    C8 4700   4.300   1.476  12.882 -0.0773 -0.2175 -0.1340
  312TMC3    O1 4701   4.338   1.776  13.265 -0.3382 -0.3168 -0.0823
  312TMC3    O2 4702   4.198   1.445  12.941 -0.1276  0.0755 -0.6302
  313MPD2     C 4703   3.975   0.834  10.466  0.1794 -0.5060 -0.4590
  313MPD2    C1 4704   3.940   0.864  10.597 -0.7870  0.4802  0.6995
  313MPD2    C2 4705   3.844   0.784  10.650 -0.1231 -0.5721  0.4836
  313MPD2    C3 4706   3.787   0.679  10.584 -0.2869  0.2034 -0.0098
  313MPD2    C4 4707   3.831   0.644  10.459  0.6564  0.4518  0.0656
  313MPD2    C5 4708   3.923   0.726  10.397  0.0987 -0.5776 -0.1893
  313MPD2     H 4709   3.806   0.807  10.748 -0.4477  0.5923  0.0751
  313MPD2    H1 4710   3.786   0.561  10.407  0.1840  0.8457 -0.1547
  313MPD2    H2 4711   4.041   0.899  10.409 -4.4445  0.5280 -4.6391
  313MPD2    H3 4712   3.984   0.704  10.310  0.3606 -2.4051  0.4481
  313MPD2     N 4713   3.694   0.605  10.657  0.0107 -0.2017 -0.8771
  313MPD2    H5 4714   3.662   0.642  10.746 -0.1663 -0.6198 -0.7626
  313MPD2    N1 4715   3.980   0.983  10.667  0.3181  0.0475 -0.0052
  313MPD2    H7 4716   3.911   1.020  10.733 -1.4046 -0.5031 -1.4812
  314TMC3    C1 4717   4.077   1.177  10.720  0.0504  0.3088  0.1784
  314TMC3    C2 4718   4.197   1.222  10.765 -0.3325  0.2828  0.5221
  314TMC3    C3 4719   4.219   1.353  10.803 -0.2798 -0.0353 -0.2692
  314TMC3    C4 4720   3.972   1.261  10.701  0.4044 -0.2346 -0.0960
  314TMC3    C5 4721   4.001   1.393  10.723 -0.4006  0.2139 -0.3332
  314TMC3    C6 4722   4.117   1.435  10.782  0.9521  0.2833 -0.1144
  314TMC3     C 4723   4.085   1.058  10.638  0.0796  1.0031  0.0886
  314TMC3     O 4724   4.187   1.022  10.580 -0.2793  0.2566  0.0366
  314TMC3     H 4725   4.268   1.142  10.781  1.5474  1.9451  0.5814
  314TMC3    H1 4726   3.880   1.214  10.670  0.1030  0.9085 -0.9255
  314TMC3    H2 4727   4.126   1.543  10.790  0.6657  0.1958  1.3764
  314TMC3    C7 4728   3.934   1.483  10.631  0.3432 -0.0870  0.4648
  314TMC3    C8 4729   4.324   1.385  10.899  0.3466 -0.6866  1.1725
  314TMC3    O1 4730   3.997   1.567  10.567  0.7204 -0.2466  0.2136
  314TMC3    O2 4731   4.288   1.463  10.985 -0.1168  0.4957 -0.1972
  315MPD2     C 4732   4.109   0.302   0.470  0.2662  0.3892  0.4829
  315MPD2    C1 4733   4.237   0.258   0.455 -0.4628  0.2720  0.1258
  315MPD2    C2 4734   4.337   0.356   0.447 -0.4268 -0.2081 -0.2502
  315MPD2    C3 4735   4.313   0.493   0.452  0.1219 -0.0433  0.0214
  315MPD2    C4 4736   4.181   0.526   0.466  0.1700  0.2358  0.1860
  315MPD2    C5 4737   4.084   0.433   0.461  1.2974  0.3729  0.5004
  315MPD2     H 4738   4.443   0.330   0.445 -0.2475  0.7270 -2.3779
  315MPD2    H1 4739   4.154   0.631   0.472  1.5516  0.5790  0.5664
  315MPD2    H2 4740   4.019   0.242   0.469 -0.4023  1.3942  1.7097
  315MPD2    H3 4741   3.980   0.464   0.465  0.0244 -3.8566  0.3525
  315MPD2     N 4742   4.420   0.582   0.448  0.0686  0.4047 -0.2449
  315MPD2    H5 4743   4.512   0.540   0.450 -0.4989 -0.7580  1.7228
  315MPD2    N1 4744   4.270   0.123   0.469 -0.4745 -0.0111 -0.2586
  315MPD2    H7 4745   4.370   0.122   0.452 -0.2588 -1.1770  1.0942
  316TMC3    C1 4746   4.523   0.788   0.461 -0.4159  0.3968  0.1325
  316TMC3    C2 4747   4.603   0.743   0.564  0.3414 -1.2177  0.0075
  316TMC3    C3 4748   4.709   0.819   0.599 -0.2776 -0.4824 -0.2918
  316TMC3    C4 4749   4.527   0.916   0.415 -0.0036  0.3615 -0.7233
  316TMC3    C5 4750   4.650   0.982   0.446  0.0035  0.3942 -0.7604
  316TMC3    C6 4751   0.017   0.938   0.538 -0.6199 -0.4088 -0.2749
  316TMC3     C 4752   4.399   0.713   0.441 -0.1969 -0.7114  0.4663
  316TMC3     O 4753   4.298   0.775   0.410 -0.2100  0.1673 -0.3797
  316TMC3     H 4754   4.583   0.657   0.627 -0.9090  0.8549  2.4526
  316TMC3    H1 4755   4.456   0.955   0.344 -0.1348  0.8166 -0.3389
  316TMC3    H2 4756   0.113   0.983   0.560  0.4500 -2.2602 -1.0885
  316TMC3    C7 4757   4.651   1.119   0.415  0.7284 -0.1973  0.0278
  316TMC3    C8 4758   0.076   0.768   0.702  0.8280  0.1076 -0.3969
  316TMC3    O1 4759   4.691   1.201   0.499  0.6899  0.3638  1.0502
  316TMC3    O2 4760   0.119   0.848   0.785 -0.0900  0.1714 -0.3810
  317MPD2     C 4761   1.417   3.714  12.862  0.0570 -0.1135 -0.1419
  317MPD2    C1 4762   1.448   3.609  12.775  0.2142  0.1226  0.3193
  317MPD2    C2 4763   1.562   3.550  12.798  0.6216  0.1632 -0.0259
  317MPD2    C3 4764   1.647   3.574  12.909  0.4463 -0.4480 -0.5935
  317MPD2    C4 4765   1.603   3.658  12.997 -0.5147 -0.2772 -0.3946
  317MPD2    C5 4766   1.484   3.724  12.979 -0.6241 -0.0425  0.1844
  317MPD2     H 4767   1.588   3.476  12.723  0.5862  1.4541 -1.3214
  317MPD2    H1 4768   1.653   3.675  13.092 -2.3940 -0.6311  0.6697
  317MPD2    H2 4769   1.323   3.768  12.864  0.7916  1.1220  0.8279
  317MPD2    H3 4770   1.463   3.793  13.060  0.9256  1.4066 -0.6402
  317MPD2     N 4771   1.756   3.486  12.917  0.0751  0.0531 -0.1734
  317MPD2    H5 4772   1.769   3.422  12.839 -0.4865  0.8685 -0.9296
  317MPD2    N1 4773   1.372   3.559  12.666 -0.3509 -0.4865  0.6679
  317MPD2    H7 4774   1.399   3.474  12.617  2.1627  0.9898 -0.5090
  318TMC3    C1 4775   1.950   3.401  13.016 -0.1751 -0.3599  0.2125
  318TMC3    C2 4776   1.899   3.270  13.030 -0.1402  0.5713  0.9869
  318TMC3    C3 4777   1.989   3.181  13.073  0.4368  0.6138 -0.1638
  318TMC3    C4 4778   2.077   3.437  13.060  0.4920 -0.7449  0.4006
  318TMC3    C5 4779   2.162   3.334  13.097  0.2920 -0.0836 -0.0059
  318TMC3    C6 4780   2.120   3.203  13.113  0.7848  0.3106 -0.1783
  318TMC3     C 4781   1.849   3.510  13.013  0.6299  0.2188  0.0587
  318TMC3     O 4782   1.873   3.610  13.079  0.2098  0.1219  0.2306
  318TMC3     H 4783   1.793   3.260  13.011  0.3867 -0.5080 -1.3657
  318TMC3    H1 4784   2.110   3.538  13.036 -0.1906 -0.3831  0.9758
  318TMC3    H2 4785   2.180   3.124  13.155 -0.3318  0.2765  1.3535
  318TMC3    C7 4786   2.282   3.386  13.161 -0.0787 -0.5750 -0.7807
  318TMC3    C8 4787   1.941   3.049  13.097  0.2769  0.5393 -0.5565
  318TMC3    O1 4788   2.280   3.505  13.201 -0.2358 -0.3995  1.0568
  318TMC3    O2 4789   2.022   2.960  13.103  0.4722  0.7736  0.0623
  319MPD2     C 4790   2.746   0.329  16.625 -0.5555 -0.1502  0.1076
  319MPD2    C1 4791   2.692   0.245  16.725 -0.2430 -0.5096  0.3342
  319MPD2    C2 4792   2.569   0.184  16.695  0.3071 -0.3319 -0.1121
  319MPD2    C3 4793   2.500   0.198  16.577 -0.5786 -0.5094 -0.2888
  319MPD2    C4 4794   2.561   0.289  16.490  0.4669  0.2391  0.4313
  319MPD2    C5 4795   2.673   0.354  16.515 -0.0110 -0.1090 -0.0058
  319MPD2     H 4796   2.536   0.107  16.765  2.0762  0.1503  1.2660
  319MPD2    H1 4797   2.514   0.326  16.399  1.2445  0.5773  0.1656
  319MPD2    H2 4798   2.832   0.395  16.628 -0.9489  0.4174 -1.2445
  319MPD2    H3 4799   2.719   0.424  16.447 -1.3668  1.3745  0.6217
  319MPD2     N 4800   2.386   0.126  16.523 -0.3181  0.0389 -0.7884
  319MPD2    H5 4801   2.364   0.144  16.426 -2.2109 -0.8119 -0.5065
  319MPD2    N1 4802   2.763   0.221  16.850 -0.0323 -0.0395  0.0260
  319MPD2    H7 4803   2.724   0.157  16.918  3.6811 -0.0765  2.0686
  320TMC3    C1 4804   2.180   0.020  16.537 -0.1265  0.4047 -0.5120
  320TMC3    C2 4805   2.140   0.083  16.425 -0.6722  0.5848  0.1271
  320TMC3    C3 4806   2.004   0.078  16.409  0.8155  0.3309  0.0832
  320TMC3    C4 4807   2.095   4.657  16.614  0.7157  0.4167 -0.2229
  320TMC3    C5 4808   1.967   4.649  16.580  0.5061  0.1807 -0.3290
  320TMC3    C6 4809   1.915   0.007  16.485  0.0839 -0.0217  0.1982
  320TMC3     C 4810   2.305   0.047  16.600  0.2643 -0.2240 -0.1723
  320TMC3     O 4811   2.328   0.021  16.717  0.4322  0.3324 -0.4151
  320TMC3     H 4812   2.197   0.145  16.357 -0.0016 -0.6722 -0.4585
  320TMC3    H1 4813   2.136   4.599  16.696 -1.6077 -1.4904 -0.3984
  320TMC3    H2 4814   1.811   0.025  16.461  0.5804  2.2650 -0.2499
  320TMC3    C7 4815   1.907   4.517  16.574 -0.6753 -0.0221  0.4669
  320TMC3    C8 4816   1.948   0.171  16.312  0.3068 -0.0893  0.2995
  320TMC3    O1 4817   1.982   4.428  16.613 -0.0171  0.2530 -0.7010
  320TMC3    O2 4818   1.847   0.230  16.342  0.1283 -0.0822  0.0509
  321TMC3    C1 4819   2.945   0.217  16.999  1.1749 -0.2786  0.3368
  321TMC3    C2 4820   2.896   0.108  17.057 -0.0768 -0.3181  0.5132
  321TMC3    C3 4821   2.940   0.075  17.182  0.1798  0.1428 -0.4760
  321TMC3    C4 4822   3.051   0.286  17.045  0.1239  0.1052  0.0633
  321TMC3    C5 4823   3.112   0.240  17.157  0.0977  0.4075  0.4370
  321TMC3    C6 4824   3.042   0.152  17.239 -0.0377 -0.1379 -0.1028
  321TMC3     C 4825   2.890   0.269  16.874  0.5633  0.1127 -0.5229
  321TMC3     O 4826   2.967   0.338  16.806 -0.2356  0.2449 -0.0930
  321TMC3     H 4827   2.814   0.049  17.018 -2.3368  1.9477  1.8061
  321TMC3    H1 4828   3.104   0.355  16.980 -0.2870 -1.0381 -1.4848
  321TMC3    H2 4829   3.066   0.137  17.343  2.6830 -0.3540 -0.7690
  321TMC3    C7 4830   3.250   0.215  17.155 -0.2407  0.6845  0.0967
  321TMC3    C8 4831   2.968   4.656  17.212 -1.0782  0.3682  0.0983
  321TMC3    O1 4832   3.324   0.293  17.096 -0.4289  0.2190  0.0454
  321TMC3    O2 4833   3.043   4.634  17.307  0.3277  0.6234  0.6673
  322MPD2     C 4834   1.522   1.452  13.286  0.7227  0.0067  0.1491
  322MPD2    C1 4835   1.428   1.390  13.361  0.4960 -0.4257  0.2022
  322MPD2    C2 4836   1.382   1.259  13.334  0.3365 -0.4000  0.5366
  322MPD2    C3 4837   1.456   1.186  13.238  0.3164 -1.1235  0.4843
  322MPD2    C4 4838   1.558   1.248  13.163  0.0058  0.6023  0.4306
  322MPD2    C5 4839   1.582   1.384  13.184 -0.1773 -0.4969  0.1312
  322MPD2     H 4840   1.303   1.204  13.384  0.2344 -0.4352  0.3380
  322MPD2    H1 4841   1.606   1.188  13.086 -0.6304 -0.0552  0.5462
  322MPD2    H2 4842   1.565   1.550  13.299  3.3744 -1.0689 -0.5299
  322MPD2    H3 4843   1.666   1.432  13.136 -1.4956  1.3836 -0.2564
  322MPD2     N 4844   1.427   1.044  13.235  0.2864  0.0375 -0.5765
  322MPD2    H5 4845   1.351   1.009  13.293  1.2372 -0.6307  0.2542
  322MPD2    N1 4846   1.373   1.466  13.473  0.5051 -0.4464 -0.2694
  322MPD2    H7 4847   1.432   1.545  13.496 -0.7675  0.3598  0.2059
  323TMC3    C1 4848   1.273   1.489  13.689  0.0873 -0.8010  0.0910
  323TMC3    C2 4849   1.395   1.550  13.730 -0.1060  0.2325 -0.1703
  323TMC3    C3 4850   1.418   1.539  13.867  0.2619 -0.1113  0.4160
  323TMC3    C4 4851   1.183   1.436  13.777  0.7762 -0.1374 -0.1838
  323TMC3    C5 4852   1.206   1.447  13.910 -0.3503 -0.1062 -0.6812
  323TMC3    C6 4853   1.330   1.486  13.957 -0.2849 -0.4697 -0.3584
  323TMC3     C 4854   1.266   1.431  13.551 -0.6065  0.8653  0.1523
  323TMC3     O 4855   1.177   1.350  13.546  0.0570  0.6555 -0.0219
  323TMC3     H 4856   1.471   1.589  13.663  0.4953  0.8642  0.8704
  323TMC3    H1 4857   1.091   1.386  13.751  1.9403 -1.5814 -1.5514
  323TMC3    H2 4858   1.350   1.483  14.063  1.4360  0.0502 -0.6633
  323TMC3    C7 4859   1.137   1.360  14.010 -0.1528 -0.4429 -0.1984
  323TMC3    C8 4860   1.537   1.601  13.929  0.8187  0.2206 -0.2663
  323TMC3    O1 4861   1.213   1.301  14.085  0.0698  0.7475 -0.4277
  323TMC3    O2 4862   1.580   1.555  14.036  0.5775  0.8190  0.1856
  324MPD2     C 4863   3.487   2.632  14.208 -0.1420  0.2493  0.0171
  324MPD2    C1 4864   3.469   2.631  14.345  0.5941  0.6219 -0.2751
  324MPD2    C2 4865   3.337   2.616  14.389 -0.0130 -0.8914 -0.2613
  324MPD2    C3 4866   3.228   2.605  14.299  0.9997 -0.4016  0.3339
  324MPD2    C4 4867   3.250   2.617  14.165 -0.0071  0.2987 -0.7354
  324MPD2    C5 4868   3.382   2.621  14.115 -0.6242  0.0605 -0.1353
  324MPD2     H 4869   3.330   2.616  14.498 -0.7053 -2.0797 -0.3068
  324MPD2    H1 4870   3.176   2.613  14.086 -0.2075 -0.1630 -0.5251
  324MPD2    H2 4871   3.588   2.640  14.170 -0.7185 -1.8882 -1.8898
  324MPD2    H3 4872   3.394   2.620  14.008 -0.3428  1.1165 -0.1143
  324MPD2     N 4873   3.090   2.602  14.342  0.1992  0.3619  0.8612
  324MPD2    H5 4874   3.020   2.604  14.268 -1.8854 -4.4682  2.6779
  324MPD2    N1 4875   3.578   2.649  14.429 -0.3286  0.4061 -0.0915
  324MPD2    H7 4876   3.544   2.658  14.524  1.6039 -1.0933  0.7509
  325TMC3    C1 4877   2.903   2.620  14.491 -0.0461  0.5887 -0.4189
  325TMC3    C2 4878   2.835   2.538  14.578 -0.2887  0.2100  0.3008
  325TMC3    C3 4879   2.701   2.535  14.551 -0.1123 -0.6594  0.5645
  325TMC3    C4 4880   2.850   2.720  14.417 -0.0866  0.3988  0.0452
  325TMC3    C5 4881   2.715   2.728  14.411  0.2759  0.5140 -0.0073
  325TMC3    C6 4882   2.635   2.635  14.475 -0.3463 -0.5570  0.4898
  325TMC3     C 4883   3.042   2.601  14.476 -0.1076 -0.7127 -0.1779
  325TMC3     O 4884   3.096   2.568  14.576 -0.6564  0.1849  0.1260
  325TMC3     H 4885   2.878   2.456  14.635  1.0133  0.1246 -0.7880
  325TMC3    H1 4886   2.914   2.784  14.358 -0.3660 -0.1177 -0.8217
  325TMC3    H2 4887   2.533   2.619  14.442 -0.4349 -2.0113  1.4482
  325TMC3    C7 4888   2.659   2.799  14.301  0.0221 -0.1570 -0.3600
  325TMC3    C8 4889   2.664   2.412  14.481 -0.5395  0.7025  0.1193
  325TMC3    O1 4890   2.740   2.825  14.215  0.3401 -0.5242 -0.4105
  325TMC3    O2 4891   2.754   2.344  14.433  0.5259 -0.4912 -0.2962
  326MPD2     C 4892   4.135   3.679  11.359 -0.2889 -0.1072  0.3347
  326MPD2    C1 4893   4.115   3.629  11.230 -0.1267  0.6780 -0.6685
  326MPD2    C2 4894   4.205   3.660  11.130  0.1489 -0.5324 -0.1897
  326MPD2    C3 4895   4.306   3.747  11.157 -0.8958 -0.2161 -0.0293
  326MPD2    C4 4896   4.318   3.809  11.282 -0.5911  0.3285  0.0317
  326MPD2    C5 4897   4.241   3.764  11.383 -0.2317  0.9248 -0.8109
  326MPD2     H 4898   4.191   3.608  11.035 -0.2399  2.3738 -1.7333
  326MPD2    H1 4899   4.388   3.888  11.305 -2.5103  1.8944  0.4924
  326MPD2    H2 4900   4.072   3.665  11.446 -1.7043 -0.8415 -0.8071
  326MPD2    H3 4901   4.255   3.811  11.479  3.0089 -0.3908 -0.6164
  326MPD2     N 4902   4.403   3.790  11.062 -0.5231  0.2340 -0.2633
  326MPD2    H5 4903   4.485   3.838  11.097  0.7024 -1.8700 -0.2276
  326MPD2    N1 4904   4.003   3.548  11.191  0.0201 -0.7043 -0.2222
  326MPD2    H7 4905   3.995   3.530  11.092  0.5281  0.7439 -0.5187
  327TMC3    C1 4906   3.810   3.415  11.206  0.1961  0.2426  0.6665
  327TMC3    C2 4907   3.786   3.434  11.074 -0.3898 -0.2572 -0.3123
  327TMC3    C3 4908   3.728   3.333  10.999  0.6648 -0.0741 -0.3685
  327TMC3    C4 4909   3.758   3.306  11.264 -0.5071 -0.7520 -0.2757
  327TMC3    C5 4910   3.698   3.210  11.186 -0.2233 -0.0650  0.3406
  327TMC3    C6 4911   3.677   3.216  11.050 -0.1045  0.2056 -0.9674
  327TMC3     C 4912   3.913   3.485  11.276 -0.0246 -0.0701 -0.7409
  327TMC3     O 4913   3.914   3.489  11.399  0.4618 -0.2088  0.2281
  327TMC3     H 4914   3.805   3.532  11.032 -2.5820 -0.4550 -1.7590
  327TMC3    H1 4915   3.789   3.300  11.368 -0.5973  2.2150 -0.0886
  327TMC3    H2 4916   3.633   3.129  11.001 -0.9473 -1.4803  2.7912
  327TMC3    C7 4917   3.706   3.084  11.244  0.4144  0.0402 -0.4186
  327TMC3    C8 4918   3.664   3.383  10.881  0.4417 -0.4557 -0.6468
  327TMC3    O1 4919   3.608   3.019  11.265  0.3495 -0.8034  0.3583
  327TMC3    O2 4920   3.637   3.503  10.879  0.0833  0.5409  0.3149
  328MPD2     C 4921   1.625   3.039  17.261 -0.1186 -0.8023 -0.5432
  328MPD2    C1 4922   1.498   2.986  17.240 -0.0229 -0.7439  0.1873
  328MPD2    C2 4923   1.430   3.022  17.123 -0.1646  0.0513 -0.2379
  328MPD2    C3 4924   1.490   3.083  17.017  0.5477 -0.3184 -0.5035
  328MPD2    C4 4925   1.622   3.118  17.031  0.6269 -0.2522 -0.1852
  328MPD2    C5 4926   1.681   3.104  17.150 -0.4329  0.4554 -0.2805
  328MPD2     H 4927   1.330   2.980  17.121  1.0951 -2.9517 -1.2129
  328MPD2    H1 4928   1.663   3.175  16.949  0.7264  0.8857  0.6715
  328MPD2    H2 4929   1.686   3.025  17.350 -0.5534 -0.5401 -0.2058
  328MPD2    H3 4930   1.783   3.135  17.169 -0.5223  1.2445 -1.1273
  328MPD2     N 4931   1.421   3.116  16.900  0.1616 -0.0037 -0.6291
  328MPD2    H5 4932   1.454   3.194  16.844  2.5263  0.6874  1.7494
  328MPD2    N1 4933   1.428   2.908  17.337 -0.2410  0.1923  0.0042
  328MPD2    H7 4934   1.328   2.896  17.325 -0.1963 -0.9975  0.8404
  329TMC3    C1 4935   1.384   2.787  17.526 -0.7407  0.4904  0.2696
  329TMC3    C2 4936   1.265   2.856  17.510 -0.1474 -0.6246  0.3462
  329TMC3    C3 4937   1.154   2.783  17.482 -1.0346  0.2340  0.2370
  329TMC3    C4 4938   1.387   2.646  17.523  0.5348  0.5471  0.0163
  329TMC3    C5 4939   1.269   2.582  17.486  0.4841  0.2088 -0.5085
  329TMC3    C6 4940   1.152   2.649  17.458  0.0877 -0.2936  0.4316
  329TMC3     C 4941   1.490   2.852  17.442  0.4945 -0.2123  0.3029
  329TMC3     O 4942   1.608   2.828  17.456 -0.1066  0.0292  0.2565
  329TMC3     H 4943   1.270   2.962  17.532  0.4445 -0.3096 -1.2576
  329TMC3    H1 4944   1.483   2.599  17.511  0.2726 -0.2808  1.1746
  329TMC3    H2 4945   1.071   2.599  17.405  0.4024  0.8754 -1.1945
  329TMC3    C7 4946   1.301   2.481  17.392  0.0322 -0.8318 -0.4462
  329TMC3    C8 4947   1.032   2.854  17.454 -0.2874  0.0378  0.4956
  329TMC3    O1 4948   1.246   2.477  17.283 -0.6493  0.4086 -0.1594
  329TMC3    O2 4949   0.945   2.785  17.398  0.3956 -0.8940 -0.1826
  330TMC3    C1 4950   3.209   3.127   9.109 -0.0016  0.0295  0.0354
  330TMC3    C2 4951   3.183   3.082   8.983 -0.9251 -0.2115 -0.0147
  330TMC3    C3 4952   3.282   3.026   8.913  0.0895  0.0530 -0.2153
  330TMC3    C4 4953   3.330   3.112   9.171  0.9699 -0.3263 -0.1816
  330TMC3    C5 4954   3.427   3.044   9.101  0.1585 -1.0114  0.4602
  330TMC3    C6 4955   3.405   3.008   8.966  0.2623  0.0326 -0.4756
  330TMC3     C 4956   3.103   3.185   9.186  0.3920  0.7333 -0.0948
  330TMC3     O 4957   3.134   3.264   9.271  0.0980 -0.4522  0.3531
  330TMC3     H 4958   3.096   3.109   8.924 -0.9454  1.8577  0.9792
  330TMC3    H1 4959   3.340   3.149   9.272 -0.7218  0.4698 -0.3150
  330TMC3    H2 4960   3.482   2.983   8.894 -0.7502 -0.8670 -1.2411
  330TMC3    C7 4961   3.555   3.016   9.165  0.6537 -0.1620  0.3382
  330TMC3    C8 4962   3.224   2.919   8.832  0.2667  0.9250 -0.2162
  330TMC3    O1 4963   3.565   3.043   9.285  0.5104  0.2422  0.7965
  330TMC3    O2 4964   3.143   2.950   8.747 -0.5433  0.0211  0.2980
  331MPD2     C 4965   2.263   1.962  12.730 -0.4628  0.1057  0.2144
  331MPD2    C1 4966   2.382   1.972  12.661 -0.0752  0.2307  0.0027
  331MPD2    C2 4967   2.439   1.852  12.603 -0.5396  0.4609 -0.2340
  331MPD2    C3 4968   2.362   1.733  12.600  0.4543  0.1431 -0.9415
  331MPD2    C4 4969   2.241   1.729  12.662  0.0903  0.3325  0.2871
  331MPD2    C5 4970   2.192   1.843  12.721  0.2690 -0.0613 -0.2411
  331MPD2     H 4971   2.542   1.850  12.571 -0.3119 -1.8221  0.6581
  331MPD2    H1 4972   2.173   1.644  12.661 -1.2508  1.3898  1.0417
  331MPD2    H2 4973   2.224   2.045  12.788 -2.4911  0.7208 -2.0760
  331MPD2    H3 4974   2.093   1.845  12.764  0.1738  1.8261 -0.5411
  331MPD2     N 4975   2.424   1.624  12.530  0.1862  0.1879  0.1484
  331MPD2    H5 4976   2.516   1.629  12.486 -0.4303 -0.1788 -1.1670
  331MPD2    N1 4977   2.445   2.100  12.641  0.0937 -0.4871 -0.6709
  331MPD2    H7 4978   2.396   2.181  12.678  0.8872 -0.3851  0.1348
  332TMC3    C1 4979   2.446   1.401  12.446  0.4507  0.3441 -0.6460
  332TMC3    C2 4980   2.489   1.443  12.324 -0.2041  0.1996  0.2157
  332TMC3    C3 4981   2.601   1.385  12.270 -0.1921  0.4100 -0.4725
  332TMC3    C4 4982   2.517   1.304  12.511  0.8179  0.0047  0.4500
  332TMC3    C5 4983   2.633   1.258  12.455 -0.0849 -0.7375  0.1520
  332TMC3    C6 4984   2.675   1.287  12.330  0.0369  0.0026  0.9364
  332TMC3     C 4985   2.365   1.498  12.518 -0.4366  0.4776  0.0174
  332TMC3     O 4986   2.249   1.465  12.545 -0.3212  0.2502  0.1245
  332TMC3     H 4987   2.440   1.521  12.268  1.0497  0.1968 -0.8987
  332TMC3    H1 4988   2.481   1.273  12.608  0.2578 -0.1236  0.2038
  332TMC3    H2 4989   2.755   1.239  12.274  0.2600  2.0010 -0.4709
  332TMC3    C7 4990   2.702   1.150  12.522 -0.0022 -0.0051 -0.5089
  332TMC3    C8 4991   2.657   1.436  12.154  0.0561 -0.3447 -0.1924
  332TMC3    O1 4992   2.626   1.076  12.584 -0.1479 -0.2382  0.2218
  332TMC3    O2 4993   2.780   1.444  12.148 -0.0345  0.0320 -0.0071
  333MPD2     C 4994   2.307   1.782  11.246  0.9063  0.0729 -0.0846
  333MPD2    C1 4995   2.410   1.705  11.201 -0.3894  0.4068 -0.2612
  333MPD2    C2 4996   2.436   1.585  11.267  0.4525 -1.1835 -0.2541
  333MPD2    C3 4997   2.359   1.534  11.369  0.1935  0.2147  0.4161
  333MPD2    C4 4998   2.243   1.596  11.396 -0.3451 -0.8647 -0.2264
  333MPD2    C5 4999   2.224   1.719  11.339 -0.2482  0.3590  0.1030
  333MPD2     H 5000   2.523   1.525  11.241  2.0359  0.7888  0.4792
  333MPD2    H1 5001   2.172   1.570  11.474  0.3245 -1.3682  0.2204
  333MPD2    H2 5002   2.287   1.881  11.207 -0.2966 -0.2401 -0.2657
  333MPD2    H3 5003   2.139   1.781  11.367 -0.1319  0.6585 -0.2048
  333MPD2     N 5004   2.400   1.411  11.438  0.7522  0.4705 -0.0138
  333MPD2    H5 5005   2.480   1.358  11.404  0.7988 -1.0921  2.5167
  333MPD2    N1 5006   2.495   1.759  11.107 -0.4551  0.2784 -0.4042
  333MPD2    H7 5007   2.494   1.859  11.088 -4.6273 -0.1258 -2.3859
  334TMC3    C1 5008   2.663   1.783  10.959 -0.3709  0.0668 -0.1611
  334TMC3    C2 5009   2.713   1.741  10.841 -0.2736  0.3069  0.2406
  334TMC3    C3 5010   2.774   1.828  10.760  0.0663 -0.2541  0.1856
  334TMC3    C4 5011   2.679   1.910  10.999  0.1086  0.1874 -0.3613
  334TMC3    C5 5012   2.738   1.996  10.909  0.0649  0.7237 -0.4583
  334TMC3    C6 5013   2.778   1.960  10.785  0.4604  0.1795 -0.0936
  334TMC3     C 5014   2.582   1.688  11.031 -0.7146  0.0579 -0.4313
  334TMC3     O 5015   2.590   1.568  11.002  0.4010 -0.7401  0.4605
  334TMC3     H 5016   2.701   1.636  10.817 -3.8018  0.4924  1.1258
  334TMC3    H1 5017   2.656   1.955  11.095  1.1321  0.1588 -0.1039
  334TMC3    H2 5018   2.839   2.023  10.722 -0.6704  2.1105  0.7410
  334TMC3    C7 5019   2.756   2.131  10.951 -0.3660 -0.3518 -0.1751
  334TMC3    C8 5020   2.863   1.784  10.656  0.1661  0.3329 -0.0976
  334TMC3    O1 5021   2.750   2.161  11.072 -0.2590 -0.6311  0.2017
  334TMC3    O2 5022   2.823   1.753  10.545  0.3098 -0.1694 -0.0205
  335TMC3    C1 5023   2.387   3.278  17.645  1.0494 -0.3529  0.1413
  335TMC3    C2 5024   2.321   3.319  17.531 -0.2869 -0.7289  0.9246
  335TMC3    C3 5025   2.400   3.337  17.420 -0.8912 -0.6613  0.2750
  335TMC3    C4 5026   2.523   3.264  17.655  0.0972 -0.5276 -0.1445
  335TMC3    C5 5027   2.591   3.266  17.531 -0.1652  0.0718  0.7995
  335TMC3    C6 5028   2.532   3.308  17.415  0.0314 -0.6865 -0.3269
  335TMC3     C 5029   2.316   3.307   0.074  0.2549  0.1498  0.0975
  335TMC3     O 5030   2.196   3.338   0.070 -0.0639  0.7158 -0.1242
  335TMC3     H 5031   2.213   3.312  17.538 -0.2767 -0.9638  0.8126
  335TMC3    H1 5032   2.568   3.245   0.062 -1.3466 -2.8774  0.0712
  335TMC3    H2 5033   2.572   3.287  17.317  0.4514 -0.0947 -0.2868
  335TMC3    C7 5034   2.710   3.190  17.508  0.6228 -0.2931 -0.1867
  335TMC3    C8 5035   2.325   3.316  17.299  1.0669  0.6066  0.4294
  335TMC3    O1 5036   2.761   3.218  17.400 -0.2051  0.3051 -0.6735
  335TMC3    O2 5037   2.365   3.371  17.193 -0.6864 -0.0395  0.3091
  336MPD2     C 5038   2.158   1.302  16.027 -0.1545 -0.3559  0.2098
  336MPD2    C1 5039   2.133   1.236  15.907 -0.0328 -0.3260 -0.1601
  336MPD2    C2 5040   2.132   1.096  15.904 -0.0222 -0.5713  0.5773
  336MPD2    C3 5041   2.174   1.027  16.018 -0.4351  0.1113 -0.3158
  336MPD2    C4 5042   2.204   1.096  16.131  0.8071  0.0141 -0.0157
  336MPD2    C5 5043   2.199   1.230  16.133  0.2338 -0.0006  0.0768
  336MPD2     H 5044   2.105   1.047  15.811  0.0420  0.7700 -0.1623
  336MPD2    H1 5045   2.235   1.047  16.222  2.5207 -0.7084 -0.9878
  336MPD2    H2 5046   2.139   1.408  16.043 -0.7318 -0.5689  0.8884
  336MPD2    H3 5047   2.216   1.280  16.228 -2.6363  0.2427  0.4485
  336MPD2     N 5048   2.194   0.885  16.016 -0.1422 -0.4625  0.1267
  336MPD2    H5 5049   2.225   0.844  16.103  0.4439  0.2350  0.2506
  336MPD2    N1 5050   2.088   1.305  15.793  0.1909  0.2830 -0.0280
  336MPD2    H7 5051   2.054   1.249  15.715 -0.9431 -0.9426  1.3569
  337TMC3    C1 5052   2.049   1.497  15.657  0.0821 -0.0257 -0.1878
  337TMC3    C2 5053   1.916   1.459  15.642  0.1545  0.4371 -0.4861
  337TMC3    C3 5054   1.830   1.550  15.585  0.0079 -0.7097  0.2859
  337TMC3    C4 5055   2.100   1.609  15.604 -0.3165  0.1116 -0.2715
  337TMC3    C5 5056   2.012   1.694  15.540 -0.1467  0.1456  0.4718
  337TMC3    C6 5057   1.878   1.658  15.517 -0.1826 -0.1962 -0.4325
  337TMC3     C 5058   2.104   1.441  15.779 -0.0567  0.0136  0.2288
  337TMC3     O 5059   2.178   1.520  15.839 -0.3802 -0.6957  0.1639
  337TMC3     H 5060   1.879   1.376  15.701  3.4628  0.0386  1.0457
  337TMC3    H1 5061   2.203   1.627  15.632 -1.1461  0.3138  2.7091
  337TMC3    H2 5062   1.801   1.732  15.496 -1.6096 -1.5065  0.1676
  337TMC3    C7 5063   2.035   1.832  15.570  0.3489  0.2010  0.3366
  337TMC3    C8 5064   1.689   1.513  15.581  0.0321  0.2127 -0.0575
  337TMC3    O1 5065   1.954   1.909  15.521 -0.4259 -0.6734 -0.2360
  337TMC3    O2 5066   1.637   1.461  15.676  0.5944 -0.2717  0.4358
  338MPD2     C 5067   2.384   0.456   0.614 -0.2750 -0.5846  0.0577
  338MPD2    C1 5068   2.369   0.453   0.480 -0.6604  0.2945  0.2411
  338MPD2    C2 5069   2.234   0.471   0.437  0.3534  0.3180  0.1417
  338MPD2    C3 5070   2.131   0.473   0.521 -0.1850  0.0178 -0.7081
  338MPD2    C4 5071   2.157   0.502   0.649 -0.2429 -0.6099  0.1842
  338MPD2    C5 5072   2.285   0.497   0.696 -0.2098  0.0530 -0.7296
  338MPD2     H 5073   2.210   0.470   0.331 -0.6526 -0.4838  0.3751
  338MPD2    H1 5074   2.072   0.519   0.713 -0.3142  1.8971 -0.5464
  338MPD2    H2 5075   2.476   0.435   0.667  0.3576  0.9050 -0.4492
  338MPD2    H3 5076   2.300   0.503   0.803 -1.0576 -0.1203 -0.6063
  338MPD2     N 5077   2.004   0.482   0.453  0.1948  0.0508 -0.7739
  338MPD2    H5 5078   1.997   0.486   0.352  2.0861  1.1655 -0.8685
  338MPD2    N1 5079   2.475   0.455   0.386 -0.7762  0.3703 -0.7594
  338MPD2    H7 5080   2.444   0.459   0.290  3.6057 -0.2375 -2.1826
  339TMC3    C1 5081   1.780   0.500   0.427  0.1612  0.8997 -0.5804
  339TMC3    C2 5082   1.718   0.379   0.410 -0.5967 -0.3787 -0.3544
  339TMC3    C3 5083   1.677   0.343   0.286  0.4778 -0.1471  0.2446
  339TMC3    C4 5084   1.795   0.586   0.324  0.6995 -0.2136 -0.7631
  339TMC3    C5 5085   1.745   0.551   0.201  0.4533 -0.3880 -0.4275
  339TMC3    C6 5086   1.695   0.431   0.174 -0.3631 -0.3522  0.0391
  339TMC3     C 5087   1.887   0.484   0.517  0.0540 -0.4218  0.1206
  339TMC3     O 5088   1.874   0.456   0.636  0.5851  0.3567 -0.9114
  339TMC3     H 5089   1.721   0.304   0.489  0.8070  1.7570  1.6354
  339TMC3    H1 5090   1.847   0.679   0.348 -2.3012  0.5860  2.6397
  339TMC3    H2 5091   1.670   0.396   0.074  1.4471 -1.3578 -0.0486
  339TMC3    C7 5092   1.778   0.644   0.097  0.5575  0.1387 -0.5422
  339TMC3    C8 5093   1.662   0.197   0.256  0.4908 -0.2892  0.2303
  339TMC3    O1 5094   1.788   0.766   0.129 -0.6963 -0.4038  0.0325
  339TMC3    O2 5095   1.700   0.171   0.143  0.1768 -0.1690 -0.4043
  340MPD2     C 5096   2.243   2.836  10.208  0.9575  0.6156  0.1433
  340MPD2    C1 5097   2.312   2.909  10.118 -1.0154 -0.2091  0.8144
  340MPD2    C2 5098   2.350   3.032  10.166 -0.1488 -0.0443 -0.0709
  340MPD2    C3 5099   2.319   3.084  10.294  0.1588  0.6570 -0.2284
  340MPD2    C4 5100   2.245   3.012  10.375  0.3923 -0.2475 -0.1558
  340MPD2    C5 5101   2.217   2.883  10.335 -0.1519 -0.3618  1.0048
  340MPD2     H 5102   2.383   3.104  10.093  0.6494  1.8696  2.1907
  340MPD2    H1 5103   2.218   3.039  10.476  1.9923  1.3127 -0.1479
  340MPD2    H2 5104   2.208   2.733  10.201 -0.1718  0.9470  1.0035
  340MPD2    H3 5105   2.157   2.827  10.405 -0.4688 -1.8141 -0.4270
  340MPD2     N 5106   2.357   3.203  10.346  0.1240 -0.5563 -0.0768
  340MPD2    H5 5107   2.320   3.220  10.439  0.0015 -0.3473 -0.1616
  340MPD2    N1 5108   2.329   2.864   9.985 -0.8717 -0.2609  0.5188
  340MPD2    H7 5109   2.296   2.769   9.967 -1.4693 -0.0176  0.3292
  341TMC3    C1 5110   2.411   2.854   9.761 -0.0920 -0.7617  0.5834
  341TMC3    C2 5111   2.310   2.784   9.700  0.9989  0.2746 -0.5979
  341TMC3    C3 5112   2.332   2.729   9.577  0.5330  1.0223  0.1277
  341TMC3    C4 5113   2.521   2.892   9.685  0.2342  0.0945  0.0157
  341TMC3    C5 5114   2.536   2.837   9.556  0.3362  0.4789  0.3103
  341TMC3    C6 5115   2.439   2.754   9.501 -0.5285  0.2377 -0.1649
  341TMC3     C 5116   2.391   2.935   9.883 -0.3247  0.4308  0.4820
  341TMC3     O 5117   2.439   3.045   9.894  0.4499  0.2254  0.5218
  341TMC3     H 5118   2.222   2.751   9.754 -0.2758  1.0164 -2.2396
  341TMC3    H1 5119   2.594   2.960   9.727 -0.6524 -1.0235  3.3581
  341TMC3    H2 5120   2.437   2.736   9.394 -1.9234  3.2965 -0.6434
  341TMC3    C7 5121   2.667   2.853   9.490 -0.2403 -0.0899  0.7636
  341TMC3    C8 5122   2.221   2.638   9.530 -0.3680 -0.8647 -0.5604
  341TMC3    O1 5123   2.760   2.897   9.562  0.4848 -0.1482  0.1972
  341TMC3    O2 5124   2.116   2.640   9.594  0.7059  0.9809  0.2011
  342MPD2     C 5125   0.380   1.308   0.077  0.4447  1.0562 -0.2294
  342MPD2    C1 5126   0.481   1.369   0.010 -0.0392  0.3095  0.6970
  342MPD2    C2 5127   0.487   1.509   0.019  1.1126  0.0963 -0.0758
  342MPD2    C3 5128   0.386   1.577   0.087 -0.3017  0.3644  0.2311
  342MPD2    C4 5129   0.292   1.510   0.165  0.1306  0.2479  0.0416
  342MPD2    C5 5130   0.287   1.376   0.153 -0.0401 -0.2372 -0.0246
  342MPD2     H 5131   0.557   1.562  17.646 -0.3707  2.7381  0.5280
  342MPD2    H1 5132   0.216   1.551   0.230 -1.8574  1.4182 -3.0112
  342MPD2    H2 5133   0.368   1.201   0.064 -1.7254  1.4734 -1.5296
  342MPD2    H3 5134   0.201   1.321   0.188  0.6569 -0.1841  1.7862
  342MPD2     N 5135   0.387   1.715   0.094 -0.8710 -0.3610 -1.1244
  342MPD2    H5 5136   0.306   1.756   0.138  1.3356  0.5802  2.1360
  342MPD2    N1 5137   0.584   1.302  17.631 -0.2291 -0.2413  0.2013
  342MPD2    H7 5138   0.647   1.362  17.578  0.4132 -0.9495  0.1575
  343TMC3    C1 5139   0.728   1.123  17.561  0.1131  0.0005 -0.1169
  343TMC3    C2 5140   0.831   1.213  17.532 -0.2438  0.3142 -0.4793
  343TMC3    C3 5141   0.945   1.160  17.476 -0.9338 -0.1687  0.4744
  343TMC3    C4 5142   0.740   0.986  17.532 -0.5658  0.3376  0.2503
  343TMC3    C5 5143   0.849   0.941  17.467 -0.5794 -1.0403  0.2332
  343TMC3    C6 5144   0.949   1.029  17.438  0.0492 -0.0872  1.0047
  343TMC3     C 5145   0.605   1.166  17.625 -0.1238 -0.4716 -0.5329
  343TMC3     O 5146   0.540   1.074  17.676  0.1501 -0.5015 -0.2453
  343TMC3     H 5147   0.825   1.314  17.571  1.3231 -0.6463  2.3117
  343TMC3    H1 5148   0.647   0.930  17.536 -0.5157  0.2252 -0.2630
  343TMC3    H2 5149   1.047   0.993  17.407  0.7970  0.9140  2.1832
  343TMC3    C7 5150   0.832   0.834  17.374 -0.3536 -0.3871 -0.2947
  343TMC3    C8 5151   1.038   1.249  17.415  0.1032  0.1254 -0.2932
  343TMC3    O1 5152   0.890   0.855  17.270  0.2997 -0.3996  0.3347
  343TMC3    O2 5153   1.060   1.351  17.477 -0.1629 -0.1248 -0.7307
  344MPD2     C 5154   1.618   1.153  10.244  0.0284 -0.4888  0.3487
  344MPD2    C1 5155   1.525   1.077  10.180 -0.4933 -0.6111  0.0415
  344MPD2    C2 5156   1.489   1.109  10.050 -0.6127 -0.0105  0.9373
  344MPD2    C3 5157   1.561   1.200   9.977 -0.4120  0.0729  0.2495
  344MPD2    C4 5158   1.668   1.267  10.042  0.0956 -0.4710  0.3999
  344MPD2    C5 5159   1.690   1.251  10.176 -0.2515 -0.2944  0.4547
  344MPD2     H 5160   1.402   1.058  10.009 -0.2537 -1.0374  1.4501
  344MPD2    H1 5161   1.745   1.321   9.990  0.1991 -2.6987 -1.7437
  344MPD2    H2 5162   1.662   1.125  10.339 -1.1576 -0.7194  0.8305
  344MPD2    H3 5163   1.770   1.303  10.228 -0.5320  0.2387  0.3483
  344MPD2     N 5164   1.549   1.226   9.843  0.1297  0.1705  0.2981
  344MPD2    H5 5165   1.615   1.299   9.817 -0.7746  0.2549 -1.7186
  344MPD2    N1 5166   1.452   0.968  10.240 -0.3033  0.0183 -0.3575
  344MPD2    H7 5167   1.387   0.918  10.181  0.4495  0.9991 -2.0132
  345TMC3    C1 5168   1.451   1.269   9.635  0.0494  0.4457  0.0776
  345TMC3    C2 5169   1.575   1.307   9.608  1.0884  0.3371  0.0873
  345TMC3    C3 5170   1.600   1.431   9.557  0.8413  0.0374  0.7519
  345TMC3    C4 5171   1.342   1.347   9.620  0.4825  0.0708  0.7602
  345TMC3    C5 5172   1.362   1.467   9.554 -0.5931 -0.3535 -0.8958
  345TMC3    C6 5173   1.489   1.506   9.518  0.2191 -0.6325  0.4346
  345TMC3     C 5174   1.441   1.196   9.763 -0.4773 -0.1554 -0.4540
  345TMC3     O 5175   1.331   1.145   9.787  0.4109 -0.0334 -0.1137
  345TMC3     H 5176   1.658   1.240   9.626 -1.4209 -2.6452  0.5143
  345TMC3    H1 5177   1.248   1.321   9.667  0.6799 -0.3849  0.9016
  345TMC3    H2 5178   1.506   1.597   9.461 -0.2000 -0.3400  0.7774
  345TMC3    C7 5179   1.263   1.578   9.580  0.2676 -0.4882  0.9691
  345TMC3    C8 5180   1.698   1.523   9.616 -0.4880 -0.0237  0.2756
  345TMC3    O1 5181   1.322   1.681   9.554  0.0794  0.5744 -0.0632
  345TMC3    O2 5182   1.672   1.646   9.618 -0.1127  0.5432  0.1852
  346MPD2     C 5183   1.693   2.562  13.702 -0.1994  0.4295  0.4871
  346MPD2    C1 5184   1.797   2.655  13.712  1.0260  0.3083  0.5433
  346MPD2    C2 5185   1.794   2.750  13.809  0.3441  0.0608  0.0404
  346MPD2    C3 5186   1.693   2.758  13.899 -0.2497  0.5830 -0.3377
  346MPD2    C4 5187   1.589   2.669  13.884  0.6994 -0.3740 -0.0924
  346MPD2    C5 5188   1.582   2.577  13.784 -0.0038 -0.7849 -0.2193
  346MPD2     H 5189   1.874   2.823  13.818 -0.9855  1.4147  0.7220
  346MPD2    H1 5190   1.505   2.668  13.953 -0.9226  0.8155 -2.0439
  346MPD2    H2 5191   1.684   2.498  13.615  0.4376  0.7369  0.1905
  346MPD2    H3 5192   1.495   2.515  13.767 -0.8400  0.1308  0.7347
  346MPD2     N 5193   1.715   2.838  14.007  0.2091 -0.5623  0.9379
  346MPD2    H5 5194   1.808   2.877  14.019  0.3157 -0.1703 -1.2004
  346MPD2    N1 5195   1.898   2.676  13.619 -0.5830 -0.4746  0.1002
  346MPD2    H7 5196   1.945   2.765  13.629 -1.6479  0.0730  0.2589
  347TMC3    C1 5197   1.693   2.906  14.231 -0.7264 -0.3586  0.7242
  347TMC3    C2 5198   1.828   2.914  14.235 -0.6025 -0.1520 -0.6236
  347TMC3    C3 5199   1.888   2.967  14.353 -0.6102  0.9516  0.0612
  347TMC3    C4 5200   1.614   2.962  14.333 -0.5938 -0.2202  0.7958
  347TMC3    C5 5201   1.674   3.013  14.449  0.1799  0.3332 -0.7779
  347TMC3    C6 5202   1.811   3.018  14.458 -0.0135  0.5838 -0.2577
  347TMC3     C 5203   1.623   2.855  14.115 -0.2604  0.2863  0.0791
  347TMC3     O 5204   1.503   2.838  14.109 -0.1703  0.3974  0.2161
  347TMC3     H 5205   1.888   2.846  14.175 -1.2618 -2.3181  1.1572
  347TMC3    H1 5206   1.505   2.965  14.336 -0.6376 -0.6158 -0.7262
  347TMC3    H2 5207   1.858   3.032  14.554  1.5268  0.9083 -1.0702
  347TMC3    C7 5208   1.594   3.032  14.565 -0.3072  0.5884 -0.2106
  347TMC3    C8 5209   2.034   2.984  14.352 -0.2326 -0.8619  0.3212
  347TMC3    O1 5210   1.479   2.991  14.557 -0.3499 -0.0338 -0.5647
  347TMC3    O2 5211   2.083   3.001  14.462  1.3830 -0.1038  0.0980
  348MPD2     C 5212   4.686   2.504  12.436 -0.2748 -0.4865  0.3239
  348MPD2    C1 5213   0.040   2.449  12.335  0.1302 -0.5647  0.3750
  348MPD2    C2 5214   4.721   2.453  12.202  0.7303 -0.4881  0.1279
  348MPD2    C3 5215   4.626   2.544  12.165 -0.5851 -0.5214  1.1224
  348MPD2    C4 5216   4.561   2.615  12.263 -0.0628 -0.4360  0.4723
  348MPD2    C5 5217   4.581   2.589  12.398  0.9804  0.4189  0.1046
  348MPD2     H 5218   0.041   2.397  12.119  0.8955 -0.2227  0.0310
  348MPD2    H1 5219   4.478   2.678  12.237 -0.6575 -0.6556  1.8125
  348MPD2    H2 5220   4.706   2.492  12.542 -1.0564 -0.9686  0.4168
  348MPD2    H3 5221   4.528   2.655  12.466 -3.1291 -0.8083 -1.9090
  348MPD2     N 5222   4.596   2.558  12.027  0.5019 -0.1628 -0.0749
  348MPD2    H5 5223   4.656   2.514  11.958  0.4244  0.1744 -0.3630
  348MPD2    N1 5224   0.155   2.367  12.359 -0.3995  0.3921 -0.0053
  348MPD2    H7 5225   0.181   2.323  12.270  3.1739 -1.9550  2.2084
  349TMC3    C1 5226   0.340   2.269  12.442  0.1834  0.3063 -0.0982
  349TMC3    C2 5227   0.341   2.130  12.438 -0.2220  0.0424 -0.2399
  349TMC3    C3 5228   0.425   2.064  12.351 -0.1920 -0.3061 -0.5075
  349TMC3    C4 5229   0.411   2.331  12.339 -0.6219  0.7390 -0.2173
  349TMC3    C5 5230   0.497   2.266  12.253 -0.3116 -0.7981  0.7900
  349TMC3    C6 5231   0.509   2.126  12.266  0.7442  0.0214 -0.4137
  349TMC3     C 5232   0.220   2.335  12.474  0.0534 -0.0505  0.2241
  349TMC3     O 5233   0.202   2.369  12.590  0.6223  0.1420 -0.0196
  349TMC3     H 5234   0.283   2.071  12.509  1.3887  0.6510  1.5829
  349TMC3    H1 5235   0.402   2.438  12.329  0.5671  1.1313  2.8147
  349TMC3    H2 5236   0.578   2.083  12.193  2.1820 -3.0018  2.7560
  349TMC3    C7 5237   0.483   2.294  12.115  0.2711 -0.3535 -0.5387
  349TMC3    C8 5238   0.420   1.917  12.335  0.3266  0.3582  0.1272
  349TMC3    O1 5239   0.466   2.194  12.041  0.2499 -0.0669 -0.1542
  349TMC3    O2 5240   0.377   1.847  12.425 -0.1657 -0.1746  0.3819
  350MPD2     C 5241   2.786   0.496  10.392  0.2551 -0.2649 -0.4361
  350MPD2    C1 5242   2.887   0.424  10.336  0.3584 -0.0948 -0.4423
  350MPD2    C2 5243   2.990   0.395  10.420 -0.3803 -0.6857 -0.1184
  350MPD2    C3 5244   3.012   0.452  10.543 -0.0086  0.2179  0.5088
  350MPD2    C4 5245   2.911   0.540  10.585 -0.7124 -0.3051 -0.5915
  350MPD2    C5 5246   2.800   0.560  10.512  0.2380  0.6091  0.1945
  350MPD2     H 5247   3.078   0.341  10.386  0.6932 -0.5372  2.4055
  350MPD2    H1 5248   2.920   0.594  10.679 -1.6929  1.5653 -1.5801
  350MPD2    H2 5249   2.700   0.520  10.331 -1.3649 -1.9430  1.1999
  350MPD2    H3 5250   2.724   0.633  10.540 -0.9678  0.1813 -1.9813
  350MPD2     N 5251   3.131   0.415  10.615  0.6419 -0.4209 -0.5250
  350MPD2    H5 5252   3.203   0.357  10.574 -1.4346 -4.2249  1.0846
  350MPD2    N1 5253   2.894   0.385  10.202 -0.2956 -0.0173  0.2036
  350MPD2    H7 5254   2.973   0.331  10.168 -0.6528  0.3132 -1.1644
  351TMC3    C1 5255   2.815   0.321   9.985 -0.0542  0.2538 -0.0767
  351TMC3    C2 5256   2.873   0.205   9.995  0.2417  0.1263 -0.4487
  351TMC3    C3 5257   2.915   0.142   9.878 -0.2869 -0.4153  0.0752
  351TMC3    C4 5258   2.764   0.363   9.866 -0.2970  0.5509  0.0770
  351TMC3    C5 5259   2.820   0.314   9.753 -0.5120 -0.2648  0.0079
  351TMC3    C6 5260   2.898   0.203   9.756 -0.3839 -0.7670 -0.2190
  351TMC3     C 5261   2.791   0.396  10.107 -0.1728 -0.2164  0.5768
  351TMC3     O 5262   2.683   0.448  10.113  0.0046  0.6004 -0.1713
  351TMC3     H 5263   2.911   0.166  10.088 -1.3035 -0.5180 -0.0813
  351TMC3    H1 5264   2.688   0.439   9.855 -1.4634 -0.4032  1.5033
  351TMC3    H2 5265   2.935   0.165   9.662  1.6856  1.0676 -0.1399
  351TMC3    C7 5266   2.780   0.365   9.624  0.0101 -0.4159  0.1050
  351TMC3    C8 5267   3.023   0.047   9.889 -0.3213  0.2657 -0.5038
  351TMC3    O1 5268   2.784   0.291   9.527  0.0538  0.2519 -0.2178
  351TMC3    O2 5269   3.089   0.033   9.789 -0.3693  0.2828 -0.2222
  352MPD2     C 5270   2.871   2.698   0.768 -0.1781 -0.5819  0.0289
  352MPD2    C1 5271   2.816   2.614   0.864  0.3026  0.0097 -0.8064
  352MPD2    C2 5272   2.846   2.480   0.851 -0.0529 -0.1312 -0.1513
  352MPD2    C3 5273   2.930   2.433   0.753 -0.4408  0.2002  0.1417
  352MPD2    C4 5274   2.986   2.519   0.657  0.3458  0.1258 -0.2653
  352MPD2    C5 5275   2.953   2.652   0.663  0.3359 -1.0050  0.3797
  352MPD2     H 5276   2.799   2.409   0.917 -0.4392  0.4110  0.1595
  352MPD2    H1 5277   3.050   2.478   0.580  0.6941  0.7990 -0.3400
  352MPD2    H2 5278   2.851   2.804   0.776  0.8826 -0.3977  0.2078
  352MPD2    H3 5279   2.993   2.724   0.592 -0.8410 -1.3505 -0.6268
  352MPD2     N 5280   2.977   2.302   0.747 -0.4800 -0.2217  0.3900
  352MPD2    H5 5281   3.015   2.273   0.658 -0.2151 -2.0166  1.0793
  352MPD2    N1 5282   2.735   2.672   0.964  0.0193  0.2421  0.0682
  352MPD2    H7 5283   2.714   2.771   0.959 -0.3134  0.1395 -0.5249
  353TMC3    C1 5284   3.001   2.072   0.810  0.1038  0.3861  0.6228
  353TMC3    C2 5285   3.088   2.030   0.712 -0.0380  0.3028 -0.1659
  353TMC3    C3 5286   3.114   1.894   0.696 -0.8956 -0.4302  0.0151
  353TMC3    C4 5287   2.935   1.976   0.887 -0.0061  0.5162  0.0777
  353TMC3    C5 5288   2.957   1.844   0.859  0.4675  0.9083 -0.3261
  353TMC3    C6 5289   3.056   1.802   0.774 -0.4322 -0.4034 -0.2241
  353TMC3     C 5290   2.951   2.205   0.837 -0.0942 -0.2625 -0.0458
  353TMC3     O 5291   2.913   2.218   0.952 -0.5975 -0.5249  0.4279
  353TMC3     H 5292   3.136   2.105   0.650 -1.0807  0.1534 -1.1320
  353TMC3    H1 5293   2.850   2.005   0.948  0.8188  0.9529  1.0139
  353TMC3    H2 5294   3.069   1.701   0.737  0.3662 -0.3881  0.0079
  353TMC3    C7 5295   2.848   1.754   0.878  0.9110 -0.4049 -0.6450
  353TMC3    C8 5296   3.195   1.859   0.579  0.2717  0.5355  0.1515
  353TMC3    O1 5297   2.734   1.788   0.849  0.2732 -0.0426  0.1147
  353TMC3    O2 5298   3.257   1.949   0.525 -0.5220  0.0190  0.0455
  354TMC3    C1 5299   4.297   3.830  13.260 -0.1622 -0.2862  0.2160
  354TMC3    C2 5300   4.351   3.957  13.266 -0.4142  0.5017  0.3459
  354TMC3    C3 5301   4.346   4.038  13.158 -0.1398  0.0516  0.0880
  354TMC3    C4 5302   4.247   3.778  13.144  0.5133  0.3420 -0.0805
  354TMC3    C5 5303   4.251   3.857  13.037 -0.6376  0.6709  0.6108
  354TMC3    C6 5304   4.294   3.986  13.046 -0.0494  0.6770 -0.1282
  354TMC3     C 5305   4.265   3.757  13.377 -0.6482  0.0310 -0.4230
  354TMC3     O 5306   4.179   3.673  13.357 -0.5907 -0.1754 -0.3214
  354TMC3     H 5307   4.374   3.996  13.364  0.2295  1.2232 -0.0903
  354TMC3    H1 5308   4.234   3.670  13.140  0.7196  0.2082  2.5130
  354TMC3    H2 5309   4.292   4.057  12.964 -1.0120  0.1898 -0.5266
  354TMC3    C7 5310   4.306   3.783  12.923  0.1871  0.0898  0.7081
  354TMC3    C8 5311   4.447   4.144  13.141  0.6969  0.0773 -0.7047
  354TMC3    O1 5312   4.260   3.674  12.887 -0.1609 -0.5918 -0.7200
  354TMC3    O2 5313   4.502   4.143  13.031 -0.2318 -0.4063  0.1262
  355MPD2     C 5314   4.264   4.485  11.606  0.2109 -0.0595  0.3588
  355MPD2    C1 5315   4.327   4.534  11.494  1.0823  0.1107  0.7447
  355MPD2    C2 5316   4.462   4.553  11.484 -0.1973  0.5353  0.2323
  355MPD2    C3 5317   4.529   4.559  11.607  1.2623  0.8155 -0.1153
  355MPD2    C4 5318   4.468   4.513  11.719  0.1045 -0.2776  0.6073
  355MPD2    C5 5319   4.335   4.469  11.716  0.1709 -0.0970 -0.0092
  355MPD2     H 5320   4.501   4.561  11.383  0.8987  2.3635  0.7958
  355MPD2    H1 5321   4.518   4.507  11.815  1.1925  1.4866  0.1335
  355MPD2    H2 5322   4.160   4.454  11.601  0.1454  0.0126  1.2197
  355MPD2    H3 5323   4.289   4.433  11.807 -0.3378  0.4286 -0.0553
  355MPD2     N 5324   4.662   4.604  11.616 -0.3313  0.6290  0.0784
  355MPD2    H5 5325   4.709   4.596  11.706 -0.5796 -1.4850  0.0059
  355MPD2    N1 5326   4.240   4.544  11.384  0.2441 -0.2711  0.1247
  355MPD2    H7 5327   4.151   4.497  11.397 -0.0987  0.8795  1.9302
  356TMC3    C1 5328   0.136   0.006  11.555 -0.5131  0.3137  0.1170
  356TMC3    C2 5329   0.194   0.069  11.449 -0.0338  0.4947 -0.4277
  356TMC3    C3 5330   0.289   0.164  11.479  0.2953  0.0303  0.2144
  356TMC3    C4 5331   0.170   0.029  11.684  0.2934  0.2144 -0.2857
  356TMC3    C5 5332   0.265   0.126  11.704  0.2931  0.0904  0.1255
  356TMC3    C6 5333   0.318   0.204  11.607  0.8242  0.6488  0.2035
  356TMC3     C 5334   0.016   4.655  11.518  0.5855 -0.1969 -0.5777
  356TMC3     O 5335   4.710   4.649  11.399 -0.2006 -0.5669  0.0390
  356TMC3     H 5336   0.149   0.058  11.351  0.7645 -2.3519 -0.4961
  356TMC3    H1 5337   0.118   4.716  11.772 -0.0818 -0.7598 -0.8898
  356TMC3    H2 5338   0.408   0.262  11.625  0.6410  1.5066 -1.6360
  356TMC3    C7 5339   0.283   0.164  11.843  0.1544  0.0850  0.9885
  356TMC3    C8 5340   0.390   0.175  11.370 -0.4923  0.2844 -0.0692
  356TMC3    O1 5341   0.223   0.099  11.929  0.3155  0.3276 -0.0835
  356TMC3    O2 5342   0.389   0.100  11.275  0.3172  0.1416 -0.0136
  357MPD2     C 5343   4.720   3.759   1.552 -0.1688 -0.5093 -0.2911
  357MPD2    C1 5344   4.604   3.780   1.475 -0.3628 -0.0380  0.1888
  357MPD2    C2 5345   4.509   3.869   1.522  0.7089 -0.1847 -0.5572
  357MPD2    C3 5346   4.516   3.923   1.652 -0.8543  0.1433  0.5421
  357MPD2    C4 5347   4.625   3.891   1.729  0.4071 -0.0169  0.3663
  357MPD2    C5 5348   0.004   3.813   1.675  0.6555 -0.6052 -0.0119
  357MPD2     H 5349   4.418   3.892   1.466  1.4826  0.0296 -1.7226
  357MPD2    H1 5350   4.640   3.937   1.826  2.8920  0.1276 -0.0879
  357MPD2    H2 5351   0.081   3.695   1.522 -0.3284  0.0285 -1.8416
  357MPD2    H3 5352   0.099   3.807   1.727 -0.8659 -0.5306  2.8126
  357MPD2     N 5353   4.428   4.011   1.703 -0.1785 -0.3430 -0.2193
  357MPD2    H5 5354   4.425   4.019   1.804 -1.5324 -0.6769 -0.2384
  357MPD2    N1 5355   4.595   3.695   1.356  0.2457  0.8293  0.5053
  357MPD2    H7 5356   4.669   3.626   1.346 -0.7025 -0.1221  0.0786
  358TMC3    C1 5357   4.475   3.592   1.187 -0.5512  0.2566  0.4466
  358TMC3    C2 5358   4.368   3.600   1.103 -0.4227 -1.3109  0.1423
  358TMC3    C3 5359   4.309   3.480   1.064 -0.1651  0.6862  1.0629
  358TMC3    C4 5360   4.524   3.470   1.225 -0.4991 -0.8800 -0.1922
  358TMC3    C5 5361   4.472   3.355   1.180 -0.1273 -0.3991 -0.6721
  358TMC3    C6 5362   4.352   3.358   1.106  0.3486  0.0330 -0.0694
  358TMC3     C 5363   4.497   3.710   1.265  0.9052  0.6226  0.4848
  358TMC3     O 5364   4.424   3.806   1.248  0.2064 -0.0512  0.0496
  358TMC3     H 5365   4.311   3.691   1.084 -1.5821 -1.8529  1.0385
  358TMC3    H1 5366   4.612   3.462   1.288  0.6985  1.4212 -1.6138
  358TMC3    H2 5367   4.290   3.271   1.091  0.9505 -0.4363  0.1470
  358TMC3    C7 5368   4.512   3.230   1.241 -1.3138 -0.2253 -0.2670
  358TMC3    C8 5369   4.240   3.482   0.934  0.5565  0.0283  0.2580
  358TMC3    O1 5370   4.591   3.238   1.335 -0.5538 -0.5119  0.3973
  358TMC3    O2 5371   4.262   3.581   0.866  0.2572 -0.0168  0.6311
  359MPD2     C 5372   4.667   3.086  13.129  0.7399  0.2626  0.5171
  359MPD2    C1 5373   4.636   3.017  13.009 -0.4865 -0.8282  0.5061
  359MPD2    C2 5374   4.514   2.954  13.002  0.2774 -0.1156 -0.2076
  359MPD2    C3 5375   4.417   2.961  13.103  0.7200 -0.0327  0.3711
  359MPD2    C4 5376   4.456   3.031  13.219 -0.3761  0.0012  0.6594
  359MPD2    C5 5377   4.582   3.085  13.230 -0.3002  0.1939 -0.4394
  359MPD2     H 5378   4.498   2.907  12.905 -0.2150 -0.4480  0.0348
  359MPD2    H1 5379   4.388   3.038  13.304 -0.8360 -3.3896  0.5742
  359MPD2    H2 5380   0.044   3.121  13.154  0.8106  0.5926 -0.2177
  359MPD2    H3 5381   4.606   3.134  13.324  1.8948 -0.7271 -0.5331
  359MPD2     N 5382   4.291   2.903  13.092  0.4698  0.0215 -0.1017
  359MPD2    H5 5383   4.232   2.897  13.174 -1.6884 -0.2396 -1.6697
  359MPD2    N1 5384   4.722   3.007  12.900  0.4876 -0.0671 -0.4936
  359MPD2    H7 5385   4.688   2.954  12.820 -3.2634  1.3435  0.1620
  360TMC3    C1 5386   0.179   3.027  12.745  0.1577  0.5416 -0.2451
  360TMC3    C2 5387   0.315   3.022  12.723  0.5415 -0.0298  0.5272
  360TMC3    C3 5388   0.369   3.033  12.592  0.2953  0.1034  0.5720
  360TMC3    C4 5389   0.089   3.049  12.646  0.0723  0.5226  0.1621
  360TMC3    C5 5390   0.141   3.048  12.518  0.5684  0.6068  0.9027
  360TMC3    C6 5391   0.277   3.036  12.487  0.0259  0.2755  0.1970
  360TMC3     C 5392   0.129   3.056  12.885 -0.1919 -0.1344  0.1037
  360TMC3     O 5393   0.200   3.110  12.970 -0.1181  0.4650  0.3589
  360TMC3     H 5394   0.379   2.999  12.807 -0.3591 -0.5829  1.0577
  360TMC3    H1 5395   4.706   3.066  12.662  0.3803  2.5855 -0.0088
  360TMC3    H2 5396   0.309   3.030  12.384  0.0906 -0.7959  0.2784
  360TMC3    C7 5397   0.054   3.028  12.404 -0.3589 -0.4221 -0.2444
  360TMC3    C8 5398   0.498   2.976  12.567  0.4101  0.1703  0.2344
  360TMC3    O1 5399   0.095   3.065  12.294 -0.0459  0.1945 -0.0737
  360TMC3    O2 5400   0.547   2.929  12.666 -0.1476  1.0488 -0.1971
  361MPD2     C 5401   1.520   2.178  16.790 -0.3202  0.2067 -0.9219
  361MPD2    C1 5402   1.441   2.066  16.833 -0.0377 -0.6869 -0.1607
  361MPD2    C2 5403   1.502   1.939  16.847  0.1197 -0.0701 -0.3750
  361MPD2    C3 5404   1.642   1.932  16.821 -0.1949 -0.4454 -0.3521
  361MPD2    C4 5405   1.717   2.044  16.786  0.7609  0.9019  0.0703
  361MPD2    C5 5406   1.652   2.156  16.760  0.4528  0.3679  0.9265
  361MPD2     H 5407   1.449   1.852  16.883 -1.5792  0.8144 -0.7316
  361MPD2    H1 5408   1.821   2.036  16.759  0.1004 -3.5677 -1.1374
  361MPD2    H2 5409   1.480   2.277  16.770 -0.3656  0.5057  0.6780
  361MPD2    H3 5410   1.720   2.234  16.727  1.1261 -0.4416  0.4038
  361MPD2     N 5411   1.708   1.810  16.845 -0.2310 -0.2966  0.2449
  361MPD2    H5 5412   1.809   1.817  16.858  0.0328  1.8625 -2.9128
  361MPD2    N1 5413   1.307   2.097  16.865  0.0935  0.1723  0.1961
  361MPD2    H7 5414   1.274   2.191  16.849 -0.4651  0.0460  0.6003
  362TMC3    C1 5415   1.080   2.058  16.914  0.3603 -0.4175  0.2514
  362TMC3    C2 5416   1.011   2.008  17.017 -0.0089 -0.5176 -0.0452
  362TMC3    C3 5417   0.898   2.083  17.049  0.5999  0.1416 -0.4500
  362TMC3    C4 5418   1.037   2.154  16.837  0.4660  0.7491 -0.2679
  362TMC3    C5 5419   0.919   2.217  16.862 -0.1643 -0.0368 -0.5902
  362TMC3    C6 5420   0.859   2.198  16.984 -0.0350  0.1334  0.4566
  362TMC3     C 5421   1.209   2.004  16.896  0.0900  0.5996 -0.0035
  362TMC3     O 5422   1.222   1.886  16.928 -0.2175 -0.0115  1.0081
  362TMC3     H 5423   1.029   1.912  17.064  1.3308 -0.8512 -1.2543
  362TMC3    H1 5424   1.090   2.186  16.748  0.6123 -1.3954 -0.9448
  362TMC3    H2 5425   0.767   2.250  17.008 -0.5140 -0.8420  0.7275
  362TMC3    C7 5426   0.849   2.266  16.745  0.2689 -0.4318 -0.3546
  362TMC3    C8 5427   0.809   2.019  17.142  0.1766  0.5156  0.6299
  362TMC3    O1 5428   0.760   2.351  16.753  0.4173  0.3969 -0.2020
  362TMC3    O2 5429   0.828   1.901  17.173 -0.1994 -0.0916  0.1721
  363TMC3    C1 5430   4.146   4.621  10.283  0.6117 -0.0429  0.2618
  363TMC3    C2 5431   4.146   4.506  10.354  0.3006  0.3212  0.5387
  363TMC3    C3 5432   4.036   4.468  10.420 -0.5539  0.3182  0.5225
  363TMC3    C4 5433   4.036   4.702  10.279  0.5658  0.5594  0.1703
  363TMC3    C5 5434   3.920   4.659  10.343 -0.6443  0.7714 -0.8240
  363TMC3    C6 5435   3.914   4.538  10.415 -0.3137 -0.4214 -0.3638
  363TMC3     C 5436   4.241   4.643  10.175  0.3997  0.2187 -0.1072
  363TMC3     O 5437   4.229   0.028  10.115 -0.0227 -0.3417  0.7407
  363TMC3     H 5438   4.243   4.461  10.372  0.3013 -1.6023 -4.1497
  363TMC3    H1 5439   4.055   0.079  10.239  0.6371  0.5098  0.0811
  363TMC3    H2 5440   3.827   4.492  10.462 -1.5375  2.5781  0.2930
  363TMC3    C7 5441   3.795   4.698  10.269  0.5474  0.0907 -0.1809
  363TMC3    C8 5442   4.041   4.361  10.515  0.9516  0.9294 -0.3446
  363TMC3    O1 5443   3.810   0.031  10.163  0.1553  0.1776  0.3124
  363TMC3    O2 5444   3.957   4.357  10.605 -0.6229  0.2083 -0.1558
  364MPD2     C 5445   3.543   3.362  10.382 -0.3581 -0.2851 -0.0520
  364MPD2    C1 5446   3.567   3.471  10.459  0.3180 -0.5437 -0.0747
  364MPD2    C2 5447   3.610   3.456  10.592 -0.1248 -0.0645 -0.0210
  364MPD2    C3 5448   3.626   3.330  10.645 -0.0349  0.2181  0.0460
  364MPD2    C4 5449   3.601   3.222  10.566  0.2434 -0.0268 -0.1240
  364MPD2    C5 5450   3.567   3.230  10.438 -0.6766  0.1808 -0.5798
  364MPD2     H 5451   3.636   3.543  10.651 -3.2048 -0.7813  2.4269
  364MPD2    H1 5452   3.616   3.126  10.613 -0.7879 -0.6194 -1.0081
  364MPD2    H2 5453   3.507   3.363  10.280  0.4591 -1.0232 -0.3480
  364MPD2    H3 5454   3.546   3.146  10.373 -2.6192 -1.3736  2.0210
  364MPD2     N 5455   3.660   3.297  10.778 -0.0863  0.1002  0.1188
  364MPD2    H5 5456   3.689   3.202  10.801 -0.1876 -0.7060 -3.1649
  364MPD2    N1 5457   3.559   3.598  10.396 -0.2551 -0.4148  0.1217
  364MPD2    H7 5458   3.549   3.605  10.295  0.1052 -2.9430 -0.0798
  365TMC3    C1 5459   3.570   3.855  10.392 -0.0338  0.8234  0.4913
  365TMC3    C2 5460   3.527   3.858  10.262 -0.1737  0.2065 -0.1696
  365TMC3    C3 5461   3.518   3.980  10.202  1.1480 -0.4138 -0.3972
  365TMC3    C4 5462   3.598   3.969  10.462 -0.5656  0.5247 -0.2562
  365TMC3    C5 5463   3.583   4.090  10.395  0.9413  0.4762  0.1963
  365TMC3    C6 5464   3.558   4.093  10.263  0.4615 -0.1959  0.3645
  365TMC3     C 5465   3.567   3.727  10.465 -0.0312 -0.5193  0.5284
  365TMC3     O 5466   3.569   3.739  10.589 -0.3426  0.0148  0.5709
  365TMC3     H 5467   3.459   3.781  10.228 -1.2185  0.1030  2.2254
  365TMC3    H1 5468   3.637   3.955  10.562 -1.8636  1.1605  0.3380
  365TMC3    H2 5469   3.518   4.185  10.221 -1.6494 -1.7314 -0.9580
  365TMC3    C7 5470   3.586   4.207  10.479  0.8699  0.1398 -0.5164
  365TMC3    C8 5471   3.446   3.997  10.075 -0.8840  0.4549 -0.9568
  365TMC3    O1 5472   3.627   4.312  10.434 -0.3263 -0.1223 -0.1492
  365TMC3    O2 5473   3.431   4.110  10.024  0.0496 -0.0231  0.0968
  366MPD2     C 5474   1.277   0.882  15.480 -0.2323  0.2364 -0.2842
  366MPD2    C1 5475   1.409   0.837  15.447  0.3297  0.0386  0.3163
  366MPD2    C2 5476   1.437   0.706  15.449 -0.7915 -0.2290  0.0657
  366MPD2    C3 5477   1.344   0.610  15.470 -0.1257 -0.3992 -0.0401
  366MPD2    C4 5478   1.218   0.652  15.502 -0.1416 -1.3224  0.1512
  366MPD2    C5 5479   1.178   0.784  15.504  0.2764  0.0139 -0.7825
  366MPD2     H 5480   1.532   0.667  15.415 -0.5422  1.9572 -1.6933
  366MPD2    H1 5481   1.144   0.575  15.518 -0.2227 -0.5834  3.3196
  366MPD2    H2 5482   1.257   0.987  15.464 -0.6972  0.4459  1.7274
  366MPD2    H3 5483   1.074   0.814  15.513  1.4486  3.4078  1.5107
  366MPD2     N 5484   1.375   0.478  15.431  0.0558  0.8300  0.9115
  366MPD2    H5 5485   1.473   0.455  15.437  0.2554  1.4845  0.2843
  366MPD2    N1 5486   1.511   0.934  15.430 -0.1463  0.2170 -0.1407
  366MPD2    H7 5487   1.484   1.031  15.433 -2.3601 -0.4013 -0.1944
  367TMC3    C1 5488   1.720   1.035  15.382  0.3888  0.1360 -0.0703
  367TMC3    C2 5489   1.857   1.027  15.403 -0.3039 -0.3105 -0.8656
  367TMC3    C3 5490   1.942   1.124  15.364  0.1251  0.6748 -0.1322
  367TMC3    C4 5491   1.675   1.136  15.308  0.1096 -0.1119 -0.1359
  367TMC3    C5 5492   1.766   1.238  15.277  0.4171 -0.4493  0.5003
  367TMC3    C6 5493   1.897   1.241  15.310 -0.4372  0.2394  0.0419
  367TMC3     C 5494   1.643   0.907  15.398  0.1443 -1.0874  0.3419
  367TMC3     O 5495   1.710   0.804  15.404 -0.2815  0.4998 -0.1193
  367TMC3     H 5496   1.893   0.936  15.449 -1.7541 -1.1186 -1.3257
  367TMC3    H1 5497   1.575   1.130  15.269 -0.2607  0.3768  0.7351
  367TMC3    H2 5498   1.962   1.324  15.285 -1.4788  0.1847 -2.8780
  367TMC3    C7 5499   1.723   1.320  15.164  0.2154  0.7823 -0.7370
  367TMC3    C8 5500   2.079   1.116  15.420  0.3279 -0.2607 -0.5354
  367TMC3    O1 5501   1.601   1.332  15.145  0.4793  0.5020  0.0523
  367TMC3    O2 5502   2.115   1.007  15.462  0.0303  0.1426  0.0240
  368MPD2     C 5503   3.490   1.694  13.272 -0.7865  0.6617  0.1387
  368MPD2    C1 5504   3.486   1.744  13.141 -0.5467 -0.4074  0.5181
  368MPD2    C2 5505   3.588   1.733  13.051  0.0539  0.4254  0.7352
  368MPD2    C3 5506   3.707   1.676  13.095 -0.5511  0.3548  0.3140
  368MPD2    C4 5507   3.715   1.639  13.226 -0.3988  0.0865 -0.3461
  368MPD2    C5 5508   3.607   1.643  13.313  0.4713  0.1511 -0.4566
  368MPD2     H 5509   3.583   1.779  12.952 -3.1557  1.2813  1.3234
  368MPD2    H1 5510   3.807   1.596  13.263 -0.3687 -1.2617 -1.9955
  368MPD2    H2 5511   3.404   1.677  13.336 -1.7399 -2.4040 -1.9554
  368MPD2    H3 5512   3.608   1.592  13.409  1.0799  1.7607  0.4012
  368MPD2     N 5513   3.822   1.666  13.011 -0.0874 -0.4195 -0.4519
  368MPD2    H5 5514   3.915   1.661  13.053 -0.3523  2.8985  0.5311
  368MPD2    N1 5515   3.364   1.802  13.098  0.8088 -0.2049 -0.9049
  368MPD2    H7 5516   3.287   1.804  13.164  0.1456  0.1746 -1.6938
  369TMC3    C1 5517   3.220   1.947  12.978 -0.2739  0.1882 -0.2614
  369TMC3    C2 5518   3.206   2.079  12.960  0.1985  0.2404 -0.9816
  369TMC3    C3 5519   3.077   2.124  12.966 -0.4191 -0.4606  0.3695
  369TMC3    C4 5520   3.115   1.863  13.017  0.9570  0.2890  0.2498
  369TMC3    C5 5521   2.990   1.917  13.021  0.1088 -0.1096 -0.3978
  369TMC3    C6 5522   2.974   2.044  12.992 -0.2878 -0.0993  0.1011
  369TMC3     C 5523   3.356   1.893  12.992  0.2561 -0.3084 -0.8818
  369TMC3     O 5524   3.443   1.956  12.934  0.0484 -0.3220  0.3601
  369TMC3     H 5525   3.288   2.138  12.922  0.0604  1.2638  0.3135
  369TMC3    H1 5526   3.125   1.762  13.056 -0.1239 -0.2518 -0.8631
  369TMC3    H2 5527   2.878   2.092  13.008 -0.4262  0.4858 -2.5369
  369TMC3    C7 5528   2.891   1.852  13.110 -0.0318 -0.1011 -0.2076
  369TMC3    C8 5529   3.042   2.262  12.990 -0.4678 -0.0914 -0.3912
  369TMC3    O1 5530   2.930   1.776  13.199 -0.4797 -0.1255 -0.5197
  369TMC3    O2 5531   2.932   2.309  12.961 -0.1727  0.0591  0.4397
  370TMC3    C1 5532   2.249   2.846  16.093 -0.0118 -0.8131  0.2671
  370TMC3    C2 5533   2.186   2.782  16.200  0.1445  0.1611  0.3317
  370TMC3    C3 5534   2.202   2.641  16.203 -0.2154 -0.2325 -0.3266
  370TMC3    C4 5535   2.315   2.780  15.997 -0.0583  0.0560  0.1136
  370TMC3    C5 5536   2.340   2.647  16.019 -0.0615 -0.1093  0.1903
  370TMC3    C6 5537   2.287   2.573  16.122  1.0794 -0.4820 -0.5202
  370TMC3     C 5538   2.221   2.990  16.076  0.2134  0.5630  0.0505
  370TMC3     O 5539   2.122   3.039  16.131  0.0449  0.5215  0.0076
  370TMC3     H 5540   2.139   2.841  16.277  0.4545  0.3355  0.3843
  370TMC3    H1 5541   2.363   2.834  15.916  0.3266 -2.3540 -1.2929
  370TMC3    H2 5542   2.299   2.466  16.134  0.8653 -0.3360  0.9745
  370TMC3    C7 5543   2.393   2.573  15.903  0.5332 -0.0590 -0.0780
  370TMC3    C8 5544   2.178   2.576  16.339  0.5939  0.1447 -0.0188
  370TMC3    O1 5545   2.338   2.598  15.795 -0.5030  0.5309 -0.1749
  370TMC3    O2 5546   2.212   2.462  16.349 -0.0493 -0.2215 -0.5814
  371TMC3    C1 5547   3.720   0.912  15.584  0.2904 -0.0159  0.4113
  371TMC3    C2 5548   3.622   0.965  15.666  0.0481 -0.9255 -0.3628
  371TMC3    C3 5549   3.592   1.095  15.637 -0.2110  0.1817  0.2403
  371TMC3    C4 5550   3.788   0.982  15.488 -0.1653  0.3403 -0.1249
  371TMC3    C5 5551   3.755   1.117  15.473  0.1150  0.2343  1.1196
  371TMC3    C6 5552   3.651   1.174  15.538  0.5624  0.4347 -0.0064
  371TMC3     C 5553   3.749   0.771  15.579 -0.3738  0.7019 -0.2525
  371TMC3     O 5554   3.863   0.739  15.545 -0.3107  0.0111 -0.3441
  371TMC3     H 5555   3.580   0.905  15.746  0.8813 -0.1337  0.6845
  371TMC3    H1 5556   3.873   0.934  15.440  1.4536  1.4849  1.6131
  371TMC3    H2 5557   3.638   1.280  15.517 -2.1131  0.0606 -0.3507
  371TMC3    C7 5558   3.826   1.184  15.367  0.3692  0.0580 -0.5346
  371TMC3    C8 5559   3.453   1.124  15.680  0.2470 -0.4037  0.5297
  371TMC3    O1 5560   3.823   1.308  15.365 -0.4714 -0.2073  0.5421
  371TMC3    O2 5561   3.386   1.024  15.701 -0.3538  0.2987 -0.1126
  372MPD2     C 5562   3.139   2.078  13.355  0.1912  0.2173  0.6375
  372MPD2    C1 5563   3.243   2.008  13.408 -0.0183 -0.0306 -1.5157
  372MPD2    C2 5564   3.215   1.907  13.498  0.4567 -0.1983 -1.2827
  372MPD2    C3 5565   3.090   1.881  13.540  0.5732 -0.2998  0.1067
  372MPD2    C4 5566   2.984   1.945  13.482  0.2580  0.4530 -0.9927
  372MPD2    C5 5567   3.009   2.047  13.394  0.1461 -0.1514  0.4778
  372MPD2     H 5568   3.297   1.849  13.541 -0.6883 -0.8559  0.0090
  372MPD2    H1 5569   2.884   1.910  13.505  1.0674 -0.8652  0.4418
  372MPD2    H2 5570   3.154   2.160  13.285 -0.9759  3.7051  4.4176
  372MPD2    H3 5571   2.922   2.092  13.349 -0.4383 -1.6309  0.1172
  372MPD2     N 5572   3.074   1.780  13.646  0.0288  0.3018 -0.2279
  372MPD2    H5 5573   3.156   1.729  13.678 -0.4441 -0.3012  0.0142
  372MPD2    N1 5574   3.379   2.023  13.378 -0.0530  0.2935  0.0474
  372MPD2    H7 5575   3.436   1.978  13.449  0.2513 -0.9212 -0.9688
  373TMC3    C1 5576   2.980   1.666  13.818  0.2780  0.0377  0.3423
  373TMC3    C2 5577   3.031   1.745  13.917  0.6468  0.0648 -0.7072
  373TMC3    C3 5578   3.132   1.695  13.995  0.2765 -0.0143 -0.3578
  373TMC3    C4 5579   3.033   1.537  13.805 -0.3468  0.1665  0.0081
  373TMC3    C5 5580   3.133   1.492  13.882 -0.2052  0.1084 -0.2123
  373TMC3    C6 5581   3.180   1.572  13.980  0.1737  0.1193 -0.0293
  373TMC3     C 5582   2.957   1.740  13.699  0.9727  0.3744 -0.1967
  373TMC3     O 5583   2.841   1.755  13.657 -0.1575 -0.2180  0.1586
  373TMC3     H 5584   3.028   1.852  13.902 -1.3187  0.0020 -0.7606
  373TMC3    H1 5585   3.012   1.487  13.711  0.4080  0.0824 -0.1140
  373TMC3    H2 5586   3.269   1.542  14.033  0.3318 -0.7057 -0.7521
  373TMC3    C7 5587   3.218   1.389  13.819 -0.2233  0.5557  0.1726
  373TMC3    C8 5588   3.207   1.788  14.078 -0.3055  0.2947 -0.6252
  373TMC3    O1 5589   3.207   1.393  13.697 -0.2682  0.1427  0.9304
  373TMC3    O2 5590   3.327   1.765  14.098  0.6689  0.0465 -0.1621
  374TMC3    C1 5591   3.258   2.278   9.998 -0.6129  0.2614 -0.2550
  374TMC3    C2 5592   3.395   2.257  10.011  0.6117 -0.2775 -0.6514
  374TMC3    C3 5593   3.451   2.214   9.894 -0.0991 -0.7411 -0.0889
  374TMC3    C4 5594   3.187   2.253   9.891 -0.4316 -0.1462 -0.6710
  374TMC3    C5 5595   3.262   2.230   9.776  0.3236  0.4717  0.5036
  374TMC3    C6 5596   3.388   2.191   9.778 -0.0789 -0.6686  0.0591
  374TMC3     C 5597   3.177   2.306  10.119 -0.5076  0.0323  0.6426
  374TMC3     O 5598   3.058   2.338  10.094 -1.0195  0.6601 -0.3276
  374TMC3     H 5599   3.452   2.274  10.101  0.5042 -1.1175 -0.4321
  374TMC3    H1 5600   3.082   2.281   9.888 -0.6798 -1.0738 -0.5600
  374TMC3    H2 5601   3.442   2.146   9.695 -1.7466  1.2893 -2.1200
  374TMC3    C7 5602   3.198   2.252   9.652  0.3052  0.0434 -0.3105
  374TMC3    C8 5603   3.597   2.222   9.890  0.2841 -0.5182 -0.1618
  374TMC3    O1 5604   3.074   2.258   9.664 -0.0688 -0.1603  0.4411
  374TMC3    O2 5605   3.649   2.219   9.777  0.0068  0.4629  0.4316
  375MPD2     C 5606   3.690   2.413  16.989  0.3125 -0.0566 -0.4392
  375MPD2    C1 5607   3.738   2.538  16.973 -0.1082 -0.0673 -0.0243
  375MPD2    C2 5608   3.820   2.572  16.871 -0.1361  0.4103  0.8081
  375MPD2    C3 5609   3.879   2.465  16.789 -1.4237 -0.9079  0.1865
  375MPD2    C4 5610   3.836   2.333  16.811  0.0672 -0.2384  0.0730
  375MPD2    C5 5611   3.749   2.315  16.914  0.6115  0.4874  0.1181
  375MPD2     H 5612   3.851   2.674  16.853 -0.1216  0.4977  1.3371
  375MPD2    H1 5613   3.878   2.251  16.754  0.6707 -1.4932  2.3356
  375MPD2    H2 5614   3.621   2.391  17.070  0.4379  2.1627  0.2492
  375MPD2    H3 5615   3.713   2.215  16.939  0.8030  0.0770 -1.2495
  375MPD2     N 5616   3.961   2.483  16.681 -0.5134 -0.0687  0.0611
  375MPD2    H5 5617   3.982   2.402  16.623 -2.9190 -0.3280 -0.4687
  375MPD2    N1 5618   3.678   2.645  17.041 -0.7857  0.2059  0.5794
  375MPD2    H7 5619   3.704   2.739  17.015 -3.6563  0.6360 -0.6462
  376TMC3    C1 5620   4.111   2.591  16.532  0.4090 -0.2848  0.1582
  376TMC3    C2 5621   4.239   2.631  16.543  0.5836 -0.0754 -0.4841
  376TMC3    C3 5622   4.313   2.635  16.434 -0.2536  0.4218 -0.3127
  376TMC3    C4 5623   4.058   2.543  16.418 -0.2548 -0.3524  0.3393
  376TMC3    C5 5624   4.142   2.536  16.310  0.2282  0.2183  0.7121
  376TMC3    C6 5625   4.267   2.586  16.313 -0.0435  0.1119 -0.1314
  376TMC3     C 5626   4.020   2.606  16.646  0.0545 -0.1949  0.2919
  376TMC3     O 5627   4.028   2.712  16.701 -0.3393 -0.3443 -0.0136
  376TMC3     H 5628   4.276   2.685  16.629 -0.2964  0.3742 -0.3788
  376TMC3    H1 5629   3.953   2.524  16.399 -1.0645  3.3547  0.9347
  376TMC3    H2 5630   4.331   2.597  16.226  1.6579  0.1399  1.1319
  376TMC3    C7 5631   4.073   2.542  16.189  0.2558 -0.0132 -0.5806
  376TMC3    C8 5632   4.423   2.731  16.417  0.2934 -0.9645 -0.0359
  376TMC3    O1 5633   3.971   2.614  16.191  0.3811  0.0619 -0.2195
  376TMC3    O2 5634   4.430   2.773  16.304 -0.0171 -0.4902  0.2983
  377MPD2     C 5635   1.819   2.953  12.084 -0.1311  0.1590 -0.8159
  377MPD2    C1 5636   1.904   2.897  12.176  0.5495 -0.2059  0.7420
  377MPD2    C2 5637   1.845   2.824  12.283  0.0580 -1.0729 -0.3722
  377MPD2    C3 5638   1.708   2.820  12.297  0.7618  0.1709  0.5805
  377MPD2    C4 5639   1.628   2.892  12.207 -0.9123 -0.5227 -0.1118
  377MPD2    C5 5640   1.684   2.946  12.092 -1.0805 -0.5223 -0.1260
  377MPD2     H 5641   1.905   2.760  12.348  0.9183 -2.7601 -2.8325
  377MPD2    H1 5642   1.522   2.895  12.229 -0.9914 -0.3307 -0.5297
  377MPD2    H2 5643   1.856   3.007  11.998  0.5607  0.9135 -0.0426
  377MPD2    H3 5644   1.623   2.989  12.014  2.3064  3.1010 -0.7753
  377MPD2     N 5645   1.650   2.760  12.413 -0.1616  0.5339 -0.5539
  377MPD2    H5 5646   1.549   2.752  12.424  0.0243  2.5371  2.4795
  377MPD2    N1 5647   2.041   2.930  12.148 -0.3806  0.5114  0.8960
  377MPD2    H7 5648   2.055   2.971  12.057 -0.0625  1.1802  1.2471
  378TMC3    C1 5649   2.443   2.956  12.008  0.6933  0.0980  0.1577
  378TMC3    C2 5650   2.306   2.949  12.046 -0.3982  0.9191  0.5529
  378TMC3    C3 5651   2.277   2.917  12.177 -0.5184  0.2044 -0.2137
  378TMC3    C4 5652   2.541   2.898  12.087  0.2239  0.0245  0.4122
  378TMC3    C5 5653   2.509   2.867  12.216  0.5828 -0.3652 -0.0753
  378TMC3    C6 5654   2.381   2.879  12.267  0.3590 -0.2454  0.1664
  378TMC3     C 5655   2.472   2.996  11.874 -0.5851  0.0064  0.3631
  378TMC3     O 5656   2.379   3.031  11.806 -0.1937 -0.4046 -0.3445
  378TMC3     H 5657   2.235   2.997  11.980 -2.1682 -0.6599  1.3379
  378TMC3    H1 5658   2.645   2.898  12.055  0.4473  3.0431  1.1818
  378TMC3    H2 5659   2.357   2.849  12.368 -0.2003 -1.2448 -0.2542
  378TMC3    C7 5660   2.611   2.806  12.302  0.7783 -0.1275  0.1802
  378TMC3    C8 5661   2.145   2.901  12.229  0.3344 -0.2617  0.2633
  378TMC3    O1 5662   2.569   2.757  12.406 -0.6127  0.1167 -0.5890
  378TMC3    O2 5663   2.140   2.860  12.342  0.0433  0.5245 -0.4139
  379MPD2     C 5664   3.250   0.996  15.985 -0.2319 -0.7288  0.1172
  379MPD2    C1 5665   3.152   0.955  16.072  0.0293  0.0448 -0.1305
  379MPD2    C2 5666   3.199   0.915  16.202  0.5838  0.1658  0.3640
  379MPD2    C3 5667   3.328   0.910  16.237  0.3311 -0.2890 -0.1406
  379MPD2    C4 5668   3.424   0.953  16.150  0.2748  0.0576  0.5396
  379MPD2    C5 5669   3.385   0.997  16.021 -0.6835  0.4038 -0.4646
  379MPD2     H 5670   3.126   0.885  16.275  0.7681 -0.0792  0.4471
  379MPD2    H1 5671   3.529   0.954  16.176  1.3977 -1.1943 -4.0454
  379MPD2    H2 5672   3.223   1.028  15.885  0.0627  2.4598  1.0300
  379MPD2    H3 5673   3.456   1.019  15.942  0.3009 -3.5707 -0.7107
  379MPD2     N 5674   3.374   0.863  16.359  0.4108 -0.1403  0.6213
  379MPD2    H5 5675   3.475   0.857  16.364  0.4327 -0.2599  0.0385
  379MPD2    N1 5676   3.015   0.962  16.034  0.6814  0.1246  0.5069
  379MPD2    H7 5677   2.994   0.990  15.938  0.4265  0.5792  0.6951
  380TMC3    C1 5678   2.782   0.924  16.049  0.0026 -0.3335  0.1790
  380TMC3    C2 5679   2.691   0.825  16.085  0.0667  0.0774  0.0510
  380TMC3    C3 5680   2.571   0.836  16.021  0.1585 -0.3974 -0.3339
  380TMC3    C4 5681   2.762   1.022  15.956 -0.8818  0.3432  0.2209
  380TMC3    C5 5682   2.638   1.048  15.916  0.7697  0.4855  0.3376
  380TMC3    C6 5683   2.542   0.950  15.942 -0.3722  0.0202  0.0858
  380TMC3     C 5684   2.911   0.908  16.102 -0.5940  0.2495  0.1425
  380TMC3     O 5685   2.903   0.855  16.213  0.0869  0.6005 -0.1836
  380TMC3     H 5686   2.727   0.744  16.147  2.1749  0.2566 -0.9514
  380TMC3    H1 5687   2.841   1.090  15.926  0.3868 -0.7200  1.1602
  380TMC3    H2 5688   2.443   0.959  15.898 -0.3401  1.4416  0.2926
  380TMC3    C7 5689   2.624   1.141  15.810 -0.5744  0.1596  0.3653
  380TMC3    C8 5690   2.528   0.706  15.963 -0.4303  0.2533  0.2082
  380TMC3    O1 5691   2.721   1.211  15.783 -0.4070 -1.0145 -0.3666
  380TMC3    O2 5692   2.488   0.711  15.846 -0.0983 -0.0420 -0.1095
  381TMC3    C1 5693   2.326   1.956  16.258 -0.2300 -0.1480  0.0887
  381TMC3    C2 5694   2.380   2.076  16.211 -0.7678  0.0120  0.2587
  381TMC3    C3 5695   2.388   2.181  16.304  0.0498 -0.4995  0.8483
  381TMC3    C4 5696   2.268   1.946  16.381  0.3541  0.0113  0.7879
  381TMC3    C5 5697   2.270   2.053  16.459  0.3677  0.0066  0.1237
  381TMC3    C6 5698   2.341   2.172  16.428 -0.4528 -0.1001  0.5125
  381TMC3     C 5699   2.337   1.833  16.188  0.5885  0.8559  0.0200
  381TMC3     O 5700   2.268   1.737  16.208 -0.2173  0.0582  0.2092
  381TMC3     H 5701   2.430   2.087  16.115 -0.7422  0.9826  0.3781
  381TMC3    H1 5702   2.233   1.848  16.413 -0.3533  0.2331  0.7039
  381TMC3    H2 5703   2.331   2.256  16.496  0.4769  0.0997  0.4113
  381TMC3    C7 5704   2.280   2.019  16.594  1.1797  0.0784  0.1156
  381TMC3    C8 5705   2.480   2.283  16.265  0.3809 -0.6510  0.2256
  381TMC3    O1 5706   2.340   1.916  16.614 -0.1806  0.0051 -0.4229
  381TMC3    O2 5707   2.540   2.264  16.164 -0.1476  0.0981 -0.2486
  382MPD2     C 5708   1.556   4.423  16.956  0.3053  0.6839  0.2986
  382MPD2    C1 5709   1.507   4.469  17.080  0.1276  1.0011 -0.0836
  382MPD2    C2 5710   1.475   4.375  17.181 -0.0792  0.1370 -0.2444
  382MPD2    C3 5711   1.472   4.236  17.150  0.2924 -0.3411  0.4707
  382MPD2    C4 5712   1.505   4.201  17.025 -0.2175 -0.1751 -0.3235
  382MPD2    C5 5713   1.539   4.293  16.928  0.0354 -0.1459 -0.3967
  382MPD2     H 5714   1.462   4.414  17.281  0.4434 -1.3421  0.3918
  382MPD2    H1 5715   1.510   4.096  17.000  0.1590 -0.1379 -0.3900
  382MPD2    H2 5716   1.596   4.485  16.877  0.2425 -0.1458 -0.3862
  382MPD2    H3 5717   1.567   4.258  16.829 -1.2251 -0.7860 -0.5389
  382MPD2     N 5718   1.437   4.140  17.244 -0.8337 -0.2010 -0.2529
  382MPD2    H5 5719   1.465   4.045  17.219  0.3502 -0.6284  2.6853
  382MPD2    N1 5720   1.518   4.606  17.113  0.5967  0.2611  0.1055
  382MPD2    H7 5721   1.520   4.637  17.210 -1.5805  0.7543 -0.0003
  383TMC3    C1 5722   1.332   4.041  17.424  0.0546 -0.5228  0.3575
  383TMC3    C2 5723   1.305   3.929  17.354 -0.2154 -0.7318 -0.3130
  383TMC3    C3 5724   1.217   3.840  17.414 -0.5119  0.3766  0.0126
  383TMC3    C4 5725   1.269   4.062  17.544  0.0528 -0.8144  0.3101
  383TMC3    C5 5726   1.184   3.964  17.596 -0.1312 -0.2979  0.5486
  383TMC3    C6 5727   1.142   3.858  17.527 -0.1163 -0.2720  0.5357
  383TMC3     C 5728   1.369   4.161  17.361 -0.0343 -1.0713  0.3712
  383TMC3     O 5729   1.341   4.270  17.408  0.3176 -0.2719  0.4214
  383TMC3     H 5730   1.345   3.908  17.255 -1.9272 -0.3081 -1.0830
  383TMC3    H1 5731   1.273   4.158  17.596  1.0920 -0.6797 -0.0230
  383TMC3    H2 5732   1.091   3.773  17.571  0.7212 -1.6642 -1.1463
  383TMC3    C7 5733   1.140   3.984   0.040  0.1545  0.0280  0.3490
  383TMC3    C8 5734   1.227   3.705  17.372  0.8372 -0.1193  0.3076
  383TMC3    O1 5735   1.098   4.098   0.059 -0.4858  0.2329  0.7547
  383TMC3    O2 5736   1.330   3.674  17.314 -0.2676 -0.0174 -0.2315
  384MPD2     C 5737   3.349   0.858  11.845  0.0353 -0.4076 -0.2109
  384MPD2    C1 5738   3.303   0.742  11.908  0.3711  0.1601 -0.5954
  384MPD2    C2 5739   3.376   0.625  11.909  0.3635 -0.0389  0.4780
  384MPD2    C3 5740   3.505   0.633  11.843 -0.2233 -0.0202  1.5731
  384MPD2    C4 5741   3.539   0.740  11.772 -0.2293 -0.5590 -0.2944
  384MPD2    C5 5742   3.472   0.856  11.775  0.0800 -1.0524 -0.0849
  384MPD2     H 5743   3.350   0.544  11.976 -4.0671  0.5744 -0.5605
  384MPD2    H1 5744   3.629   0.754  11.712 -1.4813  3.5208 -1.2046
  384MPD2    H2 5745   3.292   0.950  11.846 -0.5344 -0.7460 -1.6276
  384MPD2    H3 5746   3.512   0.941  11.721  0.1384 -1.8483 -1.2864
  384MPD2     N 5747   3.598   0.524  11.842  0.1743  0.0773  0.1897
  384MPD2    H5 5748   3.682   0.561  11.798  0.2865 -0.9500 -0.4477
  384MPD2    N1 5749   3.188   0.735  11.985  0.3882  0.7837  0.4267
  384MPD2    H7 5750   3.158   0.646  12.024 -1.6087  1.2513 -0.0622
  385TMC3    C1 5751   3.701   0.318  11.899  0.0255 -0.1511 -0.9124
  385TMC3    C2 5752   3.675   0.183  11.901  0.5694 -0.0339 -0.2273
  385TMC3    C3 5753   3.732   0.111  12.003  0.3270 -0.2097  0.2152
  385TMC3    C4 5754   3.779   0.390  11.997 -0.0147  0.3014 -0.1104
  385TMC3    C5 5755   3.803   0.314  12.105 -0.2161  0.2534  0.4735
  385TMC3    C6 5756   3.791   0.181  12.108 -0.0168 -0.0504  0.6410
  385TMC3     C 5757   3.577   0.391  11.871 -0.2423  0.4770 -0.8470
  385TMC3     O 5758   3.477   0.332  11.888 -0.2770 -0.2507 -0.1121
  385TMC3     H 5759   3.596   0.150  11.835  0.2778 -1.2914  0.7461
  385TMC3    H1 5760   3.777   0.498  12.004  0.9785  0.3353 -0.3133
  385TMC3    H2 5761   3.819   0.119  12.192 -0.6333 -1.6378 -0.3149
  385TMC3    C7 5762   3.718   0.370  12.208  0.0223 -0.0452 -0.4202
  385TMC3    C8 5763   3.671   4.703  12.042 -0.6816 -0.5884  0.1537
  385TMC3    O1 5764   3.691   0.489  12.207 -0.0024  0.4216 -0.0668
  385TMC3    O2 5765   3.654   4.694  12.167  0.4055 -0.4353 -0.4836
  386TMC3    C1 5766   3.630   2.885  12.320  0.7941  0.0584  0.0413
  386TMC3    C2 5767   3.624   2.839  12.188  0.3741 -0.0943 -0.4429
  386TMC3    C3 5768   3.499   2.847  12.132 -0.4259  0.3356 -0.1111
  386TMC3    C4 5769   3.520   2.930  12.388  0.4049  0.3424 -0.4443
  386TMC3    C5 5770   3.401   2.915  12.328 -0.3272  0.1594  0.2152
  386TMC3    C6 5771   3.389   2.871  12.200  0.3660 -0.4358  0.2807
  386TMC3     C 5772   3.747   2.874  12.390 -0.2544  0.0538 -0.1159
  386TMC3     O 5773   3.764   2.949  12.485 -0.4684 -0.6077  0.0103
  386TMC3     H 5774   3.715   2.819  12.133 -0.3526 -0.5083 -1.4966
  386TMC3    H1 5775   3.527   2.963  12.491 -3.2023 -1.9592  0.5843
  386TMC3    H2 5776   3.295   2.871  12.146 -0.0319 -0.1041  0.9810
  386TMC3    C7 5777   3.289   2.987  12.384  0.1927  0.0204 -0.6297
  386TMC3    C8 5778   3.479   2.819  11.994  0.3938  0.0027  0.3919
  386TMC3    O1 5779   3.290   3.003  12.503  0.5963  0.1398 -0.3896
  386TMC3    O2 5780   3.376   2.846  11.936  0.2824  0.1066  0.3542
  387MPD2     C 5781   0.758   2.965   9.919  0.2168 -0.3832 -0.3739
  387MPD2    C1 5782   0.860   2.881   9.966  0.2094  0.0423 -0.8513
  387MPD2    C2 5783   0.892   2.771   9.886 -0.2152  0.3207  0.3480
  387MPD2    C3 5784   0.830   2.743   9.773  0.9023 -0.0052  0.5254
  387MPD2    C4 5785   0.728   2.825   9.728  0.3122  0.3418 -0.3044
  387MPD2    C5 5786   0.689   2.933   9.808 -0.2254  0.6070 -0.4585
  387MPD2     H 5787   0.959   2.694   9.926 -0.5743 -0.6557 -0.9454
  387MPD2    H1 5788   0.672   2.810   9.637 -2.7447  2.3459  1.2411
  387MPD2    H2 5789   0.731   3.057   9.970 -2.7510  1.4980 -5.3750
  387MPD2    H3 5790   0.611   3.002   9.778  0.2721  2.2956  2.1326
  387MPD2     N 5791   0.867   2.623   9.711 -0.0416  0.1805  0.0597
  387MPD2    H5 5792   0.929   2.560   9.762 -0.5351 -0.1936  0.1910
  387MPD2    N1 5793   0.924   2.896  10.088 -0.5974  0.2994 -0.6632
  387MPD2    H7 5794   0.985   2.821  10.119 -1.0434  0.6020  0.9604
  388TMC3    C1 5795   1.018   2.990  10.283  0.3692 -0.1448  0.0176
  388TMC3    C2 5796   1.079   3.108  10.320 -0.6696  0.1873  0.2050
  388TMC3    C3 5797   1.219   3.107  10.297  0.3905  0.2870  0.2455
  388TMC3    C4 5798   1.081   2.870  10.271  0.9932  0.4819  0.1609
  388TMC3    C5 5799   1.217   2.879  10.261 -0.0626  0.0877  0.5183
  388TMC3    C6 5800   1.292   2.999  10.266  0.1253 -0.6833  0.1875
  388TMC3     C 5801   0.925   3.013  10.173  0.7128  0.6823 -0.2856
  388TMC3     O 5802   0.851   3.111  10.156  0.1931  0.1883 -0.6965
  388TMC3     H 5803   1.021   3.196  10.345 -1.1549  0.1215 -0.6842
  388TMC3    H1 5804   1.019   2.781  10.283  2.9682 -1.0652 -1.1371
  388TMC3    H2 5805   1.400   3.009  10.259 -0.2505  3.0985 -0.2706
  388TMC3    C7 5806   1.260   2.767  10.173 -1.1759 -0.1758 -0.3897
  388TMC3    C8 5807   1.294   3.204  10.369 -0.1744 -0.7475 -0.1142
  388TMC3    O1 5808   1.162   2.701  10.144  0.3081 -0.2519 -0.0011
  388TMC3    O2 5809   1.411   3.179  10.399 -0.6133  0.4758  0.1772
  389MPD2     C 5810   0.732   1.294  11.072  0.0353 -0.2464 -0.0326
  389MPD2    C1 5811   0.684   1.169  11.040 -0.9922  0.1303  0.4089
  389MPD2    C2 5812   0.645   1.093  11.138  0.0740 -0.5170 -0.2316
  389MPD2    C3 5813   0.633   1.135  11.269 -0.1289 -0.4485 -0.1021
  389MPD2    C4 5814   0.682   1.258  11.301 -0.6270  0.4554  0.2508
  389MPD2    C5 5815   0.725   1.336  11.202  0.1384  0.4720  0.0458
  389MPD2     H 5816   0.620   0.993  11.105  1.2246 -0.2004 -2.0752
  389MPD2    H1 5817   0.682   1.301  11.401 -1.1742  0.7708  0.1118
  389MPD2    H2 5818   0.786   1.351  10.997  0.2207  1.6099  1.5364
  389MPD2    H3 5819   0.773   1.431  11.222  0.4954 -0.3537  3.1618
  389MPD2     N 5820   0.588   1.058  11.373  0.5316  0.0982  0.2902
  389MPD2    H5 5821   0.590   1.098  11.466  1.4748  1.4958 -0.3313
  389MPD2    N1 5822   0.681   1.139  10.900 -0.0922  0.5387 -0.8025
  389MPD2    H7 5823   0.713   1.207  10.832  0.6189 -0.4449 -1.4695
  390TMC3    C1 5824   0.455   0.897  11.470 -0.5719  0.4937 -0.9785
  390TMC3    C2 5825   0.465   0.771  11.517 -0.1869  0.3179 -0.3399
  390TMC3    C3 5826   0.374   0.737  11.618  0.3886 -0.1371  0.3104
  390TMC3    C4 5827   0.370   0.990  11.519 -0.0829 -0.2237 -0.0841
  390TMC3    C5 5828   0.282   0.958  11.616  0.0238  0.2222 -0.1986
  390TMC3    C6 5829   0.291   0.832  11.676 -0.2497  0.6277  0.6524
  390TMC3     C 5830   0.539   0.930  11.361 -0.6265  0.2179 -0.6993
  390TMC3     O 5831   0.556   0.846  11.273 -0.0964  0.3907 -1.0269
  390TMC3     H 5832   0.533   0.699  11.473  0.7831  1.9349 -1.4585
  390TMC3    H1 5833   0.353   1.081  11.463  2.4357  1.7378  2.3758
  390TMC3    H2 5834   0.238   0.813  11.768  0.8342  0.6867  1.2859
  390TMC3    C7 5835   0.147   0.994  11.577  0.4844 -0.0501 -0.6816
  390TMC3    C8 5836   0.328   0.593  11.608  1.2339  0.6493 -0.2181
  390TMC3    O1 5837   0.122   1.088  11.504 -0.2337  0.3072 -0.1441
  390TMC3    O2 5838   0.364   0.518  11.516 -0.0576  0.0264  0.9107
  391MPD2     C 5839   3.971   2.619  11.397 -0.1940  0.4513 -0.0957
  391MPD2    C1 5840   4.093   2.575  11.352 -1.0072 -0.9374  1.0081
  391MPD2    C2 5841   4.111   2.539  11.219  0.3623  0.6883 -0.7566
  391MPD2    C3 5842   4.013   2.560  11.127 -0.2779  0.3040 -0.0512
  391MPD2    C4 5843   3.890   2.592  11.173  0.0839  0.3695  0.6383
  391MPD2    C5 5844   3.865   2.628  11.305  0.2121 -0.2820 -0.0582
  391MPD2     H 5845   4.207   2.508  11.181  1.0435  0.9180  0.7825
  391MPD2    H1 5846   3.804   2.609  11.109 -0.1400 -0.2570  0.7754
  391MPD2    H2 5847   3.943   2.643  11.499 -0.1248  1.3318 -0.2823
  391MPD2    H3 5848   3.769   2.652  11.349  1.5632  1.0073  2.1857
  391MPD2     N 5849   4.042   2.533  10.994 -0.4871 -0.4257 -0.6015
  391MPD2    H5 5850   4.139   2.507  10.986 -0.3257  0.2996 -0.9687
  391MPD2    N1 5851   4.200   2.566  11.447  0.5638 -0.7837 -0.2546
  391MPD2    H7 5852   4.289   2.552  11.401 -0.3175 -2.5086 -1.4203
  392TMC3    C1 5853   4.022   2.527  10.759  0.2961  0.4460  0.2783
  392TMC3    C2 5854   3.946   2.481  10.652 -0.3978 -0.5694  0.1409
  392TMC3    C3 5855   4.001   2.485  10.531 -1.0894 -0.6941  0.3472
  392TMC3    C4 5856   4.144   2.588  10.746  0.6445  0.1523  0.4166
  392TMC3    C5 5857   4.197   2.591  10.620  0.4056  0.3969 -0.4545
  392TMC3    C6 5858   4.130   2.539  10.509  0.0020 -0.2108  0.5216
  392TMC3     C 5859   3.954   2.531  10.888 -0.1427  0.2575  0.0989
  392TMC3     O 5860   3.834   2.508  10.883  0.1713  0.1693 -0.4263
  392TMC3     H 5861   3.853   2.430  10.675 -0.9194  0.0545 -0.5754
  392TMC3    H1 5862   4.197   2.647  10.820  5.1219  0.4991 -3.0781
  392TMC3    H2 5863   4.178   2.539  10.411 -2.8150 -1.1310 -0.8696
  392TMC3    C7 5864   4.328   2.657  10.613 -0.1221  0.3518  0.2193
  392TMC3    C8 5865   3.919   2.428  10.425  0.2712 -0.5893 -0.0520
  392TMC3    O1 5866   4.371   2.686  10.726 -0.1816  0.2465  0.0836
  392TMC3    O2 5867   3.795   2.410  10.441 -0.0736  0.1662 -0.7685
  393TMC3    C1 5868   3.424   1.142  10.668 -0.1967  0.0682  0.0664
  393TMC3    C2 5869   3.317   1.158  10.750 -0.9293  0.9127 -0.7800
  393TMC3    C3 5870   3.341   1.157  10.880 -0.4713  0.3810  0.2262
  393TMC3    C4 5871   3.547   1.144  10.720  0.1239  0.4099 -0.7675
  393TMC3    C5 5872   3.565   1.140  10.857  0.2151 -0.3319 -0.3684
  393TMC3    C6 5873   3.458   1.156  10.945  0.2281 -0.5636 -0.1957
  393TMC3     C 5874   3.391   1.190  10.537  0.6268  0.0063 -0.4351
  393TMC3     O 5875   3.286   1.249  10.523  0.0946  0.1952 -0.5804
  393TMC3     H 5876   3.220   1.141  10.704  0.1760  0.9747 -3.0968
  393TMC3    H1 5877   3.633   1.123  10.658  0.6425  3.5534 -1.1363
  393TMC3    H2 5878   3.473   1.147  11.052  0.5946  0.0188 -0.2007
  393TMC3    C7 5879   3.667   1.047  10.897 -0.3052  0.8132 -0.9912
  393TMC3    C8 5880   3.227   1.115  10.956 -0.2838  0.2450  0.1907
  393TMC3    O1 5881   3.779   1.064  10.850  0.8848 -0.3588  0.5221
  393TMC3    O2 5882   3.154   1.021  10.917 -0.4076  0.6244  0.1224
  394TMC3    C1 5883   0.635   1.035  10.701 -0.3453  0.1986 -0.7080
  394TMC3    C2 5884   0.556   0.943  10.632 -0.0458  0.7398  0.5265
  394TMC3    C3 5885   0.556   0.943  10.499  0.0384  0.3104  0.1000
  394TMC3    C4 5886   0.718   1.120  10.633  0.9717  0.5795 -0.4587
  394TMC3    C5 5887   0.712   1.117  10.493  0.2131  0.3355 -0.0294
  394TMC3    C6 5888   0.628   1.027  10.422 -1.2621  0.3432  0.2872
  394TMC3     C 5889   0.625   1.031  10.843 -1.0268  0.2488 -0.6798
  394TMC3     O 5890   0.585   0.921  10.891  0.1843 -0.1196 -0.4577
  394TMC3     H 5891   0.497   0.868  10.684 -0.2852  0.0940 -0.6578
  394TMC3    H1 5892   0.778   1.196  10.682  1.1748  0.8917 -1.2073
  394TMC3    H2 5893   0.608   1.028  10.316  1.2480 -0.5973 -0.1964
  394TMC3    C7 5894   0.783   1.213  10.412  0.4018  0.3809 -0.2672
  394TMC3    C8 5895   0.455   0.874  10.427  0.3967 -1.0036 -0.5811
  394TMC3    O1 5896   0.798   1.332  10.444  0.1690 -0.2835 -0.1008
  394TMC3    O2 5897   0.346   0.857  10.482  0.3811 -0.0074  0.5376
  395TMC3    C1 5898   0.208   3.110  14.514 -0.3400  0.1729 -0.0553
  395TMC3    C2 5899   0.088   3.054  14.554 -0.3991 -0.2314 -0.0547
  395TMC3    C3 5900   0.033   3.092  14.675 -0.4833  0.5114  0.4408
  395TMC3    C4 5901   0.261   3.217  14.581  0.0524  0.9222 -0.1787
  395TMC3    C5 5902   0.194   3.262  14.693  0.4247 -0.5454 -0.1206
  395TMC3    C6 5903   0.076   3.209  14.735 -0.2545  0.0511 -0.9092
  395TMC3     C 5904   0.317   3.016  14.498 -0.8537  0.7234  0.2939
  395TMC3     O 5905   0.414   3.049  14.567 -0.3967 -0.1618 -0.3647
  395TMC3     H 5906   0.049   2.970  14.497 -0.2523 -0.3769  0.0605
  395TMC3    H1 5907   0.333   3.281  14.532  1.1900 -1.2398 -1.2971
  395TMC3    H2 5908   0.049   3.223  14.839 -0.1544  0.3607 -0.9252
  395TMC3    C7 5909   0.279   3.283  14.807  0.0414  0.7621  0.3083
  395TMC3    C8 5910   4.679   2.997  14.758 -0.0638  0.0199  0.0276
  395TMC3    O1 5911   0.242   3.381  14.872 -0.0397 -0.2935 -0.5761
  395TMC3    O2 5912   4.646   3.027  14.870  0.5870  0.1352  0.1506
  396MPD2     C 5913   0.028   4.111  17.530 -0.6014 -0.6544 -0.2958
  396MPD2    C1 5914   0.079   4.053  17.416 -0.0991 -0.1192 -0.5692
  396MPD2    C2 5915   0.100   4.139  17.308  0.2175 -0.3800 -0.4107
  396MPD2    C3 5916   0.085   4.278  17.315 -0.8547  0.7554  0.2554
  396MPD2    C4 5917   0.043   4.338  17.434  0.1597 -0.0073  0.5061
  396MPD2    C5 5918   0.015   4.250  17.543 -0.1692 -0.1949 -0.6734
  396MPD2     H 5919   0.129   4.096  17.213 -0.7024 -0.2518 -0.7495
  396MPD2    H1 5920   0.031   4.444  17.447  0.1939 -0.1393  1.6407
  396MPD2    H2 5921   4.715   4.043  17.607  0.1513  2.3054  2.6339
  396MPD2    H3 5922   4.719   4.292  17.642 -1.0362 -0.5818 -0.6609
  396MPD2     N 5923   0.135   4.353  17.205 -0.0019 -0.1066 -0.1646
  396MPD2    H5 5924   0.175   4.298  17.129 -1.1177  1.1381 -1.6580
  396MPD2    N1 5925   0.084   3.914  17.411  0.5868  0.5988  0.3494
  396MPD2    H7 5926   0.036   3.864  17.485  1.8295  0.3985  1.0358
  397TMC3    C1 5927   0.152   3.698  17.336 -0.3065  0.0181 -0.1947
  397TMC3    C2 5928   0.215   3.646  17.232 -0.7118 -0.6377 -0.5794
  397TMC3    C3 5929   0.164   3.540  17.156 -0.6454 -0.7610 -0.4126
  397TMC3    C4 5930   0.032   3.644  17.376  0.3042 -0.0906 -0.5133
  397TMC3    C5 5931   4.708   3.542  17.303 -0.1287  0.3490 -0.0396
  397TMC3    C6 5932   0.047   3.487  17.191 -0.1123 -0.9249  0.0573
  397TMC3     C 5933   0.160   3.843  17.322 -0.8470 -0.0949 -0.2182
  397TMC3     O 5934   0.238   3.883  17.237 -0.2998  0.3968  0.5620
  397TMC3     H 5935   0.316   3.682  17.214 -0.2264 -1.9852 -0.6023
  397TMC3    H1 5936   4.688   3.678  17.454  1.8991  0.3537  0.6453
  397TMC3    H2 5937   4.715   3.412  17.135 -0.6100  1.3541 -2.5216
  397TMC3    C7 5938   4.597   3.459  17.353 -0.2202 -0.2267  0.1422
  397TMC3    C8 5939   0.195   3.540  17.015 -0.3910 -0.9795 -1.1239
  397TMC3    O1 5940   4.542   3.383  17.273 -1.0951  0.5600 -0.0449
  397TMC3    O2 5941   0.144   3.462  16.935  0.4661 -0.8010  0.2227
  398MPD2     C 5942   2.800   0.347  17.446 -0.3392 -0.6471  0.3107
  398MPD2    C1 5943   2.871   0.244  17.510  0.0115  0.1110 -0.5099
  398MPD2    C2 5944   2.968   0.268  17.598  0.2686  0.6295 -0.2813
  398MPD2    C3 5945   3.000   0.401  17.630 -0.7999 -0.3160 -0.8156
  398MPD2    C4 5946   2.930   0.503  17.577  0.1971  0.3396  0.2470
  398MPD2    C5 5947   2.832   0.477  17.483 -0.6674 -0.6087  0.6233
  398MPD2     H 5948   3.024   0.184  17.637 -1.5430 -0.1996  0.5444
  398MPD2    H1 5949   2.951   0.603  17.613  0.7374  0.7120 -1.0905
  398MPD2    H2 5950   2.715   0.323  17.384 -0.8331  0.3567  0.5992
  398MPD2    H3 5951   2.782   0.561  17.435  3.7696  0.9204 -1.3059
  398MPD2     N 5952   3.102   0.415   0.038 -0.3216  0.1074  0.4427
  398MPD2    H5 5953   3.137   0.327   0.077  1.7783  0.3753 -0.8386
  398MPD2    N1 5954   2.833   0.108  17.503 -0.9052  0.2657  0.0858
  398MPD2    H7 5955   2.901   0.040  17.536  1.3685  1.5875 -1.8440
  399TMC3    C1 5956   2.725   4.626  17.461  0.4132 -0.0817 -0.5934
  399TMC3    C2 5957   2.828   4.560  17.532  0.0014  0.6656  0.3425
  399TMC3    C3 5958   2.833   4.425  17.536 -0.2927  0.6973 -0.1321
  399TMC3    C4 5959   2.638   4.555  17.390  0.5695 -0.4405  0.2129
  399TMC3    C5 5960   2.651   4.418  17.398 -1.0037 -0.3355 -0.3978
  399TMC3    C6 5961   2.742   4.347  17.472 -0.4481 -0.1683  0.0016
  399TMC3     C 5962   2.731   0.049  17.436  0.0262  0.6763 -0.0585
  399TMC3     O 5963   2.668   0.105  17.347 -0.0805  0.1267 -0.1467
  399TMC3     H 5964   2.907   4.618  17.579  0.7566 -0.8586  0.9414
  399TMC3    H1 5965   2.554   4.597  17.336 -0.4240 -1.9381  0.5957
  399TMC3    H2 5966   2.736   4.239  17.476  1.8626 -0.2793  0.1881
  399TMC3    C7 5967   2.560   4.329  17.324 -0.4260  0.3435  0.7234
  399TMC3    C8 5968   2.938   4.360  17.609  0.3360  0.1728  0.0855
  399TMC3    O1 5969   2.540   4.216  17.372 -0.2991 -0.3491  0.0705
  399TMC3    O2 5970   3.008   4.431  17.685 -0.3889  0.2202  0.1707
  400TMC3    C1 5971   1.216   3.170  16.791  0.0841 -0.6319 -0.8214
  400TMC3    C2 5972   1.082   3.138  16.789  0.4871 -0.5761  0.0192
  400TMC3    C3 5973   0.988   3.230  16.819  0.1339  0.1622 -0.1461
  400TMC3    C4 5974   1.252   3.302  16.807 -0.2928  0.7632  0.0613
  400TMC3    C5 5975   1.155   3.401  16.832 -0.3322 -0.3414  0.3116
  400TMC3    C6 5976   1.019   3.365  16.838 -0.0288 -0.0400  0.4182
  400TMC3     C 5977   1.294   3.076  16.868 -0.4131  0.3051 -0.2144
  400TMC3     O 5978   1.237   2.973  16.912  0.0625  0.2697  0.1790
  400TMC3     H 5979   1.060   3.033  16.775 -0.7887 -0.1513 -1.1236
  400TMC3    H1 5980   1.354   3.336  16.822  0.2602  0.1007 -2.2335
  400TMC3    H2 5981   0.934   3.430  16.854  0.7911  0.5942  2.2587
  400TMC3    C7 5982   1.206   3.523  16.885 -0.6457  0.1609 -0.1384
  400TMC3    C8 5983   0.851   3.203  16.796 -0.0349 -1.0321 -0.4097
  400TMC3    O1 5984   1.331   3.533  16.880  0.2652  0.5732 -0.3148
  400TMC3    O2 5985   0.760   3.257  16.862 -1.0588  0.2947  0.0975
  401MPD2     C 5986   4.351   2.327   1.378  0.0354  0.1788 -0.3542
  401MPD2    C1 5987   4.457   2.249   1.421  0.7477 -0.3982  0.2938
  401MPD2    C2 5988   4.457   2.121   1.366 -0.5709  0.0009 -0.1817
  401MPD2    C3 5989   4.367   2.076   1.273 -0.5025 -0.4339 -0.1151
  401MPD2    C4 5990   4.267   2.163   1.221 -0.3386  0.0371  0.3420
  401MPD2    C5 5991   4.264   2.282   1.288 -1.3143 -0.2522  0.4055
  401MPD2     H 5992   4.530   2.051   1.403 -1.9816 -1.9537 -1.0560
  401MPD2    H1 5993   4.192   2.131   1.150 -0.8871 -0.5548  1.2010
  401MPD2    H2 5994   4.327   2.426   1.414 -0.3033  0.3241 -0.9903
  401MPD2    H3 5995   4.187   2.349   1.250 -0.0836  1.8811  1.6824
  401MPD2     N 5996   4.393   1.947   1.219  0.6204  0.0370 -0.0449
  401MPD2    H5 5997   4.461   1.897   1.274  0.2098  1.5227  1.8054
  401MPD2    N1 5998   4.552   2.287   1.520 -0.5122  0.6296  0.5110
  401MPD2    H7 5999   4.623   2.219   1.547  0.0362  0.8698 -0.3160
  402TMC3    C1 6000   4.420   1.792   1.058 -0.1130 -0.3185  0.2255
  402TMC3    C2 6001   4.484   1.701   1.144  0.9712 -0.0232 -0.4841
  402TMC3    C3 6002   4.565   1.613   1.080  0.7460  0.3236 -0.0114
  402TMC3    C4 6003   4.442   1.800   0.922  0.5594 -0.3617  0.2233
  402TMC3    C5 6004   4.525   1.705   0.867  0.0967 -0.7522 -0.2591
  402TMC3    C6 6005   4.588   1.613   0.944  0.1851  0.1567  0.3722
  402TMC3     C 6006   4.331   1.890   1.108  0.5522 -0.5090 -0.2803
  402TMC3     O 6007   4.242   1.941   1.040 -0.0722  0.2790  0.0153
  402TMC3     H 6008   4.465   1.702   1.250 -1.8288  1.3180 -0.9789
  402TMC3    H1 6009   4.404   1.881   0.862 -1.9937 -0.4888  1.6876
  402TMC3    H2 6010   4.668   1.549   0.907  0.1651 -0.4648  1.3799
  402TMC3    C7 6011   4.597   1.755   0.752 -0.2764  0.6418  0.0960
  402TMC3    C8 6012   4.671   1.539   1.151  0.6126  0.2013  1.1717
  402TMC3    O1 6013   4.575   1.871   0.729 -0.1889  0.1189 -0.2523
  402TMC3    O2 6014   0.004   1.444   1.098 -0.6481  0.5948  0.1176
  403MPD2     C 6015   2.738   0.668  13.548  0.1506 -0.0640 -0.4156
  403MPD2    C1 6016   2.786   0.548  13.589  0.0944 -0.1850  0.0442
  403MPD2    C2 6017   2.833   0.530  13.719  0.8671  0.0080 -0.2105
  403MPD2    C3 6018   2.852   0.635  13.802  0.0861 -0.8311 -0.4559
  403MPD2    C4 6019   2.808   0.759  13.759  0.3611  0.6685  0.1772
  403MPD2    C5 6020   2.749   0.774  13.636 -0.1853 -0.0109  0.0697
  403MPD2     H 6021   2.864   0.429  13.744  0.1935  0.7070  3.4060
  403MPD2    H1 6022   2.826   0.847  13.819  0.8462  0.7915 -0.1433
  403MPD2    H2 6023   2.677   0.685  13.460 -1.4477  2.0630  1.1005
  403MPD2    H3 6024   2.709   0.870  13.607  1.9813  0.5188 -1.1314
  403MPD2     N 6025   2.925   0.618  13.916 -0.1802 -0.0659  0.8593
  403MPD2    H5 6026   2.967   0.526  13.923  1.8208  0.8054  0.4812
  403MPD2    N1 6027   2.764   0.440  13.495 -0.7138  0.2458 -0.0911
  403MPD2    H7 6028   2.734   0.463  13.401  0.5476  0.4666 -0.4395
  404TMC3    C1 6029   2.719   0.220  13.436  0.0470  0.2292 -1.5682
  404TMC3    C2 6030   2.675   0.105  13.486  0.2995  1.2956 -0.0959
  404TMC3    C3 6031   2.636   0.009  13.398  0.0102  0.2358  0.4534
  404TMC3    C4 6032   2.720   0.249  13.304 -0.2457 -0.1416 -0.2096
  404TMC3    C5 6033   2.681   0.152  13.216 -0.2249  0.6595  0.4982
  404TMC3    C6 6034   2.641   0.023  13.257 -0.3094  0.9441  0.1201
  404TMC3     C 6035   2.783   0.305  13.523 -0.3223 -0.2622 -0.4445
  404TMC3     O 6036   2.830   0.259  13.623 -0.4128 -0.1402 -0.3857
  404TMC3     H 6037   2.683   0.088  13.593 -0.4334 -1.2944 -0.4660
  404TMC3    H1 6038   2.751   0.344  13.261  0.3331 -1.1122 -1.9488
  404TMC3    H2 6039   2.621   4.665  13.187 -1.7030  1.0351  0.4102
  404TMC3    C7 6040   2.660   0.202  13.083 -0.1798  0.0909  0.3862
  404TMC3    C8 6041   2.688   4.604  13.447  0.2279 -0.2728 -0.2921
  404TMC3    O1 6042   2.705   0.315  13.065 -0.2517  0.0771  0.4644
  404TMC3    O2 6043   2.762   4.546  13.365  0.1237 -0.3634 -0.6799
  405MPD2     C 6044   3.179   0.870  15.010  0.9377 -0.8340 -0.2694
  405MPD2    C1 6045   3.201   0.823  14.879 -0.5383  0.0217  0.2655
  405MPD2    C2 6046   3.187   0.909  14.767  1.1388  0.4785 -0.3636
  405MPD2    C3 6047   3.140   1.036  14.792 -0.3951 -0.2773  0.0956
  405MPD2    C4 6048   3.140   1.081  14.923  0.1730 -0.5534  0.2032
  405MPD2    C5 6049   3.153   1.001  15.029 -0.5539 -0.4028  0.4101
  405MPD2     H 6050   3.203   0.876  14.665 -1.3693  0.8467 -0.8764
  405MPD2    H1 6051   3.115   1.183  14.946 -1.0181 -0.8410  0.1871
  405MPD2    H2 6052   3.194   0.814  15.101  1.7051  0.6765  0.5213
  405MPD2    H3 6053   3.129   1.044  15.125 -0.5757  0.8531 -0.1522
  405MPD2     N 6054   3.112   1.116  14.684  0.4651 -0.8381 -0.3022
  405MPD2    H5 6055   3.111   1.062  14.598 -1.0269 -2.0408  0.4884
  405MPD2    N1 6056   3.243   0.684  14.867  0.1106  0.3023  0.9795
  405MPD2    H7 6057   3.275   0.639  14.952  1.9999  0.2039  0.2172
  406TMC3    C1 6058   2.754   1.304  14.529 -0.2576  0.4975  0.3616
  406TMC3    C2 6059   2.726   1.195  14.448 -0.7361 -0.8981  0.2189
  406TMC3    C3 6060   2.840   1.112  14.439 -0.2726 -0.2016  0.0078
  406TMC3    C4 6061   2.874   1.342  14.583  0.2026  0.0871 -0.8802
  406TMC3    C5 6062   2.984   1.263  14.558 -0.0034  0.5767 -0.0049
  406TMC3    C6 6063   2.964   1.150  14.488  0.4885 -0.3224  0.0357
  406TMC3     C 6064   2.639   1.390  14.573  0.6744  0.3728 -0.1016
  406TMC3     O 6065   2.658   1.509  14.610 -0.0648 -0.1008  0.0656
  406TMC3     H 6066   2.630   1.157  14.415  0.4523 -3.3507 -0.4672
  406TMC3    H1 6067   2.891   1.433  14.640 -0.2927  0.2615 -1.0112
  406TMC3    H2 6068   3.050   1.097  14.449  1.0137  0.3788  0.2362
  406TMC3    C7 6069   3.054   1.242  14.683 -0.1609  0.0139 -1.0712
  406TMC3    C8 6070   2.803   0.972  14.455  0.4993 -0.1793 -0.4056
  406TMC3    O1 6071   3.036   1.314  14.780 -0.7133  0.4499  0.0624
  406TMC3    O2 6072   2.685   0.943  14.454 -0.2032 -0.5792 -0.0951
  407MPD2     C 6073   0.336   3.102   9.262 -0.0738 -0.0850  0.6451
  407MPD2    C1 6074   0.445   3.042   9.324  1.0006  0.2376  0.7316
  407MPD2    C2 6075   0.429   2.965   9.431  0.2964  0.0816 -0.5210
  407MPD2    C3 6076   0.303   2.962   9.485 -0.0054  0.1064  0.2409
  407MPD2    C4 6077   0.198   3.033   9.438  0.2112  0.4139  0.3371
  407MPD2    C5 6078   0.212   3.109   9.325  0.9821  0.3081  0.2307
  407MPD2     H 6079   0.509   2.901   9.468 -2.0697 -2.0178  0.9754
  407MPD2    H1 6080   0.103   3.032   9.491 -0.5232  0.6999 -0.9523
  407MPD2    H2 6081   0.357   3.147   9.165  0.4203 -0.3138  0.6457
  407MPD2    H3 6082   0.127   3.166   9.291  0.6937  0.4560  1.1938
  407MPD2     N 6083   0.284   2.887   9.604 -1.2201  0.2058 -0.0728
  407MPD2    H5 6084   0.193   2.899   9.646 -0.0035  0.5586  2.4180
  407MPD2    N1 6085   0.576   3.037   9.268 -0.0323  0.2542 -0.8041
  407MPD2    H7 6086   0.640   2.966   9.301  0.5827  1.4244  0.5349
  408TMC3    C1 6087   0.747   3.112   9.118 -0.0048 -0.4101  0.4550
  408TMC3    C2 6088   0.770   2.984   9.076 -0.3970 -0.2136  0.5132
  408TMC3    C3 6089   0.873   2.971   8.983 -0.6247  0.1693 -0.2191
  408TMC3    C4 6090   0.817   3.222   9.077 -0.1219 -0.1402  0.6969
  408TMC3    C5 6091   0.928   3.198   8.996 -0.9897  0.6784 -0.0611
  408TMC3    C6 6092   0.958   3.076   8.951 -0.2849 -0.2288  0.3083
  408TMC3     C 6093   0.629   3.142   9.200 -0.3536 -0.8658 -0.6765
  408TMC3     O 6094   0.571   3.248   9.177  0.1803 -0.5186 -0.7715
  408TMC3     H 6095   0.721   2.896   9.117 -1.3048 -0.2026 -0.5399
  408TMC3    H1 6096   0.799   3.322   9.116  0.9484  1.4684 -2.8886
  408TMC3    H2 6097   1.025   3.064   8.866  0.6983 -2.3580  1.3915
  408TMC3    C7 6098   1.045   3.286   9.007  0.5821  0.2692 -0.1439
  408TMC3    C8 6099   0.922   2.842   8.964 -0.0460 -0.0602  0.4140
  408TMC3    O1 6100   1.126   3.258   8.924 -0.0849 -0.5052 -0.2955
  408TMC3    O2 6101   0.840   2.752   8.966  0.4980 -0.1662  0.4942
  409MPD2     C 6102   4.631   2.929  17.071 -0.4672 -0.3326 -0.0057
  409MPD2    C1 6103   0.039   2.885  17.110 -0.2588  0.0702 -0.5216
  409MPD2    C2 6104   0.147   2.968  17.074  0.2831 -0.5434  0.0552
  409MPD2    C3 6105   0.130   3.094  17.008 -0.8241 -0.0872 -0.3942
  409MPD2    C4 6106   0.004   3.139  16.986  0.4631 -0.2305 -0.1092
  409MPD2    C5 6107   4.617   3.055  17.019 -0.1582 -0.2380  1.0551
  409MPD2     H 6108   0.249   2.944  17.102  1.1627 -0.8677 -3.4429
  409MPD2    H1 6109   4.703   3.240  16.953 -0.7506 -0.6830 -0.6192
  409MPD2    H2 6110   4.539   2.872  17.082 -1.6704  1.0638 -2.7573
  409MPD2    H3 6111   4.519   3.098  17.003 -0.0373 -0.1085  0.6537
  409MPD2     N 6112   0.238   3.187  16.977 -0.1375  0.4123 -0.7300
  409MPD2    H5 6113   0.221   3.276  16.933  0.2467  0.7594 -0.1704
  409MPD2    N1 6114   0.064   2.763  17.178 -0.2547  0.0345  0.2118
  409MPD2    H7 6115   0.161   2.730  17.181 -0.1408  0.3648  0.1602
  410TMC3    C1 6116   0.441   3.273  16.960 -0.3491  0.1091 -0.0307
  410TMC3    C2 6117   0.504   3.345  17.051  0.6418 -0.0828 -0.5839
  410TMC3    C3 6118   0.563   3.457  17.005 -0.0809  0.7385 -0.0599
  410TMC3    C4 6119   0.421   3.303  16.828  0.2548  0.4478  0.8211
  410TMC3    C5 6120   0.490   3.416  16.786  0.1026  0.1588  0.3726
  410TMC3    C6 6121   0.560   3.494  16.870  0.2468 -0.3724 -0.1503
  410TMC3     C 6122   0.366   3.169  17.017  0.5817 -0.1089  0.5319
  410TMC3     O 6123   0.418   3.082  17.088  0.3283 -0.7339 -0.1893
  410TMC3     H 6124   0.514   3.318  17.155  1.8114 -3.2998 -1.4999
  410TMC3    H1 6125   0.375   3.241  16.752  1.4170 -1.3359  1.5620
  410TMC3    H2 6126   0.617   3.581  16.840  0.5897 -0.1540  1.1644
  410TMC3    C7 6127   0.484   3.446  16.646 -0.4083 -0.5861 -1.4224
  410TMC3    C8 6128   0.688   3.492  17.062 -0.5859  0.3654 -0.2592
  410TMC3    O1 6129   0.448   3.354  16.569 -0.1618 -0.0159  0.0604
  410TMC3    O2 6130   0.706   3.612  17.066 -0.0510 -0.3225  0.2219
  411MPD2     C 6131   1.016   3.983  14.883 -0.1295 -0.6848 -0.1797
  411MPD2    C1 6132   0.928   4.019  14.777  0.8103  0.1098  0.8682
  411MPD2    C2 6133   0.852   3.919  14.725 -0.1092 -0.3751 -0.7702
  411MPD2    C3 6134   0.846   3.789  14.781  0.7618 -0.0310 -0.2121
  411MPD2    C4 6135   0.933   3.755  14.884 -0.6028 -0.7476 -0.0044
  411MPD2    C5 6136   1.015   3.856  14.928  0.4737  0.0437  0.5784
  411MPD2     H 6137   0.806   3.939  14.629 -0.2715 -0.9821 -0.8208
  411MPD2    H1 6138   0.932   3.656  14.929 -0.1466 -0.7577 -0.0165
  411MPD2    H2 6139   1.074   4.061  14.931 -0.3806 -0.0333 -0.9537
  411MPD2    H3 6140   1.090   3.839  15.005  1.4071 -0.0531 -0.3585
  411MPD2     N 6141   0.760   3.690  14.727  0.1464 -0.0499 -0.0833
  411MPD2    H5 6142   0.765   3.597  14.768  0.8788  0.6906  1.5066
  411MPD2    N1 6143   0.927   4.152  14.730  0.0286 -0.5236  0.7677
  411MPD2    H7 6144   0.984   4.218  14.781 -0.1367 -1.1707  1.8014
  412TMC3    C1 6145   0.599   3.598  14.594 -0.5301 -0.5981 -0.3442
  412TMC3    C2 6146   0.488   3.633  14.518 -0.1225 -0.1380 -0.3148
  412TMC3    C3 6147   0.443   3.550  14.418  0.1623  0.1403 -0.2533
  412TMC3    C4 6148   0.668   3.475  14.582  0.5738  0.1076 -0.5695
  412TMC3    C5 6149   0.619   3.386  14.491  0.0288 -0.5758  0.3257
  412TMC3    C6 6150   0.513   3.427  14.412  0.0102 -0.5880  0.1187
  412TMC3     C 6151   0.671   3.715  14.625 -0.5218  0.4132 -0.6866
  412TMC3     O 6152   0.625   3.824  14.595 -0.9938 -0.3760 -0.3387
  412TMC3     H 6153   0.428   3.720  14.541  0.9828  1.2024 -2.5407
  412TMC3    H1 6154   0.769   3.459  14.618 -0.2555  2.0872  2.6091
  412TMC3    H2 6155   0.470   3.359  14.340  0.3895  0.2315 -0.8833
  412TMC3    C7 6156   0.713   3.304  14.413  0.2532  0.0699  0.2975
  412TMC3    C8 6157   0.451   3.602  14.293  1.2960 -0.7917 -0.0667
  412TMC3    O1 6158   0.792   3.226  14.474 -0.1596  0.6270 -0.1562
  412TMC3    O2 6159   0.523   3.542  14.211 -0.2989 -0.2846 -0.0750
  413MPD2     C 6160   2.391   1.995  15.494  0.4717  0.5223 -0.0848
  413MPD2    C1 6161   2.338   1.950  15.377 -0.3230 -0.2894  0.1110
  413MPD2    C2 6162   2.405   1.849  15.311  0.2005 -0.2716  0.5556
  413MPD2    C3 6163   2.505   1.770  15.379 -0.0355 -0.1327 -0.5062
  413MPD2    C4 6164   2.551   1.814  15.501  0.8466 -0.4417 -0.5439
  413MPD2    C5 6165   2.490   1.922  15.561  0.1576 -0.4951 -0.1158
  413MPD2     H 6166   2.360   1.797  15.227 -0.6340 -0.6246  1.2181
  413MPD2    H1 6167   2.635   1.769  15.553 -0.0380 -0.7222  0.6423
  413MPD2    H2 6168   2.350   2.083  15.543  1.1008  1.1207 -0.6372
  413MPD2    H3 6169   2.522   1.948  15.661  0.2276 -1.4136  0.1023
  413MPD2     N 6170   2.574   1.673  15.297  0.7285  0.2661 -0.4161
  413MPD2    H5 6171   2.526   1.643  15.213 -2.1256  2.4742  0.4351
  413MPD2    N1 6172   2.228   2.019  15.322  0.3067  0.0191 -0.1980
  413MPD2    H7 6173   2.192   2.094  15.381 -0.8845 -1.4889  1.0018
  414TMC3    C1 6174   2.749   1.543  15.223  0.1933 -0.0854  0.2029
  414TMC3    C2 6175   2.712   1.411  15.219 -0.2873  0.4530 -0.5036
  414TMC3    C3 6176   2.802   1.318  15.168  0.1636 -0.1306 -0.1459
  414TMC3    C4 6177   2.870   1.583  15.181 -0.2800 -0.2951  0.1572
  414TMC3    C5 6178   2.943   1.493  15.102 -0.1687 -1.1973  0.6479
  414TMC3    C6 6179   2.914   1.361  15.101  0.0108  0.0800 -0.5797
  414TMC3     C 6180   2.696   1.624  15.325  0.2561 -0.4010 -0.8491
  414TMC3     O 6181   2.770   1.663  15.416  0.1457  0.2538 -0.4604
  414TMC3     H 6182   2.627   1.388  15.283  0.4643 -1.6434 -0.2453
  414TMC3    H1 6183   2.896   1.687  15.198  2.1522 -0.9303  0.2153
  414TMC3    H2 6184   2.979   1.294  15.046  0.5563 -0.9341  1.3272
  414TMC3    C7 6185   3.083   1.525  15.097  0.3637 -0.5148 -0.2805
  414TMC3    C8 6186   2.804   1.181  15.223  0.7598  0.3480  0.1398
  414TMC3    O1 6187   3.122   1.608  15.175 -0.4539 -0.2560 -0.3856
  414TMC3    O2 6188   2.705   1.121  15.249 -0.0514  0.3529  0.3116
  415TMC3    C1 6189   2.487   0.219  10.141  0.4670  0.0310 -0.3946
  415TMC3    C2 6190   2.397   0.308  10.099 -0.4174 -0.8781  0.0533
  415TMC3    C3 6191   2.361   0.301   9.965  0.1932 -0.0952 -0.4951
  415TMC3    C4 6192   2.529   0.120  10.061  0.6834  0.1431  0.0262
  415TMC3    C5 6193   2.486   0.112   9.931 -0.0246 -0.1305  0.1922
  415TMC3    C6 6194   2.405   0.202   9.880 -0.4768 -0.0429  0.1720
  415TMC3     C 6195   2.508   0.193  10.284  0.5153 -0.2399 -0.3677
  415TMC3     O 6196   2.549   0.080  10.312  0.0732  0.1828  0.0683
  415TMC3     H 6197   2.363   0.391  10.159  1.3588 -0.3629  0.3402
  415TMC3    H1 6198   2.614   0.060  10.089 -0.2043 -1.0160  0.2559
  415TMC3    H2 6199   2.376   0.201   9.776  0.2171  1.6287 -0.0240
  415TMC3    C7 6200   2.553   0.024   9.835 -0.2656 -0.4656 -0.6326
  415TMC3    C8 6201   2.356   0.425   9.892  0.4220  0.0682 -0.0408
  415TMC3    O1 6202   2.564   0.051   9.714 -0.4077  0.1499 -0.0267
  415TMC3    O2 6203   2.324   0.419   9.771 -0.0851 -0.2815 -0.1037
  416MPD2     C 6204   0.259   3.654  11.409 -0.2108  0.0309 -0.1149
  416MPD2    C1 6205   0.187   3.675  11.523 -0.1718 -0.1560  0.6821
  416MPD2    C2 6206   0.106   3.571  11.578 -0.6730  0.2798 -1.2813
  416MPD2    C3 6207   0.091   3.449  11.507  0.7590  0.3051 -0.5083
  416MPD2    C4 6208   0.158   3.435  11.384 -0.4090  0.0736 -0.3433
  416MPD2    C5 6209   0.245   3.537  11.343  0.4773  0.8387  0.0969
  416MPD2     H 6210   0.045   3.586  11.666 -0.6640 -0.2445 -1.1819
  416MPD2    H1 6211   0.163   3.347  11.321  0.3266  3.7795 -5.4565
  416MPD2    H2 6212   0.331   3.727  11.373  0.3284 -0.2127  0.4702
  416MPD2    H3 6213   0.308   3.531  11.254  0.4246 -1.5704  0.2164
  416MPD2     N 6214   0.011   3.343  11.562  0.0977 -0.4389  0.5422
  416MPD2    H5 6215   4.694   3.370  11.652  0.6511  1.0473  0.3311
  416MPD2    N1 6216   0.200   3.803  11.581 -0.1176  0.4258 -1.0509
  416MPD2    H7 6217   0.247   3.876  11.528  1.2125 -0.3298 -0.9089
  417TMC3    C1 6218   0.125   3.996  11.702  0.4114  0.2651 -0.0773
  417TMC3    C2 6219   0.112   4.043  11.831 -0.6088  0.3716  0.4437
  417TMC3    C3 6220   0.016   4.134  11.853 -0.0462 -0.0850 -0.0720
  417TMC3    C4 6221   0.043   4.042  11.601  0.1246  0.2046 -0.1907
  417TMC3    C5 6222   4.676   4.148  11.627  0.7464 -0.6036 -0.2529
  417TMC3    C6 6223   4.659   4.190  11.758  0.3387 -0.2939  0.4576
  417TMC3     C 6224   0.138   3.848  11.698  0.1015  0.4353  0.1908
  417TMC3     O 6225   0.120   3.786  11.802 -0.6612  0.3377  0.0510
  417TMC3     H 6226   0.171   4.011  11.916 -1.3225  1.5274  1.3960
  417TMC3    H1 6227   0.040   3.978  11.514  2.0940 -0.3526  0.1444
  417TMC3    H2 6228   4.584   4.264  11.785  0.3929  0.5736 -1.7690
  417TMC3    C7 6229   4.578   4.170  11.529  0.0543  0.4995  0.2525
  417TMC3    C8 6230   4.716   4.183  11.988 -0.4399  1.1428 -0.5027
  417TMC3    O1 6231   4.617   4.189  11.412 -0.3693  0.5811  0.0485
  417TMC3    O2 6232   4.694   4.302  11.995  0.2718  0.1100 -0.3049
  418TMC3    C1 6233   3.491   0.494   0.241  0.3883 -0.3051 -0.2449
  418TMC3    C2 6234   3.398   0.558   0.163  0.3930  0.4659  0.0559
  418TMC3    C3 6235   3.263   0.511   0.174  0.5563  0.3027 -0.0890
  418TMC3    C4 6236   3.459   0.410   0.345  0.4399  0.9145  0.0651
  418TMC3    C5 6237   3.330   0.384   0.373  0.4904 -0.4538  0.9909
  418TMC3    C6 6238   3.232   0.423   0.279  0.1097 -0.2777 -0.2701
  418TMC3     C 6239   3.635   0.510   0.206 -0.5877  0.0034  0.2608
  418TMC3     O 6240   3.677   0.621   0.193  0.0435 -0.7095 -0.0950
  418TMC3     H 6241   3.432   0.611   0.075 -0.5347 -0.4597 -0.8471
  418TMC3    H1 6242   3.542   0.378   0.408 -0.5662 -1.4028  0.1983
  418TMC3    H2 6243   3.134   0.378   0.291 -0.0552 -0.5265 -2.5435
  418TMC3    C7 6244   3.304   0.261   0.439  0.1443  0.0845  0.4330
  418TMC3    C8 6245   3.174   0.533   0.064  0.0044  0.1210  0.4697
  418TMC3    O1 6246   3.204   0.202   0.405 -0.3411 -0.8709 -0.4852
  418TMC3    O2 6247   3.154   0.647   0.016 -0.6257  0.3829 -0.4180
  419MPD2     C 6248   2.117   3.587  12.317  0.3362 -0.0056 -0.1902
  419MPD2    C1 6249   1.995   3.649  12.297 -0.3394 -0.2182  0.0314
  419MPD2    C2 6250   1.930   3.701  12.409  0.1729 -0.8001  0.0152
  419MPD2    C3 6251   1.979   3.694  12.535  0.0102 -1.0341  0.6703
  419MPD2    C4 6252   2.085   3.613  12.553 -0.5342  0.5426  0.5191
  419MPD2    C5 6253   2.155   3.559  12.443 -0.2129 -0.4867  0.2471
  419MPD2     H 6254   1.842   3.762  12.388  1.4931  1.3579  0.7508
  419MPD2    H1 6255   2.132   3.586  12.647 -1.6599  1.8133  1.4484
  419MPD2    H2 6256   2.185   3.564  12.236 -1.3238 -1.5100 -1.1563
  419MPD2    H3 6257   2.244   3.499  12.459 -0.3536 -0.6499  0.4138
  419MPD2     N 6258   1.918   3.762  12.649 -0.0429 -0.4390  0.4578
  419MPD2    H5 6259   1.841   3.822  12.623  0.1946 -0.6059 -0.6210
  419MPD2    N1 6260   1.943   3.666  12.166  0.0466 -0.8027 -0.1178
  419MPD2    H7 6261   1.856   3.716  12.153  0.9132  0.4824 -1.0056
  420TMC3    C1 6262   1.911   3.855  12.868  1.1072  0.2964  0.4824
  420TMC3    C2 6263   1.794   3.917  12.840  0.3907  0.3422  0.6623
  420TMC3    C3 6264   1.738   3.990  12.940 -0.4316  0.5084  0.1680
  420TMC3    C4 6265   1.978   3.878  12.982 -0.0288  0.7097 -0.6431
  420TMC3    C5 6266   1.926   3.966  13.070 -0.6678  0.0192 -0.3421
  420TMC3    C6 6267   1.798   4.019  13.055  0.0578  0.2087  0.5915
  420TMC3     C 6268   1.975   3.761  12.777  0.0403  0.8711  0.1468
  420TMC3     O 6269   2.068   3.699  12.823  0.1398  0.4754 -0.1691
  420TMC3     H 6270   1.731   3.874  12.762 -0.0750 -0.3483  1.4283
  420TMC3    H1 6271   2.072   3.830  13.004  0.1411  0.6015 -1.6105
  420TMC3    H2 6272   1.758   4.080  13.135  1.7948  1.0762  0.7901
  420TMC3    C7 6273   1.984   3.961  13.202  0.4281 -0.2147 -0.4068
  420TMC3    C8 6274   1.602   4.029  12.913 -0.5283 -0.1733  0.3412
  420TMC3    O1 6275   2.062   3.868  13.224 -0.6250  0.6197 -0.0381
  420TMC3    O2 6276   1.581   4.055  12.797 -0.0171 -0.7489  0.1049
  421TMC3    C1 6277   3.060   0.659  14.109  0.6448 -0.5914  0.4963
  421TMC3    C2 6278   3.102   0.752  14.209  0.4364 -0.0040  0.4181
  421TMC3    C3 6279   3.224   0.741  14.266 -0.4024 -0.2531  0.0186
  421TMC3    C4 6280   3.148   0.558  14.070  0.1414 -0.4217 -0.3199
  421TMC3    C5 6281   3.272   0.555  14.130  0.2255 -0.8465  0.1176
  421TMC3    C6 6282   3.314   0.647  14.226  0.7034  0.6480  0.6505
  421TMC3     C 6283   2.955   0.705  14.016  0.5447  0.6178 -0.5601
  421TMC3     O 6284   2.942   0.830  14.023 -0.2504 -0.2077  0.0266
  421TMC3     H 6285   3.034   0.829  14.241  0.3526 -0.8174  2.1771
  421TMC3    H1 6286   3.130   0.479  13.998  2.5491 -0.0081 -1.3705
  421TMC3    H2 6287   3.408   0.641  14.280  0.0392  0.2489  1.7667
  421TMC3    C7 6288   3.368   0.457  14.084 -0.8167 -0.3519  0.1236
  421TMC3    C8 6289   3.263   0.859  14.338  0.1296 -0.3102 -0.0758
  421TMC3    O1 6290   3.485   0.498  14.104  0.7445  0.1376  0.4696
  421TMC3    O2 6291   3.184   0.905  14.421  0.2950 -0.1641 -0.0009
  422TMC3    C1 6292   0.805   1.899  12.406 -0.0642 -0.6552  0.2851
  422TMC3    C2 6293   0.792   2.010  12.489  0.3198 -0.5962 -0.1583
  422TMC3    C3 6294   0.696   2.009  12.581 -0.0300  0.0630 -0.5198
  422TMC3    C4 6295   0.745   1.781  12.440  0.9106  0.1218  0.0721
  422TMC3    C5 6296   0.660   1.782  12.546  0.2737  0.6701  0.1216
  422TMC3    C6 6297   0.629   1.897  12.622  0.5529  0.4542 -0.4044
  422TMC3     C 6298   0.878   1.907  12.276  0.8528 -0.4796  0.7954
  422TMC3     O 6299   0.909   2.013  12.223 -0.4199  0.5074  0.0002
  422TMC3     H 6300   0.861   2.091  12.471  1.4418 -1.5589 -0.1766
  422TMC3    H1 6301   0.757   1.687  12.387  0.4962 -0.6191  1.2883
  422TMC3    H2 6302   0.543   1.903  12.688  1.3213 -1.5045  0.7652
  422TMC3    C7 6303   0.598   1.656  12.575  0.0879 -0.1979  0.3850
  422TMC3    C8 6304   0.711   2.108  12.688  0.2637 -0.0822  0.1131
  422TMC3    O1 6305   0.652   1.554  12.540  0.0600  0.2124 -0.7729
  422TMC3    O2 6306   0.748   2.218  12.649  0.4645  0.2813 -0.4823
  423MPD2     C 6307   2.208   2.857   0.557  0.0833 -0.3539 -0.2047
  423MPD2    C1 6308   2.245   2.724   0.566 -0.3209  0.1321  0.2258
  423MPD2    C2 6309   2.218   2.638   0.457 -0.7421 -0.3443 -0.1672
  423MPD2    C3 6310   2.177   2.699   0.334  0.5232 -0.3281  0.5773
  423MPD2    C4 6311   2.152   2.833   0.327  0.0962  0.5743  0.2380
  423MPD2    C5 6312   2.170   2.911   0.442  0.5195 -0.0117 -0.2474
  423MPD2     H 6313   2.223   2.531   0.473 -0.0663 -0.2707  0.0885
  423MPD2    H1 6314   2.102   2.879   0.242  0.7546  1.4547  0.3223
  423MPD2    H2 6315   2.203   2.927   0.640 -1.2347 -0.9009  0.1701
  423MPD2    H3 6316   2.140   3.013   0.420  0.0992  0.0200  0.4823
  423MPD2     N 6317   2.155   2.629   0.220 -0.1755  0.2630  0.5543
  423MPD2    H5 6318   2.128   2.680   0.136  0.5275 -1.5401 -0.7878
  423MPD2    N1 6319   2.298   2.658   0.678  0.3274 -0.3355  0.8037
  423MPD2    H7 6320   2.304   2.557   0.675 -1.3538 -0.3560 -2.0117
  424TMC3    C1 6321   2.387   2.645   0.907 -0.1851 -0.9491  0.1099
  424TMC3    C2 6322   2.481   2.718   0.978 -0.4037 -0.4638  0.0220
  424TMC3    C3 6323   2.529   2.643   1.083  0.1356  0.3153  0.8013
  424TMC3    C4 6324   2.333   2.524   0.949 -0.7127 -0.7232 -0.1132
  424TMC3    C5 6325   2.377   2.466   1.063  0.0386 -0.0920  0.4515
  424TMC3    C6 6326   2.469   2.531   1.144 -1.0131  0.4450 -0.4002
  424TMC3     C 6327   2.328   2.724   0.797 -0.3037 -0.6162 -0.6358
  424TMC3     O 6328   2.350   2.843   0.806  0.5826  0.3965 -0.3699
  424TMC3     H 6329   2.528   2.805   0.934  2.0900 -1.7283  0.1989
  424TMC3    H1 6330   2.262   2.478   0.881  0.2010 -3.2747  0.6631
  424TMC3    H2 6331   2.514   2.493   1.235  0.1281 -1.9583 -1.9829
  424TMC3    C7 6332   2.401   2.324   1.046  0.5773  0.2251  0.0057
  424TMC3    C8 6333   2.666   2.603   1.064  0.3546  0.1620 -0.2871
  424TMC3    O1 6334   2.324   2.255   0.980  0.5007  0.9165  0.0275
  424TMC3    O2 6335   2.700   2.497   1.110  0.1938 -0.1123  0.1854
  425MPD2     C 6336   0.966   2.303  17.308  0.1713 -0.0438 -0.0376
  425MPD2    C1 6337   1.003   2.198  17.389  0.2427 -0.0067  0.0870
  425MPD2    C2 6338   0.932   2.177  17.502 -0.3091  0.3071  1.0013
  425MPD2    C3 6339   0.819   2.250  17.534  0.4371 -0.5865 -1.1661
  425MPD2    C4 6340   0.795   2.362  17.453 -0.3875 -0.5543 -0.2608
  425MPD2    C5 6341   0.875   2.395  17.349 -0.3167 -0.2017 -0.1517
  425MPD2     H 6342   0.951   2.099  17.575  0.8944  1.9368  2.4285
  425MPD2    H1 6343   0.718   2.435  17.475 -0.2725 -0.3860 -0.4188
  425MPD2    H2 6344   1.020   2.332  17.220  0.9972 -2.0578 -0.1833
  425MPD2    H3 6345   0.846   2.480  17.287  0.9890 -0.2987 -0.8891
  425MPD2     N 6346   0.735   2.200  17.636 -0.6276  0.1994 -0.2170
  425MPD2    H5 6347   0.759   2.111  17.679  1.8135  0.1025 -1.7576
  425MPD2    N1 6348   1.123   2.126  17.358 -0.9429 -0.3417  0.3176
  425MPD2    H7 6349   1.163   2.136  17.265  0.5486  0.5858  1.0667
  426TMC3    C1 6350   1.314   1.991  17.402 -0.2741 -0.3762 -0.0717
  426TMC3    C2 6351   1.286   1.920  17.281  0.1024  0.0707  0.3982
  426TMC3    C3 6352   1.320   1.783  17.274  0.0654  0.2222 -0.5069
  426TMC3    C4 6353   1.379   1.922  17.505  0.1098  0.5366  0.3033
  426TMC3    C5 6354   1.381   1.783  17.500  0.0461  0.1212  0.0359
  426TMC3    C6 6355   1.348   1.712  17.388 -0.0689 -0.3918 -0.0211
  426TMC3     C 6356   1.192   2.055  17.450  0.4701  0.0208  0.0007
  426TMC3     O 6357   1.197   2.070  17.572 -0.3690  0.3266  0.4408
  426TMC3     H 6358   1.240   1.956  17.190 -2.8199  0.3063  1.9608
  426TMC3    H1 6359   1.418   1.966  17.595 -2.7826  1.3868  1.1374
  426TMC3    H2 6360   1.343   1.604  17.386 -4.0628 -0.2062 -0.0096
  426TMC3    C7 6361   1.390   1.716  17.625  0.5251  0.6555 -0.4967
  426TMC3    C8 6362   1.279   1.698  17.164  0.9706 -1.4767 -0.3338
  426TMC3    O1 6363   1.381   1.592  17.629  0.0369 -0.1990 -0.4400
  426TMC3    O2 6364   1.361   1.675  17.077  0.0470 -0.3425 -0.1421
  427MPD2     C 6365   4.641   4.073  14.867 -0.3766  0.2620  0.4719
  427MPD2    C1 6366   4.622   4.047  15.003  0.1733 -0.8565  0.1775
  427MPD2    C2 6367   4.497   4.069  15.048 -0.0559  0.3079 -0.4585
  427MPD2    C3 6368   4.393   4.127  14.969 -0.2070 -0.3052 -0.2182
  427MPD2    C4 6369   4.422   4.155  14.836 -0.2669 -0.6794 -0.1427
  427MPD2    C5 6370   4.543   4.127  14.793  0.3370 -0.3242 -0.2142
  427MPD2     H 6371   4.483   4.049  15.154 -1.9456  2.2614 -0.3231
  427MPD2    H1 6372   4.349   4.195  14.766  0.4376  1.9934  0.6674
  427MPD2    H2 6373   0.009   4.051  14.812 -1.1517 -0.1886 -0.6161
  427MPD2    H3 6374   4.568   4.157  14.692 -0.1531  0.5893 -0.0629
  427MPD2     N 6375   4.258   4.149  15.012  0.0449 -0.0789  0.0149
  427MPD2    H5 6376   4.192   4.191  14.948  1.3053  0.4950 -0.9014
  427MPD2    N1 6377   4.718   3.990  15.094  0.6842  0.8491 -0.1123
  427MPD2    H7 6378   4.705   3.988  15.194 -0.7431  2.0878 -0.2707
  428TMC3    C1 6379   0.195   3.890  15.146 -0.2152  0.0482  0.3413
  428TMC3    C2 6380   0.143   3.760  15.172  0.0323  0.0333 -0.2430
  428TMC3    C3 6381   0.236   3.668  15.208  0.5054 -0.8666  0.6808
  428TMC3    C4 6382   0.327   3.923  15.155  0.6888  0.3118 -0.3442
  428TMC3    C5 6383   0.410   3.830  15.195 -0.2632  0.7777 -0.5675
  428TMC3    C6 6384   0.368   3.699  15.213  0.1093 -0.3056 -0.2196
  428TMC3     C 6385   0.127   3.958  15.045 -0.3491  0.0860  0.3662
  428TMC3     O 6386   0.169   3.957  14.933  0.4547 -0.0523  0.0860
  428TMC3     H 6387   0.037   3.744  15.157  0.0120 -1.1024  1.1699
  428TMC3    H1 6388   0.367   4.015  15.114  0.9081  0.1539 -0.4846
  428TMC3    H2 6389   0.438   3.628  15.254  0.3972  0.8401  1.3222
  428TMC3    C7 6390   0.503   3.880  15.297  0.7873  0.0424  0.3717
  428TMC3    C8 6391   0.201   3.523  15.230 -0.9401  0.1422  0.0324
  428TMC3    O1 6392   0.479   3.854  15.417 -0.3895 -0.2125  0.1639
  428TMC3    O2 6393   0.294   3.446  15.246 -0.1983  0.3958  0.4572
  429MPD2     C 6394   0.279   3.794   0.116  0.3086 -0.4120  0.1736
  429MPD2    C1 6395   0.383   3.717   0.052  0.4769 -0.3601 -0.3062
  429MPD2    C2 6396   0.456   3.780  17.642  0.5160  0.7276 -0.3762
  429MPD2    C3 6397   0.431   3.913  17.608  0.0353  0.5706 -0.0486
  429MPD2    C4 6398   0.323   3.979  17.663 -0.9563  0.0309 -0.0353
  429MPD2    C5 6399   0.256   3.920   0.079 -1.2192  0.4202 -0.4556
  429MPD2     H 6400   0.532   3.727  17.587  1.9207  3.1682 -0.8008
  429MPD2    H1 6401   0.288   4.077  17.635 -1.2623 -0.6159 -1.9277
  429MPD2    H2 6402   0.219   3.754   0.197 -1.3656  1.6405 -0.0323
  429MPD2    H3 6403   0.178   3.982   0.122 -2.2853 -0.2209 -1.4517
  429MPD2     N 6404   0.516   3.972  17.513 -0.3286  0.0272  0.1072
  429MPD2    H5 6405   0.595   3.918  17.477 -0.9784 -0.7230 -0.1854
  429MPD2    N1 6406   0.401   3.582   0.077 -0.2764  0.1165 -0.7350
  429MPD2    H7 6407   0.480   3.546   0.024 -0.1150 -0.0020 -0.4120
  430TMC3    C1 6408   0.616   4.141  17.382  0.2837 -0.5865  0.7026
  430TMC3    C2 6409   0.597   4.248  17.302 -0.6396 -0.5433  0.3065
  430TMC3    C3 6410   0.704   4.290  17.229  0.4355 -0.2026 -0.3863
  430TMC3    C4 6411   0.732   4.063  17.375  0.2331  0.4468 -0.3892
  430TMC3    C5 6412   0.827   4.110  17.296 -0.1497  0.4544 -0.0112
  430TMC3    C6 6413   0.824   4.231  17.235  0.4366 -0.1006 -0.1884
  430TMC3     C 6414   0.502   4.100  17.460  0.3550  0.6214  0.1787
  430TMC3     O 6415   0.413   4.188  17.473 -0.7517 -0.0531 -0.2536
  430TMC3     H 6416   0.497   4.291  17.294  0.7808  2.7113  0.3018
  430TMC3    H1 6417   0.748   3.967  17.424 -2.9857 -0.2028 -0.6239
  430TMC3    H2 6418   0.901   4.267  17.169  1.1792  0.6599  1.0921
  430TMC3    C7 6419   0.901   3.996  17.234 -0.2710 -0.0661  0.3694
  430TMC3    C8 6420   0.674   4.340  17.098  0.5871  0.5369 -0.7864
  430TMC3    O1 6421   0.856   3.885  17.250  0.2017  0.8642 -0.3057
  430TMC3    O2 6422   0.582   4.299  17.032  0.4012  0.8444  0.4346
  431MPD2     C 6423   1.773   4.228  12.267 -0.1346 -0.2690 -0.5835
  431MPD2    C1 6424   1.869   4.276  12.172  0.9502 -0.7013  0.3454
  431MPD2    C2 6425   1.865   4.222  12.045  0.7051  0.1099  0.1236
  431MPD2    C3 6426   1.768   4.121  12.019  0.0112 -0.4242  0.0932
  431MPD2    C4 6427   1.671   4.086  12.115  0.0705  0.2932 -0.0264
  431MPD2    C5 6428   1.677   4.139  12.242 -0.2586 -0.1694 -0.2885
  431MPD2     H 6429   1.939   4.254  11.972  1.0767 -1.0953 -0.0412
  431MPD2    H1 6430   1.598   4.009  12.093 -2.3863  2.9526 -1.0886
  431MPD2    H2 6431   1.754   4.268  12.366 -0.4114  2.0680 -1.5811
  431MPD2    H3 6432   1.605   4.109  12.317  1.1719  1.1319  1.5732
  431MPD2     N 6433   1.774   4.035  11.909 -0.1543 -0.3609 -0.3752
  431MPD2    H5 6434   1.697   3.970  11.918 -0.0801 -0.6733 -2.1465
  431MPD2    N1 6435   1.967   4.373  12.206  0.0557  0.0307 -0.2892
  431MPD2    H7 6436   2.030   4.399  12.131 -0.0428  0.1701 -0.3229
  432TMC3    C1 6437   1.893   3.865  11.816 -0.1458 -0.6144 -0.6150
  432TMC3    C2 6438   1.961   3.822  11.704  0.2435 -0.5552  0.8750
  432TMC3    C3 6439   1.992   3.695  11.698 -0.0123  0.7236 -0.2205
  432TMC3    C4 6440   1.877   3.792  11.936 -0.4251  0.1620 -0.5233
  432TMC3    C5 6441   1.921   3.663  11.926  0.3086  0.0055  1.1562
  432TMC3    C6 6442   1.980   3.615  11.812 -0.0844  0.3633  0.6828
  432TMC3     C 6443   1.886   4.006  11.836  0.1739 -0.6683  0.0653
  432TMC3     O 6444   1.952   4.081  11.763  0.1040  0.2378 -0.3157
  432TMC3     H 6445   1.978   3.892  11.623 -3.1260  1.2971  1.7452
  432TMC3    H1 6446   1.827   3.826  12.025 -1.6045  0.2596 -1.2325
  432TMC3    H2 6447   2.017   3.513  11.809 -1.5405 -0.1944  1.9079
  432TMC3    C7 6448   1.988   3.609  12.052  0.1843  0.0109  0.0625
  432TMC3    C8 6449   2.058   3.636  11.583 -0.0283  0.0679 -0.5984
  432TMC3    O1 6450   2.080   3.534  12.032 -0.0372 -0.2356  0.5311
  432TMC3    O2 6451   2.036   3.519  11.546 -0.1699 -0.5445 -0.7966
  433MPD2     C 6452   0.692   3.010  10.912 -0.0285  0.5231 -0.3135
  433MPD2    C1 6453   0.587   2.939  10.963  0.2595  0.4832  0.2843
  433MPD2    C2 6454   0.559   2.935  11.094 -0.1282  0.3513 -0.5159
  433MPD2    C3 6455   0.655   2.982  11.183  0.0704  0.8965  0.3840
  433MPD2    C4 6456   0.758   3.061  11.140 -0.9978 -0.1026  0.3150
  433MPD2    C5 6457   0.780   3.077  11.001  0.1249 -0.2406 -0.1848
  433MPD2     H 6458   0.467   2.890  11.129  1.2812 -0.6838  1.8227
  433MPD2    H1 6459   0.827   3.104  11.212 -0.1299 -2.1167  0.6953
  433MPD2    H2 6460   0.726   3.026  10.810 -1.7199  0.4297 -0.8935
  433MPD2    H3 6461   0.869   3.120  10.956  0.5838 -0.2293  0.7389
  433MPD2     N 6462   0.629   2.950  11.319  0.3618  0.1968  0.0925
  433MPD2    H5 6463   0.559   2.878  11.336  0.8474 -0.0047  1.2467
  433MPD2    N1 6464   0.503   2.856  10.878  0.1385  1.1685 -0.4359
  433MPD2    H7 6465   0.541   2.853  10.784  0.3939  1.8740 -0.3576
  434TMC3    C1 6466   0.369   2.681  10.790 -0.3306  0.7316  0.0252
  434TMC3    C2 6467   0.323   2.553  10.819 -0.4059  0.3631 -0.3035
  434TMC3    C3 6468   0.310   2.468  10.712 -0.2831 -0.2870  0.2298
  434TMC3    C4 6469   0.377   2.734  10.663  0.2810 -0.3984 -0.1206
  434TMC3    C5 6470   0.351   2.649  10.560 -0.4503 -0.3116  0.8371
  434TMC3    C6 6471   0.324   2.512  10.585  0.2150  0.2842 -0.4820
  434TMC3     C 6472   0.409   2.762  10.909 -0.1996  0.0202  0.0095
  434TMC3     O 6473   0.363   2.725  11.018  0.0869  0.0910 -0.0922
  434TMC3     H 6474   0.312   2.512  10.919 -1.0651 -1.3600 -1.0859
  434TMC3    H1 6475   0.384   2.841  10.647 -3.9492 -0.2390 -0.8906
  434TMC3    H2 6476   0.294   2.449  10.502  1.9201 -0.2443 -0.6961
  434TMC3    C7 6477   0.315   2.699  10.428 -0.1739 -0.6872 -0.3188
  434TMC3    C8 6478   0.372   2.346  10.736  0.3835  0.5479 -0.3477
  434TMC3    O1 6479   0.273   2.816  10.414  0.2868 -0.7095  0.0959
  434TMC3    O2 6480   0.334   2.288  10.836  0.1592  0.0518 -0.2408
  435MPD2     C 6481   2.600   2.826  15.428  0.3915  0.2139 -0.0047
  435MPD2    C1 6482   2.550   2.756  15.538 -0.0560  0.1351  0.3596
  435MPD2    C2 6483   2.640   2.686  15.618 -0.0984  0.7475  0.0149
  435MPD2    C3 6484   2.774   2.669  15.582 -0.1089 -0.4454 -0.3286
  435MPD2    C4 6485   2.826   2.745  15.470 -0.1818  0.3609 -0.8870
  435MPD2    C5 6486   2.734   2.819  15.402  0.7368 -0.1824  0.5562
  435MPD2     H 6487   2.603   2.633  15.705  0.0337  0.3570 -0.1683
  435MPD2    H1 6488   2.932   2.747  15.447  0.2636  1.2230  1.2364
  435MPD2    H2 6489   2.542   2.888  15.360  1.0886  0.6277 -0.2239
  435MPD2    H3 6490   2.769   2.860  15.308  1.9813 -1.0179  0.6516
  435MPD2     N 6491   2.841   2.574  15.659 -0.0510  0.8701  0.0050
  435MPD2    H5 6492   2.804   2.539  15.747  1.4425 -0.7065  0.0190
  435MPD2    N1 6493   2.412   2.747  15.571 -0.2245 -0.5720  0.3602
  435MPD2    H7 6494   2.384   2.678  15.640  0.8639  2.4284  3.8433
  436TMC3    C1 6495   2.008   2.649  15.621 -0.2642 -0.0658 -0.2141
  436TMC3    C2 6496   2.125   2.722  15.618 -0.5488 -0.2340 -0.2130
  436TMC3    C3 6497   2.199   2.710  15.506 -0.5756  0.1249 -0.2414
  436TMC3    C4 6498   1.964   2.567  15.517 -0.6797 -0.2162  0.6281
  436TMC3    C5 6499   2.043   2.562  15.408  0.3670  0.0464 -0.8976
  436TMC3    C6 6500   2.160   2.630  15.409  0.2026  0.2012  0.4959
  436TMC3     C 6501   1.956   2.596  15.749 -0.0061 -0.5034 -0.4798
  436TMC3     O 6502   1.913   2.483  15.749  0.2121 -0.7898 -0.2808
  436TMC3     H 6503   2.163   2.771  15.708  0.3860 -2.1268  0.4371
  436TMC3    H1 6504   1.865   2.523  15.519 -0.8185  0.0416 -0.8578
  436TMC3    H2 6505   2.225   2.632  15.322 -0.2539  0.7435  0.1667
  436TMC3    C7 6506   1.988   2.507  15.292 -0.4102  0.1766  0.1946
  436TMC3    C8 6507   2.314   2.796  15.485  0.3115  1.0389 -0.1528
  436TMC3    O1 6508   1.868   2.492  15.275  0.2939  0.2816 -0.0803
  436TMC3    O2 6509   2.309   2.874  15.390 -0.3959  1.0192  0.1171
  437TMC3    C1 6510   1.139   0.306  12.769 -0.0922  1.0376 -0.0316
  437TMC3    C2 6511   1.027   0.387  12.773  0.2161  0.3132 -0.2423
  437TMC3    C3 6512   0.989   0.446  12.664  0.3857 -0.4376  0.3733
  437TMC3    C4 6513   1.226   0.301  12.662  0.2329  0.5598 -0.5561
  437TMC3    C5 6514   1.190   0.373  12.550  0.3129  0.2728  0.1467
  437TMC3    C6 6515   1.069   0.437  12.553  0.0154  0.3349  0.3893
  437TMC3     C 6516   1.170   0.241  12.898 -0.2068 -0.5213  1.0673
  437TMC3     O 6517   1.123   0.288  13.003  0.1935  0.4229  0.4185
  437TMC3     H 6518   0.976   0.383  12.869 -0.7940  2.7645 -0.6769
  437TMC3    H1 6519   1.318   0.245  12.674  0.5047  1.3712  1.1149
  437TMC3    H2 6520   1.043   0.499  12.468 -0.2655  0.8931  0.8832
  437TMC3    C7 6521   1.277   0.375  12.436 -0.7345  0.6823  0.2792
  437TMC3    C8 6522   0.863   0.512  12.651 -0.2285  0.3702  0.6649
  437TMC3    O1 6523   1.224   0.412  12.330 -0.0533 -0.3142  0.0437
  437TMC3    O2 6524   0.835   0.565  12.546  0.4676 -0.8546  0.2058
  438MPD2     C 6525   3.981   0.917  16.630 -0.4048 -0.1275 -0.6613
  438MPD2    C1 6526   3.977   0.820  16.730  0.9473 -0.4221  0.3862
  438MPD2    C2 6527   3.912   0.842  16.846 -0.0693 -0.1982 -0.0363
  438MPD2    C3 6528   3.840   0.964  16.862 -0.8865  0.1632 -0.4063
  438MPD2    C4 6529   3.845   1.058  16.763  0.5097  0.1607  0.2009
  438MPD2    C5 6530   3.919   1.042  16.646  0.3080 -0.5096 -0.3370
  438MPD2     H 6531   3.923   0.771  16.927 -1.5907  0.6338  0.9127
  438MPD2    H1 6532   3.792   1.150  16.785  0.7841 -0.0910  1.9180
  438MPD2    H2 6533   4.045   0.899  16.545  1.1627 -2.1125  0.9583
  438MPD2    H3 6534   3.913   1.122  16.574 -2.0154  0.7297  1.2446
  438MPD2     N 6535   3.768   1.001  16.970 -0.2932  0.2453 -0.3971
  438MPD2    H5 6536   3.752   1.098  16.994 -2.0841 -0.1341 -0.0327
  438MPD2    N1 6537   4.035   0.696  16.729  0.4589  0.8223  0.2327
  438MPD2    H7 6538   4.048   0.642  16.814 -0.5716  0.1220 -0.0594
  439TMC3    C1 6539   4.123   0.504  16.635  0.1921 -0.0220  0.0456
  439TMC3    C2 6540   4.126   0.417  16.526 -0.6220 -0.4219 -0.2878
  439TMC3    C3 6541   4.203   0.303  16.531  0.6524  0.6060 -0.0595
  439TMC3    C4 6542   4.207   0.481  16.744  0.2686 -0.2711 -0.0288
  439TMC3    C5 6543   4.282   0.369  16.743  0.4709  0.2434 -0.0299
  439TMC3    C6 6544   4.280   0.274  16.637  0.6464  0.3157 -0.5974
  439TMC3     C 6545   4.054   0.629  16.611 -0.3396 -0.6858 -1.2985
  439TMC3     O 6546   4.024   0.651  16.497  0.9949  0.0570  0.4842
  439TMC3     H 6547   4.058   0.428  16.443 -2.1512 -1.3223  0.8647
  439TMC3    H1 6548   4.213   0.550  16.827 -1.5595 -2.4146  1.8831
  439TMC3    H2 6549   4.340   0.184  16.641  0.3450  0.2106  1.4854
  439TMC3    C7 6550   4.347   0.333  16.869  0.0814 -0.3038 -0.1601
  439TMC3    C8 6551   4.231   0.220  16.418 -0.2494  0.6386 -0.3479
  439TMC3    O1 6552   4.448   0.270  16.856 -0.0375 -0.3674  0.2317
  439TMC3    O2 6553   4.265   0.104  16.440 -0.3724  0.0178  0.2116
  440MPD2     C 6554   2.793   0.872  14.812 -0.6797  0.0428  0.2162
  440MPD2    C1 6555   2.678   0.868  14.892  0.0660  0.1209 -0.7274
  440MPD2    C2 6556   2.652   0.757  14.975 -0.7907 -0.2542 -0.9190
  440MPD2    C3 6557   2.733   0.645  14.958  0.0474 -0.2574  0.5409
  440MPD2    C4 6558   2.837   0.648  14.864  0.4579  0.1164  0.0130
  440MPD2    C5 6559   2.873   0.762  14.799 -0.0214  0.2317  1.0642
  440MPD2     H 6560   2.574   0.756  15.050 -1.4677 -0.1863 -1.6294
  440MPD2    H1 6561   2.917   0.576  14.855 -0.0321 -0.5262  0.8347
  440MPD2    H2 6562   2.817   0.965  14.763  0.7682 -0.4328  0.0173
  440MPD2    H3 6563   2.955   0.749  14.730  0.8684  0.4431  2.0865
  440MPD2     N 6564   2.730   0.535  15.042 -0.5034  0.5158  0.1910
  440MPD2    H5 6565   2.800   0.461  15.032  0.6973  1.7473 -0.5910
  440MPD2    N1 6566   2.590   0.974  14.904  0.1233  0.2744  0.3617
  440MPD2    H7 6567   2.511   0.967  14.967  0.6045  0.4587  0.9836
  441TMC3    C1 6568   2.708   0.439  15.249 -1.4762  0.0757  0.2318
  441TMC3    C2 6569   2.840   0.469  15.267  0.1227  0.2187 -0.1830
  441TMC3    C3 6570   2.887   0.462  15.393 -0.0785  0.1034  0.0348
  441TMC3    C4 6571   2.627   0.387  15.346  0.0996  0.3794 -0.2151
  441TMC3    C5 6572   2.681   0.372  15.470  1.2263  0.0914  0.3430
  441TMC3    C6 6573   2.815   0.404  15.495  0.0323  0.2465 -0.0585
  441TMC3     C 6574   2.649   0.518  15.146 -0.2954 -0.1129 -0.2135
  441TMC3     O 6575   2.544   0.574  15.168  0.0302 -0.2618 -0.8763
  441TMC3     H 6576   2.896   0.531  15.197 -1.1565  1.3924 -0.1793
  441TMC3    H1 6577   2.520   0.373  15.347  0.1233  0.2008 -0.3768
  441TMC3    H2 6578   2.848   0.424  15.596 -1.2762 -3.4336  1.1015
  441TMC3    C7 6579   2.597   0.374  15.588 -0.2748 -0.1941 -0.7181
  441TMC3    C8 6580   2.962   0.574  15.431  0.1007  0.1696  0.1348
  441TMC3    O1 6581   2.495   0.441  15.575  0.2386 -0.7086 -0.4235
  441TMC3    O2 6582   3.037   0.566  15.528  0.4280  0.3672 -0.4093
  442MPD2     C 6583   1.005   1.690  16.579 -0.4156  0.0456 -0.7630
  442MPD2    C1 6584   0.923   1.621  16.660  0.5596 -0.3594 -0.0460
  442MPD2    C2 6585   0.924   1.481  16.648  0.0653 -0.2717 -0.3347
  442MPD2    C3 6586   0.978   1.422  16.534  0.4934  0.9166 -0.3129
  442MPD2    C4 6587   1.035   1.507  16.439 -0.5319  0.5926  0.1948
  442MPD2    C5 6588   1.070   1.634  16.472  0.2966  0.2286 -0.1373
  442MPD2     H 6589   0.867   1.417  16.714 -2.2954  1.8348 -0.3053
  442MPD2    H1 6590   1.081   1.465  16.350 -0.9406  0.3372  0.1079
  442MPD2    H2 6591   1.005   1.798  16.589 -1.0793 -0.0203 -0.0626
  442MPD2    H3 6592   1.121   1.698  16.401  0.3761  0.4883  0.1556
  442MPD2     N 6593   0.965   1.280  16.502 -0.2274  0.1031 -0.4923
  442MPD2    H5 6594   0.999   1.246  16.412  0.5712  1.6019 -0.7599
  442MPD2    N1 6595   0.850   1.680  16.765  0.0932 -0.1998  0.2405
  442MPD2    H7 6596   0.786   1.620  16.815 -0.5317  0.1884 -0.0854
  443TMC3    C1 6597   0.723   1.849  16.865  0.0431 -0.0587  0.3502
  443TMC3    C2 6598   0.636   1.946  16.825  0.3261  0.0853 -0.9267
  443TMC3    C3 6599   0.505   1.943  16.864  0.0319 -0.1568  0.0639
  443TMC3    C4 6600   0.679   1.749  16.941 -0.0484 -0.1655  0.3774
  443TMC3    C5 6601   0.556   1.764  16.999 -0.2180  0.8848  0.0697
  443TMC3    C6 6602   0.471   1.854  16.967 -0.2960  0.7601 -0.4460
  443TMC3     C 6603   0.835   1.816  16.775 -0.7544  0.0250 -0.6988
  443TMC3     O 6604   0.879   1.915  16.717 -0.0474 -0.4463 -0.1562
  443TMC3     H 6605   0.662   2.033  16.765 -0.5853  0.0682 -1.3612
  443TMC3    H1 6606   0.748   1.688  16.997  0.1165  1.0505  1.5187
  443TMC3    H2 6607   0.378   1.856  17.023  0.0187  2.1702  0.0087
  443TMC3    C7 6608   0.516   1.638  17.059  0.8312  0.2117 -0.0178
  443TMC3    C8 6609   0.425   1.925  16.745  0.0734  0.0110  0.0621
  443TMC3    O1 6610   0.585   1.540  17.031 -0.1216 -0.2944  0.3405
  443TMC3    O2 6611   0.396   1.810  16.730  0.2974 -0.6201 -0.2502
  444MPD2     C 6612   1.298   1.342  17.291  0.6277  0.4741 -0.4039
  444MPD2    C1 6613   1.230   1.228  17.253 -0.1112 -0.6522 -1.0247
  444MPD2    C2 6614   1.294   1.153  17.158  0.4146  0.2404  0.3499
  444MPD2    C3 6615   1.421   1.169  17.109  0.1447  0.2341 -0.0628
  444MPD2    C4 6616   1.495   1.277  17.157  0.0462 -0.2197  0.2879
  444MPD2    C5 6617   1.427   1.358  17.247 -0.1957  0.3734  0.9059
  444MPD2     H 6618   1.247   1.058  17.134 -1.4527  1.3922 -0.5555
  444MPD2    H1 6619   1.599   1.292  17.131 -0.3521  1.6194 -0.2146
  444MPD2    H2 6620   1.259   1.411  17.364 -0.9565  0.2225 -1.0137
  444MPD2    H3 6621   1.492   1.433  17.292 -0.6844  0.3279  1.6829
  444MPD2     N 6622   1.467   1.060  17.042  0.0150 -0.3612 -0.0087
  444MPD2    H5 6623   1.403   0.982  17.043  1.0557 -1.2243 -0.7751
  444MPD2    N1 6624   1.106   1.188  17.315 -0.0605  0.4640 -0.5174
  444MPD2    H7 6625   1.063   1.102  17.280 -0.3462  0.0665  0.8280
  445TMC3    C1 6626   1.615   0.911  16.953 -0.1519  0.0648  0.2720
  445TMC3    C2 6627   1.540   0.816  17.017  0.3469 -0.3540 -0.5723
  445TMC3    C3 6628   1.558   0.686  16.973 -0.1894  0.0792 -0.3893
  445TMC3    C4 6629   1.684   0.887  16.838  0.1966 -0.1224  0.4373
  445TMC3    C5 6630   1.689   0.757  16.789 -0.5490  0.2145  0.7261
  445TMC3    C6 6631   1.624   0.657  16.857 -0.3852  0.4637  0.3856
  445TMC3     C 6632   1.590   1.051  16.978 -0.3270 -0.5692 -0.2706
  445TMC3     O 6633   1.672   1.135  16.944 -0.3591 -0.4486 -0.1135
  445TMC3     H 6634   1.498   0.833  17.116 -0.6311  1.9770 -1.3884
  445TMC3    H1 6635   1.739   0.969  16.793 -0.8416 -0.9610 -2.3307
  445TMC3    H2 6636   1.637   0.552  16.831  0.0529  0.2658  1.3825
  445TMC3    C7 6637   1.775   0.714  16.678 -0.2149 -0.6680  0.0120
  445TMC3    C8 6638   1.497   0.585  17.060  0.0751 -0.2969 -0.4463
  445TMC3    O1 6639   1.797   0.793  16.592  0.3529  0.4350  0.7625
  445TMC3    O2 6640   1.480   0.618  17.175  0.7025  0.2610  0.1211
  446MPD2     C 6641   0.423   2.265  11.304 -0.0134 -0.6287  0.5108
  446MPD2    C1 6642   0.421   2.259  11.166 -0.4432  0.0180 -0.2314
  446MPD2    C2 6643   0.501   2.346  11.099 -0.5557  1.0175 -0.3787
  446MPD2    C3 6644   0.579   2.434  11.162 -0.8334  0.1820  0.0622
  446MPD2    C4 6645   0.587   2.436  11.296  0.4136 -0.9931  0.0335
  446MPD2    C5 6646   0.508   2.352  11.368  0.3900 -0.4672 -0.5042
  446MPD2     H 6647   0.491   2.362  10.992 -0.3115  0.6389 -0.4588
  446MPD2    H1 6648   0.652   2.501  11.353 -1.2414 -0.4057  1.2472
  446MPD2    H2 6649   0.364   2.196  11.364 -0.9148 -1.7980 -1.7393
  446MPD2    H3 6650   0.524   2.344  11.475  1.1234  0.0723 -0.5776
  446MPD2     N 6651   0.655   2.515  11.080 -0.0808  0.4361  0.3159
  446MPD2    H5 6652   0.633   2.519  10.981  3.2180  0.6520 -0.3925
  446MPD2    N1 6653   0.329   2.180  11.094  0.0761  0.2212 -0.6557
  446MPD2    H7 6654   0.309   2.215  11.001 -0.6255 -2.6906 -1.6140
  447TMC3    C1 6655   0.819   2.673  11.018  0.5077 -0.3382 -0.3004
  447TMC3    C2 6656   0.796   2.645  10.883  0.2674  0.0550  0.3406
  447TMC3    C3 6657   0.885   2.697  10.794  0.2239  0.6456 -0.8561
  447TMC3    C4 6658   0.921   2.759  11.057 -0.1336 -0.6585 -0.2729
  447TMC3    C5 6659   1.014   2.791  10.963  0.3719 -0.4863  0.9492
  447TMC3    C6 6660   0.993   2.773  10.832 -0.6380 -0.1980  0.2045
  447TMC3     C 6661   0.757   2.602  11.126 -0.0346  0.8149 -0.0465
  447TMC3     O 6662   0.810   2.610  11.234 -0.0232  0.0542 -0.1744
  447TMC3     H 6663   0.713   2.580  10.857  3.6073 -4.0609 -0.0801
  447TMC3    H1 6664   0.950   2.764  11.161  0.2339  2.4589 -0.5364
  447TMC3    H2 6665   1.066   2.803  10.758 -1.7898  0.5011 -0.6482
  447TMC3    C7 6666   1.130   2.853  11.006 -0.4543  0.1393  0.2534
  447TMC3    C8 6667   0.823   2.728  10.664  0.0264 -0.7855  0.1244
  447TMC3    O1 6668   1.231   2.818  10.945 -0.4914  0.6366  0.4541
  447TMC3    O2 6669   0.704   2.747  10.656 -0.2334 -0.3082 -0.1152
  448TMC3    C1 6670   4.344   2.471  17.195  0.3027  0.1224  0.1897
  448TMC3    C2 6671   4.348   2.341  17.138 -0.4812 -0.1716  0.3355
  448TMC3    C3 6672   4.379   2.241  17.226 -0.5499  0.1701  0.2065
  448TMC3    C4 6673   4.369   2.495  17.324 -0.1365 -0.1833 -0.6132
  448TMC3    C5 6674   4.394   2.384  17.404 -0.3194  0.5404  0.0020
  448TMC3    C6 6675   4.395   2.254  17.361  0.4970  0.3000 -1.1430
  448TMC3     C 6676   4.276   2.574  17.107  0.5004 -0.9770  0.3637
  448TMC3     O 6677   4.253   2.546  16.991 -0.2778 -0.5145 -0.0267
  448TMC3     H 6678   4.353   2.339  17.030  2.7380 -0.9180  0.4844
  448TMC3    H1 6679   4.390   2.595  17.359  2.6209 -1.6640  1.9229
  448TMC3    H2 6680   4.402   2.161  17.417 -0.8191  0.7578 -0.2136
  448TMC3    C7 6681   4.417   2.400  17.547  0.2681 -0.2991 -0.6285
  448TMC3    C8 6682   4.424   2.111  17.173  0.3705  0.6683  0.0642
  448TMC3    O1 6683   4.411   2.513  17.591  0.4598  0.1708  0.0308
  448TMC3    O2 6684   4.519   2.062  17.234  0.3980 -0.4790 -0.2620
  449MPD2     C 6685   0.593   0.662  14.103  0.3322 -0.1403  0.3635
  449MPD2    C1 6686   0.482   0.653  14.011  0.1466 -0.8112  0.0113
  449MPD2    C2 6687   0.375   0.565  14.032  0.4026  0.7187 -0.0807
  449MPD2    C3 6688   0.354   0.500  14.154 -0.1312 -0.4463  0.0339
  449MPD2    C4 6689   0.457   0.523  14.243 -0.3393  0.0537 -0.0359
  449MPD2    C5 6690   0.573   0.589  14.217 -0.1949  0.0252 -0.6897
  449MPD2     H 6691   0.288   0.553  13.968  0.1295 -1.1800  0.6782
  449MPD2    H1 6692   0.455   0.478  14.342 -4.1404 -2.0010 -1.0552
  449MPD2    H2 6693   0.676   0.731  14.094  1.2248 -1.4106 -1.0600
  449MPD2    H3 6694   0.650   0.607  14.291  0.0326 -0.9210 -0.6946
  449MPD2     N 6695   0.234   0.433  14.170  0.9105 -0.1135  0.1223
  449MPD2    H5 6696   0.175   0.432  14.087  1.0361 -2.2519  0.0479
  449MPD2    N1 6697   0.480   0.719  13.886 -0.1602 -0.6481  0.1502
  449MPD2    H7 6698   0.396   0.712  13.829  0.9152 -1.5564 -1.3063
  450TMC3    C1 6699   0.521   0.865  13.717 -0.5868 -0.1907  0.0648
  450TMC3    C2 6700   0.572   0.845  13.595 -0.1766 -0.3758 -0.3028
  450TMC3    C3 6701   0.478   0.833  13.499  0.1299  0.8051 -0.2379
  450TMC3    C4 6702   0.385   0.884  13.735 -0.0171 -0.3792  0.2578
  450TMC3    C5 6703   0.293   0.863  13.638  0.2456  0.0669 -0.5941
  450TMC3    C6 6704   0.339   0.839  13.517 -0.1342 -0.1415  0.4580
  450TMC3     C 6705   0.577   0.802  13.834  0.3802 -0.8116 -0.0914
  450TMC3     O 6706   0.684   0.836  13.883  0.0567  0.0923 -0.2065
  450TMC3     H 6707   0.677   0.820  13.588  0.3650  1.3482  1.5380
  450TMC3    H1 6708   0.347   0.909  13.834 -4.2492  0.4441 -1.5679
  450TMC3    H2 6709   0.282   0.804  13.431 -1.1708  1.6414  0.4290
  450TMC3    C7 6710   0.176   0.790  13.690  0.2840  0.2399  0.1920
  450TMC3    C8 6711   0.520   0.818  13.365 -0.0513 -0.2836 -0.3185
  450TMC3    O1 6712   0.179   0.762  13.808 -0.0702  0.0278 -0.6651
  450TMC3    O2 6713   0.448   0.851  13.274  0.0650 -0.2336 -0.1962
  451MPD2     C 6714   1.932   3.493   1.124  0.2062  0.1741 -1.0512
  451MPD2    C1 6715   1.894   3.577   1.023  0.5256 -0.4506  0.5236
  451MPD2    C2 6716   1.987   3.598   0.921  0.0818  0.3777 -0.1264
  451MPD2    C3 6717   2.099   3.509   0.908 -0.3113 -0.8180 -0.0108
  451MPD2    C4 6718   2.135   3.424   1.011  0.4547 -0.4889 -0.7667
  451MPD2    C5 6719   2.050   3.427   1.121 -0.8661  0.1816 -0.2640
  451MPD2     H 6720   1.976   3.675   0.845 -1.7759 -0.4886 -0.7443
  451MPD2    H1 6721   2.222   3.359   1.011  0.2348 -0.7775  0.1309
  451MPD2    H2 6722   1.861   3.463   1.199  0.4760 -0.1080 -0.9067
  451MPD2    H3 6723   2.075   3.369   1.209 -1.1473  0.2076 -0.1672
  451MPD2     N 6724   2.182   3.522   0.803 -0.5538  0.2051  0.0592
  451MPD2    H5 6725   2.264   3.463   0.815 -1.7216 -1.7848 -1.7171
  451MPD2    N1 6726   1.763   3.629   1.024 -0.1603  0.1866  0.3324
  451MPD2    H7 6727   1.701   3.585   1.092 -0.8435 -1.7832 -1.5486
  452TMC3    C1 6728   2.296   3.586   0.603  0.1469  0.1051  0.2029
  452TMC3    C2 6729   2.414   3.543   0.672  0.2942 -0.1277 -1.2049
  452TMC3    C3 6730   2.522   3.544   0.587  0.5373  0.1865 -0.1728
  452TMC3    C4 6731   2.288   3.614   0.469 -0.2758 -0.1371 -0.0459
  452TMC3    C5 6732   2.400   3.603   0.393  0.1177  0.2267  0.7044
  452TMC3    C6 6733   2.517   3.559   0.450  0.4088 -0.5434  0.6792
  452TMC3     C 6734   2.170   3.593   0.684 -0.1376 -0.0081  0.1512
  452TMC3     O 6735   2.065   3.636   0.633 -0.5624 -0.5023  0.1409
  452TMC3     H 6736   2.417   3.521   0.778 -1.6082 -0.1709 -1.1467
  452TMC3    H1 6737   2.193   3.646   0.428 -1.1427  0.1073  2.1672
  452TMC3    H2 6738   2.617   3.559   0.407  0.6794  4.0707  1.2176
  452TMC3    C7 6739   2.387   3.614   0.249  0.1746  0.1661  0.5657
  452TMC3    C8 6740   2.651   3.517   0.659  0.2458  0.4024  0.3349
  452TMC3    O1 6741   2.280   3.645   0.202  0.1440 -0.5947  0.3535
  452TMC3    O2 6742   2.744   3.468   0.594 -0.2574 -0.0946 -0.3653
  453TMC3    C1 6743   2.918   1.412  11.799 -0.2736 -0.8212 -0.3428
  453TMC3    C2 6744   2.847   1.320  11.875 -0.4026  0.5911  0.1039
  453TMC3    C3 6745   2.739   1.264  11.802  0.5341  0.1220 -0.3648
  453TMC3    C4 6746   2.879   1.441  11.672 -0.0916 -0.4433 -0.7618
  453TMC3    C5 6747   2.779   1.378  11.603  0.2512 -0.5307 -0.8695
  453TMC3    C6 6748   2.711   1.282  11.672 -0.3848 -0.5511 -0.3332
  453TMC3     C 6749   3.013   1.495  11.868  0.3746  0.3341 -0.2865
  453TMC3     O 6750   3.076   1.570  11.800  0.0832  0.0665  0.3270
  453TMC3     H 6751   2.875   1.296  11.977  0.7005 -0.7740 -0.5180
  453TMC3    H1 6752   2.927   1.519  11.613  1.4324 -0.3383  0.6153
  453TMC3    H2 6753   2.632   1.224  11.625  0.0705  1.0504 -3.1204
  453TMC3    C7 6754   2.756   1.398  11.463  0.3419 -0.0139  0.7962
  453TMC3    C8 6755   2.688   1.141  11.854  0.2767  0.4553  0.4504
  453TMC3    O1 6756   2.668   1.322  11.412  0.6139 -0.0068 -0.3987
  453TMC3    O2 6757   2.651   1.145  11.970  0.8091  0.1245 -0.4596
  454MPD2     C 6758   1.791   1.260  15.958  0.3454 -0.8494 -0.3051
  454MPD2    C1 6759   1.731   1.139  15.989 -0.3404  0.1631 -0.9451
  454MPD2    C2 6760   1.654   1.125  16.107  0.6332 -0.2564 -0.1817
  454MPD2    C3 6761   1.658   1.235  16.197 -0.1792 -0.3843 -0.0034
  454MPD2    C4 6762   1.706   1.356  16.161 -0.1515  0.4251 -0.2639
  454MPD2    C5 6763   1.779   1.373  16.040 -0.5081  0.6853  0.4123
  454MPD2     H 6764   1.593   1.037  16.121  2.0555 -0.8214  2.3871
  454MPD2    H1 6765   1.700   1.444  16.224 -2.6709  1.0558 -1.3866
  454MPD2    H2 6766   1.837   1.278  15.862 -1.4184  1.5279 -0.7027
  454MPD2    H3 6767   1.821   1.470  16.014  0.7834  0.2599  0.9075
  454MPD2     N 6768   1.607   1.209  16.329  0.3416 -0.1007 -0.4878
  454MPD2    H5 6769   1.585   1.113  16.353 -1.4166  0.6469  0.8669
  454MPD2    N1 6770   1.731   1.023  15.904  0.6307 -0.3031 -0.6479
  454MPD2    H7 6771   1.681   0.941  15.936  0.0557 -0.0114 -0.7971
  455TMC3    C1 6772   1.511   1.248  16.554 -0.7926 -0.3592 -0.4348
  455TMC3    C2 6773   1.422   1.325  16.623 -0.2243 -0.8732 -1.0572
  455TMC3    C3 6774   1.318   1.267  16.699 -0.5904 -0.1122  0.4043
  455TMC3    C4 6775   1.499   1.112  16.568  0.2735  0.1143 -0.0633
  455TMC3    C5 6776   1.393   1.060  16.633  0.0710 -0.5237  0.2080
  455TMC3    C6 6777   1.297   1.131  16.695  0.3060 -0.2008  0.7482
  455TMC3     C 6778   1.559   1.303  16.424  0.6690 -0.1645  0.3024
  455TMC3     O 6779   1.554   1.428  16.421 -0.1059  0.1729 -0.2045
  455TMC3     H 6780   1.443   1.431  16.627 -1.9905 -0.5171 -1.1927
  455TMC3    H1 6781   1.587   1.059  16.534  0.1402  0.2857 -0.6759
  455TMC3    H2 6782   1.213   1.086  16.746 -0.6376  1.6901  0.8766
  455TMC3    C7 6783   1.369   0.929  16.587 -0.1179 -0.3037 -0.1273
  455TMC3    C8 6784   1.239   1.357  16.781  0.1974  0.5032  0.0197
  455TMC3    O1 6785   1.432   0.906  16.485 -0.5499 -0.5009 -0.7521
  455TMC3    O2 6786   1.266   1.478  16.775  0.5951  0.6531 -0.0356
  456MPD2     C 6787   4.472   0.738  16.713  0.3601  0.2382 -0.0697
  456MPD2    C1 6788   4.579   0.715  16.804 -0.1763 -0.9995  0.1185
  456MPD2    C2 6789   4.597   0.808  16.907 -0.9781  0.2366 -0.8165
  456MPD2    C3 6790   4.522   0.928  16.911  0.0680 -0.0772 -0.3469
  456MPD2    C4 6791   4.412   0.940  16.827  0.3992 -0.0499  0.4237
  456MPD2    C5 6792   4.390   0.844  16.732 -0.2384  0.6454 -0.1648
  456MPD2     H 6793   4.683   0.791  16.970 -0.7349 -0.2768 -1.2924
  456MPD2    H1 6794   4.344   1.024  16.826  0.9484  0.3885 -0.0798
  456MPD2    H2 6795   4.452   0.662  16.639 -0.3596 -1.2638  1.6568
  456MPD2    H3 6796   4.308   0.862  16.664 -0.8120  0.1644  0.3873
  456MPD2     N 6797   4.553   1.027  17.012  0.0784 -0.2764 -0.1627
  456MPD2    H5 6798   4.631   1.004  17.073 -0.6796 -0.6555  0.6585
  456MPD2    N1 6799   4.652   0.597  16.779 -0.0954  0.6096  0.2318
  456MPD2    H7 6800   4.623   0.540  16.700 -0.1822 -0.1002  0.7674
  457TMC3    C1 6801   4.591   1.244  17.090  0.1110  0.5754 -0.8603
  457TMC3    C2 6802   4.606   1.374  17.057 -0.1587 -0.5003 -0.1431
  457TMC3    C3 6803   4.636   1.465  17.149  0.0899 -0.2068 -0.3507
  457TMC3    C4 6804   4.600   1.202  17.219 -0.7234  0.1692  0.0159
  457TMC3    C5 6805   4.634   1.298  17.309 -0.6681  0.2429 -0.2942
  457TMC3    C6 6806   4.646   1.427  17.278 -0.4217  0.1538 -0.0189
  457TMC3     C 6807   4.506   1.164  17.007 -0.1499 -0.1855  0.6143
  457TMC3     O 6808   4.430   1.211  16.923  0.4133 -0.1259  0.3571
  457TMC3     H 6809   4.610   1.397  16.951  1.6163 -1.1051 -0.2060
  457TMC3    H1 6810   4.598   1.096  17.240  0.7117 -0.4079 -2.7279
  457TMC3    H2 6811   4.662   1.501  17.355  0.7719 -1.0406  0.8662
  457TMC3    C7 6812   4.653   1.258  17.446 -0.0379  0.0689 -0.1014
  457TMC3    C8 6813   4.587   1.600  17.124 -0.0574  0.2491 -0.2431
  457TMC3    O1 6814   4.641   1.134  17.475 -0.3614  0.5640  0.0177
  457TMC3    O2 6815   4.638   1.681  17.199  0.2731 -0.5433  0.0987
  458MPD2     C 6816   1.749   0.381  12.230  0.7533  0.0265 -0.5865
  458MPD2    C1 6817   1.761   0.355  12.364  0.4977 -0.1767 -0.6954
  458MPD2    C2 6818   1.646   0.350  12.445 -0.1403  0.6194 -0.2697
  458MPD2    C3 6819   1.520   0.372  12.391  0.0440 -0.7032  0.3207
  458MPD2    C4 6820   1.509   0.402  12.258  0.2014  0.2785  0.4700
  458MPD2    C5 6821   1.623   0.399  12.179  0.3118  0.3046  0.5660
  458MPD2     H 6822   1.661   0.326  12.550 -1.6070  1.7292  0.1954
  458MPD2    H1 6823   1.418   0.431  12.207  1.0168  1.0037 -0.5878
  458MPD2    H2 6824   1.836   0.386  12.165  1.9311 -0.3875  0.9485
  458MPD2    H3 6825   1.615   0.433  12.076  1.8793  0.8515  0.6319
  458MPD2     N 6826   1.411   0.368  12.475  0.0449  0.3758 -0.6036
  458MPD2    H5 6827   1.415   0.356  12.576 -1.5443 -1.5045 -0.7573
  458MPD2    N1 6828   1.890   0.334  12.418  0.3781 -0.3945  0.0948
  458MPD2    H7 6829   1.972   0.348  12.359 -0.4613  0.5776 -0.8348
  459TMC3    C1 6830   2.052   0.303  12.586  0.3489 -0.6906 -0.4260
  459TMC3    C2 6831   2.140   0.390  12.525  0.4033  0.9136  0.4376
  459TMC3    C3 6832   2.251   0.427  12.602 -0.2212  0.3852  0.6379
  459TMC3    C4 6833   2.084   0.260  12.716  1.5096 -0.2724 -0.2965
  459TMC3    C5 6834   2.191   0.302  12.791  0.8608  0.0691 -0.4505
  459TMC3    C6 6835   2.280   0.386  12.732 -0.0733  0.5207  0.1967
  459TMC3     C 6836   1.918   0.281  12.538  0.6923 -0.4019 -0.2365
  459TMC3     O 6837   1.846   0.212  12.608  0.3939  0.5446  0.1004
  459TMC3     H 6838   2.121   0.419  12.422  1.0118 -0.2697 -0.0042
  459TMC3    H1 6839   2.010   0.198  12.765 -1.4378  3.6280  0.1633
  459TMC3    H2 6840   2.376   0.418  12.770 -0.4265  2.5866 -0.6358
  459TMC3    C7 6841   2.206   0.244  12.922  0.4144  0.6625  0.2949
  459TMC3    C8 6842   2.351   0.519  12.548  0.3415 -0.1945  0.5664
  459TMC3    O1 6843   2.143   0.140  12.938  0.1953  0.5156 -0.0521
  459TMC3    O2 6844   2.464   0.526  12.594  0.4000  0.0607  0.7244
  460MPD2     C 6845   0.965   2.533  10.391  0.6349  0.0830 -0.4623
  460MPD2    C1 6846   0.882   2.627  10.449 -0.4401 -0.0957  0.2167
  460MPD2    C2 6847   0.780   2.686  10.375  0.6361 -0.6889 -0.1935
  460MPD2    C3 6848   0.752   2.632  10.246  0.1408  0.3136  0.2493
  460MPD2    C4 6849   0.832   2.529  10.196  0.3242 -0.2955 -0.1025
  460MPD2    C5 6850   0.936   2.497  10.269 -0.3562 -0.0919  0.3572
  460MPD2     H 6851   0.724   2.771  10.413 -0.4437 -1.5619  0.1994
  460MPD2    H1 6852   0.824   2.476  10.102  2.5715  1.3572 -1.2414
  460MPD2    H2 6853   1.053   2.486  10.433  0.2311 -1.9715 -1.9057
  460MPD2    H3 6854   1.003   2.421  10.230  0.9813  0.6560  1.1667
  460MPD2     N 6855   0.646   2.691  10.171 -0.1789  0.2546  0.1429
  460MPD2    H5 6856   0.615   2.781  10.207  0.1940  0.2375  0.5136
  460MPD2    N1 6857   0.910   2.668  10.579 -0.4844  0.0673  0.6443
  460MPD2    H7 6858   0.998   2.634  10.618 -0.5973 -1.0811 -0.1118
  461TMC3    C1 6859   0.498   2.730   9.992  0.0809  0.2344  0.2730
  461TMC3    C2 6860   0.456   2.697   9.861  0.3590  0.0890 -0.3543
  461TMC3    C3 6861   0.360   2.778   9.805 -0.0665 -0.1805  0.0393
  461TMC3    C4 6862   0.430   2.814  10.067  0.5460 -0.2454  0.7196
  461TMC3    C5 6863   0.332   2.891  10.008 -0.2946 -0.5575 -1.1427
  461TMC3    C6 6864   0.306   2.880   9.877 -0.2287  0.2854 -0.6371
  461TMC3     C 6865   0.601   2.647  10.049  0.2804 -0.1375 -0.2987
  461TMC3     O 6866   0.646   2.560   9.980 -0.4793  0.0071  0.0973
  461TMC3     H 6867   0.512   2.622   9.806  4.4813  0.6455  3.0678
  461TMC3    H1 6868   0.440   2.812  10.175  0.7485 -2.9020  0.6431
  461TMC3    H2 6869   0.232   2.951   9.839 -0.9178 -0.5336 -0.8182
  461TMC3    C7 6870   0.260   2.996  10.084 -0.2816 -0.5662  0.1207
  461TMC3    C8 6871   0.370   2.793   9.653 -0.5354  0.3267 -0.4734
  461TMC3    O1 6872   0.149   3.027  10.042  0.0775  0.0552  0.1819
  461TMC3    O2 6873   0.451   2.717   9.596  0.2879  0.3745  0.4219
  462TMC3    C1 6874   0.769   3.824   0.097  0.5454 -0.1727 -0.5582
  462TMC3    C2 6875   0.802   3.732   0.001  0.4022 -0.3599 -0.0297
  462TMC3    C3 6876   0.827   3.610   0.041  0.0591 -0.2499  0.6071
  462TMC3    C4 6877   0.753   3.796   0.232 -0.0967 -0.4886  0.2073
  462TMC3    C5 6878   0.780   3.670   0.270 -0.4632 -0.9614 -0.3224
  462TMC3    C6 6879   0.821   3.578   0.172 -0.5261  0.4785  0.4446
  462TMC3     C 6880   0.761   3.959   0.053 -0.0428  0.3062 -0.8598
  462TMC3     O 6881   0.822   3.974  17.639  0.1225  0.2053  0.4423
  462TMC3     H 6882   0.801   3.762  17.587  0.5415 -0.9817 -0.2116
  462TMC3    H1 6883   0.755   3.881   0.300  0.5582 -1.4216  1.3579
  462TMC3    H2 6884   0.852   3.478   0.202  0.0559  0.6022  0.2579
  462TMC3    C7 6885   0.711   3.613   0.381 -0.0140 -0.2794  0.5230
  462TMC3    C8 6886   0.770   3.504  17.646 -0.5596 -0.9457 -0.1161
  462TMC3    O1 6887   0.768   3.512   0.421  0.0426  0.2145 -0.4327
  462TMC3    O2 6888   0.668   3.537  17.587 -0.4220  0.2810 -0.0864
  463MPD2     C 6889   3.023   1.409   1.468 -0.2935  0.1305  0.2055
  463MPD2    C1 6890   2.986   1.498   1.367 -0.0914  0.0751 -0.1349
  463MPD2    C2 6891   3.052   1.487   1.244 -0.8906  0.3737 -0.4015
  463MPD2    C3 6892   3.150   1.393   1.220  0.4504  0.4166 -0.6544
  463MPD2    C4 6893   3.182   1.316   1.323  0.6595 -0.1829 -0.4341
  463MPD2    C5 6894   3.124   1.321   1.445  0.1608 -0.1797  0.5506
  463MPD2     H 6895   3.022   1.554   1.164 -3.0911 -1.1364 -0.8183
  463MPD2    H1 6896   3.255   1.237   1.311  0.3494 -0.4877 -0.3017
  463MPD2    H2 6897   2.980   1.406   1.568 -0.2720 -0.0709  0.2092
  463MPD2    H3 6898   3.159   1.257   1.525  1.7884  0.3399  0.2555
  463MPD2     N 6899   3.223   1.379   1.102  0.1392  0.1098  0.1249
  463MPD2    H5 6900   3.292   1.304   1.098  0.2999  0.3253 -1.2976
  463MPD2    N1 6901   2.886   1.591   1.380  0.6704 -0.3928  0.5500
  463MPD2    H7 6902   2.880   1.658   1.303  1.1573 -1.5251 -0.4724
  464TMC3    C1 6903   2.690   1.687   1.469 -0.4155 -0.4592 -0.1431
  464TMC3    C2 6904   2.702   1.820   1.450 -0.4333  0.0052  0.4868
  464TMC3    C3 6905   2.589   1.903   1.468 -0.2667 -0.4924  0.4193
  464TMC3    C4 6906   2.564   1.636   1.504  0.5326 -0.3258 -0.3649
  464TMC3    C5 6907   2.453   1.717   1.506  0.2502  0.7706  0.0169
  464TMC3    C6 6908   2.467   1.848   1.482  0.5058 -0.1050 -0.2307
  464TMC3     C 6909   2.796   1.594   1.484  0.2623 -0.3990 -0.9803
  464TMC3     O 6910   2.773   1.502   1.564  0.2807 -0.1520  0.1082
  464TMC3     H 6911   2.799   1.860   1.422 -0.1785  0.1002  1.4745
  464TMC3    H1 6912   2.552   1.529   1.516 -0.6776 -0.1346  0.0612
  464TMC3    H2 6913   2.380   1.912   1.479  0.6692  0.1254 -0.0947
  464TMC3    C7 6914   2.331   1.658   1.555  0.6091  0.1602  0.6054
  464TMC3    C8 6915   2.591   2.051   1.493 -0.3387  0.0894  0.0303
  464TMC3    O1 6916   2.352   1.556   1.626 -0.0677  0.2671 -0.0399
  464TMC3    O2 6917   2.479   2.104   1.472  0.0989 -0.1305 -0.0692
  465MPD2     C 6918   3.498   1.160  16.611  0.0530 -0.6851 -0.1258
  465MPD2    C1 6919   3.368   1.168  16.659  0.3492 -0.3277 -0.0444
  465MPD2    C2 6920   3.265   1.192  16.567  0.9670 -0.4312  0.2545
  465MPD2    C3 6921   3.290   1.212  16.435  0.2655 -0.4367 -0.1583
  465MPD2    C4 6922   3.422   1.210  16.390 -0.5288 -0.1164  0.6863
  465MPD2    C5 6923   3.529   1.179  16.477 -0.1034  0.4692 -0.2899
  465MPD2     H 6924   3.162   1.189  16.601 -0.0323  0.7886 -2.6818
  465MPD2    H1 6925   3.440   1.222  16.284  2.9895 -3.0302  0.9640
  465MPD2    H2 6926   3.581   1.143  16.678 -1.1190 -1.2358  1.1886
  465MPD2    H3 6927   3.628   1.170  16.435  0.0623  1.0925 -0.0253
  465MPD2     N 6928   3.181   1.236  16.346 -0.3488  0.0588  0.1387
  465MPD2    H5 6929   3.091   1.219  16.391 -0.0010  0.5789  1.0402
  465MPD2    N1 6930   3.327   1.136  16.788  0.1692 -0.1135 -0.2285
  465MPD2    H7 6931   3.227   1.120  16.795  0.2088 -0.4364 -0.3701
  466TMC3    C1 6932   2.860   1.318  16.275  0.4471 -0.3847 -0.5713
  466TMC3    C2 6933   2.837   1.456  16.249  0.6369  0.4867  0.1633
  466TMC3    C3 6934   2.942   1.518  16.181 -0.2284 -0.4584  0.3831
  466TMC3    C4 6935   2.969   1.251  16.219  0.0961  0.2953  0.1055
  466TMC3    C5 6936   3.064   1.324  16.163  1.3250  0.5797 -0.2071
  466TMC3    C6 6937   3.050   1.455  16.134  0.9257 -0.7427  0.5639
  466TMC3     C 6938   2.831   1.276  16.413 -0.5204 -0.2325 -0.3139
  466TMC3     O 6939   2.929   1.218  16.465  0.2151  0.0577  0.3463
  466TMC3     H 6940   2.747   1.506  16.281  0.2764 -0.6910  1.0319
  466TMC3    H1 6941   2.993   1.147  16.241 -0.3512  0.2104  0.1907
  466TMC3    H2 6942   3.129   1.524  16.107  0.8270 -1.1521 -0.7896
  466TMC3    C7 6943   3.195   1.304  16.228  0.2134  0.2029  0.1910
  466TMC3    C8 6944   2.937   1.662  16.170  0.2107  0.3058 -0.3181
  466TMC3    O1 6945   3.288   1.370  16.191  0.4173  0.5171  0.3546
  466TMC3    O2 6946   3.002   1.709  16.080 -0.2494  0.0978  0.6441
  467TMC3    C1 6947   3.990   4.411  13.749 -0.4002  0.5466 -0.1254
  467TMC3    C2 6948   4.012   4.375  13.621 -0.6349 -0.1787 -0.2834
  467TMC3    C3 6949   3.915   4.324  13.540 -0.1132 -0.2985  0.7582
  467TMC3    C4 6950   3.860   4.409  13.797  0.0910  0.3875 -0.2809
  467TMC3    C5 6951   3.766   4.350  13.720 -0.5234  0.0620 -0.3922
  467TMC3    C6 6952   3.793   4.298  13.592  0.8198  0.0767 -0.5792
  467TMC3     C 6953   4.087   4.498  13.808 -0.6531  0.4706 -0.0477
  467TMC3     O 6954   4.133   4.477  13.918  0.8526 -0.2652  0.0867
  467TMC3     H 6955   4.113   4.376  13.582 -0.7503 -1.2697 -0.6015
  467TMC3    H1 6956   3.837   4.455  13.892  0.7770 -0.0833  0.1173
  467TMC3    H2 6957   3.710   4.266  13.530 -0.2325 -1.6442  1.7288
  467TMC3    C7 6958   3.635   4.413  13.734 -0.6386 -0.6668 -0.0709
  467TMC3    C8 6959   3.926   4.309  13.396  0.7368  0.2347 -0.5818
  467TMC3    O1 6960   3.608   4.509  13.659 -0.4301  0.0423 -0.5788
  467TMC3    O2 6961   3.849   4.244  13.325 -0.3507 -0.7368 -0.5836
  468MPD2     C 6962   2.790   2.632  10.857  0.3879 -0.2334 -0.1375
  468MPD2    C1 6963   2.870   2.556  10.930  0.4640 -0.1258 -0.6605
  468MPD2    C2 6964   2.857   2.419  10.924 -0.1952 -0.1875  0.0567
  468MPD2    C3 6965   2.764   2.356  10.848 -0.0497 -0.1647 -0.3146
  468MPD2    C4 6966   2.700   2.433  10.754 -0.1254  1.1271  0.2818
  468MPD2    C5 6967   2.715   2.566  10.762 -0.5791 -0.8369  0.6437
  468MPD2     H 6968   2.907   2.356  10.996 -0.2445  0.0759  0.3189
  468MPD2    H1 6969   2.630   2.404  10.676  0.3264 -2.2726  1.1440
  468MPD2    H2 6970   2.795   2.740  10.866 -1.4908 -0.0190 -1.7793
  468MPD2    H3 6971   2.655   2.628  10.696  0.3917 -2.4039 -1.6950
  468MPD2     N 6972   2.748   2.216  10.847 -0.2692 -0.1406 -0.3952
  468MPD2    H5 6973   2.705   2.178  10.763  0.3610  0.1532 -0.8451
  468MPD2    N1 6974   2.960   2.622  11.008 -0.3577 -0.4046  0.4056
  468MPD2    H7 6975   2.950   2.718  11.037  0.5326 -0.5797  1.2928
  469TMC3    C1 6976   3.159   2.643  11.130  0.5869  0.1022 -0.2776
  469TMC3    C2 6977   3.246   2.572  11.212  0.3568  0.3818 -0.7235
  469TMC3    C3 6978   3.321   2.649  11.297  0.5055 -0.4555 -0.4110
  469TMC3    C4 6979   3.125   2.773  11.146 -0.4656 -0.3966 -0.1819
  469TMC3    C5 6980   3.185   2.845  11.247  0.5476 -0.8323 -0.3911
  469TMC3    C6 6981   3.283   2.780  11.328  0.0426 -0.0783  0.0894
  469TMC3     C 6982   3.074   2.559  11.042  1.0578 -0.1386 -0.4027
  469TMC3     O 6983   3.117   2.449  11.003 -0.0003 -0.9230 -0.1586
  469TMC3     H 6984   3.270   2.469  11.189 -1.8916 -0.7162  1.8720
  469TMC3    H1 6985   3.068   2.827  11.071  0.3368  1.8223  0.7926
  469TMC3    H2 6986   3.351   2.843  11.385 -0.3781 -0.3011  0.8362
  469TMC3    C7 6987   3.143   2.981  11.263  0.3556 -0.5358  0.2977
  469TMC3    C8 6988   3.411   2.579  11.389 -0.4912  0.4778  0.1864
  469TMC3    O1 6989   3.099   3.034  11.162 -0.2314  0.0180  0.0941
  469TMC3    O2 6990   3.465   2.476  11.349  0.5280  0.2042  0.5899
  470TMC3    C1 6991   0.211   3.273   1.039 -0.5957 -0.0766  0.9284
  470TMC3    C2 6992   0.298   3.337   0.948  0.1868 -0.2747  0.4522
  470TMC3    C3 6993   0.428   3.342   0.979 -0.8991 -0.3703  0.4393
  470TMC3    C4 6994   0.254   3.206   1.152 -0.2640  0.5407  0.1968
  470TMC3    C5 6995   0.386   3.221   1.184 -0.2176 -0.2404  0.1548
  470TMC3    C6 6996   0.474   3.291   1.099 -0.1586 -0.8176 -0.2272
  470TMC3     C 6997   0.101   3.216   0.965  0.5440 -0.1282 -0.3179
  470TMC3     O 6998   0.074   3.285   0.871  0.3940 -0.1540 -0.5429
  470TMC3     H 6999   0.258   3.398   0.868 -0.3584 -0.9626  0.1932
  470TMC3    H1 7000   0.181   3.158   1.215  0.9017 -2.1379 -0.4576
  470TMC3    H2 7001   0.577   3.307   1.130  0.3006 -1.3783 -1.4448
  470TMC3    C7 7002   0.415   3.230   1.322  0.5284 -0.2942  0.4198
  470TMC3    C8 7003   0.511   3.443   0.922  0.0591 -0.1340  0.3156
  470TMC3    O1 7004   0.481   3.329   1.360 -0.2731 -0.0986  0.2813
  470TMC3    O2 7005   0.624   3.410   0.877 -0.6305 -0.0208  0.3444
  471MPD2     C 7006   0.884   4.600  16.713  0.0012 -0.2519  0.0100
  471MPD2    C1 7007   0.803   4.491  16.707  0.4217 -0.0561  0.7018
  471MPD2    C2 7008   0.756   4.438  16.825 -0.0848  0.2133 -0.2977
  471MPD2    C3 7009   0.781   4.503  16.944  0.2918 -0.5942  0.1095
  471MPD2    C4 7010   0.865   4.614  16.950 -0.1545  0.1319 -0.3456
  471MPD2    C5 7011   0.921   4.657  16.831  0.4676  0.3102  0.2032
  471MPD2     H 7012   0.700   4.344  16.825  0.3073 -0.0171  0.3426
  471MPD2    H1 7013   0.889   4.654  17.048 -0.9406 -1.0386  0.3245
  471MPD2    H2 7014   0.931   4.639  16.623  1.1693 -0.4381  0.5537
  471MPD2    H3 7015   0.988   0.019  16.826  0.9541 -0.0360  0.9233
  471MPD2     N 7016   0.743   4.451  17.071  0.0476  0.2460 -0.0668
  471MPD2    H5 7017   0.783   4.482  17.159 -0.2353 -1.1317  0.5386
  471MPD2    N1 7018   0.770   4.426  16.592 -0.3602 -0.1674 -0.3215
  471MPD2    H7 7019   0.713   4.341  16.594  0.9836 -1.0634 -0.2652
  472TMC3    C1 7020   0.784   4.355  16.366  0.0706 -0.3192  0.4562
  472TMC3    C2 7021   0.765   4.396  16.238 -0.3325 -0.4841 -0.4037
  472TMC3    C3 7022   0.698   4.305  16.159  0.1715 -0.3075 -0.0505
  472TMC3    C4 7023   0.779   4.226  16.409 -0.0147  0.3546 -0.0626
  472TMC3    C5 7024   0.720   4.134  16.334  0.7795 -0.4586  0.5692
  472TMC3    C6 7025   0.676   4.174  16.203  0.1774  0.1482 -0.6572
  472TMC3     C 7026   0.825   4.450  16.467  0.0349 -0.0341 -0.5645
  472TMC3     O 7027   0.897   4.542  16.427  0.0074 -0.2527  0.1685
  472TMC3     H 7028   0.778   4.499  16.208  0.5701  0.2389  2.4747
  472TMC3    H1 7029   0.837   4.204  16.497 -0.1777  2.8442  0.6448
  472TMC3    H2 7030   0.629   4.103  16.136 -0.0326 -0.7222  0.4106
  472TMC3    C7 7031   0.695   4.006  16.380 -0.1683  0.1443  0.4056
  472TMC3    C8 7032   0.579   4.346  16.094 -0.7288  0.1901 -0.1738
  472TMC3    O1 7033   0.715   3.997  16.500 -0.1791 -0.1518  0.5561
  472TMC3    O2 7034   0.585   4.445  16.024 -0.2977 -0.0070 -0.5305
  473MPD2     C 7035   0.794   2.106  14.036  0.3535  0.6263  0.7815
  473MPD2    C1 7036   0.916   2.149  13.988 -0.8927  0.6285 -1.1219
  473MPD2    C2 7037   1.001   2.218  14.070 -0.3701  0.6765  0.5257
  473MPD2    C3 7038   0.965   2.258  14.192 -0.4662 -0.7186  0.5452
  473MPD2    C4 7039   0.843   2.215  14.245  0.2642 -0.0089  0.2649
  473MPD2    C5 7040   0.764   2.136  14.169 -0.0730  0.6933  0.1126
  473MPD2     H 7041   1.096   2.254  14.030  0.7126 -3.9452 -1.0390
  473MPD2    H1 7042   0.821   2.244  14.347  0.9897 -0.4290  0.5451
  473MPD2    H2 7043   0.728   2.038  13.983  1.9624  0.8084 -1.4199
  473MPD2    H3 7044   0.666   2.101  14.201 -0.2033  1.3261  0.3872
  473MPD2     N 7045   1.039   2.345  14.279 -0.1051 -0.3582  0.5423
  473MPD2    H5 7046   0.996   2.371  14.367 -0.7208  0.9380 -0.1245
  473MPD2    N1 7047   0.955   2.145  13.858  0.0855 -0.4936 -0.3457
  473MPD2    H7 7048   1.044   2.190  13.840  1.4438 -3.0338 -0.0553
  474TMC3    C1 7049   1.198   2.513  14.340  0.2610 -0.1090 -0.1960
  474TMC3    C2 7050   1.118   2.565  14.440 -0.5035 -0.0900 -0.2921
  474TMC3    C3 7051   1.171   2.647  14.536  0.0306 -0.1284  0.1055
  474TMC3    C4 7052   1.329   2.549  14.338 -0.8689 -0.6063 -0.3775
  474TMC3    C5 7053   1.372   2.635  14.436 -0.2495  0.4429 -0.3186
  474TMC3    C6 7054   1.297   2.693  14.532  0.3719 -0.2689  0.3719
  474TMC3     C 7055   1.165   2.403  14.250  0.2596 -0.3505 -0.5197
  474TMC3     O 7056   1.245   2.393  14.155 -0.2808  0.4133  0.3731
  474TMC3     H 7057   1.011   2.549  14.437 -0.4316 -0.8687  1.6872
  474TMC3    H1 7058   1.397   2.501  14.269  0.6512 -1.9981  2.1009
  474TMC3    H2 7059   1.340   2.752  14.612 -0.9680 -0.1276  0.9745
  474TMC3    C7 7060   1.520   2.641  14.442  0.0454  0.2071 -0.5671
  474TMC3    C8 7061   1.086   2.699  14.643  0.3211  0.0145 -0.2117
  474TMC3    O1 7062   1.579   2.601  14.346  0.1604 -0.2308 -0.3119
  474TMC3    O2 7063   1.026   2.613  14.710  0.2003 -0.1838  0.3916
  475MPD2     C 7064   3.843   0.589  11.071  0.1931  0.0257 -0.2827
  475MPD2    C1 7065   3.699   0.589  11.070 -0.2739 -0.1636 -0.2715
  475MPD2    C2 7066   3.631   0.698  11.014  0.4883  0.0611 -0.5936
  475MPD2    C3 7067   3.702   0.821  10.990 -0.0401 -0.1955  0.3179
  475MPD2    C4 7068   3.842   0.823  11.009 -0.2955 -0.1447 -0.2444
  475MPD2    C5 7069   3.913   0.707  11.041 -0.0841  1.0292 -0.6117
  475MPD2     H 7070   3.525   0.710  10.997  0.2803 -0.1101  0.5960
  475MPD2    H1 7071   3.898   0.912  10.985  0.9561 -0.5743  1.0348
  475MPD2    H2 7072   3.905   0.504  11.093  1.5632  1.1197  0.0761
  475MPD2    H3 7073   4.020   0.709  11.053 -0.0247 -1.8345 -0.8192
  475MPD2     N 7074   3.623   0.935  10.956 -0.2007  0.0350  0.1515
  475MPD2    H5 7075   3.524   0.924  10.974  0.1621 -1.1667  1.4128
  475MPD2    N1 7076   3.634   0.471  11.112  0.1720  0.3740 -0.8019
  475MPD2    H7 7077   3.696   0.404  11.157 -0.3050  0.7262  0.3850
  476TMC3    C1 7078   3.469   0.451  10.936  0.1291 -0.4326 -0.9662
  476TMC3    C2 7079   3.328   0.449  10.913 -0.2374 -0.1272 -0.4960
  476TMC3    C3 7080   3.294   0.429  10.778 -0.0073  0.2955  0.1481
  476TMC3    C4 7081   3.565   0.457  10.834 -1.1507 -0.0863  0.3649
  476TMC3    C5 7082   3.520   0.456  10.706 -0.6222 -0.0656  0.8174
  476TMC3    C6 7083   3.388   0.438  10.680  0.1277 -0.0100  0.1157
  476TMC3     C 7084   3.505   0.432  11.082 -0.3409 -0.0819 -0.0411
  476TMC3     O 7085   3.433   0.353  11.144  0.5361 -0.3473  0.0168
  476TMC3     H 7086   3.261   0.440  10.999 -1.2393  0.1555 -1.2495
  476TMC3    H1 7087   3.670   0.467  10.858 -1.2408  2.6262 -0.3681
  476TMC3    H2 7088   3.369   0.454  10.575 -3.1909  0.2977  0.7492
  476TMC3    C7 7089   3.625   0.489  10.606  1.2588  0.0095  0.3629
  476TMC3    C8 7090   3.156   0.454  10.741  0.2877 -0.1602 -0.2416
  476TMC3    O1 7091   3.618   0.435  10.496 -0.6493  0.8460  0.4331
  476TMC3    O2 7092   3.084   0.509  10.823 -0.0569  0.7182  0.2773
  477MPD2     C 7093   1.199   1.384  11.324  0.5865  0.2190  0.4057
  477MPD2    C1 7094   1.159   1.491  11.400 -0.1142  0.7397  1.2038
  477MPD2    C2 7095   1.218   1.498  11.527 -0.4300  0.2193 -1.0004
  477MPD2    C3 7096   1.280   1.390  11.584 -1.1251 -0.4219  0.9738
  477MPD2    C4 7097   1.328   1.296  11.506  0.2173  0.2364 -0.0265
  477MPD2    C5 7098   1.283   1.296  11.382 -0.5642  0.2445 -0.4533
  477MPD2     H 7099   1.182   1.580  11.587  0.5112 -0.3764  0.3839
  477MPD2    H1 7100   1.383   1.211  11.546 -0.7051 -0.6203 -0.5986
  477MPD2    H2 7101   1.154   1.363  11.228  0.3900 -1.9816  0.9627
  477MPD2    H3 7102   1.324   1.219  11.317 -4.2575  1.0934 -3.7941
  477MPD2     N 7103   1.318   1.395  11.717 -0.2466  0.4898 -0.1269
  477MPD2    H5 7104   1.285   1.479  11.764  2.0466  1.5459 -0.4611
  477MPD2    N1 7105   1.062   1.590  11.360 -0.1631 -0.0329 -1.0036
  477MPD2    H7 7106   1.028   1.649  11.435  0.4002 -0.0861 -0.7060
  478TMC3    C1 7107   0.922   1.723  11.214  0.4267 -0.2122  0.5122
  478TMC3    C2 7108   0.842   1.753  11.318  0.3923  0.2276  0.0189
  478TMC3    C3 7109   0.776   1.873  11.311 -0.0846  0.1490  0.9320
  478TMC3    C4 7110   0.935   1.801  11.103  0.6599 -0.0891 -0.1326
  478TMC3    C5 7111   0.862   1.916  11.103 -0.3266  0.5683 -0.3580
  478TMC3    C6 7112   0.785   1.951  11.206  0.1800  0.3345 -0.4758
  478TMC3     C 7113   1.013   1.616  11.232  0.1622 -0.6279  0.1112
  478TMC3     O 7114   1.047   1.566  11.127 -0.3676  0.5892  0.3114
  478TMC3     H 7115   0.837   1.684  11.401  1.8772 -0.4500 -0.4541
  478TMC3    H1 7116   1.001   1.772  11.022  1.4751 -2.6617  1.4393
  478TMC3    H2 7117   0.730   2.044  11.218 -1.0547 -0.5651  0.8816
  478TMC3    C7 7118   0.875   1.996  10.988  0.5714  0.7560  0.2627
  478TMC3    C8 7119   0.721   1.922  11.436  0.0491 -0.2971 -0.6912
  478TMC3    O1 7120   0.980   1.990  10.917  0.0719  0.1422 -0.2523
  478TMC3    O2 7121   0.675   1.840  11.511 -0.3022  0.2288  0.0141
  479MPD2     C 7122   0.763   4.120  15.177  0.0550  0.0566 -0.3737
  479MPD2    C1 7123   0.685   4.050  15.263 -0.7377 -0.5007 -0.1389
  479MPD2    C2 7124   0.711   4.067  15.391  0.1357  0.4426 -0.2806
  479MPD2    C3 7125   0.799   4.155  15.442  0.4067 -0.8985 -0.3533
  479MPD2    C4 7126   0.892   4.218  15.356  0.7260  0.6203 -0.6905
  479MPD2    C5 7127   0.867   4.197  15.222  0.4437  0.0724 -0.3377
  479MPD2     H 7128   0.668   3.999  15.463 -1.2066  2.0685  0.4669
  479MPD2    H1 7129   0.973   4.282  15.390  2.1607 -1.6629  0.1633
  479MPD2    H2 7130   0.756   4.125  15.069  0.5133  1.6920 -0.3131
  479MPD2    H3 7131   0.931   4.237  15.144  0.3360 -1.6122 -1.2874
  479MPD2     N 7132   0.820   4.176  15.579 -0.2811 -0.1741 -0.8076
  479MPD2    H5 7133   0.910   4.217  15.601  1.1828 -2.6601 -2.2802
  479MPD2    N1 7134   0.591   3.956  15.225  0.2212  0.6615 -0.0448
  479MPD2    H7 7135   0.584   3.939  15.125  0.4827  1.5617 -0.2118
  480TMC3    C1 7136   0.387   4.059  15.777 -0.6212  0.4805  0.1038
  480TMC3    C2 7137   0.324   4.120  15.676 -0.0493 -0.1025  0.1494
  480TMC3    C3 7138   0.394   4.201  15.590  0.1610 -0.3551 -0.3957
  480TMC3    C4 7139   0.528   4.053  15.774 -0.3308  0.3970  0.7329
  480TMC3    C5 7140   0.593   4.130  15.682  0.5335  0.1596  0.5128
  480TMC3    C6 7141   0.529   4.210  15.594 -0.3839 -0.2296  0.0475
  480TMC3     C 7142   0.330   3.958  15.862  0.1110  0.2258 -0.2096
  480TMC3     O 7143   0.409   3.895  15.929  0.0950  1.1612  0.0457
  480TMC3     H 7144   0.216   4.114  15.670 -0.1323  1.2443  0.3118
  480TMC3    H1 7145   0.588   3.987  15.836  1.1484  1.4207  0.3728
  480TMC3    H2 7146   0.577   4.276  15.523 -0.3027  1.3603  1.5579
  480TMC3    C7 7147   0.741   4.147  15.695 -0.0680 -0.1391 -0.5310
  480TMC3    C8 7148   0.330   4.215  15.461  0.4841 -0.1838 -0.0607
  480TMC3    O1 7149   0.788   4.153  15.811  0.0627 -0.3052 -0.1610
  480TMC3    O2 7150   0.207   4.212  15.461  0.1650  0.1632 -0.0517
  481MPD2     C 7151   2.953   3.671  14.068 -0.2188 -0.3211 -0.3728
  481MPD2    C1 7152   2.830   3.668  14.116  0.0008 -0.3058  0.4172
  481MPD2    C2 7153   2.800   3.631  14.245 -0.4030  0.2542 -0.3397
  481MPD2    C3 7154   2.903   3.582  14.325 -0.7154  0.1176  0.5724
  481MPD2    C4 7155   3.035   3.587  14.282  0.4122 -0.3904  0.8545
  481MPD2    C5 7156   3.056   3.631  14.157  0.1617  0.7493 -0.3445
  481MPD2     H 7157   2.696   3.622  14.274 -0.2675 -0.3316 -0.0375
  481MPD2    H1 7158   3.118   3.561  14.346  0.4931 -0.0079  0.9083
  481MPD2    H2 7159   2.975   3.701  13.966 -0.3674  0.0106 -0.3052
  481MPD2    H3 7160   3.155   3.632  14.112 -0.0344  1.1869 -0.7699
  481MPD2     N 7161   2.880   3.527  14.456 -0.0698 -0.3789  0.3003
  481MPD2    H5 7162   2.960   3.477  14.493 -0.0628 -0.7942 -0.2734
  481MPD2    N1 7163   2.725   3.703  14.025 -0.3396 -0.7021  1.0427
  481MPD2    H7 7164   2.744   3.708  13.926  0.7272  1.2679  1.3517
  482TMC3    C1 7165   2.520   3.720  13.932  0.2501 -0.2005  0.7145
  482TMC3    C2 7166   2.539   3.622  13.843 -0.3252  0.0519 -0.7592
  482TMC3    C3 7167   2.463   3.614  13.733  0.5312  0.2082 -0.8740
  482TMC3    C4 7168   2.414   3.800  13.924  0.2109 -0.0329  0.2727
  482TMC3    C5 7169   2.337   3.791  13.810 -0.2211  0.9552  0.2816
  482TMC3    C6 7170   2.367   3.703  13.711 -0.1499  0.6400  0.3519
  482TMC3     C 7171   2.592   3.712  14.054  0.6711  0.5027 -0.8008
  482TMC3     O 7172   2.533   3.725  14.160 -0.0652  0.4911 -0.5933
  482TMC3     H 7173   2.601   3.539  13.874 -1.5617 -0.3908  0.5578
  482TMC3    H1 7174   2.394   3.874  14.001 -0.1761  0.0608  0.0854
  482TMC3    H2 7175   2.288   3.686  13.638 -0.6051 -3.2757  1.7814
  482TMC3    C7 7176   2.239   3.901  13.795 -0.3217 -0.2758 -0.1158
  482TMC3    C8 7177   2.443   3.479  13.678  0.2268  0.6632 -0.4594
  482TMC3    O1 7178   2.211   3.960  13.894  0.7912  0.3254 -0.5372
  482TMC3    O2 7179   2.327   3.449  13.641 -0.4886 -0.4238 -0.0531
  483TMC3    C1 7180   4.704   2.423   1.629  0.2974  0.0437  0.1748
  483TMC3    C2 7181   0.055   2.536   1.594 -0.0403  0.4739 -0.5308
  483TMC3    C3 7182   0.189   2.530   1.568 -0.4624 -0.1969 -0.1616
  483TMC3    C4 7183   0.040   2.311   1.667 -0.2959 -0.1873  0.1684
  483TMC3    C5 7184   0.178   2.302   1.641 -0.3258  0.0682 -0.2850
  483TMC3    C6 7185   0.253   2.408   1.592  0.5910  0.0423  0.1890
  483TMC3     C 7186   4.575   2.412   1.564  0.4146  0.0524 -0.4952
  483TMC3     O 7187   4.523   2.515   1.527 -0.4608  0.1091 -0.2952
  483TMC3     H 7188   4.720   2.622   1.563  1.0840  0.9852 -1.1726
  483TMC3    H1 7189   4.707   2.221   1.692 -1.4166  0.3409 -0.4124
  483TMC3    H2 7190   0.359   2.398   1.570  0.4381 -1.6547  0.2751
  483TMC3    C7 7191   0.251   2.180   1.664  0.0977  0.4901  0.1149
  483TMC3    C8 7192   0.227   2.621   1.460 -0.0104 -0.2182  0.2071
  483TMC3    O1 7193   0.361   2.164   1.614  0.0448 -0.6718  0.4334
  483TMC3    O2 7194   0.143   2.679   1.397  0.0527  0.2746  0.1266
  484MPD2     C 7195   2.307   0.794  12.308 -0.3185 -0.4684 -0.1222
  484MPD2    C1 7196   2.370   0.694  12.381  0.7884  0.1202 -0.2902
  484MPD2    C2 7197   2.509   0.698  12.373 -0.3389  0.0539  0.1339
  484MPD2    C3 7198   2.588   0.799  12.314 -0.7883  0.1607 -0.0379
  484MPD2    C4 7199   2.523   0.899  12.255  0.4700 -0.1910 -0.1066
  484MPD2    C5 7200   2.387   0.894  12.245  1.0446 -0.1646  0.8169
  484MPD2     H 7201   2.563   0.613  12.412 -0.3472 -1.0058 -2.1257
  484MPD2    H1 7202   2.579   0.977  12.204  0.9901  0.5164  1.5339
  484MPD2    H2 7203   2.199   0.802  12.301 -0.2777  0.1904 -0.0082
  484MPD2    H3 7204   2.340   0.961  12.174  0.3970 -0.5299  0.9065
  484MPD2     N 7205   2.729   0.797  12.300 -0.4934  0.0687  0.0625
  484MPD2    H5 7206   2.764   0.878  12.249  1.2980 -0.0541  1.1050
  484MPD2    N1 7207   2.296   0.593  12.445 -0.2991 -0.2743 -0.1927
  484MPD2    H7 7208   2.195   0.599  12.448 -0.1825  1.0943  0.6838
  485TMC3    C1 7209   2.945   0.726  12.306 -0.2404  0.9674  0.0163
  485TMC3    C2 7210   3.044   0.680  12.389  1.1311 -0.7214  0.3586
  485TMC3    C3 7211   3.175   0.713  12.346 -0.3363 -0.0524  0.9953
  485TMC3    C4 7212   2.968   0.797  12.196 -0.4315  0.2628  0.3540
  485TMC3    C5 7213   3.094   0.831  12.166 -0.9891  0.3182  0.5275
  485TMC3    C6 7214   3.200   0.799  12.241 -0.2805 -0.4233  0.2835
  485TMC3     C 7215   2.817   0.691  12.335 -0.6393  0.2643  0.0246
  485TMC3     O 7216   2.798   0.599  12.411 -0.2171  0.5526  0.1454
  485TMC3     H 7217   3.020   0.604  12.462  1.2763  1.1407  2.3462
  485TMC3    H1 7218   2.890   0.811  12.122 -0.3589  0.2356  0.2725
  485TMC3    H2 7219   3.300   0.816  12.203  0.1421 -1.8048  0.7602
  485TMC3    C7 7220   3.129   0.850  12.034 -0.1232  0.2114 -0.3186
  485TMC3    C8 7221   3.298   0.647  12.395  0.2255  0.3608  0.4970
  485TMC3    O1 7222   3.135   0.967  12.000 -0.2160  0.2858 -0.9394
  485TMC3    O2 7223   3.404   0.698  12.368  0.0598  0.1625  0.1876
  486MPD2     C 7224   0.315   4.556  13.091  0.5626  0.1286  0.1430
  486MPD2    C1 7225   0.339   4.541  12.962 -0.5088 -0.5623 -0.5399
  486MPD2    C2 7226   0.336   4.642  12.871  0.2786 -0.8100  0.2290
  486MPD2    C3 7227   0.298   0.046  12.924  0.0976  0.8810 -0.0951
  486MPD2    C4 7228   0.285   0.061  13.059 -0.0311  0.5087  0.6956
  486MPD2    C5 7229   0.299   4.678  13.141 -0.1103 -0.2141  0.1194
  486MPD2     H 7230   0.348   4.635  12.764 -0.0608  1.9670 -0.0007
  486MPD2    H1 7231   0.259   0.157  13.102  0.6065  0.7078  0.6338
  486MPD2    H2 7232   0.313   4.470  13.157  0.3414 -0.4279 -0.5969
  486MPD2    H3 7233   0.277   4.687  13.246 -0.5312  0.8643 -0.0581
  486MPD2     N 7234   0.281   0.157  12.838 -0.3849  0.4886 -0.2139
  486MPD2    H5 7235   0.303   0.144  12.740 -1.3432  1.1530 -0.5153
  486MPD2    N1 7236   0.378   4.410  12.920  0.3053 -0.3655  0.7194
  486MPD2    H7 7237   0.387   4.342  12.994  1.3105 -0.1045  0.8392
  487TMC3    C1 7238   0.413   4.219  12.791  0.1900  0.2240  0.3871
  487TMC3    C2 7239   0.332   4.156  12.705 -0.1103 -0.4879 -0.2333
  487TMC3    C3 7240   0.316   4.025  12.706 -0.0286  0.4119 -0.1939
  487TMC3    C4 7241   0.469   4.160  12.903  0.2567  0.3895 -0.1006
  487TMC3    C5 7242   0.468   4.027  12.889 -0.4781 -0.5069  0.1519
  487TMC3    C6 7243   0.395   3.957  12.798  0.3720  0.4062  0.0364
  487TMC3     C 7244   0.392   4.358  12.791  0.1621  0.1573  0.2617
  487TMC3     O 7245   0.371   4.420  12.687 -0.1442  0.2347 -0.1059
  487TMC3     H 7246   0.284   4.215  12.628 -2.5793 -0.9028  0.9894
  487TMC3    H1 7247   0.530   4.212  12.977  1.4008 -2.1014  0.7023
  487TMC3    H2 7248   0.378   3.854  12.827 -0.8219  0.4813 -0.3801
  487TMC3    C7 7249   0.563   3.963  12.976 -0.0352  0.5939  0.0012
  487TMC3    C8 7250   0.178   3.992  12.730  0.4371 -0.7510  0.8045
  487TMC3    O1 7251   0.584   4.017  13.083 -0.2630  0.0565 -0.0448
  487TMC3    O2 7252   0.115   4.076  12.797  0.7205  0.1455 -0.4946
  488MPD2     C 7253   0.583   0.932  16.363 -0.3847  0.1213  0.8292
  488MPD2    C1 7254   0.576   1.052  16.438 -1.0563 -0.4240  0.7086
  488MPD2    C2 7255   0.537   1.045  16.572 -0.3643  0.6297  0.3433
  488MPD2    C3 7256   0.510   0.916  16.627 -0.0781  0.6054 -0.5618
  488MPD2    C4 7257   0.512   0.808  16.547 -0.4727  0.5151  0.5469
  488MPD2    C5 7258   0.558   0.808  16.416  1.0810 -0.8218 -0.2278
  488MPD2     H 7259   0.543   1.129  16.640 -0.1682  0.8101  0.1021
  488MPD2    H1 7260   0.500   0.706  16.582  1.3400  0.4979  1.1136
  488MPD2    H2 7261   0.620   0.923  16.262  0.3090  0.7311  1.0271
  488MPD2    H3 7262   0.564   0.713  16.365  0.0582 -0.5461 -0.8529
  488MPD2     N 7263   0.467   0.908  16.762  0.0683  0.2965 -0.3170
  488MPD2    H5 7264   0.454   0.995  16.812  0.7828 -0.1666  0.6739
  488MPD2    N1 7265   0.608   1.174  16.382  0.3380  0.5221 -0.3717
  488MPD2    H7 7266   0.592   1.256  16.440 -0.5116  0.0759  0.0218
  489TMC3    C1 7267   0.416   0.842  16.975 -0.4625  0.1119 -0.2892
  489TMC3    C2 7268   0.451   0.969  17.013  0.0772  0.0371  0.6704
  489TMC3    C3 7269   0.467   0.988  17.146 -0.9570 -0.5108 -0.0799
  489TMC3    C4 7270   0.389   0.745  17.065 -0.5170 -0.2911  0.1355
  489TMC3    C5 7271   0.400   0.776  17.198 -0.1509 -0.8506  0.5790
  489TMC3    C6 7272   0.429   0.900  17.242 -0.2986 -0.0306 -0.0294
  489TMC3     C 7273   0.431   0.801  16.835 -0.2018  0.4325 -0.6371
  489TMC3     O 7274   0.434   0.679  16.817 -0.1115 -0.8265  0.0280
  489TMC3     H 7275   0.451   1.060  16.955  0.7884 -1.8904 -2.3852
  489TMC3    H1 7276   0.378   0.642  17.033  1.8993 -0.2185 -0.9366
  489TMC3    H2 7277   0.440   0.922  17.348 -1.7515  0.0029  0.1083
  489TMC3    C7 7278   0.311   0.708  17.282  1.0379  0.6612 -0.3497
  489TMC3    C8 7279   0.494   1.126  17.177 -0.4703 -0.1700 -0.4924
  489TMC3    O1 7280   0.336   0.712  17.403  0.5879 -0.0401  0.4015
  489TMC3    O2 7281   0.564   1.190  17.097 -0.4764 -0.1164 -0.2076
  490MPD2     C 7282   0.964   0.839   0.108  0.2230  0.3963  0.0330
  490MPD2    C1 7283   1.060   0.782   0.028 -0.2974 -0.1332  0.0024
  490MPD2    C2 7284   1.154   0.858  17.660 -0.1373  0.3985 -0.1929
  490MPD2    C3 7285   1.159   0.991  17.687 -0.0904  0.4303  0.4770
  490MPD2    C4 7286   1.067   1.050   0.079  0.1687  0.1842  0.4237
  490MPD2    C5 7287   0.965   0.973   0.130  0.0430  0.4145 -0.3503
  490MPD2     H 7288   1.215   0.803  17.590  0.7236  1.2594 -0.1201
  490MPD2    H1 7289   1.068   1.155   0.103  3.0364  0.8153 -2.4868
  490MPD2    H2 7290   0.885   0.786   0.160  0.5243  1.0694  1.1654
  490MPD2    H3 7291   0.888   1.018   0.190 -0.8403 -0.0593 -1.1242
  490MPD2     N 7292   1.251   1.079  17.634 -0.6166 -0.0351  0.1451
  490MPD2    H5 7293   1.252   1.174  17.670  1.2825  0.2286 -0.5691
  490MPD2    N1 7294   1.039   0.649  17.685 -0.2466 -0.5581 -0.2917
  490MPD2    H7 7295   1.088   0.606  17.607 -2.5623 -2.1537 -0.8940
  491TMC3    C1 7296   0.976   0.421   0.028  0.8120 -0.1081  0.1139
  491TMC3    C2 7297   0.993   0.320   0.123 -0.1248 -0.4715  0.0702
  491TMC3    C3 7298   0.999   0.188   0.089 -0.2776 -0.2225  0.5300
  491TMC3    C4 7299   0.968   0.392  17.591  0.1132 -0.4805 -0.7671
  491TMC3    C5 7300   0.972   0.257  17.557  0.4855  0.8589  0.5877
  491TMC3    C6 7301   0.982   0.155  17.646 -0.0297 -0.4260  0.2471
  491TMC3     C 7302   0.980   0.556   0.085 -0.3470 -0.2346  0.4208
  491TMC3     O 7303   0.945   0.568   0.201  0.2708 -0.0320  0.3704
  491TMC3     H 7304   1.012   0.354   0.224 -0.3617  0.4844 -0.2096
  491TMC3    H1 7305   0.945   0.469  17.518 -1.1533 -1.2940 -1.2219
  491TMC3    H2 7306   0.973   0.053  17.610 -1.4803  0.0133 -0.6181
  491TMC3    C7 7307   0.894   0.216  17.441 -0.5328  0.1959  0.0453
  491TMC3    C8 7308   0.963   0.090   0.189 -0.7514 -0.0814  0.5761
  491TMC3    O1 7309   0.807   0.135  17.470 -0.4125 -0.3957  0.2950
  491TMC3    O2 7310   0.913   0.144   0.289 -0.9038 -0.1489  0.0756
  492MPD2     C 7311   1.391   0.961  10.987  0.2893 -0.0549 -0.1744
  492MPD2    C1 7312   1.351   0.833  10.951 -0.8775 -0.2065  0.9135
  492MPD2    C2 7313   1.279   0.759  11.047 -0.4250 -0.4722  0.3127
  492MPD2    C3 7314   1.267   0.806  11.177  0.4113  0.4725 -0.2718
  492MPD2    C4 7315   1.318   0.932  11.216 -0.0325  0.4136  0.2338
  492MPD2    C5 7316   1.379   1.008  11.118  0.6188 -0.0898  0.5189
  492MPD2     H 7317   1.249   0.659  11.017 -3.0845  0.2356  0.5370
  492MPD2    H1 7318   1.318   0.972  11.317  0.4911  0.8005  0.0822
  492MPD2    H2 7319   1.427   1.037  10.919  1.3407 -1.1245 -0.8126
  492MPD2    H3 7320   1.420   1.106  11.137 -0.0298  0.4789 -1.0418
  492MPD2     N 7321   1.220   0.720  11.283  0.1425  0.2831 -0.3389
  492MPD2    H5 7322   1.233   0.756  11.377  1.3889  2.7777 -1.4684
  492MPD2    N1 7323   1.362   0.797  10.812 -0.1448 -0.1815 -0.4184
  492MPD2    H7 7324   1.416   0.863  10.756 -0.3450  0.5521  0.2447
  493TMC3    C1 7325   1.332   0.689  10.611  0.2526 -0.7687 -0.0108
  493TMC3    C2 7326   1.360   0.806  10.546 -0.1214 -0.2172 -0.2885
  493TMC3    C3 7327   1.393   0.807  10.414  0.3744 -0.3224  0.1289
  493TMC3    C4 7328   1.333   0.572  10.543  1.0501 -0.4846  0.2669
  493TMC3    C5 7329   1.356   0.580  10.403 -0.0046  0.7208 -0.8220
  493TMC3    C6 7330   1.390   0.697  10.335  0.0171  0.5527  0.7341
  493TMC3     C 7331   1.312   0.684  10.754  0.0921 -0.1857  0.1291
  493TMC3     O 7332   1.272   0.581  10.802 -0.6973 -1.1704  0.4708
  493TMC3     H 7333   1.342   0.901  10.594 -2.3589 -0.8403  0.1100
  493TMC3    H1 7334   1.275   0.486  10.576  2.6958 -1.4378  0.6624
  493TMC3    H2 7335   1.413   0.697  10.229  1.8204 -2.0268  1.1310
  493TMC3    C7 7336   1.312   0.472  10.325 -0.2439 -0.6465 -0.0489
  493TMC3    C8 7337   1.466   0.927  10.374 -0.0488 -0.2859  0.8446
  493TMC3    O1 7338   1.271   0.492  10.211  0.1204  0.5929  0.4459
  493TMC3    O2 7339   1.507   0.993  10.464  0.5728  0.5237 -0.3807
  494TMC3    C1 7340   1.918   2.472   0.776 -0.2361  0.3158  0.1450
  494TMC3    C2 7341   1.887   2.345   0.810  0.2856 -0.3130 -0.0904
  494TMC3    C3 7342   1.856   2.252   0.713 -0.5059 -0.0705 -0.5644
  494TMC3    C4 7343   1.902   2.518   0.649  0.1468  0.4327  0.8080
  494TMC3    C5 7344   1.880   2.427   0.551 -0.3461 -0.5724  0.4312
  494TMC3    C6 7345   1.854   2.291   0.585 -0.0869  0.1120  0.3054
  494TMC3     C 7346   1.971   2.558   0.883  0.4892  0.0231  0.0551
  494TMC3     O 7347   2.010   2.504   0.985  0.1783  0.1953 -0.2006
  494TMC3     H 7348   1.916   2.314   0.910  0.2147  1.0087  0.3486
  494TMC3    H1 7349   1.939   2.618   0.627 -0.4130  0.5013  0.1939
  494TMC3    H2 7350   1.845   2.217   0.507  1.4861 -1.1492  1.3138
  494TMC3    C7 7351   1.865   2.463   0.417 -0.2547  0.1374  0.3645
  494TMC3    C8 7352   1.857   2.107   0.746  0.2779  0.2459 -0.8358
  494TMC3    O1 7353   1.855   2.380   0.326 -0.2464 -0.5475  0.0539
  494TMC3    O2 7354   1.856   2.032   0.651  0.5716  0.0242  0.0818
  495TMC3    C1 7355   0.839   4.354  14.644  0.4785  0.3172  0.4893
  495TMC3    C2 7356   0.756   4.399  14.545 -0.6440  0.1539 -0.2441
  495TMC3    C3 7357   0.656   4.482  14.578 -0.3406 -0.1497 -0.1249
  495TMC3    C4 7358   0.826   4.409  14.774  0.3192 -0.0491 -0.0750
  495TMC3    C5 7359   0.727   4.491  14.809  1.0334  0.4209 -0.3552
  495TMC3    C6 7360   0.642   4.540  14.708 -0.3332  0.1146 -0.0357
  495TMC3     C 7361   0.856   4.208  14.628 -0.7092 -0.5358 -0.3585
  495TMC3     O 7362   0.784   4.156  14.544  0.3277 -0.2436  0.3393
  495TMC3     H 7363   0.756   4.350  14.448 -3.4336  0.8545 -0.5990
  495TMC3    H1 7364   0.872   4.366  14.863  0.2196  3.7136  1.7855
  495TMC3    H2 7365   0.560   4.608  14.730  1.5011  1.5045  2.4868
  495TMC3    C7 7366   0.668   4.452  14.936  0.4940 -0.2307 -0.6146
  495TMC3    C8 7367   0.530   4.470  14.513  0.6066  0.0587 -0.1607
  495TMC3    O1 7368   0.738   4.427  15.036 -0.2411 -0.3136 -0.1212
  495TMC3    O2 7369   0.431   4.482  14.586 -0.3525  0.0449  0.2712
  496MPD2     C 7370   2.194   3.458  15.556  0.1203  0.2888  0.1563
  496MPD2    C1 7371   2.288   3.539  15.499 -0.1788 -0.0409 -0.6009
  496MPD2    C2 7372   2.262   3.674  15.512 -0.6177  0.3307 -0.8904
  496MPD2    C3 7373   2.171   3.727  15.597  0.2347 -0.7301 -0.2238
  496MPD2    C4 7374   2.082   3.641  15.668 -0.3135  0.4859  0.8552
  496MPD2    C5 7375   2.101   3.505  15.643 -0.0564  0.0697  0.0395
  496MPD2     H 7376   2.322   3.746  15.458  0.9496  0.5100  1.0689
  496MPD2    H1 7377   2.006   3.680  15.734 -0.9220 -3.6731  2.6524
  496MPD2    H2 7378   2.192   3.351  15.541  0.7577  0.7435 -3.1925
  496MPD2    H3 7379   2.043   3.434  15.700 -0.1802 -1.1337 -1.6087
  496MPD2     N 7380   2.161   3.867  15.615  0.2094 -0.8103 -0.1523
  496MPD2    H5 7381   2.093   3.895  15.685  0.5331  0.5132 -0.3689
  496MPD2    N1 7382   2.397   3.483  15.416 -0.0161  0.4947 -0.1598
  496MPD2    H7 7383   2.403   3.382  15.407 -0.2219  0.4545  0.1527
  497TMC3    C1 7384   2.201   4.097  15.607 -0.1805 -0.0646 -0.2526
  497TMC3    C2 7385   2.241   4.197  15.525 -0.9121 -0.8465  0.2962
  497TMC3    C3 7386   2.281   4.315  15.576 -0.2733 -1.0738  0.5014
  497TMC3    C4 7387   2.217   4.112  15.743  0.0673  0.0591 -0.9824
  497TMC3    C5 7388   2.250   4.231  15.788  0.9653  0.2603 -0.4196
  497TMC3    C6 7389   2.275   4.336  15.708  0.1784  0.7329 -0.5697
  497TMC3     C 7390   2.221   3.968  15.545  0.0993 -0.9391 -0.0005
  497TMC3     O 7391   2.288   3.967  15.447  0.5448  0.3125 -0.1312
  497TMC3     H 7392   2.255   4.171  15.420  0.6413  0.5100  0.1756
  497TMC3    H1 7393   2.192   4.029  15.808 -1.1293  0.7168 -0.6090
  497TMC3    H2 7394   2.308   4.432  15.745  1.1445 -0.8700  2.7191
  497TMC3    C7 7395   2.261   4.251  15.931  0.1269 -0.1420  0.0542
  497TMC3    C8 7396   2.365   4.402  15.489  0.1536  0.5574 -0.3262
  497TMC3    O1 7397   2.213   4.160  16.004 -0.7062  0.6316  0.9062
  497TMC3    O2 7398   2.359   4.386  15.365 -0.8083 -0.4173 -0.3358
  498MPD2     C 7399   2.505   0.898   9.811 -0.4783 -0.0270  0.5160
  498MPD2    C1 7400   2.583   0.845   9.910 -0.1026 -0.5241  0.1392
  498MPD2    C2 7401   2.558   0.718   9.961 -1.5845  0.1327 -0.2792
  498MPD2    C3 7402   2.452   0.647   9.899 -0.4027 -0.2357 -0.1500
  498MPD2    C4 7403   2.375   0.700   9.797 -0.0874 -0.2148  1.3363
  498MPD2    C5 7404   2.401   0.823   9.756  0.2060  0.1588 -0.3580
  498MPD2     H 7405   2.615   0.681  10.045 -0.6439 -0.8684 -1.3646
  498MPD2    H1 7406   2.303   0.644   9.738  3.7092 -1.9197 -1.6775
  498MPD2    H2 7407   2.500   1.001   9.778  0.1068  0.3669  1.6531
  498MPD2    H3 7408   2.337   0.873   9.685 -0.0546 -1.3530 -1.1788
  498MPD2     N 7409   2.426   0.521   9.962  0.0251 -0.0067  0.2043
  498MPD2    H5 7410   2.476   0.492  10.045 -1.6232 -1.2825  0.7444
  498MPD2    N1 7411   2.692   0.911   9.978  0.5282 -0.7734  0.4472
  498MPD2    H7 7412   2.746   0.867  10.051  0.4210  2.5786  2.5436
  499TMC3    C1 7413   2.850   1.087  10.006 -0.3769 -0.2598  0.3579
  499TMC3    C2 7414   2.949   1.001  10.039 -0.6807 -0.2994 -0.5301
  499TMC3    C3 7415   3.077   1.057  10.021 -0.5327  0.5684  0.0320
  499TMC3    C4 7416   2.869   1.221   9.978  0.0710  0.1789 -0.1083
  499TMC3    C5 7417   2.996   1.271   9.979 -0.4058  0.5805  0.2741
  499TMC3    C6 7418   3.104   1.185   9.999  0.1356 -0.0207  0.0612
  499TMC3     C 7419   2.730   1.038   9.936 -0.8824  0.3148  0.9282
  499TMC3     O 7420   2.683   1.115   9.852 -0.4674  0.0892  0.6823
  499TMC3     H 7421   2.937   0.896  10.016  2.1719 -0.6085 -0.6764
  499TMC3    H1 7422   2.780   1.277   9.954 -0.0539 -0.1768 -0.4838
  499TMC3    H2 7423   3.204   1.222   9.984 -0.6865  1.4514 -1.8982
  499TMC3    C7 7424   3.012   1.388   9.897 -0.3113 -0.1640  0.1405
  499TMC3    C8 7425   3.194   0.972  10.027  0.0578  0.7439  0.6421
  499TMC3    O1 7426   3.107   1.395   9.822  0.3654 -0.4458 -0.0663
  499TMC3    O2 7427   3.303   1.022  10.009  0.0844  0.1982 -0.2639
  500MPD2     C 7428   4.511   1.932  10.401 -0.1692 -0.2752  0.5457
  500MPD2    C1 7429   4.522   1.936  10.266 -0.2287 -0.1532  0.3838
  500MPD2    C2 7430   4.404   1.920  10.191  0.1515  0.3944  0.7873
  500MPD2    C3 7431   4.281   1.907  10.251 -0.4923  0.4845  0.3995
  500MPD2    C4 7432   4.273   1.900  10.392  0.1099 -0.2655  0.2256
  500MPD2    C5 7433   4.384   1.920  10.460  0.3823  0.0064  0.0394
  500MPD2     H 7434   4.409   1.926  10.082  1.1008 -0.9517  0.7508
  500MPD2    H1 7435   4.180   1.884  10.446 -0.5366 -1.6537 -1.2988
  500MPD2    H2 7436   4.595   1.944  10.468  0.8566 -1.4481 -0.5458
  500MPD2    H3 7437   4.376   1.924  10.568 -1.2110  1.3634 -0.1289
  500MPD2     N 7438   4.157   1.892  10.184 -0.3794 -0.8360  0.0777
  500MPD2    H5 7439   4.077   1.880  10.245 -0.0852  1.2731  0.8713
  500MPD2    N1 7440   4.647   1.946  10.194 -0.2325 -0.3881 -0.3022
  500MPD2    H7 7441   4.642   1.951  10.093  1.1661  1.9799 -0.2384
  501TMC3    C1 7442   0.159   1.946  10.165 -0.1980 -0.1883  0.6863
  501TMC3    C2 7443   0.151   2.056  10.084 -0.1010  0.2597 -0.9473
  501TMC3    C3 7444   0.269   2.082  10.013  0.1265  0.0036 -0.4456
  501TMC3    C4 7445   0.277   1.877  10.191  0.4288 -0.2068 -0.2128
  501TMC3    C5 7446   0.392   1.918  10.127 -0.5609 -0.0501  0.2097
  501TMC3    C6 7447   0.387   2.019  10.033 -0.1549 -0.8408  0.0492
  501TMC3     C 7448   0.047   1.933  10.253  0.3186 -0.4127 -0.5386
  501TMC3     O 7449   0.074   1.884  10.357 -0.0980  0.2545 -0.0771
  501TMC3     H 7450   0.054   2.097  10.060 -0.2415  1.9528  2.4397
  501TMC3    H1 7451   0.283   1.795  10.262 -1.4533  2.1275  2.6727
  501TMC3    H2 7452   0.477   2.036   9.976  0.6593 -2.4341  0.8696
  501TMC3    C7 7453   0.522   1.896  10.184 -0.1474  0.0461 -0.2997
  501TMC3    C8 7454   0.294   2.225   9.994 -0.2604  0.0626 -0.0568
  501TMC3    O1 7455   0.537   1.807  10.269 -0.1738  0.2256 -0.2742
  501TMC3    O2 7456   0.412   2.261  10.007  0.0879  0.1196  0.4969
  502TMC3    C1 7457   4.504   0.272  15.228 -0.1711 -0.5190  0.3883
  502TMC3    C2 7458   4.511   0.409  15.226  0.1644 -0.4650 -0.5298
  502TMC3    C3 7459   4.388   0.475  15.222  0.3829 -0.3420 -0.1600
  502TMC3    C4 7460   4.385   0.204  15.226  0.7933  0.3767  0.2306
  502TMC3    C5 7461   4.269   0.275  15.244 -0.3576  0.3845 -0.0039
  502TMC3    C6 7462   4.265   0.411  15.237 -0.4408 -0.1991 -0.2382
  502TMC3     C 7463   4.604   0.199  15.315 -1.4683 -0.2864  0.2896
  502TMC3     O 7464   4.570   0.089  15.352 -0.0244  0.8552  0.0261
  502TMC3     H 7465   4.607   0.459  15.226  0.6122 -1.3432 -0.7490
  502TMC3    H1 7466   4.382   0.096  15.230 -2.0148  0.5157  1.7919
  502TMC3    H2 7467   4.173   0.465  15.218 -0.7237 -0.5937  0.0120
  502TMC3    C7 7468   4.148   0.196  15.265  0.8097 -0.9721  0.3778
  502TMC3    C8 7469   4.391   0.617  15.223 -0.9773  0.5308 -0.2845
  502TMC3    O1 7470   4.142   0.077  15.233  0.5742  0.1127 -0.0970
  502TMC3    O2 7471   4.499   0.663  15.184 -0.4638  0.5785  0.5590
  503MPD2     C 7472   1.987   1.106  16.526 -0.5259 -0.4242 -0.9406
  503MPD2    C1 7473   2.020   1.109  16.660 -0.0775  0.0954  0.5300
  503MPD2    C2 7474   2.113   1.018  16.710 -0.3435 -0.3978  0.4339
  503MPD2    C3 7475   2.161   0.912  16.633 -0.0169 -0.1344 -0.3518
  503MPD2    C4 7476   2.126   0.907  16.500 -0.3456  0.3165  0.4866
  503MPD2    C5 7477   2.043   0.999  16.449  0.6127 -0.6071  0.6449
  503MPD2     H 7478   2.147   1.038  16.811 -0.5786  1.4298  0.1617
  503MPD2    H1 7479   2.154   0.824  16.436 -0.8575  0.5446 -0.0254
  503MPD2    H2 7480   1.939   1.180  16.462  0.8108  1.1517 -0.1132
  503MPD2    H3 7481   2.029   0.995  16.342 -3.3040  0.1649  1.1124
  503MPD2     N 7482   2.236   0.809  16.690 -0.0031  0.8274 -0.5465
  503MPD2    H5 7483   2.255   0.818  16.789  1.9389  0.4015 -0.8902
  503MPD2    N1 7484   1.984   1.217  16.751  0.2262 -0.2485  0.0963
  503MPD2    H7 7485   2.016   1.214  16.847 -0.0990  0.9005  0.2352
  504TMC3    C1 7486   2.382   0.632  16.734  0.0889 -0.9245 -0.0042
  504TMC3    C2 7487   2.311   0.623  16.846 -0.3868 -0.4663  0.0974
  504TMC3    C3 7488   2.377   0.598  16.962  0.4199  0.0474  0.3407
  504TMC3    C4 7489   2.519   0.625  16.735  0.3111 -0.2647 -0.4117
  504TMC3    C5 7490   2.587   0.619  16.852 -0.3123  0.4256 -0.8710
  504TMC3    C6 7491   2.521   0.594  16.971  0.1789  0.4076  0.3407
  504TMC3     C 7492   2.320   0.717  16.633  0.4161 -0.2743 -0.0915
  504TMC3     O 7493   2.366   0.719  16.521 -0.3994 -0.4393  0.3644
  504TMC3     H 7494   2.203   0.633  16.842 -0.2085  1.0282 -0.9970
  504TMC3    H1 7495   2.571   0.640  16.640  1.7667  0.3282  0.4689
  504TMC3    H2 7496   2.568   0.555  17.061  1.0050  0.8757  0.1084
  504TMC3    C7 7497   2.734   0.620  16.855  0.2085 -0.6086  0.5592
  504TMC3    C8 7498   2.299   0.512  17.047  0.6071 -0.5612 -0.1894
  504TMC3    O1 7499   2.794   0.628  16.748  0.0968  0.4823  0.0755
  504TMC3    O2 7500   2.208   0.445  16.993 -0.6123 -0.0977 -0.2828
  505MPD2     C 7501   2.389   4.151  10.366 -0.0429 -0.7529 -0.0135
  505MPD2    C1 7502   2.509   4.134  10.424 -0.6671 -0.9144  0.7178
  505MPD2    C2 7503   2.527   4.180  10.554  0.2911 -0.3861  0.2369
  505MPD2    C3 7504   2.428   4.239  10.622  0.3761  0.2198 -0.3672
  505MPD2    C4 7505   2.299   4.257  10.563 -0.3396 -0.3068 -0.7215
  505MPD2    C5 7506   2.281   4.206  10.435 -0.2708  0.5883 -0.0989
  505MPD2     H 7507   2.625   4.185  10.598 -0.2552  1.2809  1.2514
  505MPD2    H1 7508   2.217   4.310  10.610  0.0438 -0.8908  0.6200
  505MPD2    H2 7509   2.367   4.107  10.269 -0.5487 -0.7971  0.1225
  505MPD2    H3 7510   2.190   4.204  10.376 -2.3660  1.7531  3.0656
  505MPD2     N 7511   2.462   4.287  10.746 -0.9311  0.1690  0.3437
  505MPD2    H5 7512   2.553   4.259  10.780 -0.0692  0.6565 -1.5288
  505MPD2    N1 7513   2.619   4.075  10.359 -0.1007  0.6874 -0.9134
  505MPD2    H7 7514   2.611   4.039  10.265 -1.2633  3.3079 -1.8366
  506TMC3    C1 7515   2.839   4.001  10.308 -0.3248  0.3976 -0.0033
  506TMC3    C2 7516   2.834   4.069  10.194  0.0268  0.2609 -0.5153
  506TMC3    C3 7517   2.953   4.082  10.126  0.5495  0.2143  0.2644
  506TMC3    C4 7518   2.953   3.956  10.365 -0.0021 -0.1349 -0.3815
  506TMC3    C5 7519   3.073   4.002  10.310 -0.2185  0.0919  0.0751
  506TMC3    C6 7520   3.076   4.042  10.180 -0.0926  0.0827 -0.1193
  506TMC3     C 7521   2.746   4.046  10.416  0.3885  0.6836  0.0141
  506TMC3     O 7522   2.793   4.055  10.526  0.5301  0.2983  0.3226
  506TMC3     H 7523   2.745   4.111  10.148 -1.5955  0.2689  2.6296
  506TMC3    H1 7524   2.956   3.921  10.467  1.1420 -0.9551 -0.7039
  506TMC3    H2 7525   3.166   4.080  10.134  0.4311 -0.2520  0.6301
  506TMC3    C7 7526   3.145   4.100  10.389  0.3421  0.4404  0.4449
  506TMC3    C8 7527   2.945   4.152   9.998  0.0138 -0.2030  0.3814
  506TMC3    O1 7528   3.249   4.150  10.349  0.3674 -0.1295 -0.2402
  506TMC3    O2 7529   3.022   4.124   9.909 -0.1065 -0.1883 -0.2500
  507TMC3    C1 7530   3.121   0.310  14.846  0.5233 -0.4206 -0.0104
  507TMC3    C2 7531   3.141   0.233  14.738 -0.1114  0.1437  0.1991
  507TMC3    C3 7532   3.211   0.294  14.636  0.1181  0.0729 -0.0286
  507TMC3    C4 7533   3.182   0.426  14.869  0.0431 -0.2360 -0.7300
  507TMC3    C5 7534   3.280   0.471  14.781 -0.2773  0.0162  0.0691
  507TMC3    C6 7535   3.291   0.404  14.663 -0.1012  0.1420 -0.3724
  507TMC3     C 7536   2.987   0.296  14.906 -0.2084 -0.2964 -0.1807
  507TMC3     O 7537   2.956   0.353  15.010  0.9867  0.8609 -1.0441
  507TMC3     H 7538   3.089   0.141  14.718 -0.6587  0.9453 -2.0130
  507TMC3    H1 7539   3.129   0.490  14.939  0.6931 -1.2063  0.6442
  507TMC3    H2 7540   3.359   0.438  14.586  0.2300 -1.5416 -0.8226
  507TMC3    C7 7541   3.274   0.612  14.753  0.0141 -0.1607 -0.0066
  507TMC3    C8 7542   3.120   0.321  14.534  0.5871  0.0055  0.3534
  507TMC3    O1 7543   3.285   0.656  14.638 -0.6093 -0.2389 -0.2478
  507TMC3    O2 7544   3.044   0.229  14.520 -0.5467  0.0105  0.3323
  508MPD2     C 7545   4.172   2.453  15.847 -0.0990 -0.6924  0.2517
  508MPD2    C1 7546   4.106   2.526  15.948  0.6310 -0.1412 -0.1588
  508MPD2    C2 7547   4.028   2.634  15.913 -0.1516  0.5010  0.1989
  508MPD2    C3 7548   4.001   2.666  15.781  0.0870 -0.7670 -0.0168
  508MPD2    C4 7549   4.061   2.584  15.681  0.1700  0.2918  0.3272
  508MPD2    C5 7550   4.148   2.481  15.718  0.1594 -0.0853 -0.4780
  508MPD2     H 7551   3.990   2.699  15.991 -1.5896  0.8426 -0.7852
  508MPD2    H1 7552   4.056   2.617  15.578 -2.7509  0.4346  0.5138
  508MPD2    H2 7553   4.238   2.368  15.864 -1.6894 -1.7056  1.3403
  508MPD2    H3 7554   4.193   2.419  15.641  1.3529 -1.5868  1.4157
  508MPD2     N 7555   3.919   2.775  15.756  0.6935 -0.2706 -0.4236
  508MPD2    H5 7556   3.895   2.827  15.840 -0.2295  2.0915 -2.1617
  508MPD2    N1 7557   4.144   2.499  16.083 -0.0082 -0.1923 -0.5729
  508MPD2    H7 7558   4.215   2.427  16.094  0.8165  0.7087  0.0703
  509TMC3    C1 7559   3.852   3.184  15.539  0.0985 -0.0195  0.8017
  509TMC3    C2 7560   3.918   3.247  15.648  0.3799 -0.1981  0.1463
  509TMC3    C3 7561   3.967   3.176  15.748 -0.6035  0.8435  0.5512
  509TMC3    C4 7562   3.821   3.054  15.555  0.9180  0.0354 -0.3456
  509TMC3    C5 7563   3.885   2.984  15.651 -0.3705  0.3310  0.2366
  509TMC3    C6 7564   3.956   3.043  15.751 -0.2684  0.5315  0.0822
  509TMC3     C 7565   3.763   3.262  15.452  0.0377 -0.4138  0.0780
  509TMC3     O 7566   3.675   3.193  15.400 -0.3431 -0.1462 -0.3265
  509TMC3     H 7567   3.925   3.355  15.650  0.0276 -0.1394 -1.4086
  509TMC3    H1 7568   3.747   3.002  15.494  1.5097  0.2237 -1.2151
  509TMC3    H2 7569   4.001   2.991  15.834 -1.8694 -2.7901 -1.1268
  509TMC3    C7 7570   3.898   2.839  15.633 -0.4944 -0.0513 -0.4164
  509TMC3    C8 7571   4.076   3.229  15.823  0.4879  0.3511 -0.2193
  509TMC3    O1 7572   3.899   2.801  15.519 -0.0787 -0.3546  0.0174
  509TMC3    O2 7573   4.163   3.150  15.862  0.4173 -0.5941 -0.0581
  510MPD2     C 7574   2.154   4.588  14.848  0.3662 -0.5347  0.6611
  510MPD2    C1 7575   2.198   4.461  14.882 -0.6373 -0.3382 -0.7616
  510MPD2    C2 7576   2.275   4.397  14.793 -0.0786  0.5633  0.2129
  510MPD2    C3 7577   2.312   4.455  14.666  0.0432 -0.2383  0.1112
  510MPD2    C4 7578   2.272   4.581  14.640  0.2976 -0.0222 -0.5114
  510MPD2    C5 7579   2.188   4.644  14.725 -0.3702  0.8609 -0.2659
  510MPD2     H 7580   2.301   4.293  14.806 -0.8613  0.3604  0.1409
  510MPD2    H1 7581   2.299   4.635  14.549  1.6589 -0.2554 -0.2564
  510MPD2    H2 7582   2.105   4.658  14.915 -0.0077  0.8475 -1.0278
  510MPD2    H3 7583   2.148   0.021  14.711  1.0462  1.4491 -0.0842
  510MPD2     N 7584   2.393   4.384  14.578  0.1013  0.1761 -0.0468
  510MPD2    H5 7585   2.430   4.295  14.610 -0.7584 -0.2112 -0.1333
  510MPD2    N1 7586   2.158   4.399  15.007 -0.4010 -0.4354 -0.1082
  510MPD2    H7 7587   2.180   4.302  15.024 -0.0876 -0.4107 -0.3752
  511TMC3    C1 7588   2.063   4.385  15.225  0.5288  0.3889 -0.0113
  511TMC3    C2 7589   2.036   4.444  15.348 -0.4267  0.1245 -0.4378
  511TMC3    C3 7590   1.974   4.373  15.448  0.3157  0.1585  0.8679
  511TMC3    C4 7591   2.026   4.255  15.200 -0.8687 -0.1613  0.1148
  511TMC3    C5 7592   1.971   4.186  15.305  0.0200  0.4064  0.0879
  511TMC3    C6 7593   1.944   4.241  15.428  0.0319 -0.8074 -0.0677
  511TMC3     C 7594   2.111   4.465  15.116  0.2699 -0.3228  0.1688
  511TMC3     O 7595   2.112   4.585  15.132 -0.0794 -0.4781 -0.1322
  511TMC3     H 7596   2.067   4.548  15.352 -0.5544  0.0605  1.9723
  511TMC3    H1 7597   2.025   4.207  15.102 -1.6183  0.7121 -0.3093
  511TMC3    H2 7598   1.906   4.178  15.508 -1.2246  0.2079  0.1202
  511TMC3    C7 7599   1.962   4.036  15.282 -0.5612 -0.2150 -0.0291
  511TMC3    C8 7600   1.946   4.446  15.576  0.1416  0.0772 -0.0665
  511TMC3    O1 7601   2.043   3.992  15.200 -0.2308 -0.0229  0.5550
  511TMC3    O2 7602   1.951   4.568  15.570 -0.7756 -0.0084  0.1003
  512TMC3    C1 7603   0.962   3.969  12.961 -0.3195  0.4357 -0.4005
  512TMC3    C2 7604   0.993   3.951  13.092  0.4156 -0.1948  0.1159
  512TMC3    C3 7605   1.011   3.822  13.135 -0.2052  0.0117  1.3589
  512TMC3    C4 7606   0.945   3.865  12.878  0.2139  0.9463  0.4908
  512TMC3    C5 7607   0.957   3.739  12.923 -0.3285  0.5310  0.3167
  512TMC3    C6 7608   0.994   3.714  13.055  0.0138 -0.5494  0.1028
  512TMC3     C 7609   0.904   4.100  12.920 -0.1798  0.1395  0.2403
  512TMC3     O 7610   0.880   4.112  12.801  0.4152 -0.6535  0.2906
  512TMC3     H 7611   1.014   4.033  13.161 -0.4028 -0.8090  1.0996
  512TMC3    H1 7612   0.922   3.882  12.774 -0.8634 -0.0628  0.5584
  512TMC3    H2 7613   1.000   3.621  13.109  1.4703 -0.3106  0.3596
  512TMC3    C7 7614   0.908   3.640  12.829 -0.0054  0.6632 -0.4539
  512TMC3    C8 7615   1.108   3.797  13.239 -0.9251 -0.0774  0.2419
  512TMC3    O1 7616   0.840   3.673  12.734  0.4319  0.3609 -0.5128
  512TMC3    O2 7617   1.179   3.699  13.226 -0.1459 -0.0272 -0.3232
  513MPD2     C 7618   2.542   3.699  13.066 -0.0976  0.4434 -0.0984
  513MPD2    C1 7619   2.651   3.709  12.979  0.4796 -0.5332  0.8101
  513MPD2    C2 7620   2.742   3.810  12.992  0.1755 -0.1286 -0.5410
  513MPD2    C3 7621   2.729   3.910  13.083  0.0260 -0.5134 -0.1765
  513MPD2    C4 7622   2.618   3.899  13.168  0.3270 -0.4265  0.1259
  513MPD2    C5 7623   2.522   3.793  13.163  0.0739 -0.3530  0.1715
  513MPD2     H 7624   2.825   3.811  12.921  0.5143  3.2046 -0.1248
  513MPD2    H1 7625   2.609   3.971  13.249  1.6188 -1.3281  1.0797
  513MPD2    H2 7626   2.471   3.618  13.075 -1.9716  1.8800 -1.7729
  513MPD2    H3 7627   2.440   3.773  13.231  0.4072  0.6687  0.8741
  513MPD2     N 7628   2.819   4.020  13.081  0.3038 -0.0318 -0.0546
  513MPD2    H5 7629   2.888   4.031  13.007  2.2177  0.5450  1.7877
  513MPD2    N1 7630   2.675   3.624  12.874 -0.0371 -0.2127 -0.0613
  513MPD2    H7 7631   2.765   3.646  12.832  0.1404 -0.2526  0.2968
  514TMC3    C1 7632   2.668   3.453  12.719 -0.4913  0.1584  0.3336
  514TMC3    C2 7633   2.604   3.458  12.603 -0.4293  0.6657  0.2399
  514TMC3    C3 7634   2.670   3.495  12.486  0.4369 -0.7334  0.7296
  514TMC3    C4 7635   2.811   3.467  12.721  0.3549  0.7475 -0.3469
  514TMC3    C5 7636   2.875   3.519  12.608 -0.0259 -0.2303  0.2465
  514TMC3    C6 7637   2.805   3.539  12.490  1.2032 -0.5115 -0.4398
  514TMC3     C 7638   2.614   3.511  12.840 -0.1584 -0.4591 -0.3562
  514TMC3     O 7639   2.504   3.469  12.875 -0.2101  0.5712 -0.2424
  514TMC3     H 7640   2.500   3.428  12.595 -1.1272  3.2658 -0.6508
  514TMC3    H1 7641   2.867   3.431  12.806  2.5879 -0.8851 -2.5115
  514TMC3    H2 7642   2.856   3.579  12.403  1.7374 -1.0340 -0.3647
  514TMC3    C7 7643   2.953   3.625  12.652  0.2668 -0.0725  0.0816
  514TMC3    C8 7644   2.594   3.521  12.370  0.0078 -0.2988  0.8190
  514TMC3    O1 7645   2.930   3.661  12.769 -0.9962  0.3862 -0.2008
  514TMC3    O2 7646   2.478   3.524  12.400  0.1653  0.3607 -0.3447
  515MPD2     C 7647   0.960   0.816  14.902 -0.0311 -0.6349  0.8799
  515MPD2    C1 7648   0.872   0.915  14.853 -0.0456 -0.2870 -0.3394
  515MPD2    C2 7649   0.905   1.051  14.835  0.0718  0.6075 -0.2226
  515MPD2    C3 7650   1.033   1.084  14.870  0.0415  0.1126  0.5611
  515MPD2    C4 7651   1.127   0.987  14.904 -0.4754 -0.2160  0.2380
  515MPD2    C5 7652   1.084   0.860  14.922  0.8243  0.8872 -0.0259
  515MPD2     H 7653   0.834   1.122  14.796  0.0347  0.6391 -0.0985
  515MPD2    H1 7654   1.232   1.014  14.907 -0.3484 -0.7718  0.7610
  515MPD2    H2 7655   0.934   0.711  14.916  1.5037 -1.5694 -3.2026
  515MPD2    H3 7656   1.155   0.780  14.942 -0.5941 -0.1516  0.8722
  515MPD2     N 7657   1.078   1.217  14.846  0.2230  0.1975 -0.2897
  515MPD2    H5 7658   1.178   1.233  14.850 -0.0186  1.5465  0.3012
  515MPD2    N1 7659   0.743   0.891  14.804  0.3578  0.4225 -0.2880
  515MPD2    H7 7660   0.695   0.972  14.766 -0.3351  1.1144  2.0294
  516TMC3    C1 7661   0.526   0.769  14.786  0.9556  0.1881 -0.8286
  516TMC3    C2 7662   0.496   0.799  14.653 -0.1326  0.5229 -0.1143
  516TMC3    C3 7663   0.397   0.723  14.594  0.2059 -0.0542 -0.6211
  516TMC3    C4 7664   0.456   0.669  14.855  0.8167  0.1917  0.2144
  516TMC3    C5 7665   0.362   0.597  14.788 -0.2034 -0.2270 -0.2588
  516TMC3    C6 7666   0.319   0.634  14.661 -0.5578 -0.1432  0.4684
  516TMC3     C 7667   0.666   0.774  14.831 -0.1145 -0.2402  0.7940
  516TMC3     O 7668   0.693   0.690  14.914 -0.1375  0.0417 -0.8708
  516TMC3     H 7669   0.546   0.883  14.605  2.0001 -1.9207 -2.1925
  516TMC3    H1 7670   0.480   0.634  14.955  0.3277  0.1724  0.3239
  516TMC3    H2 7671   0.252   0.573  14.600 -1.7087  2.2918 -0.7515
  516TMC3    C7 7672   0.296   0.490  14.855 -0.0315  1.0056 -0.1876
  516TMC3    C8 7673   0.344   0.761  14.468  0.3686 -0.3488  0.1890
  516TMC3    O1 7674   0.359   0.435  14.941  0.2182  0.6295  0.0490
  516TMC3    O2 7675   0.229   0.730  14.442  0.0581  0.3733  0.2371
  517MPD2     C 7676   4.717   2.390   0.232 -0.2481 -0.4040  0.2226
  517MPD2    C1 7677   0.123   2.382   0.290 -0.0097 -0.0396 -0.2014
  517MPD2    C2 7678   0.162   2.477   0.380  0.4763  0.0088 -0.2154
  517MPD2    C3 7679   0.072   2.580   0.419 -0.1872  0.1618  0.2989
  517MPD2    C4 7680   4.671   2.584   0.364 -0.1562  1.2276  0.4010
  517MPD2    C5 7681   4.629   2.491   0.272 -0.2957  0.4376 -0.2086
  517MPD2     H 7682   0.257   2.469   0.431  0.6135 -1.1620 -0.6496
  517MPD2    H1 7683   4.599   2.660   0.394 -1.6424 -0.7031  1.7681
  517MPD2    H2 7684   4.682   2.322   0.156  2.5109 -1.6874  0.0996
  517MPD2    H3 7685   4.530   2.497   0.229 -0.0686  1.5905 -0.5591
  517MPD2     N 7686   0.110   2.681   0.516 -0.5159 -0.4630  0.1477
  517MPD2    H5 7687   0.037   2.750   0.531  0.6204  0.4656  1.4090
  517MPD2    N1 7688   0.213   2.283   0.265 -0.7662  0.6194  0.4519
  517MPD2    H7 7689   0.305   2.278   0.306  0.0340  0.0807 -1.4038
  518TMC3    C1 7690   0.312   2.120   0.124  0.2365 -0.0068  0.1352
  518TMC3    C2 7691   0.317   1.987   0.092  0.6537 -0.8218 -0.2395
  518TMC3    C3 7692   0.438   1.944   0.035  0.5698 -0.1710 -0.3120
  518TMC3    C4 7693   0.414   2.211   0.103  0.6712 -1.0542  0.6892
  518TMC3    C5 7694   0.524   2.162   0.035 -0.5867  0.0316  0.0980
  518TMC3    C6 7695   0.538   2.030  17.687  0.2965 -0.8926 -0.1735
  518TMC3     C 7696   0.188   2.168   0.191 -0.3328  0.8811 -0.4047
  518TMC3     O 7697   0.085   2.118   0.144 -0.8197  0.1943 -0.7205
  518TMC3     H 7698   0.235   1.919   0.111  1.8136 -2.1364  0.1038
  518TMC3    H1 7699   0.405   2.319   0.108 -1.0575 -1.2057  1.1249
  518TMC3    H2 7700   0.622   1.995  17.627  1.6735  0.5170  0.9430
  518TMC3    C7 7701   0.620   2.264  17.676 -0.4521  0.4388  1.0924
  518TMC3    C8 7702   0.468   1.798   0.022 -1.0069  0.6887  0.0089
  518TMC3    O1 7703   0.572   2.367  17.631  0.0941  0.4616 -0.0332
  518TMC3    O2 7704   0.558   1.777  17.630  0.1092 -0.1501  0.6556
  519MPD2     C 7705   2.096   0.949  14.335  0.1740 -0.1333  0.2435
  519MPD2    C1 7706   2.000   0.890  14.263  0.1948  0.2466  0.0291
  519MPD2    C2 7707   2.016   0.757  14.233  0.5078 -0.3618  0.4621
  519MPD2    C3 7708   2.111   0.675  14.287  0.0573 -0.3059 -0.1985
  519MPD2    C4 7709   2.203   0.733  14.372 -0.5072  0.3049  0.1425
  519MPD2    C5 7710   2.201   0.871  14.392 -0.2418  1.0422  0.3223
  519MPD2     H 7711   1.963   0.704  14.155 -0.9431  0.2928  1.0108
  519MPD2    H1 7712   2.277   0.670  14.421  2.4893  2.7044 -1.2404
  519MPD2    H2 7713   2.103   1.055  14.354  0.6749 -0.3331  1.1562
  519MPD2    H3 7714   2.278   0.928  14.443 -0.0401  1.8616 -0.9092
  519MPD2     N 7715   2.126   0.543  14.251 -0.0454  0.3793  0.4725
  519MPD2    H5 7716   2.207   0.493  14.287  0.1155  0.4738  0.2436
  519MPD2    N1 7717   1.897   0.965  14.209 -0.2187  0.4812 -0.0771
  519MPD2    H7 7718   1.898   1.065  14.228  0.1493  0.3246  0.7476
  520TMC3    C1 7719   2.093   0.353  14.134  0.8350 -0.1055 -0.3472
  520TMC3    C2 7720   2.034   0.298  14.017 -0.2977 -0.3259  0.1679
  520TMC3    C3 7721   2.095   0.195  13.957  0.1578 -1.0352 -0.1314
  520TMC3    C4 7722   2.209   0.300  14.188  0.1692  0.1023  0.0372
  520TMC3    C5 7723   2.268   0.196  14.112  0.0157 -0.5382  0.7622
  520TMC3    C6 7724   2.210   0.142  13.998 -0.5560 -0.5876 -0.3359
  520TMC3     C 7725   2.036   0.473  14.181  0.4917  0.1621 -0.1847
  520TMC3     O 7726   1.931   0.503  14.131  0.3202  0.0348 -0.2420
  520TMC3     H 7727   1.942   0.345  13.984  0.2706  0.3591 -0.4390
  520TMC3    H1 7728   2.253   0.341  14.278 -0.3483  0.7419  0.0047
  520TMC3    H2 7729   2.254   0.056  13.949  0.8450  0.8007 -1.5055
  520TMC3    C7 7730   2.413   0.163  14.141 -0.0615 -0.3531 -0.3249
  520TMC3    C8 7731   2.060   0.153  13.821  0.0870  0.3072  0.4496
  520TMC3    O1 7732   2.464   0.189  14.250 -0.1244  0.3207  0.2769
  520TMC3    O2 7733   2.147   0.091  13.762  0.0998  0.3631  0.0979
  521MPD2     C 7734   2.884   2.961   0.054 -0.2495  0.5286 -0.0875
  521MPD2    C1 7735   2.874   3.040  17.630 -0.2614 -0.2631  0.3052
  521MPD2    C2 7736   2.968   3.030  17.530  0.6366  0.5516 -0.5087
  521MPD2    C3 7737   3.067   2.938  17.534  0.1911  0.0998 -0.9307
  521MPD2    C4 7738   3.079   2.869  17.651 -0.1926 -0.1520  0.5082
  521MPD2    C5 7739   2.991   2.872   0.060  0.4780 -0.3661  0.2229
  521MPD2     H 7740   2.953   3.093  17.443  0.1800  0.2453 -0.6505
  521MPD2    H1 7741   3.170   2.812  17.667  0.7695  1.4097  0.5464
  521MPD2    H2 7742   2.806   2.952   0.128 -0.0813 -0.8160 -0.0762
  521MPD2    H3 7743   3.006   2.801   0.141  1.2666 -2.1977 -1.5235
  521MPD2     N 7744   3.169   2.930  17.434 -0.6176  0.1061  0.3714
  521MPD2    H5 7745   3.157   2.988  17.351  1.1496  0.1827  0.1564
  521MPD2    N1 7746   2.756   3.126  17.619 -0.8947 -0.6838  0.5497
  521MPD2    H7 7747   2.700   3.130   0.013 -0.9200 -1.0797  0.5519
  522TMC3    C1 7748   3.379   2.868  17.328 -0.9892 -0.2302 -0.6863
  522TMC3    C2 7749   3.467   2.760  17.300  0.5857 -0.1884 -0.1857
  522TMC3    C3 7750   3.535   2.763  17.182 -0.7808 -0.4957 -0.4338
  522TMC3    C4 7751   3.370   2.983  17.251  0.7180  0.1885  0.1677
  522TMC3    C5 7752   3.453   2.987  17.143  0.3212 -0.1175 -0.9225
  522TMC3    C6 7753   3.523   2.876  17.101 -0.1954 -0.5588 -0.2473
  522TMC3     C 7754   3.281   2.846  17.439  0.3084 -0.0957  0.3812
  522TMC3     O 7755   3.310   2.747  17.511 -0.0883  0.1849  0.5385
  522TMC3     H 7756   3.486   2.674  17.363  2.1367  0.7731  0.6701
  522TMC3    H1 7757   3.307   3.064  17.286 -0.6014 -0.1816 -1.4001
  522TMC3    H2 7758   3.582   2.879  17.010 -1.6711  1.1285 -1.1367
  522TMC3    C7 7759   3.451   3.093  17.049  0.6907  0.5991  0.2486
  522TMC3    C8 7760   3.582   2.633  17.142 -0.6354 -0.6314 -0.8515
  522TMC3    O1 7761   3.537   3.099  16.965  0.0237 -0.2592  0.2364
  522TMC3    O2 7762   3.525   2.541  17.193 -0.5645 -0.0048 -0.2263
  523MPD2     C 7763   0.394   3.236  10.343 -0.0033 -0.7177 -0.1436
  523MPD2    C1 7764   0.299   3.167  10.266  1.6562  0.2070  0.4637
  523MPD2    C2 7765   0.171   3.220  10.258  0.0831  1.2546  0.0723
  523MPD2    C3 7766   0.126   3.328  10.336 -0.9228 -0.1958 -0.6484
  523MPD2    C4 7767   0.215   3.390  10.418  0.1441  0.1505  0.1511
  523MPD2    C5 7768   0.348   3.346  10.417  0.1419 -0.3218  0.3787
  523MPD2     H 7769   0.095   3.166  10.205  0.0361 -0.0941  1.4968
  523MPD2    H1 7770   0.179   3.463  10.490 -0.4850  0.1948 -0.2046
  523MPD2    H2 7771   0.491   3.189  10.345 -0.6184 -2.0789 -1.8048
  523MPD2    H3 7772   0.419   3.392  10.485 -0.1574 -1.9437  1.8065
  523MPD2     N 7773   4.722   3.385  10.338  1.0908  0.3032 -0.4762
  523MPD2    H5 7774   4.717   3.476  10.382 -1.9420 -0.3611  0.6048
  523MPD2    N1 7775   0.339   3.058  10.181  0.0674 -0.4036  0.1429
  523MPD2    H7 7776   0.438   3.036  10.182 -0.2896 -2.0612 -0.8552
  524TMC3    C1 7777   4.497   3.429  10.266  0.8476  0.0069  0.0407
  524TMC3    C2 7778   4.409   3.412  10.164 -0.0129  0.3972  0.1482
  524TMC3    C3 7779   4.309   3.506  10.149  0.1559  0.6901 -0.2963
  524TMC3    C4 7780   4.482   3.522  10.362 -0.0293  0.3936 -0.2001
  524TMC3    C5 7781   4.376   3.608  10.342  0.2229 -0.3351  0.2479
  524TMC3    C6 7782   4.286   3.601  10.245 -0.6966  0.1246 -0.4677
  524TMC3     C 7783   4.604   3.331  10.284  0.2950  0.6594  0.0631
  524TMC3     O 7784   4.577   3.219  10.236  0.1246 -0.3246 -0.5914
  524TMC3     H 7785   4.428   3.351  10.076  0.2859  0.5009  0.1421
  524TMC3    H1 7786   4.540   3.538  10.452 -0.6169 -0.6345  0.3591
  524TMC3    H2 7787   4.194   3.659  10.243  0.5803  2.2085  1.3637
  524TMC3    C7 7788   4.341   3.694  10.460 -0.2049  0.2810  0.3726
  524TMC3    C8 7789   4.224   3.503  10.028 -0.6458  0.3380  0.0106
  524TMC3    O1 7790   4.357   3.645  10.568  0.4171 -0.4765 -0.5003
  524TMC3    O2 7791   4.207   3.390   9.976 -0.4965 -0.4459 -0.6269
  525MPD2     C 7792   3.513   0.129  14.563 -0.0110 -0.2653 -0.1292
  525MPD2    C1 7793   3.556   0.181  14.680 -0.5306 -0.0078 -0.1056
  525MPD2    C2 7794   3.609   0.307  14.673  0.0183 -0.5915 -1.0499
  525MPD2    C3 7795   3.611   0.379  14.549  0.1489  0.2084  0.0333
  525MPD2    C4 7796   3.568   0.314  14.433 -0.2464  0.2197 -0.2001
  525MPD2    C5 7797   3.523   0.188  14.450 -0.1944  0.1997  0.3565
  525MPD2     H 7798   3.642   0.342  14.770 -0.3657  0.5321 -1.3306
  525MPD2    H1 7799   3.559   0.356  14.333  1.9280  2.3238  0.4844
  525MPD2    H2 7800   3.480   0.026  14.563 -1.7871  0.3102  1.0531
  525MPD2    H3 7801   3.479   0.139  14.364  0.3412 -0.1810  0.2963
  525MPD2     N 7802   3.645   0.516  14.559  0.2179 -0.0479  0.6144
  525MPD2    H5 7803   3.648   0.561  14.650  3.3109  0.6633  0.1591
  525MPD2    N1 7804   3.559   0.108  14.801 -0.0477 -0.7045  0.2595
  525MPD2    H7 7805   3.610   0.144  14.881 -0.0655 -1.1347  0.4627
  526TMC3    C1 7806   3.552   4.638  14.933  0.1058 -0.1608 -0.2694
  526TMC3    C2 7807   3.466   4.585  15.024 -0.1176 -0.4052 -0.4833
  526TMC3    C3 7808   3.524   4.542  15.138 -0.2632  0.1923  0.1812
  526TMC3    C4 7809   3.683   4.642  14.942 -0.3466  0.3369  0.2597
  526TMC3    C5 7810   3.737   4.590  15.056 -0.1786  0.2341  0.2137
  526TMC3    C6 7811   3.659   4.549  15.164 -0.0288 -0.2034 -0.3846
  526TMC3     C 7812   3.490   4.708  14.820  0.0851  0.4346  0.3500
  526TMC3     O 7813   3.394   4.664  14.762 -0.9082 -0.1645  0.1773
  526TMC3     H 7814   3.359   4.600  15.017 -0.2517 -0.6395  1.0724
  526TMC3    H1 7815   3.742   4.681  14.860 -1.7048  0.3064 -0.7306
  526TMC3    H2 7816   3.700   4.514  15.258  2.2856  1.2541 -0.8447
  526TMC3    C7 7817   3.875   4.553  15.067  0.3939  0.1649 -0.0249
  526TMC3    C8 7818   3.441   4.549  15.256  0.0967 -0.3629  0.4159
  526TMC3    O1 7819   3.897   4.480  15.163 -0.4189  0.2841  0.0977
  526TMC3    O2 7820   3.497   4.566  15.365 -0.3671  0.0767 -0.6321
  527MPD2     C 7821   2.687   1.924   1.140  0.5765 -0.4655 -0.0545
  527MPD2    C1 7822   2.753   2.031   1.186 -0.2751 -0.7431  0.2156
  527MPD2    C2 7823   2.691   2.154   1.190  0.4108  0.0130  0.0813
  527MPD2    C3 7824   2.562   2.159   1.146 -0.7499 -0.3724 -0.7429
  527MPD2    C4 7825   2.483   2.047   1.115 -0.4430 -0.6567  0.4067
  527MPD2    C5 7826   2.553   1.923   1.106 -0.4699  0.0557  0.0230
  527MPD2     H 7827   2.751   2.241   1.210  0.5864  0.1729 -1.1572
  527MPD2    H1 7828   2.382   2.054   1.076  1.4551  0.9319 -4.2154
  527MPD2    H2 7829   2.738   1.828   1.135  2.3925  0.4684  0.6981
  527MPD2    H3 7830   2.509   1.827   1.082 -1.6197  0.4307  0.6653
  527MPD2     N 7831   2.510   2.287   1.121 -0.1695 -0.2105 -0.7476
  527MPD2    H5 7832   2.578   2.361   1.135 -0.1858  0.0697 -2.1376
  527MPD2    N1 7833   2.882   2.031   1.236 -0.3406  0.5069  0.4009
  527MPD2    H7 7834   2.921   2.121   1.263 -0.9082  1.3245 -1.4740
  528TMC3    C1 7835   3.109   1.962   1.220  0.0868 -0.2437  0.0992
  528TMC3    C2 7836   3.145   2.091   1.196  0.3309  0.0731 -0.4361
  528TMC3    C3 7837   3.253   2.110   1.118 -0.0486 -0.2017 -0.6736
  528TMC3    C4 7838   3.200   1.868   1.192  0.1848  0.9061  0.1365
  528TMC3    C5 7839   3.315   1.887   1.126  0.0363 -0.3767 -0.3106
  528TMC3    C6 7840   3.338   2.013   1.074  0.5864 -0.2160  0.4378
  528TMC3     C 7841   2.970   1.922   1.219 -0.4241  0.8757  0.7827
  528TMC3     O 7842   2.947   1.806   1.189 -0.4126 -0.9155 -0.4477
  528TMC3     H 7843   3.079   2.170   1.230 -1.2579 -1.7482  0.6993
  528TMC3    H1 7844   3.178   1.763   1.205  1.7526  0.4085 -1.2556
  528TMC3    H2 7845   3.429   2.022   1.016 -0.3384 -0.3336 -1.0397
  528TMC3    C7 7846   3.400   1.777   1.078  0.3540  0.3153  0.5230
  528TMC3    C8 7847   3.268   2.242   1.059  1.4622  0.2239 -0.4578
  528TMC3    O1 7848   3.465   1.798   0.978  0.3499 -0.1247 -0.3664
  528TMC3    O2 7849   3.236   2.336   1.126 -0.2770 -0.4258  0.4210
  529MPD2     C 7850   4.198   1.479   1.145 -0.3820  0.3351  0.4423
  529MPD2    C1 7851   4.284   1.398   1.072 -0.2848  0.1870 -0.0206
  529MPD2    C2 7852   4.298   1.432   0.935  0.1226  0.3035  0.8101
  529MPD2    C3 7853   4.223   1.537   0.882 -0.5087  0.2413 -0.0925
  529MPD2    C4 7854   4.129   1.607   0.956  0.8742  0.0330 -0.3275
  529MPD2    C5 7855   4.127   1.577   1.091 -0.5080 -0.3824  0.5083
  529MPD2     H 7856   4.373   1.379   0.878  0.0556  0.5374  0.5060
  529MPD2    H1 7857   4.077   1.694   0.917 -0.6498 -0.1507  1.2719
  529MPD2    H2 7858   4.193   1.468   1.252 -1.0924  0.4143  0.4158
  529MPD2    H3 7859   4.067   1.636   1.159  0.0994 -0.9722  1.5580
  529MPD2     N 7860   4.240   1.582   0.748 -0.1615 -0.1057  0.7146
  529MPD2    H5 7861   4.209   1.673   0.714  1.1975 -0.8612 -2.5167
  529MPD2    N1 7862   4.379   1.311   1.131 -0.5975 -0.0764  0.1852
  529MPD2    H7 7863   4.438   1.252   1.072 -1.8663 -0.3419 -0.8256
  530TMC3    C1 7864   4.478   1.194   1.301 -0.6016  0.3082 -1.0242
  530TMC3    C2 7865   4.577   1.219   1.385  0.7263 -0.2467 -0.1276
  530TMC3    C3 7866   4.641   1.112   1.449  0.0275  0.1331  0.3936
  530TMC3    C4 7867   4.445   1.067   1.275  0.0454  0.1912  0.4604
  530TMC3    C5 7868   4.498   0.963   1.345 -0.0824 -0.4454 -0.3318
  530TMC3    C6 7869   4.615   0.979   1.428  1.0392  0.0528  0.0171
  530TMC3     C 7870   4.391   1.295   1.265  0.0852  0.0498 -0.5958
  530TMC3     O 7871   4.345   1.369   1.353  0.4929  0.2403 -0.0041
  530TMC3     H 7872   4.604   1.324   1.391 -1.1294  0.3236 -1.7497
  530TMC3    H1 7873   4.360   1.055   1.209  0.1534  2.3216 -0.0645
  530TMC3    H2 7874   4.664   0.895   1.476  0.3976  0.7555  1.9247
  530TMC3    C7 7875   4.439   0.831   1.350  0.5872  0.4847  0.0274
  530TMC3    C8 7876   0.032   1.154   1.524  0.6093 -0.0838  0.5973
  530TMC3    O1 7877   4.485   0.745   1.425  0.4110 -0.1438  0.6700
  530TMC3    O2 7878   0.039   1.275   1.546 -0.0421  0.1202 -0.4174
  531MPD2     C 7879   3.332   3.938  12.624  1.1855  0.2360 -0.2872
  531MPD2    C1 7880   3.226   3.942  12.710  0.3016  1.2903  0.2311
  531MPD2    C2 7881   3.124   3.851  12.678 -0.3002  0.5768 -0.5681
  531MPD2    C3 7882   3.138   3.761  12.572 -0.0981 -0.1225  0.6463
  531MPD2    C4 7883   3.245   3.766  12.490  0.3407 -0.2822 -0.7168
  531MPD2    C5 7884   3.338   3.856  12.518  0.1846 -0.1599  0.1432
  531MPD2     H 7885   3.038   3.848  12.743 -0.9050  0.1820 -1.3839
  531MPD2    H1 7886   3.248   3.703  12.402 -1.6811 -1.4992  0.0900
  531MPD2    H2 7887   3.412   4.011  12.628 -0.7841  2.4596 -1.6970
  531MPD2    H3 7888   3.419   3.875  12.447 -0.1966  0.6424 -0.0722
  531MPD2     N 7889   3.041   3.664  12.554  0.0499 -0.3191  0.5325
  531MPD2    H5 7890   3.052   3.594  12.481 -2.7604  2.9569 -2.9807
  531MPD2    N1 7891   3.232   4.032  12.818  0.2206 -0.7589 -0.2797
  531MPD2    H7 7892   3.317   4.089  12.820  1.1710 -2.1898 -0.0479
  532TMC3    C1 7893   3.128   4.156  12.993 -0.0053 -0.1545  0.0267
  532TMC3    C2 7894   2.999   4.187  13.021  0.5500  0.4554 -0.6249
  532TMC3    C3 7895   2.956   4.194  13.151 -0.0821  0.1122 -0.5726
  532TMC3    C4 7896   3.219   4.150  13.090 -0.2962 -0.2863 -0.4906
  532TMC3    C5 7897   3.179   4.180  13.217 -0.2723  0.4558 -0.3766
  532TMC3    C6 7898   3.050   4.205  13.248  0.3692  0.4545 -0.0093
  532TMC3     C 7899   3.125   4.049  12.903 -0.3414  0.6047 -0.0040
  532TMC3     O 7900   3.016   3.994  12.893  0.6205 -0.2230 -0.1157
  532TMC3     H 7901   2.926   4.199  12.942  0.3819 -4.0696 -1.1450
  532TMC3    H1 7902   3.322   4.130  13.064  0.5287  3.4193 -0.0250
  532TMC3    H2 7903   3.008   4.204  13.348  2.4275  1.4894  0.8505
  532TMC3    C7 7904   3.258   4.167  13.334 -0.2765 -0.1615 -0.7195
  532TMC3    C8 7905   2.836   4.109  13.187  0.2809  0.1740 -0.3343
  532TMC3    O1 7906   3.229   4.222  13.437  0.2942  0.0953  0.3019
  532TMC3    O2 7907   2.790   4.115  13.299  0.1511  0.3356  0.1569
  533TMC3    C1 7908   3.688   0.733  14.492 -0.6748  0.6193 -0.2513
  533TMC3    C2 7909   3.803   0.806  14.469 -0.3279 -0.4840  0.0523
  533TMC3    C3 7910   3.827   0.913  14.551 -0.4622  0.7795 -0.6600
  533TMC3    C4 7911   3.595   0.767  14.586  0.2117  0.8251  0.0861
  533TMC3    C5 7912   3.616   0.876  14.670  0.6402  0.6127 -0.2179
  533TMC3    C6 7913   3.735   0.949  14.654  0.2724 -0.1493 -0.3100
  533TMC3     C 7914   3.675   0.597  14.449 -0.1323  0.3091  0.0272
  533TMC3     O 7915   3.726   0.557  14.343 -0.2949 -0.6460 -0.4656
  533TMC3     H 7916   3.872   0.766  14.395  0.6180 -0.9913  1.2085
  533TMC3    H1 7917   3.503   0.712  14.592  1.0896 -0.4980  1.3222
  533TMC3    H2 7918   3.764   1.025  14.726  1.5231 -1.8650  0.9922
  533TMC3    C7 7919   3.583   0.834  14.808  0.0997 -0.7529 -0.1588
  533TMC3    C8 7920   3.963   0.968  14.573 -0.2187  0.2979  0.0009
  533TMC3    O1 7921   3.563   0.711  14.817 -0.4346 -0.1263  0.0640
  533TMC3    O2 7922   3.965   1.045  14.665  0.3183 -0.1718 -0.5843
  534MPD2     C 7923   2.050   1.582   1.663  0.0878 -0.8168 -0.1075
  534MPD2    C1 7924   2.082   1.694   1.583 -0.1019 -0.4675 -0.3004
  534MPD2    C2 7925   1.981   1.775   1.549  0.3195  0.0825  0.1155
  534MPD2    C3 7926   1.850   1.750   1.581  0.1654 -0.4455 -0.2275
  534MPD2    C4 7927   1.820   1.638   1.652 -0.6443  0.2306  0.1797
  534MPD2    C5 7928   1.920   1.551   1.686 -0.1041  0.2482 -0.0410
  534MPD2     H 7929   2.002   1.872   1.507  1.6916 -0.5057 -0.5273
  534MPD2    H1 7930   1.722   1.612   1.690 -1.0820  0.1750 -0.9841
  534MPD2    H2 7931   2.128   1.509   1.683 -1.7456 -2.8787 -0.5608
  534MPD2    H3 7932   1.901   1.462   1.746 -0.2906  0.8671  0.8124
  534MPD2     N 7933   1.744   1.838   1.551 -0.1586 -0.3499 -0.3083
  534MPD2    H5 7934   1.654   1.802   1.580 -0.1686 -2.1576 -2.5878
  534MPD2    N1 7935   2.209   1.731   1.539 -0.0048  0.1695 -0.1041
  534MPD2    H7 7936   2.205   1.807   1.472  2.4104 -2.3039 -3.0181
  535TMC3    C1 7937   1.605   1.984   1.433  0.0500 -0.9046  0.3574
  535TMC3    C2 7938   1.531   1.897   1.503 -0.6678 -0.1525 -0.4740
  535TMC3    C3 7939   1.446   1.819   1.439  0.6235  0.2416  1.1217
  535TMC3    C4 7940   1.585   2.003   1.300 -0.1950 -0.2251 -0.0486
  535TMC3    C5 7941   1.500   1.916   1.232 -0.5590  0.3065  0.5822
  535TMC3    C6 7942   1.433   1.813   1.300  0.4093  0.3853 -0.9910
  535TMC3     C 7943   1.741   1.953   1.473 -0.0248  0.1881  0.5732
  535TMC3     O 7944   1.829   2.024   1.422 -0.3313 -0.2098 -0.0108
  535TMC3     H 7945   1.509   1.916   1.608 -1.5135  1.6260 -0.9773
  535TMC3    H1 7946   1.648   2.079   1.255  1.1921 -2.1303 -1.2985
  535TMC3    H2 7947   1.367   1.742   1.252 -0.3679  0.0747  0.5460
  535TMC3    C7 7948   1.485   1.920   1.093  0.3717 -0.6901 -0.0557
  535TMC3    C8 7949   1.405   1.704   1.521 -1.2789 -0.5422  0.0152
  535TMC3    O1 7950   1.449   1.816   1.043  0.2193  0.7990 -0.0515
  535TMC3    O2 7951   1.465   1.696   1.631 -0.0023  0.2963  0.4913
  536MPD2     C 7952   0.530   4.617  16.470  0.8123 -0.4513  0.1509
  536MPD2    C1 7953   0.410   4.567  16.524 -0.6045 -0.6294  1.0246
  536MPD2    C2 7954   0.298   4.557  16.446 -0.4385  0.1650  0.3930
  536MPD2    C3 7955   0.303   4.583  16.306  0.0135 -0.1386 -0.6550
  536MPD2    C4 7956   0.424   4.620  16.255 -0.4134 -0.2888 -0.1199
  536MPD2    C5 7957   0.536   4.630  16.331  0.0882  0.8174 -0.3931
  536MPD2     H 7958   0.212   4.525  16.505  1.0262 -0.3959  2.1934
  536MPD2    H1 7959   0.436   4.638  16.149 -1.4025  0.5783 -0.0787
  536MPD2    H2 7960   0.609   4.638  16.541 -1.7205  3.5425  1.7451
  536MPD2    H3 7961   0.629   4.653  16.281 -0.2137  1.7931 -0.5071
  536MPD2     N 7962   0.198   4.575  16.222  0.3819  0.1603 -0.0804
  536MPD2    H5 7963   0.218   4.580  16.123  0.9827  0.3256  0.0467
  536MPD2    N1 7964   0.403   4.557  16.662  0.0779  0.4256  0.0449
  536MPD2    H7 7965   0.483   4.592  16.713 -1.3965  1.0488  1.9065
  537TMC3    C1 7966   0.332   4.530  16.887 -0.5807 -0.0357  0.1827
  537TMC3    C2 7967   0.427   4.626  16.927  0.1646  0.7505  0.9600
  537TMC3    C3 7968   0.414   4.676  17.051  0.1892 -0.1424 -0.1522
  537TMC3    C4 7969   0.236   4.480  16.979  0.4536  0.4037  0.4472
  537TMC3    C5 7970   0.229   4.544  17.103  0.3469 -0.0541 -0.1379
  537TMC3    C6 7971   0.323   4.634  17.139  0.0619  0.1217 -0.6083
  537TMC3     C 7972   0.308   4.502  16.741  0.1051 -0.3379  0.0530
  537TMC3     O 7973   0.206   4.447  16.714  0.7841  0.2117  0.4485
  537TMC3     H 7974   0.502   4.660  16.857 -0.7420 -0.7225 -0.7247
  537TMC3    H1 7975   0.162   4.408  16.949  0.6662  0.4331 -0.1463
  537TMC3    H2 7976   0.325   4.677  17.238 -2.0694 -0.7840 -0.1720
  537TMC3    C7 7977   0.161   4.487  17.212  0.4539 -0.3833  0.1717
  537TMC3    C8 7978   0.519   0.037  17.119 -0.0845  0.4583  0.1233
  537TMC3    O1 7979   0.146   4.563  17.310 -0.2571  0.0144 -0.4680
  537TMC3    O2 7980   0.526   0.033  17.241 -0.5756 -0.3827 -0.7659
  538TMC3    C1 7981   1.373   3.196  10.795  0.1566  0.7971  0.3066
  538TMC3    C2 7982   1.422   3.068  10.762  0.0327 -0.3864 -0.0489
  538TMC3    C3 7983   1.333   2.988  10.695 -0.9814  0.0293  0.0086
  538TMC3    C4 7984   1.241   3.231  10.777  0.0251  0.3324  0.0842
  538TMC3    C5 7985   1.159   3.143  10.710  0.1317  0.3111  0.5842
  538TMC3    C6 7986   1.204   3.018  10.666 -0.0467 -0.2270  0.0210
  538TMC3     C 7987   1.448   3.279  10.893  0.1175 -0.4256 -0.9577
  538TMC3     O 7988   1.401   3.388  10.927 -0.2280 -0.1334 -0.7840
  538TMC3     H 7989   1.512   3.030  10.808  0.4354  0.5771 -0.0404
  538TMC3    H1 7990   1.213   3.330  10.810  1.6814  1.5133 -2.0866
  538TMC3    H2 7991   1.141   2.944  10.617  0.3691 -1.2952  1.1105
  538TMC3    C7 7992   1.017   3.171  10.684 -0.2696 -0.0962  0.7296
  538TMC3    C8 7993   1.384   2.884  10.616 -0.4838  0.3275  0.2109
  538TMC3    O1 7994   0.950   3.079  10.636 -0.5793 -0.3938  0.2635
  538TMC3    O2 7995   1.302   2.802  10.570 -0.3941 -0.4107  0.6861
  539MPD2     C 7996   0.712   2.049  11.708  0.6289 -0.6897  0.6717
  539MPD2    C1 7997   0.743   2.113  11.592  0.1208 -0.4127 -0.1626
  539MPD2    C2 7998   0.746   2.254  11.595 -0.1388 -0.4739  0.0123
  539MPD2    C3 7999   0.715   2.323  11.710  0.5208 -0.0213 -0.6322
  539MPD2    C4 8000   0.689   2.254  11.822  0.5788 -0.4146  1.0655
  539MPD2    C5 8001   0.690   2.120  11.821  0.2384  0.4000 -0.1058
  539MPD2     H 8002   0.774   2.301  11.502 -2.2337  2.2114  0.7619
  539MPD2    H1 8003   0.658   2.296  11.917  0.6969 -0.7123  1.2352
  539MPD2    H2 8004   0.728   1.943  11.725 -1.1690 -0.9338  0.7900
  539MPD2    H3 8005   0.667   2.069  11.913  3.5547 -1.0445 -0.0562
  539MPD2     N 8006   0.719   2.463  11.722  0.4219  0.3439  0.0130
  539MPD2    H5 8007   0.694   2.506  11.811  1.0443  1.7537 -0.5114
  539MPD2    N1 8008   0.753   2.053  11.463  0.4815 -0.3128  0.4131
  539MPD2    H7 8009   0.793   2.104  11.386 -0.4480  2.2026  1.5950
  540TMC3    C1 8010   0.726   2.686  11.644 -0.2261  0.0437 -0.3582
  540TMC3    C2 8011   0.698   2.759  11.536 -0.8965  0.2002 -0.3740
  540TMC3    C3 8012   0.667   2.890  11.548 -0.5591  0.4003  0.2217
  540TMC3    C4 8013   0.735   2.740  11.766  0.7970  0.3640  0.0513
  540TMC3    C5 8014   0.707   2.875  11.779 -0.7065 -0.0497  0.0198
  540TMC3    C6 8015   0.674   2.952  11.671  0.8876 -0.2003  0.7243
  540TMC3     C 8016   0.742   2.547  11.619  0.0199 -0.4674 -0.3830
  540TMC3     O 8017   0.800   2.516  11.513  0.5157 -0.0533  0.4678
  540TMC3     H 8018   0.695   2.719  11.435  1.2857 -0.5630 -0.1180
  540TMC3    H1 8019   0.738   2.673  11.851  0.5321 -0.5073 -0.6300
  540TMC3    H2 8020   0.665   3.059  11.686 -0.5966 -0.4320  1.4255
  540TMC3    C7 8021   0.662   2.920  11.908  1.0709  0.7033  0.3893
  540TMC3    C8 8022   0.712   2.973  11.431 -1.2640 -0.9717  0.5715
  540TMC3    O1 8023   0.579   3.008  11.910 -0.3347 -0.1545 -0.1444
  540TMC3    O2 8024   0.798   3.054  11.452 -0.6450 -1.0958  0.6377
  541MPD2     C 8025   4.456   4.435  13.359  0.1061 -0.0466 -0.7432
  541MPD2    C1 8026   4.501   4.360  13.252  0.6844  0.2073 -0.5717
  541MPD2    C2 8027   4.568   4.411  13.147 -0.4648 -0.7135  0.2102
  541MPD2    C3 8028   4.602   4.545  13.145  0.7261  0.2868  0.6316
  541MPD2    C4 8029   4.562   4.622  13.247 -0.2132  0.1859  0.4316
  541MPD2    C5 8030   4.487   4.571  13.352 -0.2865  0.0495 -0.2194
  541MPD2     H 8031   4.591   4.347  13.062 -0.2730  0.8161 -0.8859
  541MPD2    H1 8032   4.594   0.004  13.244 -1.5278  0.6014  0.5873
  541MPD2    H2 8033   4.401   4.390  13.441 -0.6836  1.8630 -0.2239
  541MPD2    H3 8034   4.456   4.637  13.431  0.1565  0.2379 -0.2042
  541MPD2     N 8035   4.666   4.603  13.034 -0.5085 -0.0216 -0.8530
  541MPD2    H5 8036   4.668   4.705  13.035  0.3287 -0.0462 -0.2791
  541MPD2    N1 8037   4.443   4.229  13.251 -0.1187  0.3232 -0.0089
  541MPD2    H7 8038   4.376   4.218  13.326  0.3507 -0.7005  0.2610
  542TMC3    C1 8039   0.016   4.613  12.805 -0.1873  0.3264 -0.2795
  542TMC3    C2 8040   0.042   4.537  12.694 -0.0888 -0.1555  0.4815
  542TMC3    C3 8041   4.715   4.577  12.578 -0.5791 -0.9658  0.1157
  542TMC3    C4 8042   4.671   0.008  12.797 -0.4025  0.4758 -0.1091
  542TMC3    C5 8043   4.617   0.041  12.671  0.2104  0.1900  0.1056
  542TMC3    C6 8044   4.631   4.684  12.562  0.1863  0.1016  0.9443
  542TMC3     C 8045   0.005   4.535  12.928 -0.3498  0.1958  0.0384
  542TMC3     O 8046   0.033   4.417  12.922 -0.4809 -0.6094  0.0400
  542TMC3     H 8047   0.088   4.440  12.706 -0.1500 -0.2153  0.2478
  542TMC3    H1 8048   4.644   0.067  12.884 -0.4908 -1.1304  0.9573
  542TMC3    H2 8049   4.597   4.712  12.463  1.3915 -0.5407  0.3539
  542TMC3    C7 8050   4.547   0.174  12.671 -0.2617 -0.1641  0.0898
  542TMC3    C8 8051   0.004   4.487  12.466 -0.4386 -0.7152  0.2187
  542TMC3    O1 8052   4.567   0.252  12.763 -0.5335  0.6295  0.7486
  542TMC3    O2 8053   4.704   4.530  12.352  0.4422 -0.3695 -0.2353
  543TMC3    C1 8054   3.694   0.971  17.203 -1.1770 -0.3291 -0.0265
  543TMC3    C2 8055   3.626   0.873  17.266  0.2031 -0.5168  0.2491
  543TMC3    C3 8056   3.633   0.874  17.401  0.0757  0.4565  0.0969
  543TMC3    C4 8057   3.757   1.072  17.268 -0.0679 -0.2609  0.9510
  543TMC3    C5 8058   3.755   1.072  17.402 -0.0119  0.0774  0.8893
  543TMC3    C6 8059   3.702   0.970  17.467  0.1903 -0.1070 -0.2424
  543TMC3     C 8060   3.755   0.917  17.080  0.4768  0.6153  0.8785
  543TMC3     O 8061   3.797   0.805  17.104 -0.1600  0.3182  0.0403
  543TMC3     H 8062   3.582   0.793  17.207  0.4166 -0.5639  0.1529
  543TMC3    H1 8063   3.819   1.137  17.206 -1.2958 -0.4710 -0.5025
  543TMC3    H2 8064   3.707   0.963  17.575  1.2726 -1.0334 -0.3523
  543TMC3    C7 8065   3.817   1.188  17.471 -0.6696  0.4048 -0.5616
  543TMC3    C8 8066   3.617   0.746  17.457 -0.0694 -0.5065 -0.1840
  543TMC3    O1 8067   3.875   1.171  17.575  0.0874  0.3707 -0.3709
  543TMC3    O2 8068   3.700   0.718  17.539 -0.2310  0.1231 -0.4323
  544MPD2     C 8069   3.393   0.300  17.521  0.7853 -0.2705  0.2939
  544MPD2    C1 8070   3.526   0.331  17.532 -0.2665  0.0816  0.3944
  544MPD2    C2 8071   3.567   0.463  17.506  0.4630  0.4138 -0.5173
  544MPD2    C3 8072   3.473   0.553  17.453  0.2820 -0.2065  0.5434
  544MPD2    C4 8073   3.345   0.515  17.434  0.6305  0.7315  0.4825
  544MPD2    C5 8074   3.310   0.393  17.477 -0.9142  0.4023 -0.1337
  544MPD2     H 8075   3.669   0.499  17.514  0.8348 -0.0501 -2.8881
  544MPD2    H1 8076   3.267   0.577  17.389  1.8038 -0.3782 -3.0372
  544MPD2    H2 8077   3.345   0.203  17.527 -1.3763  0.8478  1.3371
  544MPD2    H3 8078   3.207   0.367  17.457 -1.4193  1.4601  1.0723
  544MPD2     N 8079   3.505   0.686  17.415  0.0761 -0.0710 -0.0652
  544MPD2    H5 8080   3.433   0.737  17.366 -0.2799 -1.6566 -1.2140
  544MPD2    N1 8081   3.620   0.231  17.548 -0.2484 -0.4260  0.7385
  544MPD2    H7 8082   3.590   0.135  17.565  1.6981 -1.2316 -0.3777
  545TMC3    C1 8083   3.813   0.106  17.523 -0.2335 -0.1698 -0.8417
  545TMC3    C2 8084   3.911   0.081  17.431 -0.0663 -0.3302 -0.2635
  545TMC3    C3 8085   3.952   4.674  17.403 -0.4518 -0.1725 -0.0480
  545TMC3    C4 8086   3.747   4.722  17.585  0.4785  0.0630 -0.2630
  545TMC3    C5 8087   3.794   4.601  17.551  0.4019  0.1882  0.4745
  545TMC3    C6 8088   3.888   4.568  17.456 -0.1972  0.3865 -0.4097
  545TMC3     C 8089   3.758   0.240  17.527 -0.3931  0.5792  0.7138
  545TMC3     O 8090   3.822   0.330  17.467  0.1855 -1.2041 -0.3962
  545TMC3     H 8091   3.955   0.160  17.371 -0.5839 -1.3981 -2.0265
  545TMC3    H1 8092   3.667   0.003  17.659  0.1587 -0.5184 -0.5790
  545TMC3    H2 8093   3.897   4.468  17.415 -1.3457  0.5930 -1.1638
  545TMC3    C7 8094   3.725   4.489  17.618 -0.3137  0.3010  0.3365
  545TMC3    C8 8095   4.019   4.641  17.275  0.1158  0.3260  0.2960
  545TMC3    O1 8096   3.618   4.514  17.665  0.2438  0.2083  0.1801
  545TMC3    O2 8097   4.091   4.539  17.272 -0.5303  0.0196  0.5121
  546MPD2     C 8098   0.574   0.468  17.129 -0.3176 -0.6234  0.0213
  546MPD2    C1 8099   0.554   0.453  17.266  0.2729 -0.1565  0.1236
  546MPD2    C2 8100   0.607   0.537  17.366  0.2827 -0.4891 -0.1447
  546MPD2    C3 8101   0.695   0.634  17.323 -0.1712  0.4767  0.4987
  546MPD2    C4 8102   0.712   0.647  17.183  0.2611  0.0018  0.1444
  546MPD2    C5 8103   0.652   0.570  17.090  0.5038  1.0041  0.2077
  546MPD2     H 8104   0.594   0.510  17.471  0.7114  0.6552  0.2027
  546MPD2    H1 8105   0.778   0.725  17.146  2.4329 -2.8977 -2.0706
  546MPD2    H2 8106   0.550   0.392  17.056  0.8201 -0.9777  0.0069
  546MPD2    H3 8107   0.671   0.599  16.987 -2.4039 -2.4854 -1.3034
  546MPD2     N 8108   0.753   0.730  17.408 -0.3127 -0.2976 -0.2013
  546MPD2    H5 8109   0.718   0.723  17.504 -0.0221 -2.8416 -0.2892
  546MPD2    N1 8110   0.460   0.355  17.309 -0.5438  0.1893 -0.6013
  546MPD2    H7 8111   0.401   0.315  17.236  1.7256  0.9139 -2.8200
  547TMC3    C1 8112   0.316   0.227  17.436 -0.5839  0.3124  0.3983
  547TMC3    C2 8113   0.220   0.258  17.348  0.3759 -0.0041 -0.7311
  547TMC3    C3 8114   0.096   0.199  17.359  0.2567 -0.1481 -0.0331
  547TMC3    C4 8115   0.300   0.128  17.524 -0.0380  0.7428  0.1175
  547TMC3    C5 8116   0.180   0.056  17.523  0.0156 -0.6642  0.1591
  547TMC3    C6 8117   0.073   0.096  17.445 -0.1640  0.2051 -0.0421
  547TMC3     C 8118   0.446   0.294  17.431 -0.1191  0.0428  0.1041
  547TMC3     O 8119   0.510   0.299  17.535 -0.1803 -0.0805 -0.1455
  547TMC3     H 8120   0.235   0.354  17.299  1.1707 -1.0878 -2.5842
  547TMC3    H1 8121   0.381   0.113  17.594  0.5778 -0.3943 -0.8352
  547TMC3    H2 8122   4.710   0.029  17.448 -0.2682  0.2491 -2.3579
  547TMC3    C7 8123   0.150   4.697  17.643 -0.0182  0.0021  0.4607
  547TMC3    C8 8124   4.707   0.241  17.275 -0.6766  0.0287 -0.2545
  547TMC3    O1 8125   0.059   0.032   0.013  0.2670 -0.3971 -0.1485
  547TMC3    O2 8126   0.017   0.258  17.158 -0.6122  0.0318 -0.2168
  548MPD2     C 8127   0.234   1.377  11.772  0.1386  0.5857  0.1092
  548MPD2    C1 8128   0.263   1.328  11.901 -0.2247 -0.0253 -0.3447
  548MPD2    C2 8129   0.381   1.269  11.930 -0.4548  0.5923  1.0518
  548MPD2    C3 8130   0.475   1.251  11.830 -0.7310  0.5386 -0.9400
  548MPD2    C4 8131   0.448   1.298  11.703 -0.4307  0.2108 -0.0039
  548MPD2    C5 8132   0.327   1.360  11.673 -0.0107  0.0918 -0.2794
  548MPD2     H 8133   0.412   1.261  12.033  0.2455 -1.1883  0.6937
  548MPD2    H1 8134   0.525   1.293  11.627  0.5437  0.5838  0.9589
  548MPD2    H2 8135   0.149   1.438  11.744 -0.1278 -1.1271 -2.7772
  548MPD2    H3 8136   0.304   1.391  11.571  1.3250  0.5555 -0.4376
  548MPD2     N 8137   0.601   1.193  11.865 -0.2281  0.3105 -0.2349
  548MPD2    H5 8138   0.626   1.186  11.963 -1.2650 -0.1297  0.0027
  548MPD2    N1 8139   0.171   1.372  12.000  0.8352 -0.2413  0.4861
  548MPD2    H7 8140   0.102   1.443  11.977  0.9598 -0.5841 -0.9432
  549TMC3    C1 8141   0.073   1.366  12.213 -0.3537 -0.3785  0.7099
  549TMC3    C2 8142   4.704   1.451  12.163  0.4672  0.7816  0.5426
  549TMC3    C3 8143   4.619   1.500  12.259  0.4847 -0.4760  0.4009
  549TMC3    C4 8144   0.089   1.337  12.350 -0.5772  0.3055 -0.5199
  549TMC3    C5 8145   4.720   1.389  12.438  0.2188  0.9239 -0.5106
  549TMC3    C6 8146   4.623   1.476  12.394 -0.1917  0.1658 -0.0293
  549TMC3     C 8147   0.168   1.314  12.123 -0.2045 -0.4724 -0.2591
  549TMC3     O 8148   0.231   1.220  12.169 -0.7229 -0.6514 -0.3984
  549TMC3     H 8149   4.689   1.483  12.061  0.3469 -1.6479 -0.2044
  549TMC3    H1 8150   0.167   1.270  12.383 -0.8637  0.6933  0.9381
  549TMC3    H2 8151   4.545   1.509  12.462 -0.7018  0.2940 -0.6717
  549TMC3    C7 8152   4.692   1.307  12.555  0.1305 -0.6278  0.2010
  549TMC3    C8 8153   4.506   1.579  12.218 -0.4929 -0.5055 -0.4217
  549TMC3    O1 8154   4.601   1.350  12.620 -0.4332  0.3814  0.1359
  549TMC3    O2 8155   4.461   1.571  12.104 -0.7894 -0.0736  0.8898
  550TMC3    C1 8156   3.253   4.335  12.335 -0.4339 -0.3752  0.3521
  550TMC3    C2 8157   3.126   4.360  12.390  0.3076  0.3109  0.4377
  550TMC3    C3 8158   3.023   4.380  12.298 -0.7800  0.0905 -0.0973
  550TMC3    C4 8159   3.269   4.336  12.200  0.2442 -0.0157  0.9983
  550TMC3    C5 8160   3.163   4.377  12.122  0.1600  0.4105 -0.6068
  550TMC3    C6 8161   3.039   4.403  12.166  0.7252  0.3614  0.1475
  550TMC3     C 8162   3.363   4.305  12.429  0.3363  0.0252  0.2142
  550TMC3     O 8163   3.351   4.341  12.546 -0.1927 -0.5755 -0.5383
  550TMC3     H 8164   3.116   4.365  12.497  2.6516 -2.3991  0.7790
  550TMC3    H1 8165   3.357   4.302  12.146  0.2335 -0.6060  1.3515
  550TMC3    H2 8166   2.953   4.411  12.100  0.4402  0.5831  0.5496
  550TMC3    C7 8167   3.161   4.297  11.999  0.0965  0.4042  1.2616
  550TMC3    C8 8168   2.883   4.346  12.335 -0.5106 -0.2952 -0.7573
  550TMC3    O1 8169   3.174   4.174  12.011 -0.3091 -0.1757 -0.2019
  550TMC3    O2 8170   2.791   4.357  12.257  0.4962 -0.1594  0.2689
  551TMC3    C1 8171   1.135   1.596  13.200 -0.3851 -0.3257 -0.6160
  551TMC3    C2 8172   1.213   1.605  13.091  0.4248 -0.1980  0.1295
  551TMC3    C3 8173   1.292   1.714  13.086  0.0456  0.6657  0.0720
  551TMC3    C4 8174   1.152   1.663  13.317 -0.7439 -0.1545  0.0347
  551TMC3    C5 8175   1.244   1.772  13.305  0.4614  0.2284 -0.4416
  551TMC3    C6 8176   1.319   1.795  13.191  0.3055  0.8515 -0.4229
  551TMC3     C 8177   1.027   1.497  13.194  0.1538 -0.1191 -0.3611
  551TMC3     O 8178   0.971   1.489  13.305 -0.3434 -0.0731  0.1280
  551TMC3     H 8179   1.202   1.532  13.011  0.2178  0.0107 -0.0310
  551TMC3    H1 8180   1.095   1.653  13.408  0.5300  1.7098  1.0503
  551TMC3    H2 8181   1.406   1.860  13.187 -0.2657  1.5725 -1.1484
  551TMC3    C7 8182   1.290   1.824  13.430 -0.6183 -0.5106 -0.1675
  551TMC3    C8 8183   1.351   1.746  12.966 -0.2732 -0.7791 -0.0079
  551TMC3    O1 8184   1.250   1.763  13.527  0.6777  0.3579 -0.0359
  551TMC3    O2 8185   1.346   1.654  12.881 -0.9671  0.0419  0.2493
  552MPD2     C 8186   3.172   3.975  13.658  0.2876 -0.3242  0.3820
  552MPD2    C1 8187   3.198   3.839  13.639 -0.1561  0.2128  0.8472
  552MPD2    C2 8188   3.282   3.773  13.728 -0.0267  0.5535 -0.9083
  552MPD2    C3 8189   3.320   3.837  13.846 -0.1734 -0.2630 -0.4800
  552MPD2    C4 8190   3.285   3.968  13.871 -0.2018 -0.0174 -0.3586
  552MPD2    C5 8191   3.207   4.032  13.778  0.3685 -0.3700 -0.1281
  552MPD2     H 8192   3.317   3.672  13.711 -0.5389  0.5735 -2.1058
  552MPD2    H1 8193   3.311   4.016  13.965  0.0735  2.7426 -1.8609
  552MPD2    H2 8194   3.127   4.036  13.579  0.3266 -1.2030 -0.3184
  552MPD2    H3 8195   3.186   4.137  13.795 -1.5867 -0.7624 -0.0921
  552MPD2     N 8196   3.415   3.787  13.942  0.3837  0.0616  0.1677
  552MPD2    H5 8197   3.454   3.842  14.018 -0.4200 -1.3220  1.5889
  552MPD2    N1 8198   3.160   3.772  13.521 -0.2536  0.1541  0.2746
  552MPD2    H7 8199   3.183   3.673  13.521  0.0007  0.2127 -1.2472
  553TMC3    C1 8200   3.045   3.733  13.322  0.0382  0.5894 -0.5866
  553TMC3    C2 8201   3.029   3.788  13.197 -0.1558  0.3576 -0.7316
  553TMC3    C3 8202   3.029   3.705  13.092 -0.0369 -0.4416 -0.2988
  553TMC3    C4 8203   3.042   3.603  13.342 -0.2937  0.3231 -0.5072
  553TMC3    C5 8204   3.037   3.523  13.234  0.6093  0.5437 -0.4890
  553TMC3    C6 8205   3.017   3.568  13.103  0.2612 -0.3754 -0.4872
  553TMC3     C 8206   3.084   3.831  13.425 -0.4794 -0.0744 -0.6169
  553TMC3     O 8207   3.036   3.942  13.418 -0.3451 -0.3774 -0.1683
  553TMC3     H 8208   3.044   3.889  13.163  2.5461 -0.0240 -0.6790
  553TMC3    H1 8209   3.053   3.548  13.435 -0.2803 -0.1064 -0.7621
  553TMC3    H2 8210   2.994   3.501  13.021  1.1693 -1.6085  0.2592
  553TMC3    C7 8211   3.089   3.391  13.247 -0.6222 -0.6119  0.5990
  553TMC3    C8 8212   3.153   3.728  13.027 -0.8217 -0.0302 -0.0796
  553TMC3    O1 8213   3.040   3.314  13.166 -0.0866  0.3940 -0.6728
  553TMC3    O2 8214   3.240   3.799  13.079  0.2567 -0.5848 -0.0197
  554TMC3    C1 8215   4.465   2.605  11.824 -0.2265  0.0789 -0.1499
  554TMC3    C2 8216   4.339   2.587  11.772  0.4820 -0.3182 -0.4360
  554TMC3    C3 8217   4.332   2.590  11.634  0.1855  0.0635 -0.5522
  554TMC3    C4 8218   4.574   2.641  11.757  0.1874  0.5980 -0.2819
  554TMC3    C5 8219   4.559   2.660  11.619 -0.3993 -0.6477  0.4463
  554TMC3    C6 8220   4.437   2.626  11.560  0.4894  0.0946 -0.0927
  554TMC3     C 8221   4.481   2.614  11.969  0.5001 -0.9160 -0.0742
  554TMC3     O 8222   4.385   2.660  12.032  0.4490  0.2270  0.2888
  554TMC3     H 8223   4.259   2.529  11.818  0.4138 -0.4955 -0.7821
  554TMC3    H1 8224   4.668   2.660  11.809  0.3148  0.3445 -0.4164
  554TMC3    H2 8225   4.427   2.616  11.452  0.9297  0.1996 -0.1434
  554TMC3    C7 8226   4.638   2.752  11.539 -0.8919 -0.2658 -0.0716
  554TMC3    C8 8227   4.201   2.585  11.577  0.2199  0.2698 -0.5240
  554TMC3    O1 8228   4.605   2.764  11.424  0.2329  0.1059  0.3528
  554TMC3    O2 8229   4.106   2.607  11.651 -0.7571 -0.3392 -0.1347
  555TMC3    C1 8230   4.262   1.810  14.884 -0.2677 -0.9492 -0.6042
  555TMC3    C2 8231   4.363   1.856  14.960 -0.2629 -0.8157 -0.0325
  555TMC3    C3 8232   4.392   1.786  15.070 -0.1788 -0.0733 -1.3619
  555TMC3    C4 8233   4.189   1.697  14.909 -0.5513 -0.0244  0.0695
  555TMC3    C5 8234   4.211   1.647  15.035  0.2981 -0.2179 -0.2196
  555TMC3    C6 8235   4.321   1.678  15.116 -0.0791 -0.2473 -0.3910
  555TMC3     C 8236   4.261   1.865  14.748  0.0068  0.7309 -0.0829
  555TMC3     O 8237   4.241   1.779  14.658 -0.0677  0.4884 -0.3483
  555TMC3     H 8238   4.421   1.941  14.928  1.7733 -1.6110  1.5227
  555TMC3    H1 8239   4.116   1.659  14.839 -0.9618  0.2907  0.3268
  555TMC3    H2 8240   4.323   1.640  15.218 -0.1915  1.4168  0.2384
  555TMC3    C7 8241   4.113   1.547  15.076  0.6123  0.1383  0.8230
  555TMC3    C8 8242   4.530   1.800  15.133 -0.2721 -0.2856 -0.0680
  555TMC3    O1 8243   4.063   1.564  15.185 -0.3905  0.6327  0.2127
  555TMC3    O2 8244   4.616   1.844  15.062 -0.4407 -0.2938 -0.3527
  556MPD2     C 8245   2.340   3.801  10.468  0.2555  0.2046  0.5645
  556MPD2    C1 8246   2.262   3.724  10.551 -0.6300 -0.3138  0.9053
  556MPD2    C2 8247   2.183   3.622  10.494  0.2523  0.1028  0.0350
  556MPD2    C3 8248   2.176   3.594  10.363 -0.1653  0.3524 -0.3001
  556MPD2    C4 8249   2.268   3.663  10.279  0.2767 -0.1129 -0.4027
  556MPD2    C5 8250   2.336   3.770  10.336 -0.3731  0.3834  0.4138
  556MPD2     H 8251   2.119   3.551  10.545  1.1823 -0.9760 -0.3040
  556MPD2    H1 8252   2.283   3.643  10.173 -1.6949 -2.5661 -0.2263
  556MPD2    H2 8253   2.401   3.884  10.500 -0.4926  0.7697  0.5225
  556MPD2    H3 8254   2.394   3.833  10.270  0.1993 -0.7456 -0.1636
  556MPD2     N 8255   2.095   3.486  10.320  0.0225  0.8209  0.4610
  556MPD2    H5 8256   2.049   3.427  10.388 -0.7047  1.5404  0.5962
  556MPD2    N1 8257   2.247   3.749  10.689  0.1098 -0.4737  0.0458
  556MPD2    H7 8258   2.167   3.701  10.729  0.8016 -0.1654  1.7893
  557TMC3    C1 8259   2.008   3.343  10.156  0.3044  1.1391  0.7766
  557TMC3    C2 8260   1.979   3.330  10.021  0.2306 -0.7882  0.5334
  557TMC3    C3 8261   1.971   3.206   9.954  0.6686  0.4228 -0.5666
  557TMC3    C4 8262   2.031   3.233  10.227  0.4007  0.2530 -0.2148
  557TMC3    C5 8263   1.989   3.113  10.175 -0.2740 -0.6429 -0.0724
  557TMC3    C6 8264   1.962   3.094  10.039 -0.0771 -0.6187 -0.5030
  557TMC3     C 8265   2.078   3.465  10.188 -0.0400 -0.0470  0.1717
  557TMC3     O 8266   2.116   3.528  10.089 -0.3070 -0.2853 -0.0034
  557TMC3     H 8267   1.973   3.423   9.966 -0.7744 -0.6399  0.9031
  557TMC3    H1 8268   2.053   3.243  10.333  1.6156 -0.1772 -0.4303
  557TMC3    H2 8269   1.967   2.995   9.995 -1.2863 -1.1100  0.4783
  557TMC3    C7 8270   1.899   3.046  10.266 -0.7478 -0.3243 -0.0447
  557TMC3    C8 8271   2.068   3.200   9.847 -0.4953  0.4238 -0.4742
  557TMC3    O1 8272   1.878   3.113  10.369 -0.0660 -0.2103  0.0897
  557TMC3    O2 8273   2.145   3.290   9.835 -0.3898 -0.2790  0.3087
  558TMC3    C1 8274   3.991   1.906  10.012  1.2709 -0.5919 -0.0422
  558TMC3    C2 8275   3.897   1.893  10.107 -1.0172  0.4841  0.6491
  558TMC3    C3 8276   3.770   1.890  10.058  0.2062  0.2790  0.7107
  558TMC3    C4 8277   3.963   1.914   9.877 -0.0882  0.2841 -0.8549
  558TMC3    C5 8278   3.833   1.908   9.830 -0.2232 -0.2832  0.2100
  558TMC3    C6 8279   3.734   1.889   9.924  0.4494  1.4261 -0.3791
  558TMC3     C 8280   4.137   1.903  10.043  0.0364  0.0073  0.4540
  558TMC3     O 8281   4.226   1.924   9.957  0.0926 -0.5419 -0.5742
  558TMC3     H 8282   3.923   1.878  10.211  0.2437 -0.3939  0.2110
  558TMC3    H1 8283   4.050   1.912   9.812 -0.6562  1.7351 -1.6575
  558TMC3    H2 8284   3.632   1.881   9.888  0.4432  0.1895 -0.0745
  558TMC3    C7 8285   3.823   1.904   9.684 -1.3799  0.6172 -0.5121
  558TMC3    C8 8286   3.666   1.827  10.138 -0.0852  0.0623  0.2095
  558TMC3    O1 8287   3.908   1.967   9.619 -0.7075  0.1979 -0.3760
  558TMC3    O2 8288   3.560   1.885  10.153  0.2251  0.1831 -0.1743
  559MPD2     C 8289   4.187   2.209  10.538  1.4322 -0.7082 -0.2551
  559MPD2    C1 8290   4.153   2.169  10.669  0.1890  0.7789  0.3767
  559MPD2    C2 8291   4.255   2.146  10.757 -0.6826 -0.2882  0.0946
  559MPD2    C3 8292   4.388   2.174  10.736  0.1298  0.0518  0.8658
  559MPD2    C4 8293   4.420   2.224  10.608  0.5753  0.5563 -0.6407
  559MPD2    C5 8294   4.317   2.228  10.511  0.0232  0.5510 -0.6233
  559MPD2     H 8295   4.236   2.092  10.849  0.0276 -2.6739 -1.1575
  559MPD2    H1 8296   4.521   2.249  10.580  0.9739  0.4919  0.7630
  559MPD2    H2 8297   4.120   2.220  10.453  0.9807  0.4925  0.2560
  559MPD2    H3 8298   4.345   2.262  10.412 -0.6561 -0.8969 -1.3047
  559MPD2     N 8299   4.482   2.140  10.834  0.1273 -0.2293 -0.1637
  559MPD2    H5 8300   4.445   2.095  10.918 -1.7400 -1.2219 -1.5096
  559MPD2    N1 8301   4.017   2.152  10.702  0.5460  0.3113  0.1419
  559MPD2    H7 8302   3.949   2.151  10.627  0.6892  1.2084  0.0039
  560TMC3    C1 8303   4.676   2.079  10.931 -0.1587  0.6775  0.0725
  560TMC3    C2 8304   4.611   1.973  10.995  0.1564  0.0295 -0.2382
  560TMC3    C3 8305   4.677   1.898  11.081  0.7720  0.1106 -0.1268
  560TMC3    C4 8306   0.074   2.118  10.978 -0.5163 -0.7551 -0.4363
  560TMC3    C5 8307   0.145   2.036  11.067 -0.0106 -0.3856 -0.1345
  560TMC3    C6 8308   0.079   1.925  11.113 -0.5643  0.7234 -0.2366
  560TMC3     C 8309   4.614   2.152  10.822 -0.5393  0.0424  0.2540
  560TMC3     O 8310   4.683   2.201  10.731 -0.2420  0.1222 -0.0152
  560TMC3     H 8311   4.525   1.926  10.951  0.7366  1.2250 -2.6462
  560TMC3    H1 8312   0.107   2.214  10.938  0.4189 -0.0263  2.1101
  560TMC3    H2 8313   0.116   1.864  11.195  1.1058  0.3410 -1.2639
  560TMC3    C7 8314   0.246   2.089  11.155 -0.0874  0.5532  1.0119
  560TMC3    C8 8315   4.622   1.766  11.094 -0.0600 -0.3714 -0.5260
  560TMC3    O1 8316   0.269   2.023  11.256  0.5311 -0.1183  0.3464
  560TMC3    O2 8317   4.499   1.752  11.087  0.1380  0.4463 -0.9457
  561TMC3    C1 8318   2.366   1.009  11.486 -0.0604 -0.2761  0.1893
  561TMC3    C2 8319   2.336   0.961  11.605 -0.3337  0.4029  0.3588
  561TMC3    C3 8320   2.335   1.054  11.708 -0.7369  0.1969  0.3414
  561TMC3    C4 8321   2.386   1.146  11.466  0.3804 -0.3947  0.5115
  561TMC3    C5 8322   2.388   1.227  11.577  0.2415  0.0581  0.0400
  561TMC3    C6 8323   2.350   1.189  11.699 -0.0823 -0.3328  0.3021
  561TMC3     C 8324   2.373   0.916  11.373 -0.4420  0.1880 -0.3679
  561TMC3     O 8325   2.391   0.801  11.409 -0.2401  0.1921  0.4776
  561TMC3     H 8326   2.320   0.858  11.633 -1.5218 -0.4345 -3.4343
  561TMC3    H1 8327   2.401   1.183  11.365  0.5885 -0.6025  0.4651
  561TMC3    H2 8328   2.363   1.259  11.782  2.2228  0.9685 -1.1487
  561TMC3    C7 8329   2.340   1.360  11.548  0.1447 -0.5878  0.0491
  561TMC3    C8 8330   2.276   1.007  11.828 -1.1680 -0.8568  0.0915
  561TMC3    O1 8331   2.261   1.413  11.628 -0.2648 -0.0978  0.1968
  561TMC3    O2 8332   2.290   0.888  11.859  0.3022 -0.1891 -0.3161
  562TMC3    C1 8333   3.760   2.389  15.864  0.5943  0.8284  0.1534
  562TMC3    C2 8334   3.700   2.507  15.832 -0.4258 -0.2944  0.1117
  562TMC3    C3 8335   3.681   2.531  15.697 -0.1109 -0.5220 -0.1503
  562TMC3    C4 8336   3.806   2.300  15.778 -0.1210  0.3532  0.0057
  562TMC3    C5 8337   3.783   2.320  15.647 -0.0766 -0.1917 -0.2898
  562TMC3    C6 8338   3.718   2.433  15.604 -0.4263  0.3950 -0.1404
  562TMC3     C 8339   3.796   2.358  16.003 -0.6333  0.1742  0.0502
  562TMC3     O 8340   3.876   2.266  16.027 -0.2836 -0.2666  0.3429
  562TMC3     H 8341   3.674   2.579  15.909  0.0817  1.2198 -1.1570
  562TMC3    H1 8342   3.866   2.215  15.808 -0.4028  0.8827  2.0708
  562TMC3    H2 8343   3.711   2.456  15.498  0.9229 -2.1608 -0.7715
  562TMC3    C7 8344   3.867   2.263  15.547  0.1570 -0.6136  0.2238
  562TMC3    C8 8345   3.586   2.639  15.674  0.0497 -0.7058 -0.1592
  562TMC3    O1 8346   3.881   2.323  15.445  0.2172  0.0915 -0.2118
  562TMC3    O2 8347   3.528   2.685  15.767 -0.3622  0.0977  0.4795
  563MPD2     C 8348   1.290   3.704  15.776  0.1437  0.2126  0.3189
  563MPD2    C1 8349   1.292   3.724  15.916  0.4949  0.6205  0.1848
  563MPD2    C2 8350   1.409   3.753  15.982 -0.1318  0.3515 -0.0285
  563MPD2    C3 8351   1.525   3.777  15.912  0.6033 -0.1799  0.2031
  563MPD2    C4 8352   1.520   3.774  15.770 -0.7024  0.1682 -0.7398
  563MPD2    C5 8353   1.407   3.730  15.709  0.2314  0.2882 -0.0117
  563MPD2     H 8354   1.411   3.752  16.091 -0.6721  0.1522 -0.0182
  563MPD2    H1 8355   1.608   3.794  15.711 -0.2826  0.4316 -0.0240
  563MPD2    H2 8356   1.195   3.697  15.725  1.1287 -2.1013 -1.1674
  563MPD2    H3 8357   1.403   3.712  15.602  1.2003 -0.3463  0.0559
  563MPD2     N 8358   1.638   3.802  15.990 -0.4514 -1.0335  0.3063
  563MPD2    H5 8359   1.634   3.812  16.090 -1.5424  0.9777  0.0573
  563MPD2    N1 8360   1.168   3.692  15.989 -0.4555 -0.0275 -0.2736
  563MPD2    H7 8361   1.110   3.628  15.937  1.0335 -1.6299  0.0236
  564TMC3    C1 8362   1.013   3.693  16.168  0.9102 -0.1479  0.3574
  564TMC3    C2 8363   0.919   3.632  16.085  0.3415 -0.0634  0.4868
  564TMC3    C3 8364   0.820   3.558  16.145  0.2158 -0.0860 -0.0491
  564TMC3    C4 8365   1.031   3.654  16.296 -0.4614 -0.1509 -0.2687
  564TMC3    C5 8366   0.934   3.575  16.353  0.3327 -0.1015 -0.5268
  564TMC3    C6 8367   0.830   3.527  16.277  0.5230  0.7595  0.0228
  564TMC3     C 8368   1.140   3.737  16.110  0.0522 -0.4236  0.2002
  564TMC3     O 8369   1.191   3.829  16.170 -0.0399  0.1000 -0.0424
  564TMC3     H 8370   0.924   3.652  15.978 -0.5623 -0.5224  0.3577
  564TMC3    H1 8371   1.123   3.692  16.340 -1.2450  0.2201  1.0303
  564TMC3    H2 8372   0.758   3.461  16.324  1.5220  0.0486  0.5596
  564TMC3    C7 8373   1.004   3.482  16.441 -0.3691 -0.5441 -0.1582
  564TMC3    C8 8374   0.741   3.457  16.072 -0.1209  0.2720 -0.2072
  564TMC3    O1 8375   1.108   3.522  16.495 -0.1008  0.0397  0.4474
  564TMC3    O2 8376   0.669   3.382  16.139 -0.3793 -0.3478 -0.0947
  565TMC3    C1 8377   1.938   0.951  10.190  0.2495  0.1280  0.0802
  565TMC3    C2 8378   1.896   0.904  10.312  0.7584 -0.4072  0.4971
  565TMC3    C3 8379   1.801   0.809  10.316 -0.1404 -0.3723 -0.2163
  565TMC3    C4 8380   1.869   0.916  10.074  0.1185 -0.5087 -0.5898
  565TMC3    C5 8381   1.771   0.819  10.088  0.3362  0.3146  0.5708
  565TMC3    C6 8382   1.730   0.765  10.209 -0.0208 -0.8272  0.8346
  565TMC3     C 8383   2.014   1.070  10.194 -0.0947  0.4173 -0.0027
  565TMC3     O 8384   2.056   1.106  10.085 -0.0708 -0.0683 -0.0983
  565TMC3     H 8385   1.949   0.920  10.405  1.0247 -0.3001  0.3283
  565TMC3    H1 8386   1.907   0.941   9.976  0.0921  1.0667 -0.1891
  565TMC3    H2 8387   1.662   0.681  10.212 -0.2097 -0.6769  0.7573
  565TMC3    C7 8388   1.688   0.785   9.973 -0.3274  0.5690  0.1337
  565TMC3    C8 8389   1.783   0.744  10.450  0.1446 -0.5885  0.0652
  565TMC3    O1 8390   1.570   0.771   9.995  0.2324 -0.1641  0.2401
  565TMC3    O2 8391   1.789   0.818  10.548 -0.1427 -0.4397 -0.3672
  566MPD2     C 8392   3.239   2.234  14.329  0.5653  0.1138 -0.1362
  566MPD2    C1 8393   3.333   2.137  14.317  0.1481 -0.3654 -0.2404
  566MPD2    C2 8394   3.298   2.020  14.254 -0.4416 -0.3019 -0.0067
  566MPD2    C3 8395   3.165   1.994  14.213  0.3207  0.3557 -0.1661
  566MPD2    C4 8396   3.068   2.084  14.243  0.3172 -0.4446  0.1436
  566MPD2    C5 8397   3.111   2.199  14.303 -0.6174 -0.6151 -0.2744
  566MPD2     H 8398   3.376   1.946  14.240  0.5530  0.7269  0.1222
  566MPD2    H1 8399   2.963   2.062  14.224  0.4306  0.6583 -1.8417
  566MPD2    H2 8400   3.258   2.331  14.372  0.9642  0.2555 -0.6343
  566MPD2    H3 8401   3.039   2.279  14.315  0.2381  0.0051  0.8520
  566MPD2     N 8402   3.127   1.888  14.127 -0.4536 -0.1320 -0.6281
  566MPD2    H5 8403   3.034   1.883  14.086  0.1008 -0.7967 -1.7907
  566MPD2    N1 8404   3.466   2.148  14.347  0.0892 -0.5600  0.0065
  566MPD2    H7 8405   3.528   2.076  14.312  0.2166 -0.3824 -0.1356
  567TMC3    C1 8406   3.659   2.280  14.381 -0.6709  0.6641  0.0397
  567TMC3    C2 8407   3.679   2.284  14.251 -0.3141 -0.4275 -0.5855
  567TMC3    C3 8408   3.790   2.227  14.204 -0.6181  0.0904  0.2781
  567TMC3    C4 8409   3.742   2.216  14.467 -0.8889  0.4985 -0.5449
  567TMC3    C5 8410   3.853   2.154  14.417 -0.1039 -0.5807  0.4648
  567TMC3    C6 8411   3.880   2.163  14.285 -0.2947  0.7838  0.0290
  567TMC3     C 8412   3.523   2.251  14.414  0.2527 -0.2254 -0.6805
  567TMC3     O 8413   3.471   2.333  14.491 -0.2790  0.0217 -0.1176
  567TMC3     H 8414   3.599   2.314  14.184 -0.9243  2.1900  1.3435
  567TMC3    H1 8415   3.709   2.201  14.569 -0.6254  0.7311 -0.4252
  567TMC3    H2 8416   3.976   2.127  14.253 -0.9766 -2.0694  1.2496
  567TMC3    C7 8417   3.893   2.024  14.468 -0.1795  0.6454 -0.1510
  567TMC3    C8 8418   3.779   2.178  14.071 -0.0070 -0.0023  0.0756
  567TMC3    O1 8419   3.910   1.940  14.378 -0.2885  0.5916 -0.1687
  567TMC3    O2 8420   3.711   2.237  13.990 -0.3804 -0.0490  0.7616
  568MPD2     C 8421   0.864   2.063  16.436 -0.2039 -0.3725  0.3287
  568MPD2    C1 8422   0.832   2.177  16.513 -0.5043  0.0797  0.0974
  568MPD2    C2 8423   0.773   2.283  16.451 -0.2184  0.1053 -0.5088
  568MPD2    C3 8424   0.752   2.284  16.314 -0.2411 -0.4013  0.3572
  568MPD2    C4 8425   0.803   2.180  16.231 -0.0894 -1.1182 -0.4239
  568MPD2    C5 8426   0.850   2.063  16.296 -0.4755  0.5596  1.0457
  568MPD2     H 8427   0.740   2.373  16.502  2.1775  0.0443  1.1327
  568MPD2    H1 8428   0.777   2.189  16.126  0.9055  1.2540 -0.4533
  568MPD2    H2 8429   0.922   1.984  16.483 -0.2098 -0.7287 -0.2679
  568MPD2    H3 8430   0.880   1.983  16.231  1.4817  1.1831  1.1960
  568MPD2     N 8431   0.695   2.403  16.265  0.7616 -0.2060  0.6654
  568MPD2    H5 8432   0.666   2.477  16.328  1.0918  0.3269  0.1881
  568MPD2    N1 8433   0.874   2.170  16.645  0.1745 -0.5113 -0.4213
  568MPD2    H7 8434   0.904   2.078  16.674  2.2616 -0.0187 -0.9962
  569TMC3    C1 8435   0.607   2.555  16.109  0.7015 -0.3399 -0.3577
  569TMC3    C2 8436   0.524   2.609  16.202 -0.1306  0.6574  0.5363
  569TMC3    C3 8437   0.495   2.738  16.192 -0.3537 -0.5570 -0.4090
  569TMC3    C4 8438   0.664   2.631  16.009  0.9782 -0.1612 -0.1761
  569TMC3    C5 8439   0.645   2.765  16.009 -0.1623 -0.3181 -0.0174
  569TMC3    C6 8440   0.551   2.818  16.093  0.0612 -0.0358  0.3247
  569TMC3     C 8441   0.682   2.431  16.133  0.4729 -0.3737  0.3045
  569TMC3     O 8442   0.735   2.383  16.034 -0.2773 -0.2657 -0.6687
  569TMC3     H 8443   0.492   2.542  16.281  1.7737 -0.6576  0.1932
  569TMC3    H1 8444   0.721   2.583  15.930  2.1003  0.5098  0.2348
  569TMC3    H2 8445   0.521   2.923  16.092  1.6591  0.3928 -1.3720
  569TMC3    C7 8446   0.700   2.839  15.898 -0.9629  0.1936 -0.1518
  569TMC3    C8 8447   0.461   2.804  16.315 -0.6564 -0.2595  0.8291
  569TMC3    O1 8448   0.732   2.789  15.795  0.3283 -0.2303  0.5644
  569TMC3    O2 8449   0.359   2.761  16.362  0.2421  0.6973  0.4886
  570TMC3    C1 8450   0.677   1.331  16.206  0.1264 -0.5088  0.3580
  570TMC3    C2 8451   0.781   1.361  16.128  0.3825 -0.4093 -0.3166
  570TMC3    C3 8452   0.792   1.497  16.092  0.2605  0.3958 -0.1189
  570TMC3    C4 8453   0.590   1.426  16.261 -0.2477  0.0333 -0.0807
  570TMC3    C5 8454   0.605   1.552  16.215 -0.4659 -0.2816  0.3881
  570TMC3    C6 8455   0.707   1.594  16.134  1.1890 -0.7837  0.5008
  570TMC3     C 8456   0.668   1.196  16.252  1.2552  0.1124  0.7862
  570TMC3     O 8457   0.734   1.116  16.184  0.3358 -0.1694  0.6996
  570TMC3     H 8458   0.842   1.284  16.082 -0.8215 -0.2369 -2.1872
  570TMC3    H1 8459   0.515   1.392  16.331 -0.4866 -0.5428 -0.6143
  570TMC3    H2 8460   0.736   1.694  16.104  0.0147 -0.6973 -0.3537
  570TMC3    C7 8461   0.538   1.653  16.298 -0.4121  0.4586 -0.5782
  570TMC3    C8 8462   0.906   1.540  16.015  0.4290 -0.0106 -0.1605
  570TMC3    O1 8463   0.487   1.620  16.400 -0.4795  0.1508  0.1342
  570TMC3    O2 8464   0.906   1.649  15.959  0.1169 -0.1628  0.2136
  571MPD2     C 8465   2.617   2.910   0.567  0.1407  0.4719  0.7588
  571MPD2    C1 8466   2.645   2.935   0.438  0.4222 -0.4425  0.0216
  571MPD2    C2 8467   2.740   3.032   0.413 -0.5099  0.1442 -0.8378
  571MPD2    C3 8468   2.819   3.093   0.511 -0.1078 -0.0438  0.7834
  571MPD2    C4 8469   2.795   3.062   0.642 -0.3086 -0.2191 -0.1206
  571MPD2    C5 8470   2.692   2.971   0.662  0.4961 -0.1089  0.5614
  571MPD2     H 8471   2.760   3.064   0.312 -0.7849  0.8226 -0.6742
  571MPD2    H1 8472   2.854   3.116   0.715 -1.1695 -2.4330  2.1973
  571MPD2    H2 8473   2.534   2.847   0.595  1.3753 -0.2887  2.7616
  571MPD2    H3 8474   2.666   2.947   0.765 -1.7374  2.6675  0.6245
  571MPD2     N 8475   2.930   3.177   0.488 -0.3508 -0.4604 -0.5821
  571MPD2    H5 8476   2.985   3.214   0.565  0.8304 -0.4784 -1.4115
  571MPD2    N1 8477   2.558   2.877   0.341  0.0940 -0.5554 -0.6423
  571MPD2    H7 8478   2.505   2.798   0.376 -2.7120  1.2561 -0.7700
  572TMC3    C1 8479   3.108   3.282   0.385 -0.8751 -0.0785 -0.4051
  572TMC3    C2 8480   3.199   3.243   0.479 -0.2884  0.1625 -0.0919
  572TMC3    C3 8481   3.316   3.319   0.482 -0.1153 -0.0798 -0.6142
  572TMC3    C4 8482   3.128   3.376   0.292  0.3898 -0.3241  0.4154
  572TMC3    C5 8483   3.239   3.454   0.300 -0.0175 -0.5784  0.0171
  572TMC3    C6 8484   3.331   3.432   0.395 -0.3570  0.2994 -0.2335
  572TMC3     C 8485   2.982   3.211   0.367 -0.3360 -0.6415 -0.1405
  572TMC3     O 8486   2.928   3.215   0.258 -0.6727 -0.0784 -0.1550
  572TMC3     H 8487   3.177   3.170   0.556 -2.7441 -1.7677 -2.6657
  572TMC3    H1 8488   3.059   3.406   0.214  2.3763  0.1680 -1.1417
  572TMC3    H2 8489   3.422   3.491   0.399 -1.3715  1.5829  3.6789
  572TMC3    C7 8490   3.296   3.509   0.178 -0.0435  0.0812 -0.4916
  572TMC3    C8 8491   3.380   3.321   0.614 -0.4945  0.0835  0.8990
  572TMC3    O1 8492   3.226   3.551   0.085 -0.7688 -0.0010 -0.1366
  572TMC3    O2 8493   3.401   3.426   0.671  0.5159 -0.5384  0.5661
  573MPD2     C 8494   3.940   3.301   0.842 -0.4129 -0.2986  0.3092
  573MPD2    C1 8495   4.067   3.357   0.814  0.2125 -0.3182  0.9382
  573MPD2    C2 8496   4.082   3.417   0.691 -0.5098  0.5225  0.3419
  573MPD2    C3 8497   3.992   3.408   0.589 -0.2436  0.2549  0.5545
  573MPD2    C4 8498   3.874   3.340   0.608 -0.5325 -0.3509  0.8428
  573MPD2    C5 8499   3.850   3.295   0.736  0.0201 -0.5344  0.4069
  573MPD2     H 8500   4.181   3.455   0.666  0.0495 -0.7451  0.6493
  573MPD2    H1 8501   3.800   3.332   0.529  1.3388  2.0035 -1.1284
  573MPD2    H2 8502   3.912   3.266   0.941  1.2808 -0.9119  0.5648
  573MPD2    H3 8503   3.754   3.247   0.754 -0.5490  0.4178 -0.0611
  573MPD2     N 8504   4.004   3.485   0.467 -0.8221  0.4634 -0.2772
  573MPD2    H5 8505   3.927   3.466   0.403  0.2254 -0.6370 -1.2135
  573MPD2    N1 8506   4.150   3.379   0.926  0.6682 -0.6134  0.2576
  573MPD2    H7 8507   4.133   3.324   1.009 -2.5716 -0.8658 -0.5769
  574TMC3    C1 8508   4.098   3.638   0.303  0.1302  0.2952 -0.8139
  574TMC3    C2 8509   3.971   3.668   0.263 -0.1625  0.3999  0.3569
  574TMC3    C3 8510   3.955   3.714   0.136  0.9387 -0.3081 -0.0003
  574TMC3    C4 8511   4.200   3.644   0.213 -0.5872 -0.2939 -0.0270
  574TMC3    C5 8512   4.181   3.685   0.088  0.2327 -0.0740  0.4887
  574TMC3    C6 8513   4.056   3.729   0.052  0.7564  0.0045  0.4793
  574TMC3     C 8514   4.109   3.559   0.428  0.3068 -0.1027 -0.1847
  574TMC3     O 8515   4.219   3.565   0.484 -0.0306 -0.0164  0.0304
  574TMC3     H 8516   3.886   3.667   0.330 -0.0525 -3.4572  0.4357
  574TMC3    H1 8517   4.298   3.619   0.252  0.3768  0.2775 -2.0890
  574TMC3    H2 8518   4.030   3.761  17.642  0.3302 -2.3046 -0.1650
  574TMC3    C7 8519   4.296   3.710   0.002  0.0083 -0.0350  0.3120
  574TMC3    C8 8520   3.831   3.788   0.114 -0.4641 -1.0143 -0.5691
  574TMC3    O1 8521   4.406   3.753   0.048 -0.0950  0.0170 -0.2448
  574TMC3    O2 8522   3.727   3.754   0.172 -0.0238  0.4977  0.2721
  575TMC3    C1 8523   1.637   0.776  11.299 -0.1882  0.6979  1.7956
  575TMC3    C2 8524   1.584   0.670  11.372 -0.0995 -0.1839 -0.3065
  575TMC3    C3 8525   1.535   0.564  11.296  0.2634  0.0857 -0.6570
  575TMC3    C4 8526   1.649   0.776  11.164  0.0179  1.1912 -0.0078
  575TMC3    C5 8527   1.608   0.665  11.101 -0.3367  0.5943  0.1111
  575TMC3    C6 8528   1.547   0.556  11.158 -0.1827  0.5925  0.2657
  575TMC3     C 8529   1.636   0.912  11.354  0.2583  0.3461 -0.5012
  575TMC3     O 8530   1.547   0.925  11.435  0.2490  0.1966  0.0740
  575TMC3     H 8531   1.580   0.674  11.480  1.7062  0.8577 -0.2779
  575TMC3    H1 8532   1.683   0.864  11.111  1.5336  0.7409  0.2346
  575TMC3    H2 8533   1.506   0.468  11.110 -1.1954  0.2148  1.8236
  575TMC3    C7 8534   1.639   0.655  10.964  0.3902 -0.2290 -0.9757
  575TMC3    C8 8535   1.485   0.442  11.363  0.6725  0.1148  0.4632
  575TMC3    O1 8536   1.701   0.751  10.918  0.0371 -0.0526  0.2874
  575TMC3    O2 8537   1.454   0.348  11.293 -0.7977  0.5058 -0.0578
  576MPD2     C 8538   1.138   1.659  12.417  0.0128 -0.5409 -0.5201
  576MPD2    C1 8539   1.237   1.732  12.347 -0.5376  0.6321  0.2833
  576MPD2    C2 8540   1.253   1.864  12.384 -0.5360  0.0123  0.6132
  576MPD2    C3 8541   1.179   1.926  12.490  0.2432  0.2129 -0.4207
  576MPD2    C4 8542   1.094   1.846  12.560  0.1728  0.2753  1.1913
  576MPD2    C5 8543   1.076   1.712  12.527  0.0610 -0.1401  0.3534
  576MPD2     H 8544   1.338   1.915  12.341 -1.1895  0.2716 -0.3695
  576MPD2    H1 8545   1.036   1.887  12.641 -1.8315  0.9581 -0.5867
  576MPD2    H2 8546   1.125   1.552  12.412 -0.7271 -0.5621  1.7986
  576MPD2    H3 8547   1.001   1.662  12.587 -1.8746 -1.0815 -2.8698
  576MPD2     N 8548   1.198   2.064  12.516 -1.2625  0.1350 -0.4758
  576MPD2    H5 8549   1.256   2.114  12.449 -1.3017 -0.6392 -1.0888
  576MPD2    N1 8550   1.321   1.672  12.258  0.1447  0.2097 -0.1394
  576MPD2    H7 8551   1.393   1.733  12.221 -1.0575  2.1502  0.6873
  577TMC3    C1 8552   1.399   1.515  12.116 -0.1468  0.4746  0.0833
  577TMC3    C2 8553   1.523   1.489  12.164  0.3166  0.2737  0.9604
  577TMC3    C3 8554   1.612   1.410  12.093  0.4542  0.7617 -0.2324
  577TMC3    C4 8555   1.358   1.459  11.996  0.2527 -0.9592 -0.7879
  577TMC3    C5 8556   1.442   1.373  11.923 -0.5022 -0.1682  0.3756
  577TMC3    C6 8557   1.570   1.355  11.972 -0.1301 -0.1722  0.2311
  577TMC3     C 8558   1.296   1.547  12.215 -1.0108 -0.7088 -0.2946
  577TMC3     O 8559   1.198   1.477  12.214  0.1969 -0.1530 -0.3519
  577TMC3     H 8560   1.541   1.498  12.270 -0.6324  0.1309  1.1325
  577TMC3    H1 8561   1.251   1.461  11.977  0.2811  2.1635 -0.6002
  577TMC3    H2 8562   1.637   1.287  11.921  0.5860  0.2993  0.5467
  577TMC3    C7 8563   1.419   1.327  11.786  0.1949  0.0068  0.0878
  577TMC3    C8 8564   1.736   1.361  12.155 -0.1657  0.6385  0.2218
  577TMC3    O1 8565   1.497   1.249  11.737  0.1406  0.1411  0.1404
  577TMC3    O2 8566   1.724   1.330  12.274 -0.4256  0.0618 -0.2687
  578MPD2     C 8567   0.125   1.663   1.458  0.6071  0.3290  0.5793
  578MPD2    C1 8568   0.103   1.587   1.348  1.0129 -0.1120 -0.1366
  578MPD2    C2 8569   0.186   1.476   1.335  0.1260  0.0687  0.1384
  578MPD2    C3 8570   0.291   1.448   1.421  0.0476 -0.2357 -0.3088
  578MPD2    C4 8571   0.310   1.524   1.534 -0.4150  1.7185 -0.3139
  578MPD2    C5 8572   0.225   1.629   1.548  0.2746  0.1708 -0.8076
  578MPD2     H 8573   0.170   1.411   1.250  2.7127  0.1799 -0.4105
  578MPD2    H1 8574   0.391   1.513   1.605 -0.4204 -0.6970 -0.6678
  578MPD2    H2 8575   0.069   1.751   1.488  2.3102  1.5341  0.2186
  578MPD2    H3 8576   0.232   1.684   1.641 -0.2402  0.4731 -0.9455
  578MPD2     N 8577   0.376   1.344   1.393 -0.2926  0.9784 -0.1492
  578MPD2    H5 8578   0.341   1.270   1.333  0.2008  1.2058 -0.7310
  578MPD2    N1 8579   4.708   1.610   1.265  0.4136 -0.5891  0.1641
  578MPD2    H7 8580   4.645   1.685   1.292  0.8265  0.3364 -1.4591
  579TMC3    C1 8581   0.586   1.225   1.437 -0.2646 -0.6485  0.5028
  579TMC3    C2 8582   0.723   1.244   1.444 -0.2647 -0.1931 -0.0532
  579TMC3    C3 8583   0.803   1.135   1.424  0.4483  0.2326  0.4327
  579TMC3    C4 8584   0.529   1.107   1.418  0.1525  0.2659 -0.0555
  579TMC3    C5 8585   0.611   0.998   1.412  0.1047 -0.0343  0.3870
  579TMC3    C6 8586   0.750   1.007   1.412 -0.2290 -0.3919 -0.3159
  579TMC3     C 8587   0.506   1.345   1.449  0.0874 -0.6053  0.0898
  579TMC3     O 8588   0.565   1.439   1.505 -0.3797  0.7556  0.1718
  579TMC3     H 8589   0.761   1.341   1.475  2.8330 -1.0053 -1.2991
  579TMC3    H1 8590   0.422   1.090   1.422  0.1958 -0.0004 -0.0305
  579TMC3    H2 8591   0.816   0.921   1.417 -1.5701 -1.5810 -2.7199
  579TMC3    C7 8592   0.552   0.863   1.406  0.3116  0.7674 -0.2320
  579TMC3    C8 8593   0.919   1.149   1.507  0.0940 -0.5144  0.4617
  579TMC3    O1 8594   0.618   0.775   1.455 -0.2663 -0.3022  0.7261
  579TMC3    O2 8595   0.947   1.058   1.581  0.2682  0.1124 -0.0928
  580TMC3    C1 8596   4.043   0.529  11.762  0.2353  0.5386  0.0560
  580TMC3    C2 8597   4.103   0.521  11.638 -0.2502 -0.4845  0.2325
  580TMC3    C3 8598   4.225   0.464  11.628  0.0324 -0.4031  0.5133
  580TMC3    C4 8599   4.111   0.498  11.881  0.2222  0.6098  0.3605
  580TMC3    C5 8600   4.231   0.433  11.861  0.1542 -0.2291 -0.2164
  580TMC3    C6 8601   4.295   0.415  11.739  0.4387  0.5041 -0.4111
  580TMC3     C 8602   3.964   0.646  11.773  0.3286  0.6599  0.5651
  580TMC3     O 8603   3.869   0.640  11.844 -0.1802 -0.6742  0.2168
  580TMC3     H 8604   4.044   0.540  11.549  0.8215 -1.0745 -0.6046
  580TMC3    H1 8605   4.070   0.509  11.981  1.0947  0.3269  0.7453
  580TMC3    H2 8606   4.392   0.367  11.729 -0.3489 -1.3411  0.8215
  580TMC3    C7 8607   4.306   0.406  11.981 -0.4011 -0.7920  0.1849
  580TMC3    C8 8608   4.305   0.523  11.529 -0.2297  0.2614 -0.4341
  580TMC3    O1 8609   4.325   0.498  12.057 -0.4968 -0.5209  1.1230
  580TMC3    O2 8610   4.241   0.550  11.427 -0.5542  0.0647 -0.2092
  581MPD2     C 8611   1.601   0.558  14.923  0.1636 -0.5138  0.1153
  581MPD2    C1 8612   1.501   0.471  14.927  0.0985  0.0807 -0.0644
  581MPD2    C2 8613   1.386   0.496  14.848 -0.3174 -0.1615  0.4624
  581MPD2    C3 8614   1.371   0.607  14.774  0.1155  0.0981  0.2223
  581MPD2    C4 8615   1.469   0.701  14.782  0.7484 -0.0793 -0.2840
  581MPD2    C5 8616   1.584   0.675  14.849 -0.3416 -0.2965  0.1039
  581MPD2     H 8617   1.299   0.432  14.854 -2.5863  2.6803 -2.2421
  581MPD2    H1 8618   1.466   0.791  14.721  1.1963  1.2636  1.6719
  581MPD2    H2 8619   1.689   0.542  14.983  1.1644 -0.6078 -1.3923
  581MPD2    H3 8620   1.664   0.749  14.845 -1.1063  0.5831  1.0526
  581MPD2     N 8621   1.247   0.624  14.709  0.1860 -0.3670  0.9277
  581MPD2    H5 8622   1.173   0.559  14.735  0.1466 -0.7734 -0.2188
  581MPD2    N1 8623   1.516   0.360  15.017 -0.3844 -0.6860  0.3627
  581MPD2    H7 8624   1.605   0.351  15.066 -1.4885 -1.2950  2.2873
  582TMC3    C1 8625   1.454   0.181  15.161  0.1532  1.6991 -1.2546
  582TMC3    C2 8626   1.586   0.180  15.206  0.9352  0.9373  0.8495
  582TMC3    C3 8627   1.610   0.220  15.335 -0.0057  0.7810 -0.1601
  582TMC3    C4 8628   1.352   0.220  15.244 -0.0149 -0.4882 -0.2291
  582TMC3    C5 8629   1.380   0.262  15.371  0.8664  0.2188 -0.1410
  582TMC3    C6 8630   1.505   0.251  15.420  0.5556  0.3030  0.0378
  582TMC3     C 8631   1.418   0.269  15.046  0.0415 -0.7779  0.2692
  582TMC3     O 8632   1.305   0.257  14.991 -0.5254  0.0043 -0.5371
  582TMC3     H 8633   1.668   0.160  15.138  2.2075  1.6358  2.1422
  582TMC3    H1 8634   1.253   0.224  15.202 -0.3745  1.6796  0.8235
  582TMC3    H2 8635   1.520   0.286  15.522 -0.3102 -0.2899  0.3615
  582TMC3    C7 8636   1.295   0.368  15.416  0.3999  0.3312  1.1155
  582TMC3    C8 8637   1.740   0.268  15.381  0.8059  0.0172  0.3082
  582TMC3    O1 8638   1.176   0.366  15.388  0.1521  0.1440 -0.2032
  582TMC3    O2 8639   1.725   0.329  15.483 -0.3212 -0.7046  0.2694
  583MPD2     C 8640   2.270   2.025  16.888  0.7583  0.1233  0.5618
  583MPD2    C1 8641   2.193   2.102  16.807  0.1374  1.0901 -0.0943
  583MPD2    C2 8642   2.113   2.195  16.867  0.2284 -0.3841  0.2820
  583MPD2    C3 8643   2.111   2.204  17.007 -0.2587  0.3905 -0.1398
  583MPD2    C4 8644   2.195   2.123  17.085 -0.2303  0.0609  0.3598
  583MPD2    C5 8645   2.272   2.031  17.024 -0.2714  1.0703  0.6573
  583MPD2     H 8646   2.051   2.259  16.805  0.4201 -2.0551 -1.6566
  583MPD2    H1 8647   2.197   2.119  17.194 -2.6568  1.8978  0.4878
  583MPD2    H2 8648   2.334   1.949  16.845 -1.5406 -2.4117  1.6027
  583MPD2    H3 8649   2.328   1.954  17.076 -0.6326  0.2778 -0.1288
  583MPD2     N 8650   2.006   2.276  17.060  0.3985  0.5403 -0.0855
  583MPD2    H5 8651   1.954   2.325  16.987  0.0963  1.3362  0.6609
  583MPD2    N1 8652   2.201   2.104  16.665 -0.4304 -0.4563  0.2333
  583MPD2    H7 8653   2.145   2.177  16.622  0.1760 -0.5998 -0.8025
  584TMC3    C1 8654   1.898   2.403  17.226 -0.0619 -0.3420  0.7651
  584TMC3    C2 8655   1.877   2.516  17.151 -0.5233 -0.2952 -0.1310
  584TMC3    C3 8656   1.842   2.640  17.208  0.5602  0.3648 -1.1391
  584TMC3    C4 8657   1.868   2.407  17.359 -0.8973 -0.5989  0.4314
  584TMC3    C5 8658   1.832   2.531  17.417  0.3142  0.2795  0.9554
  584TMC3    C6 8659   1.816   2.644  17.342  0.5760  0.0406  0.2827
  584TMC3     C 8660   1.989   2.299  17.197  0.1114  0.6799 -0.7478
  584TMC3     O 8661   2.026   2.216  17.280 -0.1424 -0.3268  0.1428
  584TMC3     H 8662   1.907   2.520  17.047  1.2951  3.3959  0.5261
  584TMC3    H1 8663   1.898   2.325  17.422  0.1448 -1.3943 -1.0945
  584TMC3    H2 8664   1.799   2.742  17.386  1.8347  0.9967 -1.3632
  584TMC3    C7 8665   1.837   2.543  17.559 -0.8216  0.0961 -0.1270
  584TMC3    C8 8666   1.871   2.760  17.135  0.7988  0.3493  0.3533
  584TMC3    O1 8667   1.889   2.452  17.622 -0.5415 -0.0947 -0.2323
  584TMC3    O2 8668   1.835   2.766  17.020 -0.2639  0.8099 -0.0338
  585MPD2     C 8669   1.709   1.449   0.566 -0.5349  0.0879  0.1488
  585MPD2    C1 8670   1.751   1.505   0.447 -0.0046 -0.3194 -0.1680
  585MPD2    C2 8671   1.714   1.449   0.327  0.5659 -0.6630  0.1609
  585MPD2    C3 8672   1.629   1.339   0.316 -0.4055 -0.5776 -0.4053
  585MPD2    C4 8673   1.584   1.285   0.435  0.6919 -0.2098  0.5978
  585MPD2    C5 8674   1.624   1.345   0.557 -0.5344  0.1069  0.2430
  585MPD2     H 8675   1.756   1.486   0.234 -1.2605 -0.3995 -0.5564
  585MPD2    H1 8676   1.510   1.206   0.443  0.6768 -0.2575 -0.0622
  585MPD2    H2 8677   1.741   1.489   0.662  2.4295  1.4297 -1.4213
  585MPD2    H3 8678   1.585   1.300   0.648  4.1718 -1.1898  1.6212
  585MPD2     N 8679   1.598   1.272   0.199  0.5894 -0.2047 -0.4495
  585MPD2    H5 8680   1.529   1.198   0.205  1.4436 -0.8471  1.4397
  585MPD2    N1 8681   1.828   1.622   0.452  0.1615  0.1754  0.4378
  585MPD2    H7 8682   1.835   1.668   0.543 -0.2144 -0.9930  1.0584
  586TMC3    C1 8683   1.623   1.231  17.649 -0.5630  0.7106 -0.5409
  586TMC3    C2 8684   1.715   1.200  17.550  0.3943 -0.8839 -0.0713
  586TMC3    C3 8685   1.668   1.131  17.440 -0.1533 -0.6333  0.0008
  586TMC3    C4 8686   1.492   1.207  17.638 -0.5024 -0.4022  0.1742
  586TMC3    C5 8687   1.458   1.125  17.534 -0.5518 -0.9899 -0.4546
  586TMC3    C6 8688   1.543   1.085  17.436  0.7648  0.1871  0.0042
  586TMC3     C 8689   1.670   1.303   0.075 -0.4399 -0.3387  0.0956
  586TMC3     O 8690   1.779   1.359   0.063 -0.6272 -0.4836  0.8230
  586TMC3     H 8691   1.819   1.230  17.558  0.5836 -1.5526 -0.0425
  586TMC3    H1 8692   1.426   1.229   0.030  0.7651 -1.5399  1.5106
  586TMC3    H2 8693   1.514   1.033  17.345  1.1393 -1.3219  0.7595
  586TMC3    C7 8694   1.339   1.042  17.533 -0.8229 -0.3968  0.0910
  586TMC3    C8 8695   1.776   1.073  17.354  0.2937 -0.3741 -0.4645
  586TMC3    O1 8696   1.323   0.950  17.451  0.4494  0.4637  0.3403
  586TMC3    O2 8697   1.871   1.140  17.311  0.1676 -0.0241 -0.4150
  587TMC3    C1 8698   3.786   4.516  16.790 -0.5273 -0.8698 -0.8788
  587TMC3    C2 8699   3.763   4.569  16.662  0.5554  0.4895 -0.0742
  587TMC3    C3 8700   3.863   4.553  16.568 -0.1446  0.2005 -0.0869
  587TMC3    C4 8701   3.898   4.438  16.818 -0.1863  0.4164  0.1595
  587TMC3    C5 8702   3.992   4.421  16.719 -0.7257 -0.1697  1.0145
  587TMC3    C6 8703   3.979   4.480  16.596  0.2950 -0.6079 -0.1886
  587TMC3     C 8704   3.673   4.486  16.875  0.2317  0.6685 -0.4041
  587TMC3     O 8705   3.679   4.386  16.947 -0.1280  0.3046 -0.4306
  587TMC3     H 8706   3.673   4.627  16.644  0.6197  0.7046  0.3049
  587TMC3    H1 8707   3.911   4.404  16.920  1.0133 -2.0220 -0.8116
  587TMC3    H2 8708   4.052   4.461  16.518  0.5891  0.3585 -0.1483
  587TMC3    C7 8709   4.113   4.357  16.758 -0.1013 -0.3393  0.1500
  587TMC3    C8 8710   3.880   4.657  16.465 -0.3103  0.1002  0.8339
  587TMC3    O1 8711   4.119   4.301  16.865 -0.3824 -0.3770 -0.3705
  587TMC3    O2 8712   3.935   4.626  16.360 -0.4008 -0.0729  0.2278
  588TMC3    C1 8713   0.907   2.474   9.548  0.1445  0.4868 -0.4130
  588TMC3    C2 8714   0.854   2.346   9.533  0.4868 -0.1966 -0.1009
  588TMC3    C3 8715   0.942   2.241   9.538 -1.5030  0.2956 -0.3089
  588TMC3    C4 8716   1.041   2.495   9.574  0.0094 -0.0256  0.1299
  588TMC3    C5 8717   1.130   2.391   9.575  1.0679  0.6076 -0.2264
  588TMC3    C6 8718   1.076   2.264   9.573 -0.4932  0.4796 -0.4651
  588TMC3     C 8719   0.820   2.581   9.588 -0.3988 -0.1249  0.3812
  588TMC3     O 8720   0.735   2.632   9.516  0.5194  0.6600  0.6956
  588TMC3     H 8721   0.751   2.324   9.510  0.0203  1.0073  0.8840
  588TMC3    H1 8722   1.079   2.596   9.562 -0.1319 -0.0389 -0.4646
  588TMC3    H2 8723   1.145   2.183   9.594 -1.1829 -0.1828 -0.7508
  588TMC3    C7 8724   1.257   2.424   9.639  0.4930 -0.0034  0.5108
  588TMC3    C8 8725   0.886   2.102   9.535 -0.3936  0.0868 -1.1610
  588TMC3    O1 8726   1.352   2.354   9.611  0.0832  0.1559  0.3251
  588TMC3    O2 8727   0.768   2.099   9.570  0.2499  0.3872 -0.5190
  589TMC3    C1 8728   0.416   4.284   1.370 -0.0370 -0.4807 -0.3022
  589TMC3    C2 8729   0.540   4.264   1.430 -0.0169  0.1468  0.3346
  589TMC3    C3 8730   0.625   4.172   1.377 -0.1996 -0.7081  0.3600
  589TMC3    C4 8731   0.385   4.213   1.253 -0.0256  0.9633 -0.2665
  589TMC3    C5 8732   0.479   4.125   1.208 -1.0816  0.4108  0.0776
  589TMC3    C6 8733   0.596   4.095   1.267  0.0352  0.7718 -0.7532
  589TMC3     C 8734   0.343   4.402   1.397 -0.2716 -0.3511 -1.3769
  589TMC3     O 8735   0.252   4.436   1.324 -0.0056 -0.5210  0.2594
  589TMC3     H 8736   0.574   4.328   1.510 -2.4141 -0.2425  1.6577
  589TMC3    H1 8737   0.284   4.219   1.215 -0.7092 -1.1222  1.2312
  589TMC3    H2 8738   0.656   4.016   1.223 -0.5695  0.9213 -1.8517
  589TMC3    C7 8739   0.444   4.042   1.102 -0.0619 -0.3632 -0.6091
  589TMC3    C8 8740   0.746   4.133   1.451  0.6996 -0.8118  0.1956
  589TMC3    O1 8741   0.330   3.999   1.106 -0.2147 -0.1682  0.2054
  589TMC3    O2 8742   0.739   4.136   1.573  0.1862 -0.3056 -0.7038
  590MPD2     C 8743   4.680   2.878  16.647 -0.0303  0.4529 -0.4551
  590MPD2    C1 8744   4.611   2.854  16.527  0.8801 -0.3125 -0.2581
  590MPD2    C2 8745   4.663   2.900  16.406 -0.7396  0.8185  0.1729
  590MPD2    C3 8746   0.055   2.982  16.408  0.2418  0.1196 -0.2308
  590MPD2    C4 8747   0.112   3.006  16.532 -0.8660  0.2406  0.0143
  590MPD2    C5 8748   0.060   2.965  16.651  0.3164 -0.7371 -0.0137
  590MPD2     H 8749   4.626   2.876  16.307  0.9770  1.5684 -0.6473
  590MPD2    H1 8750   0.204   3.063  16.541  0.8290 -2.6933  1.2543
  590MPD2    H2 8751   4.651   2.844  16.746 -0.2456  1.5720 -0.1415
  590MPD2    H3 8752   0.111   2.987  16.745  1.4132  3.3326 -1.5535
  590MPD2     N 8753   0.117   3.030  16.287 -0.0355 -0.2173 -0.3927
  590MPD2    H5 8754   0.062   3.009  16.204 -0.0785  1.3660 -0.7697
  590MPD2    N1 8755   4.498   2.768  16.530  0.1484 -0.4656 -0.2729
  590MPD2    H7 8756   4.463   2.737  16.620  0.9965 -0.6000  0.0022
  591TMC3    C1 8757   0.270   3.138  16.149  0.1932  0.6699 -0.3228
  591TMC3    C2 8758   0.302   3.048  16.054  0.5644 -0.0089 -0.0138
  591TMC3    C3 8759   0.326   3.088  15.923  0.5121 -0.2922  0.1235
  591TMC3    C4 8760   0.275   3.267  16.124  0.0788  0.1606  0.1499
  591TMC3    C5 8761   0.305   3.305  15.996 -0.1935  0.2467 -0.6478
  591TMC3    C6 8762   0.335   3.221  15.895 -0.0871 -0.4413  0.4852
  591TMC3     C 8763   0.227   3.110  16.281  0.3598 -0.0157  1.3346
  591TMC3     O 8764   0.279   3.188  16.358 -0.3010  1.0035  0.0497
  591TMC3     H 8765   0.302   2.941  16.074 -1.6480  0.1018  0.6353
  591TMC3    H1 8766   0.251   3.342  16.199  0.9570  1.3432 -0.7350
  591TMC3    H2 8767   0.357   3.268  15.800  1.7890 -4.1090 -0.9039
  591TMC3    C7 8768   0.278   3.446  15.963  0.3443  0.1685 -0.4444
  591TMC3    C8 8769   0.360   2.996  15.818  0.1774 -0.1816  0.1701
  591TMC3    O1 8770   0.371   3.515  15.915  0.2923 -0.5371 -0.0663
  591TMC3    O2 8771   0.406   2.884  15.848  0.5009 -0.6370  0.1336
  592MPD2     C 8772   0.771   0.418  11.114  0.2120  0.8611  0.6890
  592MPD2    C1 8773   0.746   0.486  11.228  0.1379  0.4515 -0.0823
  592MPD2    C2 8774   0.661   0.434  11.323  0.4474 -0.0844 -0.1927
  592MPD2    C3 8775   0.590   0.319  11.297 -0.0901 -0.1628 -0.2018
  592MPD2    C4 8776   0.611   0.257  11.172 -0.3532  0.2834  0.0070
  592MPD2    C5 8777   0.700   0.308  11.084  0.3007 -0.1864 -0.2027
  592MPD2     H 8778   0.643   0.488  11.416 -0.0479 -1.9230  0.7923
  592MPD2    H1 8779   0.557   0.166  11.148 -0.9909  0.1908  1.7932
  592MPD2    H2 8780   0.830   0.464  11.036 -0.2721 -0.6484 -0.5742
  592MPD2    H3 8781   0.702   0.244  10.997  0.6078  0.0594 -0.3735
  592MPD2     N 8782   0.482   0.279  11.388 -0.2449 -0.2884  0.0349
  592MPD2    H5 8783   0.457   0.339  11.466 -5.0299 -0.2117 -1.6027
  592MPD2    N1 8784   0.811   0.609  11.243  0.3759  0.2877 -0.2600
  592MPD2    H7 8785   0.859   0.652  11.164  0.5683 -0.9371 -0.8120
  593TMC3    C1 8786   0.877   0.815  11.341 -0.7711  0.3702 -0.0906
  593TMC3    C2 8787   0.928   0.885  11.448 -0.2362 -0.4217 -0.2234
  593TMC3    C3 8788   0.980   1.009  11.426  0.1105 -0.0417 -1.4764
  593TMC3    C4 8789   0.888   0.869  11.213 -0.1519  0.3789  0.3589
  593TMC3    C5 8790   0.947   0.995  11.195  0.3440  0.6268 -0.1319
  593TMC3    C6 8791   0.988   1.071  11.305 -0.5586  0.1865 -0.3288
  593TMC3     C 8792   0.820   0.680  11.359 -0.6842 -0.4607  0.0918
  593TMC3     O 8793   0.793   0.642  11.470  0.0074  0.2421  0.0066
  593TMC3     H 8794   0.924   0.856  11.553  0.1318 -1.2567 -0.4447
  593TMC3    H1 8795   0.857   0.824  11.119 -1.7200  1.6408  0.2829
  593TMC3    H2 8796   1.034   1.169  11.301 -0.4159  0.1913  1.4515
  593TMC3    C7 8797   1.007   1.030  11.068  0.4266  0.4104  0.0307
  593TMC3    C8 8798   1.004   1.086  11.537 -0.1137 -0.3770  0.5993
  593TMC3    O1 8799   1.077   1.127  11.079 -0.9905  0.0047 -0.3190
  593TMC3    O2 8800   0.946   1.189  11.548 -0.2387 -0.0576 -0.0877
  594MPD2     C 8801   4.002   3.977  13.916  0.3508 -0.1213  0.1433
  594MPD2    C1 8802   3.981   3.957  14.051 -0.0057  0.6356  0.1380
  594MPD2    C2 8803   4.050   4.028  14.144 -0.2092 -0.5766 -0.0274
  594MPD2    C3 8804   4.155   4.104  14.114  0.2214 -0.1140  0.3155
  594MPD2    C4 8805   4.187   4.117  13.979  0.3256 -0.0056  0.5719
  594MPD2    C5 8806   4.118   4.052  13.881 -0.0231 -0.3932  0.5514
  594MPD2     H 8807   4.016   4.017  14.247  0.9062  2.1290  0.6334
  594MPD2    H1 8808   4.265   4.181  13.938 -0.2382  0.0432 -0.4165
  594MPD2    H2 8809   3.967   3.906  13.842 -0.6146 -0.2046  0.6804
  594MPD2    H3 8810   4.145   4.052  13.776 -0.5304  0.5801  0.4207
  594MPD2     N 8811   4.238   4.163  14.217 -0.0485 -0.1246 -0.6328
  594MPD2    H5 8812   4.202   4.161  14.312 -1.7698  1.1059 -1.2575
  594MPD2    N1 8813   3.878   3.864  14.084 -0.5710  0.0414 -0.2988
  594MPD2    H7 8814   3.815   3.840  14.008 -0.8549 -1.5821  0.4516
  595TMC3    C1 8815   4.612   4.385  14.397 -0.5156 -0.3287 -0.1774
  595TMC3    C2 8816   4.553   4.290  14.315 -0.0309  0.1946 -0.7445
  595TMC3    C3 8817   4.421   4.282  14.311 -0.7399  0.0518  0.5620
  595TMC3    C4 8818   4.535   4.446  14.492  0.6807 -0.6029 -0.5100
  595TMC3    C5 8819   4.397   4.429  14.488 -0.3092  0.4844 -0.3561
  595TMC3    C6 8820   4.340   4.349  14.397  0.0044  0.2731  0.6713
  595TMC3     C 8821   0.027   4.405  14.399 -0.5720  0.7921  0.2780
  595TMC3     O 8822   0.078   4.447  14.497  0.1153 -0.1041 -0.1095
  595TMC3     H 8823   4.613   4.225  14.253 -0.4491 -1.8750  1.0300
  595TMC3    H1 8824   4.575   4.523  14.556 -0.5811 -2.0400  2.0053
  595TMC3    H2 8825   4.233   4.332  14.403  0.4766 -2.4049  1.3669
  595TMC3    C7 8826   4.316   4.507  14.582  0.1174 -0.1199 -0.1412
  595TMC3    C8 8827   4.363   4.216  14.193  0.3953 -0.5804 -0.4222
  595TMC3    O1 8828   4.197   4.519  14.551 -0.3009 -0.5992 -0.4671
  595TMC3    O2 8829   4.440   4.203  14.095 -0.3512 -0.1647 -0.1973
  596MPD2     C 8830   3.160   1.973  16.676 -0.3714  0.3707 -0.8091
  596MPD2    C1 8831   3.143   2.089  16.606  0.1347 -0.4009 -0.3053
  596MPD2    C2 8832   3.152   2.089  16.467  0.2204 -0.0482 -0.0721
  596MPD2    C3 8833   3.181   1.972  16.401 -0.3631  0.1947  0.1914
  596MPD2    C4 8834   3.203   1.854  16.468  0.9393  0.7780 -0.1755
  596MPD2    C5 8835   3.192   1.856  16.606 -0.2697  0.3665 -0.3000
  596MPD2     H 8836   3.135   2.182  16.415  4.1745  1.7897  1.9696
  596MPD2    H1 8837   3.230   1.762  16.417 -1.5172 -0.8970  1.5380
  596MPD2    H2 8838   3.154   1.972  16.785  2.1868 -1.8112 -0.6818
  596MPD2    H3 8839   3.206   1.763  16.661  0.0099 -0.0851 -1.1371
  596MPD2     N 8840   3.202   1.969  16.263  0.0287  0.2252  0.5452
  596MPD2    H5 8841   3.205   1.878  16.219 -2.8578  1.0545 -1.4208
  596MPD2    N1 8842   3.105   2.215  16.664 -0.3137  0.1277 -0.3003
  596MPD2    H7 8843   3.087   2.289  16.597 -0.4827  0.5865  0.2473
  597TMC3    C1 8844   3.012   2.369  16.825  0.7962 -0.2278 -0.0144
  597TMC3    C2 8845   3.037   2.477  16.740  0.0314  0.3450  0.1158
  597TMC3    C3 8846   2.974   2.595  16.765 -0.7368 -0.0991 -0.2186
  597TMC3    C4 8847   2.919   2.382  16.924 -0.0122 -0.1722 -0.7358
  597TMC3    C5 8848   2.860   2.503  16.941  0.2829 -0.2966 -0.3803
  597TMC3    C6 8849   2.878   2.614  16.863  0.5730 -0.1618  0.0307
  597TMC3     C 8850   3.051   2.234  16.790  0.0383  0.1315  0.2531
  597TMC3     O 8851   3.041   2.160  16.887  0.2875 -0.2501  0.4714
  597TMC3     H 8852   3.108   2.460  16.660 -1.2929  1.1225 -1.2319
  597TMC3    H1 8853   2.895   2.301  16.992 -2.3840 -0.0512 -1.4322
  597TMC3    H2 8854   2.840   2.715  16.878  0.6036 -0.2151  0.4746
  597TMC3    C7 8855   2.744   2.500  17.032  0.4408 -0.3022  0.1008
  597TMC3    C8 8856   2.996   2.707  16.677  0.3079  0.4703  0.4973
  597TMC3    O1 8857   2.729   2.413  17.109  0.3674  0.5519  0.6916
  597TMC3    O2 8858   3.097   2.698  16.610 -0.4498  0.0801 -0.4289
  598TMC3    C1 8859   1.681   3.420  15.973 -0.4320 -1.1217  0.6912
  598TMC3    C2 8860   1.608   3.313  15.992  0.4440 -0.2913  0.4677
  598TMC3    C3 8861   1.545   3.251  15.884 -0.0307  0.0757  0.2514
  598TMC3    C4 8862   1.713   3.463  15.848 -0.1931 -0.2293  0.4158
  598TMC3    C5 8863   1.656   3.399  15.743 -0.2402  0.1767 -0.3740
  598TMC3    C6 8864   1.569   3.297  15.763 -0.2899  1.0326 -0.0082
  598TMC3     C 8865   1.762   3.463  16.092  0.2520  0.2696 -0.4817
  598TMC3     O 8866   1.871   3.516  16.071 -0.5696  0.0528 -0.5368
  598TMC3     H 8867   1.609   3.260  16.087  0.3187  0.8198  1.0923
  598TMC3    H1 8868   1.787   3.541  15.833  1.0046 -1.5532 -0.5071
  598TMC3    H2 8869   1.542   3.235  15.678 -0.7433  1.1639  0.0415
  598TMC3    C7 8870   1.676   3.447  15.606  0.4639  0.1539  0.4994
  598TMC3    C8 8871   1.435   3.160  15.915 -0.2832 -0.5198  0.1543
  598TMC3    O1 8872   1.627   3.378  15.512  0.7104  0.4765  0.5721
  598TMC3    O2 8873   1.399   3.170  16.032  1.1682 -0.3268  0.6306
  599MPD2     C 8874   1.126   1.043  15.755 -0.2127  0.3658 -0.3582
  599MPD2    C1 8875   1.201   0.967  15.842 -0.1363  0.9278  0.8363
  599MPD2    C2 8876   1.146   0.935  15.965 -0.4753  0.3057  0.0723
  599MPD2    C3 8877   1.022   0.986  15.995 -0.6277 -0.1361  0.2526
  599MPD2    C4 8878   0.958   1.067  15.903  0.3151  0.1984  0.9102
  599MPD2    C5 8879   1.009   1.094  15.780  0.5229  0.1391  0.0418
  599MPD2     H 8880   1.201   0.866  16.028 -0.1193 -0.8739 -1.5269
  599MPD2    H1 8881   0.861   1.095  15.941 -0.0686  0.7721 -0.4816
  599MPD2    H2 8882   1.183   1.069  15.666  1.6859  0.0888  0.7661
  599MPD2    H3 8883   0.952   1.150  15.707 -0.0688 -0.4834  0.0334
  599MPD2     N 8884   0.965   0.968  16.117 -0.1283 -0.2533  0.0737
  599MPD2    H5 8885   0.884   1.023  16.143  0.0820  0.3150 -0.4870
  599MPD2    N1 8886   1.336   0.929  15.802  0.6010  0.4304 -0.2990
  599MPD2    H7 8887   1.341   0.956  15.704  1.0333 -0.5050 -0.5346
  600TMC3    C1 8888   0.966   0.912  16.343  0.5989 -0.4940 -0.1879
  600TMC3    C2 8889   0.941   0.802  16.426 -0.0141  0.2127 -0.3300
  600TMC3    C3 8890   0.911   0.814  16.556  0.0817  0.0716  0.3103
  600TMC3    C4 8891   0.955   1.037  16.397  0.4780  0.1619  0.4803
  600TMC3    C5 8892   0.925   1.047  16.524 -0.5755  0.7294 -0.7566
  600TMC3    C6 8893   0.908   0.939  16.613 -0.3867 -0.7646 -0.2681
  600TMC3     C 8894   1.016   0.883  16.213 -0.0336  0.1391 -0.1024
  600TMC3     O 8895   1.088   0.782  16.204 -0.6537 -0.2267 -0.5666
  600TMC3     H 8896   0.924   0.707  16.376 -2.3388  0.4070  0.0967
  600TMC3    H1 8897   0.971   1.121  16.330  0.2335 -1.1916 -1.2818
  600TMC3    H2 8898   0.888   0.960  16.718 -0.9172 -1.5857 -0.1972
  600TMC3    C7 8899   0.917   1.185  16.586 -0.1492  1.0036  0.0075
  600TMC3    C8 8900   0.855   0.710  16.632  0.4698 -0.5952  0.0055
  600TMC3    O1 8901   0.876   1.193  16.701  0.4806  0.3232 -1.0147
  600TMC3    O2 8902   0.772   0.747  16.708 -0.5469 -0.3900 -0.5585
  601MPD2     C 8903   3.690   3.597  17.545 -0.1857  0.0632  0.3128
  601MPD2    C1 8904   3.563   3.658  17.562 -0.0474 -0.4658  0.1104
  601MPD2    C2 8905   3.471   3.612  17.655  0.3268  0.5598  0.3476
  601MPD2    C3 8906   3.508   3.508   0.047 -0.9432  0.0963 -0.1474
  601MPD2    C4 8907   3.634   3.446   0.031 -0.0995  0.7169  0.3504
  601MPD2    C5 8908   3.716   3.491  17.629  0.3883 -0.3510  0.3976
  601MPD2     H 8909   3.375   3.661  17.662  0.4341  0.7529  0.4861
  601MPD2    H1 8910   3.660   3.366   0.099 -0.6148  0.3918  0.1701
  601MPD2    H2 8911   3.757   3.615  17.461  2.6611 -0.3923  2.4607
  601MPD2    H3 8912   3.817   3.452  17.615  1.1749  2.1369 -0.8817
  601MPD2     N 8913   3.424   3.462   0.156 -0.7037 -0.6282 -0.1364
  601MPD2    H5 8914   3.453   3.375   0.201 -3.5266 -0.7859  1.3437
  601MPD2    N1 8915   3.522   3.777  17.494 -0.0557 -0.4094  0.4862
  601MPD2    H7 8916   3.428   3.803  17.522  0.2888 -0.4381  1.6709
  602TMC3    C1 8917   3.522   3.955  17.360 -0.3540 -0.5067 -0.6996
  602TMC3    C2 8918   3.597   4.066  17.348  0.5383 -0.6458  0.7027
  602TMC3    C3 8919   3.526   4.180  17.322  0.5252 -0.2538  0.0910
  602TMC3    C4 8920   3.389   3.946  17.340 -0.6515  0.3529  0.2521
  602TMC3    C5 8921   3.323   4.058  17.316  0.1107 -1.1692 -0.4504
  602TMC3    C6 8922   3.391   4.178  17.310 -0.2290  0.6032 -0.5565
  602TMC3     C 8923   3.598   3.838  17.398 -0.6353  0.0381 -0.0476
  602TMC3     O 8924   3.712   3.819  17.352 -0.2392  0.4838 -0.0583
  602TMC3     H 8925   3.704   4.056  17.354  0.5341  0.2561  2.3074
  602TMC3    H1 8926   3.333   3.855  17.357 -2.7964  1.9364  1.6356
  602TMC3    H2 8927   3.342   4.266  17.271  0.1261  1.5640  1.1823
  602TMC3    C7 8928   3.180   4.049  17.283  0.1386  0.0675  0.2599
  602TMC3    C8 8929   3.584   4.311  17.333  0.8253  0.4049 -0.0550
  602TMC3    O1 8930   3.130   3.951  17.233  0.9266 -0.0423 -0.2051
  602TMC3    O2 8931   3.705   4.311  17.328  0.0346 -0.1653 -0.2518
  603TMC3    C1 8932   1.891   4.372  10.700 -0.6149 -0.2317  0.3758
  603TMC3    C2 8933   1.849   4.397  10.828  0.2503 -0.8343 -0.4992
  603TMC3    C3 8934   1.808   4.521  10.860  0.6152  0.2297 -0.1082
  603TMC3    C4 8935   1.891   4.469  10.604 -0.1525  0.7042 -0.1449
  603TMC3    C5 8936   1.852   4.598  10.642  0.0503 -0.0721  0.0361
  603TMC3    C6 8937   1.817   4.630  10.774 -0.1749  0.7882  0.2961
  603TMC3     C 8938   1.875   4.238  10.648 -0.0035 -0.2557 -0.3246
  603TMC3     O 8939   1.884   4.237  10.524  0.4654  0.0175 -0.0930
  603TMC3     H 8940   1.830   4.311  10.891  0.9599 -1.5383 -1.2393
  603TMC3    H1 8941   1.927   4.457  10.502 -1.5625 -0.4632 -0.5046
  603TMC3    H2 8942   1.746   4.710  10.792 -0.5166  0.2561  1.2865
  603TMC3    C7 8943   1.827   4.686  10.539  0.1219 -0.5660 -0.3306
  603TMC3    C8 8944   1.773   4.532  11.005 -0.2726  0.8812  0.2057
  603TMC3    O1 8945   1.839   0.082  10.576  0.0268  0.3229  0.2050
  603TMC3    O2 8946   1.771   4.426  11.066  0.4255 -0.1194 -0.3765
  604MPD2     C 8947   1.835   2.615  16.231 -0.3174 -0.9338  0.0832
  604MPD2    C1 8948   1.831   2.744  16.185 -0.5018  0.2194 -0.5792
  604MPD2    C2 8949   1.868   2.767  16.050  0.4551 -0.3823 -0.2847
  604MPD2    C3 8950   1.904   2.662  15.973 -0.3163 -0.2209 -0.1884
  604MPD2    C4 8951   1.901   2.528  16.021  0.0745 -0.3806 -0.3452
  604MPD2    C5 8952   1.858   2.510  16.151 -0.1268  0.1747 -1.0518
  604MPD2     H 8953   1.882   2.871  16.022  0.0459 -0.5860 -1.2418
  604MPD2    H1 8954   1.919   2.438  15.964  0.2146 -1.7384  1.8170
  604MPD2    H2 8955   1.806   2.595  16.334 -1.0736 -1.5669 -0.2511
  604MPD2    H3 8956   1.855   2.413  16.200  0.5253  1.1255  0.8540
  604MPD2     N 8957   1.947   2.692  15.846  0.4661  0.1023 -0.2409
  604MPD2    H5 8958   1.961   2.786  15.811  1.7595  0.4749  1.2859
  604MPD2    N1 8959   1.798   2.850  16.276 -0.2609 -0.0674  0.1915
  604MPD2    H7 8960   1.776   2.809  16.366  1.7464 -3.4345 -0.8531
  605TMC3    C1 8961   1.751   3.058  16.368 -0.0346 -0.8508 -0.9133
  605TMC3    C2 8962   1.840   3.042  16.464  0.4085 -0.6507 -0.0932
  605TMC3    C3 8963   1.816   3.129  16.569 -0.4647 -0.4146  0.1131
  605TMC3    C4 8964   1.647   3.146  16.366 -0.1567  0.2534 -0.0310
  605TMC3    C5 8965   1.612   3.208  16.476 -0.3800  0.1682 -0.2733
  605TMC3    C6 8966   1.698   3.200  16.583 -0.3422 -0.6642 -0.2261
  605TMC3     C 8967   1.765   2.980  16.247  1.2679  0.1417  0.4995
  605TMC3     O 8968   1.742   3.020  16.135 -0.1772  0.3503  0.4773
  605TMC3     H 8969   1.928   2.980  16.460 -0.4386 -1.9112  0.7686
  605TMC3    H1 8970   1.579   3.149  16.281 -0.0860  0.9686 -0.0660
  605TMC3    H2 8971   1.670   3.223  16.685  0.5363 -1.4789  0.1921
  605TMC3    C7 8972   1.470   3.215  16.503 -0.1625  0.1826  0.4179
  605TMC3    C8 8973   1.937   3.180  16.634 -0.3129  0.0571  0.7144
  605TMC3    O1 8974   1.434   3.292  16.588  0.2869 -0.0222  0.1813
  605TMC3    O2 8975   2.029   3.107  16.650  0.0309  0.6100  0.0306
  606TMC3    C1 8976   4.164   1.856  17.282 -0.3381  0.7147  0.4575
  606TMC3    C2 8977   4.264   1.767  17.321  0.2812  0.1334 -0.8719
  606TMC3    C3 8978   4.257   1.642  17.268  0.2642  0.3796  0.4586
  606TMC3    C4 8979   4.059   1.809  17.209  0.2929 -0.6870  1.0272
  606TMC3    C5 8980   4.058   1.684  17.162 -0.2025 -0.0080  0.1127
  606TMC3    C6 8981   4.163   1.597  17.182 -0.3760  0.0596  0.2367
  606TMC3     C 8982   4.156   1.974  17.363 -0.9270  0.8521  0.7722
  606TMC3     O 8983   4.229   1.974  17.462 -0.4500 -0.1603  0.3076
  606TMC3     H 8984   4.347   1.801  17.383  0.1130  0.8333 -1.0304
  606TMC3    H1 8985   3.977   1.875  17.183  1.5394  0.4194 -0.1039
  606TMC3    H2 8986   4.165   1.494  17.147  1.5356 -0.0670  0.7258
  606TMC3    C7 8987   3.972   1.636  17.058  0.7322  0.3468  0.6551
  606TMC3    C8 8988   4.322   1.551  17.358 -0.4403 -0.0671 -0.1040
  606TMC3    O1 8989   4.005   1.547  16.980 -0.2334 -0.1356  0.2114
  606TMC3    O2 8990   4.409   1.605  17.423 -0.0494  0.5056 -0.0703
  607MPD2     C 8991   0.722   0.019  11.437 -0.1962 -0.4296  0.4478
  607MPD2    C1 8992   0.743   0.112  11.537  0.2728 -1.0780 -0.0724
  607MPD2    C2 8993   0.692   0.090  11.663 -0.9356  0.0841 -0.0449
  607MPD2    C3 8994   0.610   4.706  11.703 -0.5570 -0.0458  0.5522
  607MPD2    C4 8995   0.572   4.623  11.594  0.6622  0.1810  0.0974
  607MPD2    C5 8996   0.626   4.637  11.470 -0.0294  0.2868  0.9303
  607MPD2     H 8997   0.717   0.156  11.746 -1.2670  3.4070 -2.5817
  607MPD2    H1 8998   0.514   4.533  11.602  2.2324 -0.7932  0.5287
  607MPD2    H2 8999   0.763   0.022  11.337 -0.4601  0.6394  0.3763
  607MPD2    H3 9000   0.597   4.562  11.397  1.7696 -0.8447  1.3726
  607MPD2     N 9001   0.564   4.696  11.834 -0.1803 -0.3370  0.1563
  607MPD2    H5 9002   0.600   0.050  11.892 -0.8260 -0.1827  0.3548
  607MPD2    N1 9003   0.841   0.210  11.536  0.4442  0.6239 -0.0945
  607MPD2    H7 9004   0.823   0.283  11.604 -1.9669  0.0518 -0.1178
  608TMC3    C1 9005   1.012   0.342  11.475  0.5252  0.0424 -0.1684
  608TMC3    C2 9006   1.023   0.394  11.601 -0.7133  0.7156 -0.3543
  608TMC3    C3 9007   1.077   0.521  11.618 -0.1181 -0.0099  0.0354
  608TMC3    C4 9008   1.074   0.406  11.372  0.3934 -0.2682  0.1363
  608TMC3    C5 9009   1.144   0.523  11.396  0.2791  0.0745 -0.6846
  608TMC3    C6 9010   1.140   0.587  11.514  0.5374  0.2175  0.7214
  608TMC3     C 9011   0.933   0.237  11.436 -0.7347 -0.3093 -0.8249
  608TMC3     O 9012   0.967   0.171  11.340 -0.2849  0.4196  0.2638
  608TMC3     H 9013   1.014   0.329  11.687 -1.2655 -0.9609 -1.7059
  608TMC3    H1 9014   1.058   0.361  11.275 -2.2949  1.3379 -0.1482
  608TMC3    H2 9015   1.192   0.681  11.529  1.5332 -0.3096  0.6289
  608TMC3    C7 9016   1.182   0.589  11.273  0.5227 -0.0908 -0.0864
  608TMC3    C8 9017   1.048   0.586  11.748  0.7802  0.7302 -0.0401
  608TMC3    O1 9018   1.154   0.529  11.168  0.1355 -1.0520  0.3995
  608TMC3    O2 9019   1.130   0.673  11.782  0.0754 -0.1813 -0.1820
  609TMC3    C1 9020   3.658   3.381   9.114  0.0546 -0.3676 -0.2050
  609TMC3    C2 9021   3.732   3.353   9.008  0.3090  0.5591 -0.9510
  609TMC3    C3 9022   3.856   3.294   9.019  0.2346  0.5617 -0.5759
  609TMC3    C4 9023   3.708   3.358   9.238  0.1671 -0.0469 -0.0371
  609TMC3    C5 9024   3.818   3.281   9.253  0.7096  0.6214 -0.1897
  609TMC3    C6 9025   3.901   3.255   9.143  0.5295  0.4460 -0.5621
  609TMC3     C 9026   3.511   3.407   9.107 -0.2013 -0.5595  0.0364
  609TMC3     O 9027   3.451   3.444   9.210  0.0453  0.5802 -0.6170
  609TMC3     H 9028   3.700   3.373   8.907  0.1255 -0.5040 -1.1069
  609TMC3    H1 9029   3.645   3.383   9.323 -3.1560 -0.5607 -2.3886
  609TMC3    H2 9030   3.959   3.164   9.148 -1.5624 -0.8149  1.0609
  609TMC3    C7 9031   3.851   3.233   9.386 -0.1397 -0.0448  0.0210
  609TMC3    C8 9032   3.914   3.258   8.892 -0.3195 -0.4194  0.1852
  609TMC3    O1 9033   3.764   3.256   9.472 -0.0718 -0.2869  0.1410
  609TMC3    O2 9034   3.840   3.244   8.796  0.4229  0.2853  0.2673
  610TMC3    C1 9035   1.012   4.674  12.675 -0.6271  0.0470  0.6553
  610TMC3    C2 9036   1.057   4.702  12.549  0.5253 -0.2736 -0.0517
  610TMC3    C3 9037   1.142   4.615  12.494 -0.2827 -0.4633  0.2420
  610TMC3    C4 9038   1.047   4.563  12.745 -0.5003  0.2439  0.8092
  610TMC3    C5 9039   1.128   4.473  12.684 -0.1522  0.3174 -0.0992
  610TMC3    C6 9040   1.177   4.497  12.559 -0.2379 -0.3148  0.1183
  610TMC3     C 9041   0.911   0.048  12.726 -0.1893  0.3465  0.8929
  610TMC3     O 9042   0.850   0.116  12.643 -0.2155 -0.3129  0.0976
  610TMC3     H 9043   1.009   0.061  12.495  0.0622  0.7868  1.9823
  610TMC3    H1 9044   0.987   4.525  12.827 -0.2725 -2.2490 -0.1716
  610TMC3    H2 9045   1.254   4.436  12.513  0.0753  1.3420 -1.5569
  610TMC3    C7 9046   1.193   4.370  12.759  0.0074 -0.3447  0.4875
  610TMC3    C8 9047   1.223   4.668  12.380  0.8008 -0.2874  0.3087
  610TMC3    O1 9048   1.245   4.286  12.686 -0.0838  0.7199  0.3902
  610TMC3    O2 9049   1.225   0.067  12.361 -0.4290 -0.3825 -0.8000
  611MPD2     C 9050   0.521   0.054   9.756 -0.2410  0.5291 -0.0743
  611MPD2    C1 9051   0.524   4.651   9.818 -0.0642  0.0748  0.6224
  611MPD2    C2 9052   0.649   4.579   9.813 -0.0792 -0.0223 -0.3653
  611MPD2    C3 9053   0.760   4.642   9.756  0.2756 -0.1756 -0.3423
  611MPD2    C4 9054   0.751   0.046   9.698  0.3404 -0.1024 -0.1530
  611MPD2    C5 9055   0.633   0.118   9.698 -0.4199  0.5661 -0.1423
  611MPD2     H 9056   0.664   4.486   9.865 -1.5017  0.7297  1.3671
  611MPD2    H1 9057   0.836   0.096   9.652  1.3428 -0.7549  0.9920
  611MPD2    H2 9058   0.423   0.098   9.744  0.7002  1.0035 -5.6782
  611MPD2    H3 9059   0.622   0.214   9.648  4.8719 -0.9389 -4.1856
  611MPD2     N 9060   0.895   4.587   9.777 -0.2470 -0.6653 -0.0126
  611MPD2    H5 9061   0.971   4.649   9.752 -0.4810  0.0762  1.1022
  611MPD2    N1 9062   0.401   4.597   9.873  0.7990  0.2733 -0.6047
  611MPD2    H7 9063   0.324   4.664   9.872  0.4041 -0.1884 -0.9728
  612TMC3    C1 9064   1.063   4.455   9.868  0.2730 -0.4221 -0.4077
  612TMC3    C2 9065   1.137   4.566   9.902  0.1036  0.2953  0.3408
  612TMC3    C3 9066   1.273   4.550   9.924  0.2298 -0.2380  0.1731
  612TMC3    C4 9067   1.113   4.335   9.854  0.4722  0.0047 -0.2549
  612TMC3    C5 9068   1.256   4.323   9.870  0.3962 -0.1716  0.2830
  612TMC3    C6 9069   1.338   4.428   9.914 -0.3252  0.9840 -0.6811
  612TMC3     C 9070   0.919   4.470   9.843  0.1947 -0.0633  0.2884
  612TMC3     O 9071   0.849   4.371   9.865  0.0058 -0.2966 -0.6343
  612TMC3     H 9072   1.090   4.664   9.906  0.1746  0.4278 -2.2940
  612TMC3    H1 9073   1.055   4.256   9.808 -1.3909  0.0917  1.9508
  612TMC3    H2 9074   1.445   4.411   9.925 -0.6572  1.7998  3.8234
  612TMC3    C7 9075   1.297   4.186   9.858 -0.0749  0.7400 -0.1529
  612TMC3    C8 9076   1.353   4.661   9.981  0.4910 -0.0070  0.1349
  612TMC3    O1 9077   1.239   4.118   9.772  0.0514  0.0891 -0.3800
  612TMC3    O2 9078   1.323   0.047   9.933 -0.5170  0.1237  0.1914
  613MPD2     C 9079   4.294   1.069  16.129  1.1440 -0.3419  0.1212
  613MPD2    C1 9080   4.333   1.173  16.038  0.5780  0.0748  0.3659
  613MPD2    C2 9081   4.232   1.226  15.949 -0.6413  0.6517  0.3626
  613MPD2    C3 9082   4.105   1.170  15.943  0.1474 -0.7205  0.0228
  613MPD2    C4 9083   4.074   1.074  16.040  0.3242 -0.6660  0.4712
  613MPD2    C5 9084   4.165   1.027  16.131  0.3006 -0.4645  0.0904
  613MPD2     H 9085   4.263   1.308  15.886 -1.9166 -0.8209 -2.2030
  613MPD2    H1 9086   3.968   1.055  16.049 -0.1098  2.4479  2.0049
  613MPD2    H2 9087   4.362   1.029  16.204  1.1923 -0.4189  0.0358
  613MPD2    H3 9088   4.114   0.966  16.205  2.3733  0.5519  2.3466
  613MPD2     N 9089   3.994   1.223  15.869  0.8492 -0.0979 -0.0161
  613MPD2    H5 9090   3.900   1.208  15.906  0.9372 -3.1273 -0.9778
  613MPD2    N1 9091   4.474   1.206  16.040 -0.1513 -0.0645 -0.4057
  613MPD2    H7 9092   4.532   1.149  16.101  0.2791  1.0906  0.2640
  614TMC3    C1 9093   4.673   1.279  15.929  0.2125 -0.1376  0.3203
  614TMC3    C2 9094   4.714   1.148  15.919  0.3217 -0.3398 -0.7508
  614TMC3    C3 9095   0.098   1.124  15.848 -0.2043 -0.4742  0.3256
  614TMC3    C4 9096   0.013   1.378  15.859 -0.3314 -0.1743  0.6040
  614TMC3    C5 9097   0.126   1.344  15.784  0.0091 -0.1653  0.0430
  614TMC3    C6 9098   0.178   1.221  15.787 -0.0864  0.2602 -0.1691
  614TMC3     C 9099   4.531   1.306  15.957 -0.1215  0.1772 -0.5418
  614TMC3     O 9100   4.480   1.408  15.916  0.0118  0.2526 -0.4120
  614TMC3     H 9101   4.668   1.068  15.977  1.7803 -2.0086 -1.8742
  614TMC3    H1 9102   4.714   1.484  15.865  1.8166  0.1998  1.4634
  614TMC3    H2 9103   0.272   1.200  15.737 -0.6245 -2.3624 -0.0844
  614TMC3    C7 9104   0.153   1.411  15.663  0.3571 -0.0846 -0.5311
  614TMC3    C8 9105   0.121   0.986  15.808  0.0407 -0.1531  0.1911
  614TMC3    O1 9106   0.257   1.376  15.612  0.2738 -0.4800  0.1685
  614TMC3    O2 9107   0.109   0.902  15.893  1.7443  0.0092  0.0795
  615MPD2     C 9108   3.597   3.356  16.540 -0.1899  0.1553 -0.2907
  615MPD2    C1 9109   3.571   3.437  16.441 -1.0631  0.1413  0.3692
  615MPD2    C2 9110   3.556   3.387  16.317 -0.0377 -0.0191  0.5493
  615MPD2    C3 9111   3.581   3.244  16.293 -0.2404 -0.0297  0.1696
  615MPD2    C4 9112   3.615   3.168  16.400  0.1364  0.7241  0.1350
  615MPD2    C5 9113   3.626   3.228  16.519 -0.2127 -0.1518 -0.2067
  615MPD2     H 9114   3.518   3.456  16.242 -1.6049 -0.7575  0.6697
  615MPD2    H1 9115   3.636   3.063  16.383  1.9050  1.2453 -0.7790
  615MPD2    H2 9116   3.605   3.387  16.644 -0.0461 -0.2230 -0.1877
  615MPD2    H3 9117   3.641   3.168  16.608 -0.9137 -0.0343 -0.0046
  615MPD2     N 9118   3.569   3.175  16.176  0.2387  0.1546  0.5554
  615MPD2    H5 9119   3.581   3.074  16.170 -0.3973  0.1165 -0.0762
  615MPD2    N1 9120   3.547   3.582  16.465 -0.6975  0.1279 -0.4077
  615MPD2    H7 9121   3.476   3.626  16.408 -1.2136 -1.0069 -0.6474
  616TMC3    C1 9122   3.561   3.784  16.587 -0.5110 -0.6434 -0.0607
  616TMC3    C2 9123   3.659   3.882  16.611 -0.6344  0.2448 -0.0060
  616TMC3    C3 9124   3.620   4.012  16.605  0.3243  0.0761 -0.5970
  616TMC3    C4 9125   3.430   3.813  16.564  0.5623 -0.1377  0.3926
  616TMC3    C5 9126   3.401   3.944  16.581 -0.0077  0.4576  0.4682
  616TMC3    C6 9127   3.492   4.044  16.582 -0.1101  0.1191 -1.1831
  616TMC3     C 9128   3.596   3.648  16.575 -0.3587 -0.2621 -0.0652
  616TMC3     O 9129   3.680   3.608  16.657 -0.2658 -0.3944  0.4275
  616TMC3     H 9130   3.759   3.844  16.625 -0.9525 -0.6665 -0.1479
  616TMC3    H1 9131   3.358   3.732  16.562  1.0816 -0.5989  0.5463
  616TMC3    H2 9132   3.468   4.150  16.579 -3.5271 -0.6211 -0.1156
  616TMC3    C7 9133   3.260   3.967  16.587 -0.0219  0.5406 -0.7345
  616TMC3    C8 9134   3.710   4.102  16.536  0.2095  0.2385  0.3848
  616TMC3    O1 9135   3.193   3.870  16.555  0.0208 -0.6229  0.1856
  616TMC3    O2 9136   3.669   4.212  16.498  0.3197 -0.6996  0.2480
  617MPD2     C 9137   1.978   1.886  13.890 -0.0927 -0.9914 -0.2538
  617MPD2    C1 9138   1.937   1.800  13.988  0.2914 -1.0414 -0.4250
  617MPD2    C2 9139   1.814   1.731  13.980  0.1474 -0.8128  0.4721
  617MPD2    C3 9140   1.732   1.755  13.874 -0.1687 -0.1412  0.0541
  617MPD2    C4 9141   1.767   1.849  13.786 -0.4725  0.0347 -0.5584
  617MPD2    C5 9142   1.889   1.914  13.787 -0.3509  0.4319 -0.7967
  617MPD2     H 9143   1.786   1.659  14.055  4.1815 -0.0299  2.7191
  617MPD2    H1 9144   1.701   1.872  13.704 -0.9916 -0.1518 -0.1972
  617MPD2    H2 9145   2.068   1.946  13.880 -1.2638  0.7572 -0.3437
  617MPD2    H3 9146   1.907   1.989  13.711 -0.7738  0.4977 -0.8326
  617MPD2     N 9147   1.598   1.700  13.855 -0.3760 -0.6703  0.3704
  617MPD2    H5 9148   1.544   1.742  13.780 -0.8898 -4.0364 -1.1301
  617MPD2    N1 9149   2.034   1.779  14.095 -0.4312  0.3199 -0.3948
  617MPD2    H7 9150   2.118   1.835  14.089 -0.9109  1.1022  0.1790
  618TMC3    C1 9151   2.152   1.638  14.248  0.1434 -0.0533 -0.4575
  618TMC3    C2 9152   2.174   1.502  14.260 -0.8793  0.4306  0.2539
  618TMC3    C3 9153   2.304   1.463  14.278 -0.3047  0.7129  0.5890
  618TMC3    C4 9154   2.250   1.732  14.268  0.1464  0.9422 -0.7211
  618TMC3    C5 9155   2.370   1.688  14.303 -0.0678 -0.7106  0.7694
  618TMC3    C6 9156   2.400   1.555  14.305  0.8050  0.7767  0.0200
  618TMC3     C 9157   2.025   1.670  14.185  0.9178 -0.3995 -0.0785
  618TMC3     O 9158   1.939   1.583  14.197  0.4860  0.4130 -0.0562
  618TMC3     H 9159   2.105   1.429  14.217  1.2468 -0.9837 -0.7824
  618TMC3    H1 9160   2.228   1.838  14.275  1.7129  1.1954  0.4475
  618TMC3    H2 9161   2.497   1.525  14.342  0.9008 -0.7033 -1.4333
  618TMC3    C7 9162   2.450   1.774  14.382  0.4724  0.5610 -0.1739
  618TMC3    C8 9163   2.341   1.331  14.259 -0.1551 -0.5135  0.3638
  618TMC3    O1 9164   2.396   1.838  14.468  0.4328 -0.2170 -0.5200
  618TMC3    O2 9165   2.250   1.251  14.270 -0.2824 -0.3748 -0.4504
  619MPD2     C 9166   3.743   3.058  13.539 -0.4117  0.0770 -0.2229
  619MPD2    C1 9167   3.654   3.132  13.471 -0.4836 -0.0416  0.8984
  619MPD2    C2 9168   3.523   3.084  13.460 -0.4270  0.7666  0.5553
  619MPD2    C3 9169   3.481   2.967  13.527  0.3430 -0.4562 -0.0288
  619MPD2    C4 9170   3.576   2.896  13.587  0.2761  0.1261  0.1896
  619MPD2    C5 9171   3.705   2.940  13.593 -0.3364  0.2746  0.2929
  619MPD2     H 9172   3.465   3.149  13.396  1.8956  1.2958 -1.0122
  619MPD2    H1 9173   3.551   2.799  13.628 -0.4745  0.2464  0.0187
  619MPD2    H2 9174   3.847   3.086  13.552 -0.1685 -0.8385 -0.1851
  619MPD2    H3 9175   3.777   2.874  13.640 -1.8819 -1.0098  0.8536
  619MPD2     N 9176   3.347   2.919  13.508  0.3183  0.1588  0.1068
  619MPD2    H5 9177   3.318   2.836  13.558 -0.8985  1.7377  1.9860
  619MPD2    N1 9178   3.692   3.258  13.411 -0.3603 -0.4444 -0.1944
  619MPD2    H7 9179   3.624   3.306  13.354  2.6311  2.4911 -1.2383
  620TMC3    C1 9180   3.817   3.453  13.370 -0.7416  0.9603 -0.0737
  620TMC3    C2 9181   3.762   3.469  13.248  0.2027  0.1777 -0.2760
  620TMC3    C3 9182   3.789   3.585  13.178  0.0759  0.3631  0.3397
  620TMC3    C4 9183   3.900   3.547  13.424  0.2723  1.1011  0.1082
  620TMC3    C5 9184   3.909   3.666  13.370 -0.5203 -0.4752  0.5352
  620TMC3    C6 9185   3.854   3.682  13.244 -0.0015  0.5144 -0.5411
  620TMC3     C 9186   3.806   3.328  13.444 -0.2526  0.0355 -0.4480
  620TMC3     O 9187   3.887   3.309  13.534 -0.1225  0.2196 -0.0332
  620TMC3     H 9188   3.686   3.402  13.211 -0.5131  0.5187  0.5732
  620TMC3    H1 9189   3.933   3.532  13.526 -1.7929 -1.3468  0.4084
  620TMC3    H2 9190   3.879   3.772  13.189 -2.4599  0.5352 -1.6548
  620TMC3    C7 9191   3.870   3.773  13.459 -0.5883  0.0101 -0.1980
  620TMC3    C8 9192   3.674   3.633  13.096 -0.6058 -0.0146 -0.3369
  620TMC3    O1 9193   3.912   3.793  13.574 -0.0550  0.1694  0.5374
  620TMC3    O2 9194   3.621   3.737  13.130  0.4611 -0.4051  0.0804
  621MPD2     C 9195   2.753   2.991  10.138 -0.1420  0.1064 -0.3974
  621MPD2    C1 9196   2.870   2.927  10.091  0.2479 -0.2207 -0.0656
  621MPD2    C2 9197   2.936   2.964   9.974  0.5000  0.1525  0.1272
  621MPD2    C3 9198   2.890   3.076   9.907  0.0319  0.2706 -1.1124
  621MPD2    C4 9199   2.782   3.152   9.955  0.6485  0.4335 -0.3374
  621MPD2    C5 9200   2.712   3.107  10.072  0.0848 -0.6178  0.4968
  621MPD2     H 9201   3.015   2.901   9.933 -0.7936 -0.6244 -1.1486
  621MPD2    H1 9202   2.737   3.233   9.899 -1.6881 -1.1455 -0.7823
  621MPD2    H2 9203   2.696   2.963  10.226  1.5331 -2.0322  0.0111
  621MPD2    H3 9204   2.618   3.144  10.110  0.4847  0.4012  0.4944
  621MPD2     N 9205   2.959   3.108   9.792 -0.3408  0.0118 -0.1470
  621MPD2    H5 9206   3.035   3.044   9.770  1.2291  1.4205  1.2894
  621MPD2    N1 9207   2.926   2.813  10.155  0.2152  0.1050 -0.4089
  621MPD2    H7 9208   3.010   2.777  10.111  0.3880 -1.6332  1.3512
  622TMC3    C1 9209   2.959   2.664  10.331  0.1176 -0.6713  0.5333
  622TMC3    C2 9210   2.924   2.652  10.464 -0.8244  0.5376  0.6541
  622TMC3    C3 9211   3.029   2.629  10.545 -0.1931  0.4454 -0.3257
  622TMC3    C4 9212   3.075   2.648  10.271 -0.8492  0.0369  0.9378
  622TMC3    C5 9213   3.178   2.617  10.359  0.3706 -0.1707 -0.2242
  622TMC3    C6 9214   3.152   2.608  10.487  0.7028 -0.1808 -0.2203
  622TMC3     C 9215   2.868   2.759  10.266 -0.1311 -0.0315 -0.1460
  622TMC3     O 9216   2.772   2.791  10.333 -0.5127  0.1177 -0.0750
  622TMC3     H 9217   2.822   2.652  10.499 -0.0732  1.4643  2.8102
  622TMC3    H1 9218   3.082   2.625  10.166  0.9302  0.5402  0.9401
  622TMC3    H2 9219   3.235   2.570  10.546  0.1012 -1.8630 -0.4503
  622TMC3    C7 9220   3.315   2.610  10.317  0.4881 -0.2604  0.9069
  622TMC3    C8 9221   3.038   2.731  10.649 -0.0513 -0.3433  0.6199
  622TMC3    O1 9222   3.403   2.635  10.397 -0.4487  0.3874 -0.1093
  622TMC3    O2 9223   3.136   2.729  10.724 -0.3259  0.1172 -0.4361
  623MPD2     C 9224   2.480   4.027  16.169 -0.2748 -0.0144  0.1477
  623MPD2    C1 9225   2.409   3.908  16.176  0.3826 -0.1245 -0.4878
  623MPD2    C2 9226   2.460   3.789  16.238 -0.0962 -0.7111  0.2844
  623MPD2    C3 9227   2.583   3.793  16.291 -0.8708  0.1618 -0.5114
  623MPD2    C4 9228   2.644   3.916  16.299 -0.1528  0.3491 -0.4647
  623MPD2    C5 9229   2.598   4.030  16.241 -0.5616  0.3163 -0.0947
  623MPD2     H 9230   2.397   3.701  16.244  0.2769 -1.0175 -0.3282
  623MPD2    H1 9231   2.744   3.923  16.340  0.4726 -1.4645 -1.6759
  623MPD2    H2 9232   2.439   4.122  16.135  0.5768 -0.0309 -0.9338
  623MPD2    H3 9233   2.653   4.122  16.260 -0.4035  0.2144 -0.0489
  623MPD2     N 9234   2.625   3.668  16.352 -0.0425 -0.2999 -0.4945
  623MPD2    H5 9235   2.569   3.585  16.337 -0.6251 -0.3648  2.0405
  623MPD2    N1 9236   2.279   3.917  16.133 -0.5274 -0.5688  0.2690
  623MPD2    H7 9237   2.244   4.010  16.116 -0.7409 -0.1669  3.0475
  624TMC3    C1 9238   2.805   3.403  16.682 -0.1176 -0.9430  0.3937
  624TMC3    C2 9239   2.683   3.343  16.697 -0.0250  0.6919 -0.3093
  624TMC3    C3 9240   2.578   3.413  16.647 -0.0451  0.5755 -0.0763
  624TMC3    C4 9241   2.829   3.505  16.583  0.1617  0.1099 -0.3412
  624TMC3    C5 9242   2.721   3.542  16.515  0.4819 -0.1233  0.5674
  624TMC3    C6 9243   2.593   3.507  16.553  0.4773 -0.5418  0.3524
  624TMC3     C 9244   2.912   3.353  16.764  0.9428  0.0436 -0.7112
  624TMC3     O 9245   2.895   3.249  16.829 -0.1412 -0.2803  0.0937
  624TMC3     H 9246   2.664   3.260  16.764  2.1500 -1.4020 -2.3172
  624TMC3    H1 9247   2.925   3.543  16.549 -0.0386 -1.4884 -2.7270
  624TMC3    H2 9248   2.502   3.543  16.507  1.0846  0.6637  0.1023
  624TMC3    C7 9249   2.731   3.661  16.437 -0.1366  0.0525  0.5590
  624TMC3    C8 9250   2.445   3.378  16.696 -0.1883  0.4671  0.2821
  624TMC3    O1 9251   2.835   3.730  16.449  0.0037 -0.2767 -0.2256
  624TMC3    O2 9252   2.415   3.262  16.724 -0.0389 -0.2653  0.1598
  625MPD2     C 9253   2.652   4.478   0.124  0.3581 -0.9122  0.1368
  625MPD2    C1 9254   2.735   4.569   0.183 -0.9841  0.1018  0.3378
  625MPD2    C2 9255   2.841   4.513   0.260  0.4325  0.8583 -0.5053
  625MPD2    C3 9256   2.838   4.378   0.299 -0.3867 -0.5932  0.3283
  625MPD2    C4 9257   2.747   4.296   0.246  0.3603 -0.2101  0.5702
  625MPD2    C5 9258   2.654   4.348   0.161  0.6753  0.6932  0.0774
  625MPD2     H 9259   2.917   4.582   0.296 -0.3281  0.4044  2.0235
  625MPD2    H1 9260   2.748   4.191   0.272  0.0116 -0.2142  0.5613
  625MPD2    H2 9261   2.569   4.525   0.074  2.1895  0.7995 -1.2730
  625MPD2    H3 9262   2.575   4.280   0.130  0.4937  1.3797 -0.9628
  625MPD2     N 9263   2.940   4.339   0.396  0.2797 -0.4498  0.5684
  625MPD2    H5 9264   3.004   4.414   0.417  1.3389 -1.2178  0.0783
  625MPD2    N1 9265   2.719   4.706   0.150 -0.7603 -0.0972 -0.1626
  625MPD2    H7 9266   2.629   0.016   0.117 -0.2717 -0.3900 -1.7376
  626TMC3    C1 9267   2.742   0.217   0.185 -0.1537 -0.4805 -0.2125
  626TMC3    C2 9268   2.667   0.245   0.077  0.4816 -0.8991 -0.3974
  626TMC3    C3 9269   2.611   0.372   0.082 -0.0759  0.2975 -0.5289
  626TMC3    C4 9270   2.749   0.303   0.290  0.2980 -0.1246 -0.0985
  626TMC3    C5 9271   2.693   0.425   0.294  0.1526  0.1443 -0.4334
  626TMC3    C6 9272   2.612   0.453   0.185 -0.1665  0.6427 -0.1826
  626TMC3     C 9273   2.805   0.084   0.195  0.9405  0.0373  0.0348
  626TMC3     O 9274   2.905   0.080   0.264  0.3737  0.3559 -0.1837
  626TMC3     H 9275   2.657   0.184  17.679 -2.1530  1.2770 -1.6159
  626TMC3    H1 9276   2.805   0.271   0.377 -2.0510  0.0782  1.5053
  626TMC3    H2 9277   2.548   0.540   0.175 -0.6567  0.2504 -0.4591
  626TMC3    C7 9278   2.614   0.442   0.420  0.5636  0.0700  0.5520
  626TMC3    C8 9279   2.530   0.417  17.656  0.0206 -0.1100  0.1851
  626TMC3    O1 9280   2.655   0.393   0.527 -0.5827 -1.0406 -0.2024
  626TMC3    O2 9281   2.535   0.534  17.628 -0.0147 -0.3489  0.2311
  627MPD2     C 9282   0.663   0.252  14.496  0.4083 -0.2177 -0.6201
  627MPD2    C1 9283   0.796   0.275  14.489 -0.1510 -0.0892 -0.0333
  627MPD2    C2 9284   0.878   0.173  14.437  0.2787  0.0747 -0.2387
  627MPD2    C3 9285   0.818   0.059  14.388  0.6863  0.6375 -0.4284
  627MPD2    C4 9286   0.679   0.037  14.384 -0.3006  0.0123 -0.2187
  627MPD2    C5 9287   0.604   0.136  14.445  0.3527 -0.1743  0.1423
  627MPD2     H 9288   0.985   0.176  14.425  0.0163  0.6728 -2.2787
  627MPD2    H1 9289   0.634   4.667  14.350 -0.4022 -0.0458  0.0725
  627MPD2    H2 9290   0.596   0.327  14.536  0.2176  0.1385 -1.6131
  627MPD2    H3 9291   0.495   0.132  14.447  0.3936 -1.1286  0.7227
  627MPD2     N 9292   0.905   4.682  14.343  0.2516  0.2754 -0.8204
  627MPD2    H5 9293   1.004   4.701  14.355  0.7375 -2.5885 -0.4461
  627MPD2    N1 9294   0.853   0.394  14.536 -0.3248  0.5638 -0.1153
  627MPD2    H7 9295   0.954   0.397  14.526 -0.3244  0.5889 -0.1031
  628TMC3    C1 9296   0.870   0.626  14.569  0.0833 -0.7173 -0.4803
  628TMC3    C2 9297   1.005   0.612  14.592  0.9847 -0.1875 -0.1148
  628TMC3    C3 9298   1.081   0.729  14.581  0.1129  0.5234 -0.1889
  628TMC3    C4 9299   0.814   0.740  14.516  0.1336  0.5137 -0.1210
  628TMC3    C5 9300   0.898   0.847  14.499  0.2533 -0.0546 -0.0652
  628TMC3    C6 9301   1.033   0.846  14.521  0.0201 -0.2108  0.7173
  628TMC3     C 9302   0.784   0.514  14.556 -0.1281 -0.4323  0.0279
  628TMC3     O 9303   0.663   0.540  14.561 -0.1194  0.4084  0.3823
  628TMC3     H 9304   1.041   0.514  14.622  0.4724 -0.8247 -1.6276
  628TMC3    H1 9305   0.710   0.736  14.486 -0.2594  0.9812  1.1814
  628TMC3    H2 9306   1.093   0.935  14.533 -1.1158  0.6931 -0.2371
  628TMC3    C7 9307   0.829   0.972  14.458  0.1588  0.6312  0.6378
  628TMC3    C8 9308   1.213   0.734  14.634  0.1138 -0.6756 -0.4122
  628TMC3    O1 9309   0.711   0.977  14.482  0.3198  0.1956  0.2379
  628TMC3    O2 9310   1.273   0.837  14.614 -0.4587  0.3905  0.6014
  629MPD2     C 9311   4.172   4.221  16.332 -0.4531  0.9854 -0.4108
  629MPD2    C1 9312   4.186   4.103  16.395  0.3430 -0.4419  0.6137
  629MPD2    C2 9313   4.074   4.051  16.460 -0.1200  0.3212  0.3343
  629MPD2    C3 9314   3.951   4.114  16.458  0.0443 -0.1906  0.1892
  629MPD2    C4 9315   3.943   4.239  16.406  0.4782  0.2009  0.4750
  629MPD2    C5 9316   4.051   4.289  16.339 -0.1950  0.4201 -0.8067
  629MPD2     H 9317   4.075   3.956  16.511 -0.3376 -0.5212 -1.2224
  629MPD2    H1 9318   3.853   4.298  16.391  0.1845  0.2070  2.1552
  629MPD2    H2 9319   4.255   4.267  16.280  1.6282  1.1926  3.1258
  629MPD2    H3 9320   4.046   4.386  16.290 -3.3309 -0.7883 -2.8520
  629MPD2     N 9321   3.839   4.045  16.512  0.3422 -0.3667 -0.2624
  629MPD2    H5 9322   3.858   3.951  16.545 -2.3231 -0.8155  0.0307
  629MPD2    N1 9323   4.309   4.040  16.382  0.4438  0.3064 -0.1505
  629MPD2    H7 9324   4.376   4.088  16.323  0.3823 -0.9952 -1.2584
  630TMC3    C1 9325   4.484   3.884  16.413 -0.7706  0.6231 -0.3352
  630TMC3    C2 9326   4.561   3.963  16.339  0.2954 -0.1297 -0.9800
  630TMC3    C3 9327   4.683   3.917  16.297 -0.9130  0.0607 -0.2200
  630TMC3    C4 9328   4.527   3.754  16.442  0.0890 -0.1818 -0.2073
  630TMC3    C5 9329   4.656   3.715  16.407  0.4618 -0.4206 -0.5960
  630TMC3    C6 9330   0.004   3.789  16.320 -0.1736 -0.7559 -0.2425
  630TMC3     C 9331   4.349   3.919  16.442 -0.4280 -0.3152 -0.7373
  630TMC3     O 9332   4.281   3.833  16.499 -0.2731 -0.8258  0.5291
  630TMC3     H 9333   4.549   4.071  16.342 -2.6231 -0.2559 -7.3436
  630TMC3    H1 9334   4.481   3.693  16.519 -1.8707 -3.1255 -3.7082
  630TMC3    H2 9335   0.095   3.747  16.279  0.3708  1.2813 -1.0842
  630TMC3    C7 9336   0.014   3.688  16.527 -1.0906 -0.1414  0.0303
  630TMC3    C8 9337   0.067   4.012  16.259  0.0832  0.3953  0.5326
  630TMC3    O1 9338   4.667   3.652  16.626  0.1950  0.6777  0.1277
  630TMC3    O2 9339   0.179   3.961  16.279  0.1895  0.2727  0.0553
  631MPD2     C 9340   2.771   3.027  15.682 -0.2666 -0.0154  1.0499
  631MPD2    C1 9341   2.855   3.099  15.602  0.3413  0.0251  0.4064
  631MPD2    C2 9342   2.993   3.090  15.617  0.7578 -0.0507 -0.0369
  631MPD2    C3 9343   3.046   3.022  15.721 -0.0071 -0.2349  0.4111
  631MPD2    C4 9344   2.965   2.955  15.806  0.2339  0.0811 -0.1054
  631MPD2    C5 9345   2.827   2.963  15.789 -0.3597 -0.8616  1.3613
  631MPD2     H 9346   3.061   3.147  15.554  1.3194  0.1052  0.7051
  631MPD2    H1 9347   2.993   2.897  15.893  0.8298 -0.1560 -0.4529
  631MPD2    H2 9348   2.663   3.032  15.675 -0.3162 -1.3009  0.8379
  631MPD2    H3 9349   2.762   2.920  15.865  0.7855 -1.1085  2.1967
  631MPD2     N 9350   3.188   3.024  15.740 -0.3908  0.0970  0.1403
  631MPD2    H5 9351   3.240   3.072  15.667 -0.9074 -0.9049 -0.8677
  631MPD2    N1 9352   2.801   3.173  15.501  0.0698 -0.2621  0.0652
  631MPD2    H7 9353   2.700   3.169  15.495  0.1928  0.1321 -2.0967
  632TMC3    C1 9354   2.774   3.308  15.309 -0.2051 -0.4123  1.2142
  632TMC3    C2 9355   2.650   3.359  15.351  0.3380 -0.1014 -0.0732
  632TMC3    C3 9356   2.591   3.458  15.272 -0.6236  0.4735 -0.3465
  632TMC3    C4 9357   2.838   3.363  15.199 -0.1665  0.1632 -0.0245
  632TMC3    C5 9358   2.776   3.471  15.132  0.2774  0.1531 -0.6030
  632TMC3    C6 9359   2.655   3.510  15.161 -0.4018 -0.3276 -0.2864
  632TMC3     C 9360   2.865   3.233  15.397 -0.1016  0.4116  0.5653
  632TMC3     O 9361   2.980   3.244  15.372 -0.2649 -0.1184 -0.1518
  632TMC3     H 9362   2.604   3.331  15.445 -1.5234 -0.6599 -1.1680
  632TMC3    H1 9363   2.934   3.330  15.163 -0.0740  0.9967 -0.5215
  632TMC3    H2 9364   2.604   3.587  15.104 -0.1831  0.0113 -0.0237
  632TMC3    C7 9365   2.845   3.546  15.029  0.2692 -0.1748  0.1586
  632TMC3    C8 9366   2.484   3.547  15.328 -0.1708 -0.1234 -0.1184
  632TMC3    O1 9367   2.774   3.614  14.959 -0.1377  0.3126 -0.1916
  632TMC3    O2 9368   2.489   3.666  15.307 -0.1817  0.2159 -0.2868
  633MPD2     C 9369   2.601   1.981  17.397  0.0803 -0.5048 -0.0233
  633MPD2    C1 9370   2.665   1.954  17.276  0.2835 -0.1358 -0.5363
  633MPD2    C2 9371   2.752   1.849  17.268  0.2198  0.5351  0.1281
  633MPD2    C3 9372   2.789   1.775  17.375  0.4181  0.7240  0.0179
  633MPD2    C4 9373   2.743   1.811  17.497  0.3983 -0.1068  0.3339
  633MPD2    C5 9374   2.637   1.909  17.506  0.0736  0.2630  0.4340
  633MPD2     H 9375   2.801   1.846  17.171  1.8109 -0.4755  0.9675
  633MPD2    H1 9376   2.790   1.768  17.585  1.0308 -1.2774 -0.5806
  633MPD2    H2 9377   2.516   2.046  17.406  1.3814  0.9908  1.4960
  633MPD2    H3 9378   2.592   1.917  17.604 -1.5278 -0.1833 -0.2736
  633MPD2     N 9379   2.878   1.668  17.361 -0.4034 -0.4128  0.2512
  633MPD2    H5 9380   2.924   1.633  17.445  2.3249  1.6252 -0.3910
  633MPD2    N1 9381   2.649   2.025  17.157  0.2307 -0.0505  0.3861
  633MPD2    H7 9382   2.696   1.994  17.072 -1.4068  1.4887 -1.0749
  634TMC3    C1 9383   2.566   2.163  16.985 -0.8052  0.2634  0.2847
  634TMC3    C2 9384   2.635   2.087  16.891  0.2324 -0.1673  0.4460
  634TMC3    C3 9385   2.633   2.126  16.759  0.7517 -0.0828  0.8880
  634TMC3    C4 9386   2.494   2.275  16.943  0.1354  0.2405 -0.0940
  634TMC3    C5 9387   2.498   2.309  16.809 -0.1742  0.5336 -0.0618
  634TMC3    C6 9388   2.553   2.223  16.715 -0.8963 -0.4245 -0.1913
  634TMC3     C 9389   2.566   2.127  17.132  0.4147 -0.0435 -0.1822
  634TMC3     O 9390   2.485   2.187  17.205 -0.1990  0.1312 -0.4602
  634TMC3     H 9391   2.700   2.002  16.908  0.8547  0.4635  1.2119
  634TMC3    H1 9392   2.465   2.343  17.022  3.2368  1.5377 -0.0653
  634TMC3    H2 9393   2.543   2.242  16.609 -0.2608 -0.1713 -0.2037
  634TMC3    C7 9394   2.427   2.411  16.752  0.2365  0.0399 -0.0865
  634TMC3    C8 9395   2.690   2.032  16.662 -0.5388 -0.0141  0.1499
  634TMC3    O1 9396   2.469   2.450  16.649 -0.0464 -0.2310 -0.6208
  634TMC3    O2 9397   2.722   1.918  16.692  0.0226  0.2934  0.2983
  635TMC3    C1 9398   2.491   2.840   0.118  0.0841 -0.1898 -0.6694
  635TMC3    C2 9399   2.470   2.901  17.690  0.1498  0.2076  0.4193
  635TMC3    C3 9400   2.482   2.834  17.577  0.4990 -0.2378  0.0388
  635TMC3    C4 9401   2.529   2.707   0.122  0.0472 -0.0221  0.3944
  635TMC3    C5 9402   2.561   2.645   0.004 -0.1256  0.4546  0.1571
  635TMC3    C6 9403   2.532   2.706  17.572  0.5907 -0.5027 -0.0904
  635TMC3     C 9404   2.539   2.929   0.213 -0.4807 -0.2750  0.3840
  635TMC3     O 9405   2.571   3.041   0.170  1.0745  0.1229 -0.1395
  635TMC3     H 9406   2.424   2.999  17.688  0.4031  0.2930 -1.1211
  635TMC3    H1 9407   2.557   2.656   0.214 -0.8696 -1.2065  0.0297
  635TMC3    H2 9408   2.524   2.649  17.481 -1.2992  0.0973 -0.3035
  635TMC3    C7 9409   2.619   2.517   0.006  0.0157  0.0738  0.5874
  635TMC3    C8 9410   2.462   2.913  17.456 -0.1937 -0.2423  0.2661
  635TMC3    O1 9411   2.603   2.443   0.100  0.6424 -0.3726  0.4707
  635TMC3    O2 9412   2.367   2.992  17.454 -0.2357 -0.1015 -0.0910
  636MPD2     C 9413   4.084   2.099  15.401 -0.3222 -0.2872  0.3045
  636MPD2    C1 9414   4.007   2.060  15.505  0.2776 -0.2036  0.3438
  636MPD2    C2 9415   4.033   1.926  15.542  0.3887 -0.8502 -0.2890
  636MPD2    C3 9416   4.125   1.840  15.487 -0.6227 -0.5538 -0.6737
  636MPD2    C4 9417   4.191   1.889  15.381  0.1606  0.0911 -0.0530
  636MPD2    C5 9418   4.174   2.017  15.341 -0.4219  0.3355 -0.1578
  636MPD2     H 9419   3.976   1.878  15.621 -0.7934  1.2049  0.1228
  636MPD2    H1 9420   4.268   1.837  15.326  2.1455  0.5436  2.3144
  636MPD2    H2 9421   4.060   2.193  15.352  3.1530 -0.6786 -2.2111
  636MPD2    H3 9422   4.231   2.051  15.255 -0.0786 -2.2002 -0.9097
  636MPD2     N 9423   4.142   1.711  15.541  0.0234  0.1136  0.4529
  636MPD2    H5 9424   4.077   1.676  15.610 -0.2670  1.5713  0.9356
  636MPD2    N1 9425   3.920   2.137  15.587  0.0035 -0.5901  0.1336
  636MPD2    H7 9426   3.884   2.087  15.667  0.0891 -0.1607  0.4396
  637TMC3    C1 9427   4.219   1.490  15.555  0.5151 -0.4470  0.2809
  637TMC3    C2 9428   4.103   1.451  15.613  0.0894  0.4451  0.3864
  637TMC3    C3 9429   4.104   1.331  15.679 -0.3190  1.3275  0.0479
  637TMC3    C4 9430   4.323   1.406  15.537  0.4610  0.2033  0.4675
  637TMC3    C5 9431   4.311   1.279  15.585 -0.1074  0.3932  0.2267
  637TMC3    C6 9432   4.203   1.240  15.661  0.3627 -0.3473 -0.3026
  637TMC3     C 9433   4.234   1.622  15.500 -0.3162 -0.0669 -0.3178
  637TMC3     O 9434   4.336   1.646  15.439 -0.1357  0.0415  0.1360
  637TMC3     H 9435   4.018   1.517  15.626 -0.9845 -0.4930 -1.9809
  637TMC3    H1 9436   4.410   1.445  15.486 -0.5538  0.3898 -1.1334
  637TMC3    H2 9437   4.193   1.136  15.687 -2.5809 -0.1565 -0.6587
  637TMC3    C7 9438   4.418   1.179  15.589  0.5222 -0.3343 -0.5806
  637TMC3    C8 9439   3.982   1.300  15.755  0.1881 -0.0278 -0.0970
  637TMC3    O1 9440   4.415   1.098  15.684  0.1154  0.0898  0.5009
  637TMC3    O2 9441   3.875   1.349  15.715 -0.1392  0.3624  0.4493
  638MPD2     C 9442   3.585   1.038  15.107 -0.4673 -0.0151 -0.2212
  638MPD2    C1 9443   3.560   0.928  15.034  0.3350  0.2907 -0.2189
  638MPD2    C2 9444   3.497   0.818  15.086  0.3309  0.0942  0.7093
  638MPD2    C3 9445   3.456   0.824  15.222 -0.4751 -0.1382  0.6505
  638MPD2    C4 9446   3.479   0.941  15.294  0.6778 -0.1186 -0.5137
  638MPD2    C5 9447   3.531   1.048  15.233 -0.7707 -0.5009  0.4759
  638MPD2     H 9448   3.474   0.728  15.030  1.4655  0.4608 -0.3480
  638MPD2    H1 9449   3.444   0.949  15.397 -0.0808 -2.9238 -0.5722
  638MPD2    H2 9450   3.625   1.134  15.075 -0.3625  0.8365  2.4517
  638MPD2    H3 9451   3.531   1.144  15.284 -0.2585  0.5864 -1.6025
  638MPD2     N 9452   3.399   0.713  15.286  0.2470  1.2957 -0.4682
  638MPD2    H5 9453   3.390   0.713  15.387  1.3350  1.0704 -0.3739
  638MPD2    N1 9454   3.585   0.941  14.895  0.1322 -0.4923 -0.6653
  638MPD2    H7 9455   3.609   1.033  14.859  0.3494 -0.0495  0.6092
  639TMC3    C1 9456   3.320   0.498  15.311 -0.3442 -0.5161  0.0947
  639TMC3    C2 9457   3.217   0.421  15.268 -0.2164 -1.0207  0.7764
  639TMC3    C3 9458   3.188   0.315  15.353  0.0457  0.4490  0.7017
  639TMC3    C4 9459   3.400   0.478  15.424  0.5926  0.1885  0.6449
  639TMC3    C5 9460   3.369   0.368  15.495  0.3354 -0.5744 -0.1942
  639TMC3    C6 9461   3.256   0.298  15.467  0.3312  0.1596  0.2945
  639TMC3     C 9462   3.356   0.605  15.219 -0.3195  0.7262 -0.4629
  639TMC3     O 9463   3.324   0.583  15.104 -0.1841  0.3405  0.1333
  639TMC3     H 9464   3.159   0.430  15.177 -0.3163 -3.7646  0.5653
  639TMC3    H1 9465   3.491   0.534  15.442  1.1025 -0.7299  0.9197
  639TMC3    H2 9466   3.236   0.211  15.528 -0.0143  0.7402  1.0115
  639TMC3    C7 9467   3.473   0.271  15.525 -0.4090  0.1786  0.0608
  639TMC3    C8 9468   3.117   0.198  15.318  0.1051  0.6959  0.5085
  639TMC3    O1 9469   3.442   0.172  15.591  0.5301  0.9362 -0.2767
  639TMC3    O2 9470   3.018   0.163  15.384  0.0653  0.0488 -0.4222
  640MPD2     C 9471   3.255   4.368  10.122  0.0156  0.9681  0.0244
  640MPD2    C1 9472   3.277   4.427   9.999  0.0826  0.1207 -1.1921
  640MPD2    C2 9473   3.208   4.533   9.959 -0.1865 -0.2018 -0.5521
  640MPD2    C3 9474   3.095   4.580  10.033  0.3973  0.2355 -0.3189
  640MPD2    C4 9475   3.071   4.511  10.148 -0.6250  0.4312  0.0472
  640MPD2    C5 9476   3.147   4.410  10.192 -1.2961 -0.5226  0.2691
  640MPD2     H 9477   3.224   4.587   9.867 -1.5119  1.5421  0.2308
  640MPD2    H1 9478   2.984   4.547  10.201 -1.9627 -0.6153 -1.4268
  640MPD2    H2 9479   3.312   4.285  10.162  0.6105  0.4740 -1.8310
  640MPD2    H3 9480   3.132   4.358  10.286 -0.8541  1.4187  1.4112
  640MPD2     N 9481   3.007   4.686   9.996  0.3808 -0.0639  0.5666
  640MPD2    H5 9482   2.925   4.710  10.051  2.1612  2.9764  1.9017
  640MPD2    N1 9483   3.383   4.381   9.922  0.1002 -0.0746  0.0254
  640MPD2    H7 9484   3.428   4.300   9.963 -0.8779 -0.7943 -0.3074
  641TMC3    C1 9485   3.518   4.326   9.731  0.8141  0.1051 -0.7013
  641TMC3    C2 9486   3.596   4.245   9.814 -0.0674  0.3620  0.4038
  641TMC3    C3 9487   3.666   4.143   9.749  0.6349  0.3247  0.1898
  641TMC3    C4 9488   3.517   4.304   9.595  0.4387 -0.0712  0.1915
  641TMC3    C5 9489   3.590   4.206   9.541  0.2035  0.1191 -0.1368
  641TMC3    C6 9490   3.676   4.124   9.612 -0.1350 -0.3695  0.9600
  641TMC3     C 9491   3.412   4.411   9.790  0.3483 -0.0176 -0.3976
  641TMC3     O 9492   3.366   4.495   9.712 -0.2700  0.8549 -0.2725
  641TMC3     H 9493   3.583   4.235   9.922 -0.3869  0.2497  0.3549
  641TMC3    H1 9494   3.457   4.370   9.533  0.2302 -1.1329 -0.7306
  641TMC3    H2 9495   3.736   4.043   9.573  1.1318  0.8536  0.3787
  641TMC3    C7 9496   3.578   4.179   9.401 -0.1409  0.0927 -0.1470
  641TMC3    C8 9497   3.713   4.044   9.835  0.1492 -0.3767  0.5401
  641TMC3    O1 9498   3.545   4.266   9.317 -0.4907  0.3392  0.2752
  641TMC3    O2 9499   3.706   3.928   9.796  0.0275  0.3171 -0.6961
  642TMC3    C1 9500   0.754   1.030  11.858  0.3830 -0.3372  0.4981
  642TMC3    C2 9501   0.789   1.082  11.977  0.2234 -0.1175  0.3565
  642TMC3    C3 9502   0.780   1.009  12.088  0.3510 -0.1257  0.8540
  642TMC3    C4 9503   0.710   0.900  11.843 -0.5251 -1.2189  0.1872
  642TMC3    C5 9504   0.685   0.828  11.959  0.3571  0.1440 -0.0841
  642TMC3    C6 9505   0.728   0.875  12.077  0.6397  0.5711 -0.1001
  642TMC3     C 9506   0.671   1.116  11.780  0.2914 -0.4521 -0.6426
  642TMC3     O 9507   0.649   1.091  11.660  0.3283 -0.4807  0.5740
  642TMC3     H 9508   0.826   1.182  11.992 -1.9303  0.2633  3.0862
  642TMC3    H1 9509   0.663   0.871  11.750 -2.6698 -0.4627  1.0411
  642TMC3    H2 9510   0.717   0.821  12.170  0.4473  1.1962  0.2416
  642TMC3    C7 9511   0.616   0.703  11.941 -0.5257  0.2960 -0.4845
  642TMC3    C8 9512   0.869   1.056  12.204 -0.4543 -0.4832  0.3500
  642TMC3    O1 9513   0.582   0.670  11.825  0.0757 -0.2259 -0.1200
  642TMC3    O2 9514   0.918   1.167  12.203  0.7849  0.0014  1.0590
  643TMC3    C1 9515   4.432   4.528   0.685 -0.4030 -0.7840  0.4064
  643TMC3    C2 9516   4.309   4.582   0.658  0.3533 -0.0839  0.1712
  643TMC3    C3 9517   4.273   4.616   0.523  0.1958 -0.2503 -0.4194
  643TMC3    C4 9518   4.519   4.504   0.583 -0.2966 -0.3236  0.3941
  643TMC3    C5 9519   4.478   4.544   0.459  0.4338  0.2236 -0.3485
  643TMC3    C6 9520   4.361   4.601   0.425 -0.2322 -0.4185 -0.3351
  643TMC3     C 9521   4.489   4.605   0.800 -0.8617  0.0116 -0.6520
  643TMC3     O 9522   4.450   4.718   0.813  0.4261  0.6518 -0.1994
  643TMC3     H 9523   4.248   4.614   0.742  1.2420 -0.7778  1.0816
  643TMC3    H1 9524   4.625   4.487   0.598 -0.3557 -0.0301  1.1155
  643TMC3    H2 9525   4.329   4.623   0.324 -4.1195  1.3243  1.2731
  643TMC3    C7 9526   4.578   4.541   0.355 -0.6709 -0.1216 -0.3970
  643TMC3    C8 9527   4.190   0.020   0.517  0.2361  0.4331 -0.2923
  643TMC3    O1 9528   4.551   4.617   0.262 -0.4763 -0.1368  0.3786
  643TMC3    O2 9529   4.086   0.023   0.581 -0.2625 -0.0733 -0.3944
  644MPD2     C 9530   3.445   4.640  10.362 -0.3235 -0.1089 -0.1010
  644MPD2    C1 9531   3.548   4.699  10.293 -0.2862  0.8781  0.0763
  644MPD2    C2 9532   3.521   0.072  10.193  0.1281 -0.1236  0.1546
  644MPD2    C3 9533   3.390   0.116  10.181  0.8876  0.1147  0.2901
  644MPD2    C4 9534   3.285   0.054  10.239  0.3436  0.0473  0.1405
  644MPD2    C5 9535   3.314   4.674  10.327 -0.1552 -0.2614 -0.5883
  644MPD2     H 9536   3.596   0.133  10.143 -1.1661  0.7647 -0.6957
  644MPD2    H1 9537   3.182   0.070  10.211  0.3201 -0.1797  0.1040
  644MPD2    H2 9538   3.448   4.567  10.442  0.7821  0.7260  0.6306
  644MPD2    H3 9539   3.233   4.619  10.373 -0.5555  0.5214 -0.3526
  644MPD2     N 9540   3.366   0.215  10.087  0.9540  0.9580 -0.6583
  644MPD2    H5 9541   3.445   0.258  10.041  1.6020 -0.1099 -0.5406
  644MPD2    N1 9542   3.674   4.658  10.334  0.2915 -0.6199  0.0380
  644MPD2    H7 9543   3.674   4.605  10.421 -2.4099 -0.5719  0.0734
  645TMC3    C1 9544   3.259   0.341   9.926  0.7226 -1.0456  0.2855
  645TMC3    C2 9545   3.160   0.431   9.907 -0.8158 -0.7458  0.7520
  645TMC3    C3 9546   3.187   0.527   9.810  0.4622  0.2605  0.6704
  645TMC3    C4 9547   3.368   0.326   9.851 -0.0969 -0.0814 -0.4758
  645TMC3    C5 9548   3.382   0.417   9.749 -0.4442  0.1873  0.5416
  645TMC3    C6 9549   3.302   0.522   9.731  0.1661  0.2138 -0.2885
  645TMC3     C 9550   3.244   0.264  10.047 -0.7508  0.3776  0.1220
  645TMC3     O 9551   3.137   0.264  10.102  0.0448 -0.1108  0.6267
  645TMC3     H 9552   3.088   0.452   9.985 -0.1299  2.0008  0.6384
  645TMC3    H1 9553   3.430   0.238   9.846 -0.6817 -0.5003 -0.3052
  645TMC3    H2 9554   3.326   0.601   9.661 -0.1000  0.7768  0.2515
  645TMC3    C7 9555   3.496   0.409   9.664 -0.0112  0.2923  0.3629
  645TMC3    C8 9556   3.093   0.628   9.790  0.4441 -0.1514  0.4087
  645TMC3    O1 9557   3.501   0.473   9.559 -0.0020 -0.2254  0.3328
  645TMC3    O2 9558   2.978   0.599   9.825 -0.1834  0.2358 -0.0822
  646MPD2     C 9559   3.878   4.363  14.643  0.0124 -0.3445  0.0511
  646MPD2    C1 9560   3.784   4.337  14.739  0.3508 -0.1088 -0.2717
  646MPD2    C2 9561   3.652   4.366  14.716 -0.2725 -0.2176  0.0488
  646MPD2    C3 9562   3.618   4.431  14.596 -0.0131  0.3579 -0.1041
  646MPD2    C4 9563   3.717   4.470  14.512 -0.6506  0.4074  0.1075
  646MPD2    C5 9564   3.845   4.427  14.528 -0.3486 -0.1422 -0.0042
  646MPD2     H 9565   3.566   4.343  14.778  0.2437  0.5841  1.0848
  646MPD2    H1 9566   3.707   4.527  14.421  1.1712  0.2043 -0.2131
  646MPD2    H2 9567   3.983   4.353  14.670 -0.4880 -0.7740  1.9001
  646MPD2    H3 9568   3.927   4.454  14.462 -1.0756  0.4244 -0.6759
  646MPD2     N 9569   3.480   4.444  14.565 -0.0249  0.0654  0.5830
  646MPD2    H5 9570   3.423   4.423  14.647 -0.5692 -1.4191 -0.1764
  646MPD2    N1 9571   3.840   4.261  14.838 -0.0483  0.1101 -0.1770
  646MPD2    H7 9572   3.939   4.240  14.832 -0.1243 -0.4723  0.5349
  647TMC3    C1 9573   3.846   4.169  15.053  0.2415  0.0609  0.1553
  647TMC3    C2 9574   3.782   4.094  15.153 -0.4331  0.1828 -0.3788
  647TMC3    C3 9575   3.872   4.028  15.239 -0.5335  0.2574 -0.9651
  647TMC3    C4 9576   3.986   4.196  15.053  0.0148  0.2819  0.2325
  647TMC3    C5 9577   4.058   4.126  15.142  0.5655  0.3146 -0.5523
  647TMC3    C6 9578   4.005   4.051  15.233  0.0637  0.3457  0.2007
  647TMC3     C 9579   3.765   4.228  14.951 -0.5456 -0.0240 -0.4516
  647TMC3     O 9580   3.645   4.232  14.969 -0.2676 -0.0304 -0.4176
  647TMC3     H 9581   3.676   4.074  15.144 -0.4917  0.0078  0.7315
  647TMC3    H1 9582   4.035   4.266  14.985  1.1525 -1.0377 -0.3283
  647TMC3    H2 9583   4.071   3.993  15.297  0.6380  0.6770 -0.0874
  647TMC3    C7 9584   4.204   4.099  15.130  0.3322 -1.0530 -0.1310
  647TMC3    C8 9585   3.832   3.911  15.320 -0.2650  0.0645 -0.2006
  647TMC3    O1 9586   4.262   4.038  15.214  0.0889 -0.5628 -0.5154
  647TMC3    O2 9587   3.905   3.867  15.411 -0.0673  0.0091  0.1542
  648TMC3    C1 9588   3.196   2.037  16.035 -0.8275 -0.2927  0.6334
  648TMC3    C2 9589   3.241   1.917  16.007 -0.3226  0.3842  1.0568
  648TMC3    C3 9590   3.200   1.856  15.890 -0.0539  0.0092  0.0514
  648TMC3    C4 9591   3.088   2.098  15.965  0.1171 -0.0473 -0.4030
  648TMC3    C5 9592   3.042   2.028  15.859  0.4700  0.4940  0.4318
  648TMC3    C6 9593   3.102   1.908  15.816  0.3000  0.0606  0.0206
  648TMC3     C 9594   3.208   2.078  16.178  0.5803  0.6229 -0.4214
  648TMC3     O 9595   3.188   2.198  16.202 -0.6542  0.0624 -0.0991
  648TMC3     H 9596   3.320   1.867  16.061  0.1136 -1.7120 -1.5068
  648TMC3    H1 9597   3.057   2.198  15.993  0.3640  0.5914 -2.4584
  648TMC3    H2 9598   3.072   1.859  15.724  0.1849  0.2227 -0.0298
  648TMC3    C7 9599   2.921   2.067  15.788  0.9709 -0.1505  0.8906
  648TMC3    C8 9600   3.249   1.715  15.858 -0.0857 -0.1546  0.6147
  648TMC3    O1 9601   2.883   1.993  15.697  0.3683 -0.3836  0.5647
  648TMC3    O2 9602   3.343   1.675  15.915  0.2255 -0.2688  0.1355
  649TMC3    C1 9603   2.127   3.241  12.308  0.5440 -0.6943 -0.0210
  649TMC3    C2 9604   2.211   3.290  12.212 -0.1720 -0.6123  0.3660
  649TMC3    C3 9605   2.343   3.271  12.235  0.7003 -0.4940  0.1182
  649TMC3    C4 9606   2.172   3.185  12.423 -0.0479  0.0848 -0.7616
  649TMC3    C5 9607   2.309   3.173  12.447  0.5910  0.2015  0.8000
  649TMC3    C6 9608   2.402   3.216  12.351 -0.0517  0.1711  0.4878
  649TMC3     C 9609   1.979   3.271  12.298 -0.2478  0.8545  0.2111
  649TMC3     O 9610   1.915   3.236  12.397 -0.1508  0.3793  0.5425
  649TMC3     H 9611   2.185   3.351  12.126  2.0026  0.0463  0.1862
  649TMC3    H1 9612   2.111   3.163  12.510 -0.4748 -1.5213 -1.4685
  649TMC3    H2 9613   2.509   3.211  12.363  0.3450  0.3177 -2.8983
  649TMC3    C7 9614   2.358   3.098  12.558  0.5749 -0.2798  0.8515
  649TMC3    C8 9615   2.433   3.285  12.120  0.2862  0.4741  0.5980
  649TMC3    O1 9616   2.481   3.087  12.558  0.6585 -0.0523  0.4219
  649TMC3    O2 9617   2.549   3.237  12.138 -0.4086  0.0517  0.2771
  650TMC3    C1 9618   0.182   0.346  12.743  0.4581  0.4654 -0.9280
  650TMC3    C2 9619   0.148   0.474  12.757  0.0219 -0.0700 -0.7346
  650TMC3    C3 9620   0.094   0.538  12.648  1.0705  0.1819 -0.0106
  650TMC3    C4 9621   0.144   0.271  12.639  0.6923 -0.2527  0.0032
  650TMC3    C5 9622   0.105   0.338  12.523 -0.0042 -0.8721 -0.8417
  650TMC3    C6 9623   0.075   0.471  12.526 -0.3858  0.2173 -0.2672
  650TMC3     C 9624   0.201   0.267  12.865 -0.8385 -0.2396 -0.3364
  650TMC3     O 9625   0.166   0.311  12.976 -0.2141 -0.0768 -0.1497
  650TMC3     H 9626   0.199   0.530  12.834 -1.2897  1.7239 -1.1648
  650TMC3    H1 9627   0.169   0.166  12.628 -0.2058 -0.5258  0.5355
  650TMC3    H2 9628   0.046   0.523  12.435 -1.8295  0.6595  0.4537
  650TMC3    C7 9629   0.069   0.252  12.409  0.4367 -1.0870  0.4554
  650TMC3    C8 9630   0.114   0.683  12.632  0.2251  0.5372  0.8436
  650TMC3    O1 9631   0.123   0.145  12.408  0.3568 -0.0177  0.2055
  650TMC3    O2 9632   0.122   0.731  12.521 -0.3403 -0.3379 -0.0744
  651MPD2     C 9633   3.115   1.807  10.496 -0.0498  0.3799  0.6568
  651MPD2    C1 9634   3.105   1.835  10.627  0.1358 -0.9843  0.0519
  651MPD2    C2 9635   3.216   1.891  10.693 -0.0099 -0.3294  0.1149
  651MPD2    C3 9636   3.329   1.919  10.623 -0.7250 -0.1373  0.0151
  651MPD2    C4 9637   3.337   1.893  10.482  0.2457 -0.1538  0.5421
  651MPD2    C5 9638   3.225   1.832  10.427 -0.6232 -0.1532 -0.2220
  651MPD2     H 9639   3.205   1.919  10.797 -0.5175 -0.2582  0.0426
  651MPD2    H1 9640   3.415   1.930  10.416  0.4641 -1.2066  0.2052
  651MPD2    H2 9641   3.032   1.770  10.436  0.8090  0.8409 -0.8054
  651MPD2    H3 9642   3.233   1.822  10.319  0.2808 -0.4869 -0.1214
  651MPD2     N 9643   3.437   1.986  10.689 -0.4896 -0.4248 -0.4831
  651MPD2    H5 9644   3.429   1.995  10.790  1.7402  0.3318 -0.3616
  651MPD2    N1 9645   2.989   1.813  10.702 -0.2122 -0.5359  0.4840
  651MPD2    H7 9646   2.993   1.841  10.800 -1.0339  1.4945 -0.0815
  652TMC3    C1 9647   3.829   2.133  10.840  0.3503  0.1525 -0.6262
  652TMC3    C2 9648   3.758   2.093  10.730 -0.2460  0.0531 -0.1917
  652TMC3    C3 9649   3.626   2.111  10.728  0.6610  0.4307  0.0528
  652TMC3    C4 9650   3.767   2.203  10.941 -0.5167 -0.4781 -0.6462
  652TMC3    C5 9651   3.633   2.230  10.928  0.4966 -0.3080  0.2538
  652TMC3    C6 9652   3.561   2.184  10.821 -0.2700  0.7165 -0.4194
  652TMC3     C 9653   3.971   2.142  10.836  0.4432 -0.2827 -0.9496
  652TMC3     O 9654   4.028   2.174  10.940 -0.1306  0.5588  0.2016
  652TMC3     H 9655   3.804   2.056  10.639  0.5334  1.2641 -0.2935
  652TMC3    H1 9656   3.825   2.257  11.015 -0.9103 -1.6981  0.5586
  652TMC3    H2 9657   3.453   2.196  10.815 -0.4228 -0.5040 -0.0834
  652TMC3    C7 9658   3.587   2.351  10.991  0.0939 -0.3368 -0.0946
  652TMC3    C8 9659   3.557   2.025  10.636  0.3506 -0.0844  0.2936
  652TMC3    O1 9660   3.606   2.366  11.110  0.0693  0.2913  0.1071
  652TMC3    O2 9661   3.608   2.007  10.528 -0.4079 -0.5090  0.1367
  653MPD2     C 9662   2.286   1.864  17.460 -0.5709  0.1165  0.6438
  653MPD2    C1 9663   2.179   1.939  17.412  0.6963  0.0257  0.0026
  653MPD2    C2 9664   2.105   1.887  17.304  0.1925  0.4346  0.3290
  653MPD2    C3 9665   2.124   1.753  17.260 -0.4702  0.0356 -0.0540
  653MPD2    C4 9666   2.223   1.682  17.323  0.2397 -0.0631 -0.3344
  653MPD2    C5 9667   2.301   1.734  17.417  0.4587  0.3467 -0.1436
  653MPD2     H 9668   2.027   1.953  17.268  1.2417  1.3414 -0.2996
  653MPD2    H1 9669   2.240   1.577  17.302 -1.1597 -0.0001 -1.7996
  653MPD2    H2 9670   2.347   1.899  17.542 -0.7526  3.1130 -0.4963
  653MPD2    H3 9671   2.380   1.676  17.463  1.6080  2.2396  0.2566
  653MPD2     N 9672   2.043   1.697  17.160  0.0747 -0.7207 -1.1098
  653MPD2    H5 9673   1.982   1.769  17.123  2.6177  0.7455 -2.4697
  653MPD2    N1 9674   2.162   2.068  17.471 -0.0311  0.5543  0.3100
  653MPD2    H7 9675   2.107   2.133  17.416  1.1862  0.4169 -1.0998
  654TMC3    C1 9676   1.969   1.554  16.980  0.0893 -0.3573  0.1670
  654TMC3    C2 9677   1.859   1.632  16.972 -0.0259 -0.7530  0.0372
  654TMC3    C3 9678   1.762   1.593  16.886  0.4248 -0.2846 -0.1881
  654TMC3    C4 9679   1.990   1.441  16.901 -0.6080  0.0538  0.4825
  654TMC3    C5 9680   1.886   1.413  16.815  0.1149  0.0939 -0.2174
  654TMC3    C6 9681   1.767   1.481  16.806 -0.6055  0.7639 -0.3381
  654TMC3     C 9682   2.066   1.579  17.090  0.0577 -0.5403 -0.1820
  654TMC3     O 9683   2.161   1.498  17.112 -0.0882  0.1479 -0.2473
  654TMC3     H 9684   1.847   1.713  17.042 -0.2685  1.1812 -2.2334
  654TMC3    H1 9685   2.086   1.391  16.903  0.4588  2.1815  2.1958
  654TMC3    H2 9686   1.683   1.462  16.741  1.4347 -1.5808 -2.2984
  654TMC3    C7 9687   1.899   1.313  16.715  0.2519  0.3192  0.1453
  654TMC3    C8 9688   1.653   1.690  16.867  0.1708  0.4641 -0.4142
  654TMC3    O1 9689   1.830   1.332  16.615  0.2509 -0.2286 -0.0090
  654TMC3    O2 9690   1.540   1.647  16.841 -0.2602 -0.0980  0.0193
  655MPD2     C 9691   3.531   2.159  15.963  0.0885 -0.2989 -0.2912
  655MPD2    C1 9692   3.475   2.192  15.843 -0.1719  0.1589  0.0621
  655MPD2    C2 9693   3.508   2.116  15.732 -0.0369  0.4417  0.7191
  655MPD2    C3 9694   3.600   2.008  15.741  0.7600  0.0554 -0.0596
  655MPD2    C4 9695   3.649   1.976  15.865 -0.0394 -0.0387 -0.6355
  655MPD2    C5 9696   3.616   2.052  15.978  0.1753 -0.7808 -0.1891
  655MPD2     H 9697   3.463   2.146  15.638 -2.5473 -1.1273  1.4003
  655MPD2    H1 9698   3.711   1.889  15.880 -0.9795 -0.1154  2.8341
  655MPD2    H2 9699   3.496   2.212  16.051  0.6218  0.2658 -0.4166
  655MPD2    H3 9700   3.664   2.031  16.073  0.3938  1.5439  0.2349
  655MPD2     N 9701   3.628   1.930  15.628 -0.4884  0.7120  0.3704
  655MPD2    H5 9702   3.673   1.839  15.635 -0.6058  0.7602  1.6074
  655MPD2    N1 9703   3.375   2.289  15.830  0.1713 -0.2044 -0.3990
  655MPD2    H7 9704   3.315   2.279  15.750  1.0014 -0.8324 -0.9515
  656TMC3    C1 9705   3.231   2.454  15.913 -0.1870  0.1700 -0.9570
  656TMC3    C2 9706   3.164   2.495  16.030 -0.0149 -0.7089  0.2778
  656TMC3    C3 9707   3.036   2.550  16.012 -0.3655 -0.1779 -0.5690
  656TMC3    C4 9708   3.167   2.467  15.786 -0.1308 -0.3426  0.3038
  656TMC3    C5 9709   3.031   2.503  15.782  1.1294  0.8256 -0.8012
  656TMC3    C6 9710   2.967   2.553  15.894 -0.0589 -0.1050  0.3150
  656TMC3     C 9711   3.357   2.384  15.929 -0.2958  0.2411  0.5823
  656TMC3     O 9712   3.430   2.437  16.013 -0.7425 -0.1228 -0.1939
  656TMC3     H 9713   3.205   2.469  16.127 -2.0711 -0.9605  1.0839
  656TMC3    H1 9714   3.212   2.436  15.693 -1.9090  0.3713 -0.7835
  656TMC3    H2 9715   2.873   2.607  15.898  0.6749  1.2164 -0.2309
  656TMC3    C7 9716   2.974   2.536  15.655  0.7887  0.0756 -1.9128
  656TMC3    C8 9717   2.950   2.521  16.119  0.2754 -0.2746 -0.2832
  656TMC3    O1 9718   3.055   2.560  15.561  0.3075  0.2942 -0.1322
  656TMC3    O2 9719   2.915   2.402  16.122 -0.3551 -0.3824 -0.1166
  657TMC3    C1 9720   2.495   1.197  14.888 -0.1219  0.2547  0.0843
  657TMC3    C2 9721   2.372   1.148  14.926 -0.3418  0.2181 -0.1614
  657TMC3    C3 9722   2.289   1.237  14.991 -0.3210 -0.3966  0.4173
  657TMC3    C4 9723   2.543   1.330  14.909  0.1421 -0.1299 -0.7585
  657TMC3    C5 9724   2.452   1.411  14.970  0.7622  0.5543 -0.3512
  657TMC3    C6 9725   2.327   1.366  15.015  0.2335 -0.9413 -0.2607
  657TMC3     C 9726   2.600   1.102  14.847 -0.6322 -0.2445  0.4774
  657TMC3     O 9727   2.704   1.150  14.804  0.4313  0.1899  0.5932
  657TMC3     H 9728   2.341   1.048  14.898 -0.1535  0.4215 -1.0719
  657TMC3    H1 9729   2.643   1.362  14.884 -0.1384  1.5089  0.2681
  657TMC3    H2 9730   2.259   1.436  15.063  3.7440  0.1744  3.0829
  657TMC3    C7 9731   2.475   1.556  14.958 -0.2618 -0.2783  0.1596
  657TMC3    C8 9732   2.151   1.204  15.022 -0.4453  0.6256  1.2868
  657TMC3    O1 9733   2.421   1.607  15.059  0.5496 -0.0556  0.3084
  657TMC3    O2 9734   2.073   1.298  15.049  0.7591 -1.5414 -0.3088
  658MPD2     C 9735   3.867   1.652  14.814 -0.0691  0.1024 -0.2798
  658MPD2    C1 9736   3.869   1.775  14.885  0.3386  0.3786  0.0152
  658MPD2    C2 9737   3.883   1.897  14.819  0.7483 -0.0842  0.0811
  658MPD2    C3 9738   3.897   1.890  14.682  0.0146  0.5920 -0.7173
  658MPD2    C4 9739   3.893   1.771  14.612  0.1307  0.5747 -0.2074
  658MPD2    C5 9740   3.874   1.656  14.683  0.1869 -0.7913  0.4296
  658MPD2     H 9741   3.884   1.988  14.878 -0.1214 -0.2871  0.4081
  658MPD2    H1 9742   3.878   1.759  14.506 -0.7014 -0.5696  0.0453
  658MPD2    H2 9743   3.847   1.554  14.855  0.2294  0.2249  0.1584
  658MPD2    H3 9744   3.863   1.567  14.623  1.5166  0.0087 -1.0090
  658MPD2     N 9745   3.882   2.014  14.609 -0.3578  0.2422  1.0719
  658MPD2    H5 9746   3.866   2.099  14.663 -2.7422  0.1239  0.5773
  658MPD2    N1 9747   3.846   1.756  15.022 -0.1386  0.1657  0.0206
  658MPD2    H7 9748   3.837   1.663  15.061 -0.3202 -0.1127 -0.6856
  659TMC3    C1 9749   3.832   1.799  15.251  0.0379 -0.3127 -0.1895
  659TMC3    C2 9750   3.766   1.896  15.322 -0.6582 -0.0814 -0.0739
  659TMC3    C3 9751   3.665   1.863  15.407  0.8747 -0.5908 -0.0791
  659TMC3    C4 9752   3.788   1.667  15.260  0.0116  0.1965  0.0835
  659TMC3    C5 9753   3.688   1.640  15.352  0.3440  0.3053 -0.5367
  659TMC3    C6 9754   3.639   1.738  15.437 -0.1336 -0.5044 -0.3586
  659TMC3     C 9755   3.866   1.854  15.118  0.7546 -0.2443  0.4661
  659TMC3     O 9756   3.891   1.970  15.105  0.5363  0.1381 -0.6137
  659TMC3     H 9757   3.789   2.001  15.309  1.1899 -0.5086 -0.4038
  659TMC3    H1 9758   3.837   1.590  15.202  0.8459 -0.2370  1.3756
  659TMC3    H2 9759   3.586   1.705  15.525  1.0732 -1.0133  0.1754
  659TMC3    C7 9760   3.584   1.549  15.312 -0.0136  0.3255  0.5948
  659TMC3    C8 9761   3.628   1.971  15.492  0.0224 -0.5317  0.0341
  659TMC3    O1 9762   3.475   1.562  15.360 -0.0062  0.1014 -0.0371
  659TMC3    O2 9763   3.604   2.080  15.444  0.5339 -0.1041  0.6944
  660MPD2     C 9764   1.923   0.629  12.695  0.0992 -0.7176  0.6038
  660MPD2    C1 9765   1.791   0.656  12.665 -0.5005 -0.1858  0.1316
  660MPD2    C2 9766   1.694   0.611  12.746 -1.0539  0.8307 -0.5144
  660MPD2    C3 9767   1.728   0.544  12.867 -0.6250 -0.6419 -0.2177
  660MPD2    C4 9768   1.859   0.538  12.903  0.0803 -0.0704  0.8103
  660MPD2    C5 9769   1.955   0.577  12.814 -0.2223  0.6703 -0.2279
  660MPD2     H 9770   1.590   0.627  12.720 -0.2790  2.8760 -2.4053
  660MPD2    H1 9771   1.897   0.484  12.989 -1.0678 -0.6652  0.9407
  660MPD2    H2 9772   1.999   0.662  12.624  0.2206 -1.5226  0.3636
  660MPD2    H3 9773   2.059   0.575  12.845  0.1692 -1.9744 -1.6905
  660MPD2     N 9774   1.635   0.483  12.956  0.1283  0.6480  0.3470
  660MPD2    H5 9775   1.669   0.464  13.050 -0.5840 -1.6879  0.1219
  660MPD2    N1 9776   1.761   0.712  12.535 -0.3326 -0.4624  0.1437
  660MPD2    H7 9777   1.840   0.747  12.482 -1.2026  1.8732  0.3745
  661TMC3    C1 9778   1.635   0.810  12.357 -0.3365 -0.1711 -0.5757
  661TMC3    C2 9779   1.721   0.760  12.267 -0.4713  0.1712 -0.0720
  661TMC3    C3 9780   1.697   0.790  12.131  0.8938  0.3413 -0.4190
  661TMC3    C4 9781   1.527   0.880  12.321 -0.3693 -0.2520 -0.7466
  661TMC3    C5 9782   1.502   0.897  12.189  0.0244  1.2611  0.5340
  661TMC3    C6 9783   1.588   0.862  12.089 -0.2554 -0.2831 -0.9213
  661TMC3     C 9784   1.636   0.747  12.482  0.8226 -0.0128 -0.1431
  661TMC3     O 9785   1.531   0.744  12.540 -0.0181 -0.8496  0.3690
  661TMC3     H 9786   1.802   0.695  12.300 -0.8212  0.2051  0.8421
  661TMC3    H1 9787   1.449   0.912  12.388 -0.7756 -0.5341 -1.0835
  661TMC3    H2 9788   1.565   0.874  11.984  1.3957 -0.1940 -1.2808
  661TMC3    C7 9789   1.397   0.985  12.154 -0.3088 -0.3684  0.6666
  661TMC3    C8 9790   1.776   0.727  12.036 -0.0993  0.1441  0.5125
  661TMC3    O1 9791   1.388   1.085  12.224  0.5485 -0.8583  0.9926
  661TMC3    O2 9792   1.847   0.644  12.079  0.3241  0.4003 -0.2815
  662MPD2     C 9793   1.925   0.660  17.065  0.1274 -0.3707 -0.5725
  662MPD2    C1 9794   1.825   0.625  17.157 -0.3118  0.2194  0.1603
  662MPD2    C2 9795   1.768   0.721  17.238 -0.1703 -0.5785  0.6863
  662MPD2    C3 9796   1.825   0.845  17.246  0.4019 -0.1279  0.4856
  662MPD2    C4 9797   1.929   0.878  17.164 -0.2931 -0.7457 -0.6506
  662MPD2    C5 9798   1.971   0.787  17.070  0.3424  0.1840  0.1589
  662MPD2     H 9799   1.677   0.696  17.292 -1.0033  3.8985  1.3083
  662MPD2    H1 9800   1.986   0.970  17.170 -1.9651  0.2898 -0.9913
  662MPD2    H2 9801   1.981   0.588  17.007  1.9422 -1.9992  3.1661
  662MPD2    H3 9802   2.051   0.823  17.007  1.4594 -1.7343  0.4675
  662MPD2     N 9803   1.751   0.937  17.333  0.0352  0.5767  0.1128
  662MPD2    H5 9804   1.688   0.889  17.396  1.1815 -0.3702  0.5283
  662MPD2    N1 9805   1.774   0.490  17.166 -0.1013 -0.0459 -0.3877
  662MPD2    H7 9806   1.714   0.478  17.247  0.3704  0.4054  0.0284
  663TMC3    C1 9807   1.744   0.270  17.127 -0.0693 -0.0920  1.1795
  663TMC3    C2 9808   1.752   0.258  17.262 -0.9643 -0.3855  0.4908
  663TMC3    C3 9809   1.661   0.184  17.327 -0.4080  0.0153  0.3335
  663TMC3    C4 9810   1.659   0.190  17.048  0.6060  0.4732  0.4606
  663TMC3    C5 9811   1.592   0.098  17.119 -0.2179  0.3920 -0.0224
  663TMC3    C6 9812   1.580   0.104  17.258 -0.1832 -0.6848  0.4902
  663TMC3     C 9813   1.789   0.393  17.068 -0.0454 -0.4082 -0.5505
  663TMC3     O 9814   1.817   0.398  16.949  0.4975  0.4115  0.1355
  663TMC3     H 9815   1.832   0.301  17.321  0.3406  0.8188 -2.1575
  663TMC3    H1 9816   1.666   0.186  16.940 -0.9964  4.4100  0.2340
  663TMC3    H2 9817   1.525   0.029  17.314 -0.4806 -1.1435 -0.3978
  663TMC3    C7 9818   1.552   4.704  17.028 -0.5613 -0.1688  0.4029
  663TMC3    C8 9819   1.590   0.277  17.410 -0.2812  0.0881 -0.5889
  663TMC3    O1 9820   1.538   4.719  16.909 -0.0466 -0.6673 -0.1139
  663TMC3    O2 9821   1.623   0.393  17.382 -0.3845  0.4057 -0.3505
  664MPD2     C 9822   4.356   3.356  17.508 -0.0057 -0.7454 -0.2695
  664MPD2    C1 9823   4.469   3.411  17.565  0.0669  0.5065  0.3967
  664MPD2    C2 9824   4.479   3.417   0.013 -0.3656  0.0741  0.5687
  664MPD2    C3 9825   4.383   3.367   0.102 -0.2966 -0.4341 -0.5380
  664MPD2    C4 9826   4.272   3.313   0.041  0.1073 -1.0403  0.2086
  664MPD2    C5 9827   4.264   3.305  17.591 -0.5664 -0.7317 -0.4078
  664MPD2     H 9828   4.572   3.455   0.054 -1.3669  0.3915  2.5844
  664MPD2    H1 9829   4.194   3.268   0.101  1.1333 -0.6139  1.8607
  664MPD2    H2 9830   4.345   3.343  17.402  0.3090 -0.1337 -0.3802
  664MPD2    H3 9831   4.182   3.259  17.537 -2.0695 -1.4100  2.4233
  664MPD2     N 9832   4.416   3.360   0.238  0.5456  0.0623  0.5679
  664MPD2    H5 9833   4.509   3.387   0.267  0.4497 -0.9730  1.8746
  664MPD2    N1 9834   4.580   3.474  17.489  0.3453  0.3323 -0.1714
  664MPD2    H7 9835   4.649   3.524  17.544 -0.3360 -0.0587  1.0608
  665TMC3    C1 9836   4.404   3.295   0.475  0.1934  0.4859 -0.0219
  665TMC3    C2 9837   4.342   3.213   0.559  0.1735  0.3344  0.0223
  665TMC3    C3 9838   4.388   3.213   0.689  0.3309  0.4623  0.3521
  665TMC3    C4 9839   4.508   3.381   0.503 -0.4819  0.0547  0.5091
  665TMC3    C5 9840   4.562   3.372   0.629  0.1433 -0.3191 -0.2045
  665TMC3    C6 9841   4.502   3.288   0.720  0.2139  0.3002  0.1385
  665TMC3     C 9842   4.338   3.299   0.341  0.1767 -0.1655  0.3777
  665TMC3     O 9843   4.227   3.245   0.327  0.6454 -0.1266  0.2863
  665TMC3     H 9844   4.247   3.168   0.532  0.4592 -0.1956 -0.1239
  665TMC3    H1 9845   4.545   3.446   0.425  0.0953  0.2282  0.9321
  665TMC3    H2 9846   4.535   3.306   0.821 -1.3606  0.8273  0.5662
  665TMC3    C7 9847   4.578   3.511   0.674  0.2149 -0.0047 -0.1367
  665TMC3    C8 9848   4.319   3.150   0.796  0.1029  0.1187 -0.4115
  665TMC3    O1 9849   4.560   3.605   0.598  0.4263  0.0205  0.4914
  665TMC3    O2 9850   4.377   3.154   0.901  0.5869  0.1864  0.1655
  666TMC3    C1 9851   3.051   3.230   9.620 -0.2167 -0.5301 -0.6310
  666TMC3    C2 9852   3.116   3.109   9.615 -0.8494 -0.1429 -0.3371
  666TMC3    C3 9853   3.255   3.102   9.643 -0.9580 -0.5575 -0.4647
  666TMC3    C4 9854   3.124   3.345   9.624 -0.8656 -0.6212 -0.0653
  666TMC3    C5 9855   3.257   3.338   9.649  0.5296  0.5378  0.1769
  666TMC3    C6 9856   3.324   3.217   9.663 -0.5183 -0.0884 -0.1577
  666TMC3     C 9857   2.943   3.231   9.715 -0.0476  0.2163  0.1653
  666TMC3     O 9858   2.887   3.333   9.744 -0.8247 -0.7701  0.2033
  666TMC3     H 9859   3.059   3.018   9.597 -0.2983 -0.8385  1.4549
  666TMC3    H1 9860   3.063   3.432   9.647 -0.9974 -0.1793 -2.0712
  666TMC3    H2 9861   3.430   3.224   9.688 -0.7849  0.1973  0.9078
  666TMC3    C7 9862   3.328   3.453   9.700 -0.4099 -0.2328 -0.2238
  666TMC3    C8 9863   3.293   3.000   9.731 -0.2309  0.0473 -1.2503
  666TMC3    O1 9864   3.423   3.438   9.777  0.6289  0.0967 -0.3236
  666TMC3    O2 9865   3.202   2.932   9.779 -0.4848  0.3325  0.1027
  667MPD2     C 9866   0.710   3.206  15.083  0.2166  0.3824  0.2036
  667MPD2    C1 9867   0.597   3.286  15.109 -0.3522  0.2776 -0.6504
  667MPD2    C2 9868   0.494   3.284  15.014 -0.1091  0.0764  0.2084
  667MPD2    C3 9869   0.498   3.220  14.893  0.2117 -0.1523 -0.2361
  667MPD2    C4 9870   0.613   3.149  14.865  0.1410  0.3934  0.8308
  667MPD2    C5 9871   0.718   3.152  14.960 -1.1789  0.0746 -0.3187
  667MPD2     H 9872   0.405   3.338  15.044  0.0183  0.1298  0.4931
  667MPD2    H1 9873   0.632   3.089  14.777  0.0939  0.1758  0.9685
  667MPD2    H2 9874   0.791   3.189  15.153  0.0150 -1.3418  0.0136
  667MPD2    H3 9875   0.807   3.096  14.935  0.1535  2.1432 -0.1987
  667MPD2     N 9876   0.398   3.215  14.800  0.0831 -0.8838  0.3746
  667MPD2    H5 9877   0.406   3.149  14.723 -0.0175 -0.9779  0.4441
  667MPD2    N1 9878   0.572   3.338  15.236  0.2869 -0.0153 -0.2847
  667MPD2    H7 9879   0.484   3.386  15.247  0.0502 -0.7470  0.9856
  668TMC3    C1 9880   0.621   3.439  15.448 -0.1371  0.2164  0.2391
  668TMC3    C2 9881   0.713   3.527  15.492  0.1683 -0.4560  0.1484
  668TMC3    C3 9882   0.673   3.627  15.571  0.7943 -0.1185  0.1637
  668TMC3    C4 9883   0.488   3.446  15.474 -0.3095  0.7435 -0.1772
  668TMC3    C5 9884   0.460   3.543  15.562  0.4046 -0.1134 -0.2765
  668TMC3    C6 9885   0.543   3.643  15.607  0.3356 -0.0777 -0.3543
  668TMC3     C 9886   0.659   3.344  15.345 -0.0958 -0.0300 -0.0168
  668TMC3     O 9887   0.778   3.320  15.339  0.0272 -0.0160 -0.4384
  668TMC3     H 9888   0.818   3.515  15.470 -0.0447  1.1247 -1.6918
  668TMC3    H1 9889   0.408   3.378  15.446 -1.6332  1.4746  1.8244
  668TMC3    H2 9890   0.511   3.713  15.684 -0.3906 -2.2490  1.3012
  668TMC3    C7 9891   0.319   3.564  15.584 -0.0521  0.3403  0.0294
  668TMC3    C8 9892   0.764   3.727  15.618  0.2050 -0.2852  0.1941
  668TMC3    O1 9893   0.247   3.465  15.587  0.4329 -0.4589 -0.5306
  668TMC3    O2 9894   0.729   3.779  15.721 -0.4632 -0.2918  0.2710
  669TMC3    C1 9895   3.667   3.487  14.198  0.7625  0.1548  0.1958
  669TMC3    C2 9896   3.569   3.508  14.100 -0.0672 -0.2613  0.6333
  669TMC3    C3 9897   3.566   3.629  14.039 -0.1845  0.5432 -0.1825
  669TMC3    C4 9898   3.754   3.583  14.238  0.1850  0.2806 -0.8275
  669TMC3    C5 9899   3.738   3.709  14.178  0.3711  0.1423 -0.0526
  669TMC3    C6 9900   3.648   3.735  14.074  0.2266  0.1699  0.0320
  669TMC3     C 9901   3.673   3.360  14.261 -0.0168 -0.3644 -0.5417
  669TMC3     O 9902   3.575   3.283  14.253 -0.3804 -0.1264  0.5132
  669TMC3     H 9903   3.500   3.431  14.069 -0.2837 -0.4114  1.4942
  669TMC3    H1 9904   3.805   3.572  14.333 -3.0801 -1.2780  0.7420
  669TMC3    H2 9905   3.645   3.827  14.017  0.3935  1.4150  2.0251
  669TMC3    C7 9906   3.855   3.791  14.193 -0.3293 -1.0534 -0.1069
  669TMC3    C8 9907   3.451   3.656  13.955 -0.5602  0.4188  0.7197
  669TMC3    O1 9908   3.929   3.773  14.285 -0.4026  0.4295 -0.3569
  669TMC3    O2 9909   3.405   3.550  13.912 -0.1347 -0.0782 -0.4879
  670MPD2     C 9910   1.942   1.456  13.484 -0.0920  0.3156  0.5110
  670MPD2    C1 9911   2.008   1.465  13.603 -0.5083  0.0368  0.5945
  670MPD2    C2 9912   1.949   1.423  13.720  0.6763 -0.3462 -0.1964
  670MPD2    C3 9913   1.826   1.365  13.710  0.6480 -0.4576 -0.3759
  670MPD2    C4 9914   1.762   1.350  13.589 -0.1661 -0.0542 -0.3525
  670MPD2    C5 9915   1.825   1.393  13.477 -0.0476 -0.1911 -0.3413
  670MPD2     H 9916   2.003   1.437  13.813 -2.6813  1.6255  1.4623
  670MPD2    H1 9917   1.671   1.294  13.569 -0.4652 -0.0421  0.9925
  670MPD2    H2 9918   1.984   1.493  13.391  0.2777  0.8818  0.9052
  670MPD2    H3 9919   1.772   1.374  13.384  0.7234  1.4346 -1.1161
  670MPD2     N 9920   1.767   1.312  13.827  0.7241  0.4012  0.4838
  670MPD2    H5 9921   1.818   1.322  13.914  0.1859  2.5390  0.5729
  670MPD2    N1 9922   2.144   1.499  13.617  0.8599  0.1940 -0.3658
  670MPD2    H7 9923   2.178   1.496  13.712  0.7697  0.6970 -0.3136
  671TMC3    C1 9924   1.629   1.172  13.949  0.3766 -0.7475  0.4274
  671TMC3    C2 9925   1.733   1.118  14.018 -0.2405  0.2188 -0.3144
  671TMC3    C3 9926   1.695   1.022  14.099  0.0601 -0.9039  0.2608
  671TMC3    C4 9927   1.495   1.157  13.977 -0.4178  0.0681 -0.2531
  671TMC3    C5 9928   1.466   1.060  14.066 -0.1541 -0.3171 -0.2957
  671TMC3    C6 9929   1.567   0.986  14.124 -0.4382 -0.4617 -0.4346
  671TMC3     C 9930   1.646   1.243  13.829 -0.1275 -0.0801  0.4719
  671TMC3     O 9931   1.549   1.239  13.753 -0.1125  0.5827  0.3006
  671TMC3     H 9932   1.833   1.112  13.975 -0.1221 -0.7380  0.1019
  671TMC3    H1 9933   1.420   1.220  13.932  0.3659  1.1625 -0.0353
  671TMC3    H2 9934   1.547   0.924  14.211  3.1303  0.1244  0.7910
  671TMC3    C7 9935   1.367   0.976  14.017 -0.6104 -0.2368  0.0539
  671TMC3    C8 9936   1.790   0.915  14.140 -0.2281  0.7262  0.6078
  671TMC3    O1 9937   1.395   0.862  14.008 -0.2416 -0.4248  0.0785
  671TMC3    O2 9938   1.741   0.801  14.133 -0.2314  0.2533 -0.0536
  672MPD2     C 9939   2.664   1.275   0.966  0.4946 -0.5565 -0.0980
  672MPD2    C1 9940   2.601   1.391   0.918 -0.2420  0.6558 -0.5297
  672MPD2    C2 9941   2.672   1.505   0.893 -0.5656 -0.1014  0.7642
  672MPD2    C3 9942   2.809   1.511   0.909  0.2377 -0.1367 -0.5667
  672MPD2    C4 9943   2.874   1.393   0.941 -0.0647 -0.2939 -0.2641
  672MPD2    C5 9944   2.802   1.275   0.967  0.2951 -0.7053  0.4943
  672MPD2     H 9945   2.605   1.586   0.867  0.9397  1.0664  0.4509
  672MPD2    H1 9946   2.982   1.394   0.943 -0.0447  1.2725 -2.1224
  672MPD2    H2 9947   2.617   1.183   0.996 -0.8053  0.1511  0.0410
  672MPD2    H3 9948   2.869   1.197   1.002  2.2828  0.1134 -1.4262
  672MPD2     N 9949   2.894   1.625   0.893 -0.6366 -0.0436  0.8188
  672MPD2    H5 9950   2.993   1.609   0.905 -0.4157  0.7822  0.1020
  672MPD2    N1 9951   2.461   1.395   0.894  0.2949 -0.5055 -0.4014
  672MPD2    H7 9952   2.415   1.479   0.859  0.8349 -0.0392 -0.0120
  673TMC3    C1 9953   2.253   1.312   0.830  0.3022  0.0056  0.1434
  673TMC3    C2 9954   2.246   1.253   0.707 -0.9564 -0.1709  0.8180
  673TMC3    C3 9955   2.177   1.310   0.608 -0.3109 -0.5930  0.5009
  673TMC3    C4 9956   2.184   1.430   0.859 -0.4497  0.1322 -0.0902
  673TMC3    C5 9957   2.105   1.477   0.757  0.5685 -0.1218  0.0912
  673TMC3    C6 9958   2.102   1.421   0.630  0.7167 -0.3776 -0.3286
  673TMC3     C 9959   2.376   1.283   0.896 -0.1113  0.5972  0.2046
  673TMC3     O 9960   2.407   1.167   0.908  0.0304  0.4412  0.0023
  673TMC3     H 9961   2.297   1.157   0.696 -0.9608  0.0868 -1.4933
  673TMC3    H1 9962   2.209   1.492   0.945  0.0852  0.6537 -0.6194
  673TMC3    H2 9963   2.065   1.473   0.543  0.1794  2.3029  1.4898
  673TMC3    C7 9964   2.034   1.596   0.770  0.2639  0.7350 -0.3450
  673TMC3    C8 9965   2.174   1.252   0.472  0.0887 -0.1876  0.9922
  673TMC3    O1 9966   2.006   1.660   0.672 -0.2008 -0.1204  0.4487
  673TMC3    O2 9967   2.063   1.237   0.420  0.2059 -0.8756 -0.7042
  674MPD2     C 9968   1.819   1.506  17.386  0.0980 -0.9043 -0.3530
  674MPD2    C1 9969   1.920   1.503  17.478  0.6330  0.6319  0.5357
  674MPD2    C2 9970   1.911   1.590  17.589 -0.6404  0.1534  0.2206
  674MPD2    C3 9971   1.806   1.684  17.594 -0.6260 -0.6272  0.4471
  674MPD2    C4 9972   1.717   1.695  17.486  0.2804  0.5854 -0.3764
  674MPD2    C5 9973   1.722   1.600  17.391 -0.6214 -0.7068 -0.3255
  674MPD2     H 9974   1.990   1.596  17.662  0.3146 -1.6784 -0.6479
  674MPD2    H1 9975   1.648   1.777  17.473  0.0023  0.2540 -0.9703
  674MPD2    H2 9976   1.824   1.439  17.301 -0.6667 -0.8807 -0.4131
  674MPD2    H3 9977   1.664   1.612  17.300  0.2053 -2.6765 -1.1156
  674MPD2     N 9978   1.802   1.756   0.022  0.7389 -0.0497 -0.0325
  674MPD2    H5 9979   1.857   1.723   0.100 -0.3892 -0.9491  0.3802
  674MPD2    N1 9980   2.041   1.416  17.458  0.4225 -0.2192 -0.3958
  674MPD2    H7 9981   2.040   1.351  17.380  1.6903 -1.8485  0.9685
  675TMC3    C1 9982   2.242   1.311  17.512 -0.3920 -0.8737  0.4372
  675TMC3    C2 9983   2.185   1.189  17.463  0.3624  0.4215 -0.2482
  675TMC3    C3 9984   2.271   1.094  17.428  0.3125  0.3214  0.0957
  675TMC3    C4 9985   2.370   1.323  17.543  0.2577  0.0600 -0.2195
  675TMC3    C5 9986   2.450   1.220  17.506 -0.4288 -0.4012 -0.7806
  675TMC3    C6 9987   2.404   1.114  17.441  0.3488  0.3386 -1.1909
  675TMC3     C 9988   2.153   1.419  17.539 -0.7436 -0.1813  0.0297
  675TMC3     O 9989   2.196   1.510  17.604 -0.3047  0.7714  0.6304
  675TMC3     H 9990   2.081   1.181  17.432 -0.1739 -0.1075  1.7098
  675TMC3    H1 9991   2.412   1.414  17.585  0.0251  0.8853 -1.7858
  675TMC3    H2 9992   2.454   1.023  17.410 -1.8485 -0.9407 -0.9401
  675TMC3    C7 9993   2.592   1.215  17.519  0.8099  0.4087 -0.9782
  675TMC3    C8 9994   2.221   0.958  17.389 -0.4079 -0.0304 -0.0669
  675TMC3    O1 9995   2.638   1.102  17.521  0.2493 -0.4649  0.0020
  675TMC3    O2 9996   2.297   0.897  17.318  0.0697 -0.4808  0.6718
  676MPD2     C 9997   0.144   4.598  10.898  0.2110  0.3457 -0.5818
  676MPD2    C1 9998   0.013   4.558  10.923 -0.9903 -0.1689  0.8103
  676MPD2    C2 9999   4.703   4.431  10.881  0.1848  0.1493 -0.6003
  676MPD2    C310000   0.071   4.337  10.826 -0.8863  0.0900  0.2386
  676MPD2    C410001   0.200   4.380  10.801 -0.0869  0.0468  0.1047
  676MPD2    C510002   0.232   4.512  10.837 -0.0064 -0.6246 -0.0003
  676MPD2     H10003   4.600   4.400  10.893 -0.2866  2.4278  1.1749
  676MPD2    H110004   0.276   4.313  10.763  2.0824  2.6303 -0.1143
  676MPD2    H210005   0.181   4.694  10.931  2.7125  0.0982 -2.6597
  676MPD2    H310006   0.335   4.546  10.832 -0.2347  0.0233 -0.3644
  676MPD2     N10007   0.041   4.198  10.810  0.0354  0.0248 -0.7392
  676MPD2    H510008   0.117   4.132  10.795  1.5116  0.7774  3.3000
  676MPD2    N110009   4.639   4.631  10.987 -0.2094 -0.4965  0.3649
  676MPD2    H710010   4.550   4.582  10.995 -0.1572 -0.5283  0.7514
  677TMC3    C110011   4.543   0.069  11.130 -1.0167  0.1200 -0.0801
  677TMC3    C210012   4.434   4.712  11.129  0.3918  0.1969  0.2033
  677TMC3    C310013   4.352   4.711  11.242 -0.3707  0.1577 -0.1501
  677TMC3    C410014   4.572   0.151  11.241 -0.5505  0.4571 -0.6234
  677TMC3    C510015   4.477   0.150  11.341 -0.8846 -0.1016 -0.3617
  677TMC3    C610016   4.368   0.072  11.345  0.7667  0.3537  0.5259
  677TMC3     C10017   4.663   0.029  11.063  0.0913 -0.2716 -1.0393
  677TMC3     O10018   0.042   0.095  11.075 -0.3050 -0.5369  0.1951
  677TMC3     H10019   4.408   4.644  11.048  0.6823  0.4413 -0.0958
  677TMC3    H110020   4.663   0.210  11.242 -0.5668  0.4827 -0.6209
  677TMC3    H210021   4.297   0.061  11.425  2.4144  1.6180  2.1754
  677TMC3    C710022   4.512   0.195  11.474 -0.0351 -0.4467 -0.0985
  677TMC3    C810023   4.258   4.605  11.260  0.5151 -0.2248  0.1979
  677TMC3    O110024   4.425   0.189  11.555 -0.3087 -0.3422 -0.3796
  677TMC3    O210025   4.189   4.586  11.163  0.1796  0.5061 -0.5256
  678MPD2     C10026   1.162   3.825   1.441 -0.3088  0.8416  0.5122
  678MPD2    C110027   1.152   3.881   1.319  0.5651 -0.0440 -0.9327
  678MPD2    C210028   1.045   3.968   1.297 -1.2010 -0.3609  0.2318
  678MPD2    C310029   0.957   4.006   1.398  0.0817 -0.5372  0.4121
  678MPD2    C410030   0.980   3.966   1.529  0.4236 -0.4630 -0.3001
  678MPD2    C510031   1.077   3.873   1.541  0.3520 -0.7529  0.6745
  678MPD2     H10032   1.014   4.013   1.203  1.2612  0.2551 -0.2861
  678MPD2    H110033   0.918   3.999   1.612  0.3079  0.3114 -0.6886
  678MPD2    H210034   1.229   3.743   1.465 -2.3667 -0.5146  1.6441
  678MPD2    H310035   1.096   3.847   1.645 -1.2466 -1.7099  0.7231
  678MPD2     N10036   0.844   4.086   1.367  0.3254 -0.2383 -0.2901
  678MPD2    H510037   0.841   4.115   1.270  0.3329 -0.0729 -0.2405
  678MPD2    N110038   1.227   3.843   1.206  0.3425 -0.0088  0.2981
  678MPD2    H710039   1.206   3.890   1.119 -0.1069  0.3097  0.5804
  679TMC3    C110040   1.568   3.707   0.934 -0.7474  0.0675  0.0145
  679TMC3    C210041   1.517   3.710   1.066 -0.0670 -0.2804  0.0296
  679TMC3    C310042   1.386   3.759   1.076 -0.2670 -0.2281  0.1578
  679TMC3    C410043   1.498   3.748   0.819  0.0173  0.1811 -0.4803
  679TMC3    C510044   1.375   3.803   0.845  0.1779 -0.2462 -0.8897
  679TMC3    C610045   1.310   3.799   0.965 -0.3108 -0.4823 -0.3873
  679TMC3     C10046   1.708   3.694   0.919  0.5465  0.1984  0.0878
  679TMC3     O10047   1.753   3.733   0.812 -0.0507 -0.0958  0.1602
  679TMC3     H10048   1.574   3.678   1.153  1.1911 -1.2967 -1.1658
  679TMC3    H110049   1.558   3.767   0.731  1.1651  2.0269  0.6849
  679TMC3    H210050   1.206   3.830   0.968 -0.2242 -0.0868 -1.5384
  679TMC3    C710051   1.347   3.925   0.774  0.0677 -0.2929  0.2261
  679TMC3    C810052   1.333   3.760   1.206  0.6666  0.2665 -0.0296
  679TMC3    O110053   1.278   4.015   0.820  0.8665  0.3541 -0.1660
  679TMC3    O210054   1.383   3.692   1.299 -0.4126 -0.2891  0.8456
  680MPD2     C10055   2.572   2.980  13.627  0.3682  0.8374 -0.3887
  680MPD2    C110056   2.458   3.044  13.588  0.0151  0.5931 -0.4920
  680MPD2    C210057   2.444   3.182  13.616 -0.3835 -0.4661 -0.4164
  680MPD2    C310058   2.553   3.258  13.665 -0.1584 -0.6608  0.2667
  680MPD2    C410059   2.664   3.187  13.698 -0.1511 -0.0671 -0.3966
  680MPD2    C510060   2.671   3.053  13.691 -0.2512 -0.9679  0.2979
  680MPD2     H10061   2.350   3.223  13.583  0.5943  2.0460 -0.0331
  680MPD2    H110062   2.751   3.225  13.752  0.1810 -2.4873  0.7890
  680MPD2    H210063   2.596   2.875  13.614  0.1236  0.5143  1.8591
  680MPD2    H310064   2.762   3.001  13.720  0.0285  0.3332  1.7351
  680MPD2     N10065   2.551   3.395  13.693  0.2515 -0.4018 -0.2937
  680MPD2    H510066   2.634   3.429  13.739  0.4787 -1.2253 -0.0979
  680MPD2    N110067   2.351   2.972  13.525  0.2176 -0.1064  0.4153
  680MPD2    H710068   2.269   3.028  13.503  0.1013 -0.7995 -0.9786
  681TMC3    C110069   2.206   2.806  13.431 -0.4344 -0.3364 -0.6298
  681TMC3    C210070   2.113   2.746  13.505 -0.3850  0.1416 -0.1746
  681TMC3    C310071   2.032   2.655  13.435  0.4474 -0.0388  0.3591
  681TMC3    C410072   2.221   2.788  13.292  0.4296 -0.4781  0.6244
  681TMC3    C510073   2.140   2.699  13.237  1.1381 -0.5133  0.0039
  681TMC3    C610074   2.041   2.624  13.300 -0.1054  0.1170  0.0413
  681TMC3     C10075   2.343   2.839  13.490 -0.5848 -0.9976 -0.0967
  681TMC3     O10076   2.435   2.759  13.484  0.1787  0.3106  0.0627
  681TMC3     H10077   2.126   2.746  13.613  0.3084  0.5466 -0.2561
  681TMC3    H110078   2.291   2.849  13.235  1.7196 -0.7514  1.9007
  681TMC3    H210079   1.996   2.543  13.245  1.2195 -0.7381  0.2094
  681TMC3    C710080   2.190   2.648  13.112  0.0920 -0.1707 -0.4520
  681TMC3    C810081   1.924   2.597  13.508 -0.1359  0.6400  0.2501
  681TMC3    O110082   2.250   2.544  13.109  0.1285  0.5980  0.5031
  681TMC3    O210083   1.870   2.497  13.463 -0.1366 -0.0635  0.6616
  682MPD2     C10084   3.594   4.386  10.722 -1.1359  0.0609  0.5818
  682MPD2    C110085   3.558   4.255  10.729  0.2878  0.1972  0.0523
  682MPD2    C210086   3.523   4.202  10.852  0.4755 -0.6473 -0.1021
  682MPD2    C310087   3.527   4.279  10.967 -0.6569 -0.0087 -0.3746
  682MPD2    C410088   3.564   4.413  10.957 -0.8334  0.2710  1.0563
  682MPD2    C510089   3.604   4.466  10.837  0.0520 -0.5038  0.4464
  682MPD2     H10090   3.500   4.097  10.862 -1.7662 -0.2566 -1.2154
  682MPD2    H110091   3.566   4.482  11.041  0.4582  0.9283  0.4827
  682MPD2    H210092   3.625   4.444  10.636  1.6533 -1.4813  0.5146
  682MPD2    H310093   3.636   4.569  10.846 -0.0483 -0.2954 -1.5480
  682MPD2     N10094   3.509   4.237  11.099 -0.7459 -0.1173 -0.0748
  682MPD2    H510095   3.517   4.302  11.176  2.8359 -0.1931 -0.4076
  682MPD2    N110096   3.545   4.173  10.611 -0.3897  0.8034  0.3316
  682MPD2    H710097   3.512   4.079  10.629 -3.0171  1.7750  0.5826
  683TMC3    C110098   3.472   4.153  11.499 -0.2385 -0.2187 -0.6232
  683TMC3    C210099   3.436   4.023  11.538 -0.3430  1.1530 -0.4857
  683TMC3    C310100   3.417   3.924  11.449 -0.6271 -0.9299 -0.0405
  683TMC3    C410101   3.491   4.181  11.370  0.6594 -0.1712  0.0221
  683TMC3    C510102   3.462   4.081  11.276  0.3360  0.4402  0.1868
  683TMC3    C610103   3.429   3.948  11.314 -0.1229 -0.8092 -0.2904
  683TMC3     C10104   3.504   4.259  11.596 -0.1553  0.4447 -0.2767
  683TMC3     O10105   3.522   4.376  11.553 -0.6537  0.0986 -0.0693
  683TMC3     H10106   3.407   4.007  11.641  2.3225 -1.3547 -0.1128
  683TMC3    H110107   3.554   4.266  11.345 -0.5386  0.8604  0.5172
  683TMC3    H210108   3.415   3.868  11.242  1.5743 -1.1877 -0.2086
  683TMC3    C710109   3.477   4.110  11.138 -0.0219 -0.0309 -0.0137
  683TMC3    C810110   3.427   3.776  11.477 -0.7211  0.7953 -0.2284
  683TMC3    O110111   3.457   4.007  11.070 -0.0164 -0.3345 -0.0197
  683TMC3    O210112   3.411   3.703  11.381  0.5792  0.2586  0.4684
  684MPD2     C10113   1.545   4.188  16.436  0.0522  0.3114  0.1983
  684MPD2    C110114   1.683   4.189  16.422  0.0621  0.4381 -0.6746
  684MPD2    C210115   1.753   4.291  16.486  0.0137 -0.5876 -1.0093
  684MPD2    C310116   1.695   4.408  16.527 -0.2877  0.0763 -0.4394
  684MPD2    C410117   1.554   4.413  16.528  0.2056  0.5913  0.1165
  684MPD2    C510118   1.480   4.300  16.488 -0.0750  0.7327 -1.3797
  684MPD2     H10119   1.862   4.288  16.484  0.0325 -0.4466  0.0641
  684MPD2    H110120   1.497   4.498  16.565  1.6768  1.1224  1.1544
  684MPD2    H210121   1.489   4.103  16.399  1.4306 -1.6082  2.5067
  684MPD2    H310122   1.373   4.297  16.506  0.3053 -1.5370  0.4534
  684MPD2     N10123   1.770   4.517  16.568 -0.3566 -0.2221 -0.4525
  684MPD2    H510124   1.720   4.603  16.590 -0.2003 -0.7509  2.0158
  684MPD2    N110125   1.747   4.092  16.341 -0.1567 -0.1074 -0.1996
  684MPD2    H710126   1.678   4.033  16.294  0.6797  0.9094 -2.7124
  685TMC3    C110127   1.907   3.983  16.215  0.6866 -0.3090 -0.1811
  685TMC3    C210128   1.817   3.944  16.131  0.4895 -0.2249 -0.2756
  685TMC3    C310129   1.855   3.851  16.039  0.5436 -0.0395 -0.9134
  685TMC3    C410130   2.035   3.940  16.212 -0.2799 -0.3050 -0.5529
  685TMC3    C510131   2.067   3.847  16.119  0.2609  0.0891 -0.4405
  685TMC3    C610132   1.982   3.793  16.034 -0.3102  0.0339  0.5669
  685TMC3     C10133   1.881   4.082  16.317  0.1291  0.4498 -0.4275
  685TMC3     O10134   1.976   4.141  16.365  0.2603  0.6163  0.0499
  685TMC3     H10135   1.720   3.992  16.134  0.2446 -0.5244 -3.0242
  685TMC3    H110136   2.112   3.968  16.283 -1.7252  1.4606  0.3395
  685TMC3    H210137   2.007   3.716  15.962 -0.5767 -0.2227  0.7523
  685TMC3    C710138   2.203   3.811  16.107 -0.0515  0.3179  0.0758
  685TMC3    C810139   1.762   3.807  15.933 -0.0983 -0.1103  0.4958
  685TMC3    O110140   2.236   3.699  16.075 -0.0561 -0.0680  0.3376
  685TMC3    O210141   1.796   3.774  15.819 -0.6314 -0.2092 -0.5824
  686MPD2     C10142   3.300   3.731  15.595 -1.1001 -0.0313 -0.2543
  686MPD2    C110143   3.235   3.610  15.611 -0.9224  0.0921 -0.2413
  686MPD2    C210144   3.301   3.489  15.637 -0.1015  0.3963  0.5027
  686MPD2    C310145   3.439   3.486  15.646  0.0793 -0.1825  0.3748
  686MPD2    C410146   3.504   3.607  15.640  0.7019 -0.1525  1.0836
  686MPD2    C510147   3.436   3.729  15.617 -0.3435 -0.0235 -1.0286
  686MPD2     H10148   3.242   3.398  15.634 -1.4284  1.3454 -2.3301
  686MPD2    H110149   3.611   3.613  15.658  0.7457  2.5501 -0.2090
  686MPD2    H210150   3.246   3.819  15.563  0.0104  1.3989  1.8074
  686MPD2    H310151   3.492   3.822  15.617  0.6277 -0.6121  0.1520
  686MPD2     N10152   3.510   3.367  15.663 -0.7888 -0.2105 -0.1997
  686MPD2    H510153   3.608   3.375  15.689 -0.5057 -2.8597 -0.5226
  686MPD2    N110154   3.097   3.618  15.580 -0.3667 -0.0801 -0.5342
  686MPD2    H710155   3.064   3.712  15.557 -0.3891  0.1305  0.3586
  687TMC3    C110156   3.524   3.146  15.717 -0.2383  0.1453  1.0835
  687TMC3    C210157   3.436   3.034  15.725  0.6968 -1.0774 -0.4693
  687TMC3    C310158   3.391   2.995  15.848 -0.8933  0.2237  0.1939
  687TMC3    C410159   3.586   3.195  15.832 -0.3740  0.0626  0.0768
  687TMC3    C510160   3.524   3.155  15.948  0.3497  0.0357  0.3025
  687TMC3    C610161   3.429   3.060  15.959  0.0424 -0.0213  0.4532
  687TMC3     C10162   3.458   3.244  15.645  0.3725 -0.2383 -0.0806
  687TMC3     O10163   3.362   3.205  15.579  0.2399  0.6308 -0.1106
  687TMC3     H10164   3.421   2.981  15.631 -0.0559 -2.2007  0.2897
  687TMC3    H110165   3.661   3.273  15.833 -0.0183 -0.3233  2.5223
  687TMC3    H210166   3.388   3.031  16.055  0.7956  0.5873  0.9632
  687TMC3    C710167   3.544   3.243  16.060 -0.4774 -0.1803 -0.1664
  687TMC3    C810168   3.255   2.961  15.847  0.2983 -0.0427  1.1099
  687TMC3    O110169   3.583   3.359  16.037  0.0105 -0.0952  0.2393
  687TMC3    O210170   3.216   2.903  15.945 -0.0157  0.4844  0.0077
  688MPD2     C10171   2.288   2.695  17.156  0.1321 -0.4436  0.0392
  688MPD2    C110172   2.358   2.594  17.222 -0.3048  0.9707 -0.2336
  688MPD2    C210173   2.484   2.568  17.174 -0.0075  0.2853 -0.0707
  688MPD2    C310174   2.534   2.635  17.059 -0.0543  0.4225  0.1352
  688MPD2    C410175   2.458   2.733  17.004 -0.0950  0.2465 -1.3595
  688MPD2    C510176   2.342   2.774  17.060  0.5078  0.3366  0.3861
  688MPD2     H10177   2.550   2.511  17.238  0.2654  0.4654 -0.1925
  688MPD2    H110178   2.498   2.797  16.926  1.9006 -0.7421 -1.1280
  688MPD2    H210179   2.195   2.732  17.197  1.6470 -0.0441  3.1168
  688MPD2    H310180   2.287   2.862  17.028  1.1973  1.0106  1.0323
  688MPD2     N10181   2.654   2.593  16.990  0.0546  0.2904 -0.0348
  688MPD2    H510182   2.662   2.630  16.895 -0.1904 -0.4953 -0.3633
  688MPD2    N110183   2.310   2.527  17.337  0.3561  0.0830 -0.4772
  688MPD2    H710184   2.373   2.455  17.372  0.5107  0.0258 -0.8702
  689TMC3    C110185   2.203   2.479  17.528 -0.4662  0.5682  0.2616
  689TMC3    C210186   2.187   2.535  17.648  0.1993 -1.0262  0.3996
  689TMC3    C310187   2.167   2.449   0.063 -0.2833 -0.1380  0.3546
  689TMC3    C410188   2.196   2.343  17.506  0.4751 -0.6257  0.2359
  689TMC3    C510189   2.181   2.260  17.610 -0.1968 -0.6381 -0.1601
  689TMC3    C610190   2.182   2.314   0.048 -1.0577 -0.1100  0.0778
  689TMC3     C10191   2.205   2.565  17.413  0.7344 -0.4227 -0.5088
  689TMC3     O10192   2.140   2.668  17.413  0.8079 -0.5474  0.2945
  689TMC3     H10193   2.210   2.637  17.676 -1.1703 -0.7219  0.4070
  689TMC3    H110194   2.214   2.318  17.403 -2.0712  0.5403 -0.5107
  689TMC3    H210195   2.189   2.254   0.138  1.3448 -0.4211 -0.3161
  689TMC3    C710196   2.219   2.123  17.585  0.0595  0.4443 -0.8611
  689TMC3    C810197   2.187   2.498   0.200 -0.0290  0.2611  0.5403
  689TMC3    O110198   2.287   2.069  17.674  0.0319 -0.0199 -0.6151
  689TMC3    O210199   2.237   2.420   0.278  0.5763  0.1548  0.1015
  690MPD2     C10200   4.146   4.595  15.730  0.4243  0.3939  0.6611
  690MPD2    C110201   4.221   4.479  15.743  0.1200 -0.0142  0.9132
  690MPD2    C210202   4.338   4.473  15.667 -1.1467  0.6738  0.1041
  690MPD2    C310203   4.383   4.574  15.579  0.3235  0.4813  0.2616
  690MPD2    C410204   4.302   4.690  15.583 -0.5390 -0.0180  0.0258
  690MPD2    C510205   4.187   4.699  15.643 -0.1824 -0.2014  0.5154
  690MPD2     H10206   4.393   4.380  15.666 -1.2969  0.5878 -0.6281
  690MPD2    H110207   4.320   0.062  15.531 -1.8171 -0.0751 -0.5142
  690MPD2    H210208   4.061   4.612  15.795 -0.6482  0.7684 -0.8617
  690MPD2    H310209   4.138   0.073  15.655  0.5235  0.3093 -0.7246
  690MPD2     N10210   4.503   4.572  15.501  0.4354 -0.4229 -0.7245
  690MPD2    H510211   4.530   4.653  15.447  1.5579 -0.1901  0.1852
  690MPD2    N110212   4.184   4.371  15.828  0.4990 -0.1116  0.7094
  690MPD2    H710213   4.258   4.302  15.839  0.3309 -0.5879 -1.0426
  691TMC3    C110214   4.038   4.256  15.975  0.3413  0.6717 -0.4553
  691TMC3    C210215   3.915   4.248  16.033  0.0490 -0.0420 -0.0578
  691TMC3    C310216   3.872   4.129  16.088 -0.3512 -0.2397 -0.1845
  691TMC3    C410217   4.125   4.149  15.975  0.1766  0.1775 -0.8253
  691TMC3    C510218   4.081   4.027  16.026  0.5957  0.5421  0.1493
  691TMC3    C610219   3.954   4.015  16.089 -0.1520 -0.0878 -0.0539
  691TMC3     C10220   4.062   4.363  15.886  0.7707 -0.5948 -0.3397
  691TMC3     O10221   3.959   4.414  15.841  0.3562 -0.2555  0.1556
  691TMC3     H10222   3.854   4.338  16.032 -1.0199 -0.7488  2.8397
  691TMC3    H110223   4.219   4.142  15.921 -0.5705  0.4691 -2.1441
  691TMC3    H210224   3.918   3.925  16.137 -0.7700  0.4502  0.4942
  691TMC3    C710225   4.173   3.914  16.027 -0.1069 -0.1517 -0.1301
  691TMC3    C810226   3.736   4.129  16.143 -0.4625  0.8047 -0.3736
  691TMC3    O110227   4.290   3.930  16.062  0.3747  0.0190 -0.1406
  691TMC3    O210228   3.697   4.018  16.169  0.1735 -0.0609 -0.5382
  692TMC3    C110229   1.535   0.806  15.784 -0.1987  0.2109  0.2468
  692TMC3    C210230   1.603   0.914  15.727  0.3711 -0.1864  1.0222
  692TMC3    C310231   1.739   0.904  15.712 -0.4090  0.0184 -0.0024
  692TMC3    C410232   1.605   0.698  15.825  0.6512  0.3836 -0.6436
  692TMC3    C510233   1.739   0.694  15.806 -0.0838 -0.1977 -0.0966
  692TMC3    C610234   1.807   0.791  15.743  0.0979  0.4090  0.0837
  692TMC3     C10235   1.411   0.823  15.859 -0.8923  0.1877  0.2246
  692TMC3     O10236   1.402   0.750  15.956  0.1635  0.1329 -0.0952
  692TMC3     H10237   1.549   1.007  15.716 -1.9416 -1.4663  1.2912
  692TMC3    H110238   1.555   0.612  15.868  0.3422  0.2781 -1.2056
  692TMC3    H210239   1.912   0.796  15.766 -0.1051 -0.6426  1.1950
  692TMC3    C710240   1.808   0.570  15.812 -0.3380  0.4401  0.2757
  692TMC3    C810241   1.796   1.017  15.782 -0.2302 -0.1884  0.0221
  692TMC3    O110242   1.906   0.563  15.732  0.0752 -0.1273  0.3526
  692TMC3    O210243   1.868   1.095  15.716  0.2691 -0.1666 -0.0927
  693MPD2     C10244   0.633   3.511  10.688  0.2290 -0.5074  0.2099
  693MPD2    C110245   0.629   3.374  10.696  0.3132 -0.0720 -0.3486
  693MPD2    C210246   0.751   3.311  10.697 -0.5841  0.3608  0.1808
  693MPD2    C310247   0.870   3.372  10.675 -0.2323 -0.1767  0.1150
  693MPD2    C410248   0.872   3.506  10.652  0.6111  0.7811 -0.2255
  693MPD2    C510249   0.753   3.576  10.658 -0.0899  0.0796  0.2835
  693MPD2     H10250   0.744   3.207  10.726 -0.2219  0.6573  1.3538
  693MPD2    H110251   0.963   3.559  10.626  0.5563  1.8126  1.6649
  693MPD2    H210252   0.540   3.567  10.697 -1.3893 -3.0903 -0.5128
  693MPD2    H310253   0.768   3.683  10.650 -1.1292  0.1980 -0.1337
  693MPD2     N10254   0.991   3.302  10.682 -0.5082  0.9839  0.7876
  693MPD2    H510255   1.069   3.366  10.696 -0.5056  1.0113  0.6497
  693MPD2    N110256   0.508   3.308  10.734  0.6737  0.1919 -0.0414
  693MPD2    H710257   0.438   3.369  10.774 -1.4574 -2.4422  0.2266
  694TMC3    C110258   0.348   3.140  10.786 -0.4420 -0.0916  1.1121
  694TMC3    C210259   0.255   3.057  10.722  0.2710 -0.1311  0.4024
  694TMC3    C310260   0.160   3.002  10.802 -0.0781  0.2523 -0.2037
  694TMC3    C410261   0.344   3.176  10.917  0.2108  1.1194  0.3894
  694TMC3    C510262   0.245   3.110  10.994  0.0382 -0.3178 -0.4108
  694TMC3    C610263   0.157   3.025  10.935  0.6623  0.1134  0.5285
  694TMC3     C10264   0.473   3.179  10.711  1.1072  0.7699  0.6892
  694TMC3     O10265   0.531   3.095  10.643  0.1016  0.5792 -0.7392
  694TMC3     H10266   0.257   3.048  10.614 -0.0108  1.8233  0.2315
  694TMC3    H110267   0.414   3.243  10.965  0.5531  0.5371  0.6943
  694TMC3    H210268   0.078   2.979  10.993  0.0582  1.1600  0.5265
  694TMC3    C710269   0.282   3.111  11.134  0.2780 -0.4231 -0.2329
  694TMC3    C810270   0.048   2.934  10.741  0.0006  0.6221 -0.0877
  694TMC3    O110271   0.354   3.201  11.175  0.1431  0.0060 -0.3353
  694TMC3    O210272   0.001   2.845  10.807  0.4112  0.3201  0.9241
  695MPD2     C10273   2.001   0.189  13.522 -0.2972  0.1760  0.2657
  695MPD2    C110274   1.937   0.255  13.625  0.0172 -0.0927 -0.6144
  695MPD2    C210275   1.853   0.361  13.587 -0.0322  0.1325 -0.4072
  695MPD2    C310276   1.825   0.384  13.456  0.0932 -0.5071  0.5207
  695MPD2    C410277   1.882   0.308  13.356 -0.8497 -0.5297  0.4969
  695MPD2    C510278   1.974   0.209  13.393  0.3684 -0.0166 -0.0065
  695MPD2     H10279   1.800   0.425  13.657 -1.0540  1.3990 -2.3356
  695MPD2    H110280   1.863   0.330  13.252 -2.1261 -0.8151  0.6671
  695MPD2    H210281   2.074   0.113  13.546 -1.1595 -0.7077  0.0693
  695MPD2    H310282   2.034   0.157  13.319 -1.9748 -2.0648 -0.4729
  695MPD2     N10283   1.731   0.493  13.431  0.4776 -0.1415 -0.0245
  695MPD2    H510284   1.679   0.535  13.508  1.4089  0.4941  0.2581
  695MPD2    N110285   1.960   0.229  13.764  0.0016 -0.0571 -0.2267
  695MPD2    H710286   1.901   0.281  13.829 -0.0916 -0.2657 -0.1450
  696TMC3    C110287   1.588   0.640  13.316 -0.3373  0.3559 -0.0181
  696TMC3    C210288   1.492   0.627  13.415  0.3702 -0.0091 -0.3081
  696TMC3    C310289   1.377   0.702  13.394 -0.1914 -0.0038  0.0651
  696TMC3    C410290   1.574   0.729  13.214 -0.4675 -0.0311  0.1810
  696TMC3    C510291   1.471   0.819  13.215  0.6924 -0.4901 -0.4483
  696TMC3    C610292   1.365   0.804  13.300  0.7149  0.2213  0.2553
  696TMC3     C10293   1.705   0.548  13.310  1.2078  0.2627 -0.2143
  696TMC3     O10294   1.752   0.524  13.204 -0.6550  0.2167  0.1975
  696TMC3     H10295   1.494   0.545  13.486  0.5988  0.1726 -0.1056
  696TMC3    H110296   1.662   0.737  13.151  0.7450  3.0780  2.2940
  696TMC3    H210297   1.270   0.854  13.285  0.8521  0.8574  1.5265
  696TMC3    C710298   1.514   0.953  13.179 -0.3237 -0.2609  0.0781
  696TMC3    C810299   1.326   0.742  13.527 -0.2458 -0.4400  0.0285
  696TMC3    O110300   1.621   0.969  13.129 -0.1306 -0.1176  0.3325
  696TMC3    O210301   1.398   0.706  13.619 -0.1371  0.0768 -0.5242
  697MPD2     C10302   1.386   2.587  15.748  1.0040  0.5274  0.0704
  697MPD2    C110303   1.415   2.512  15.636 -0.0209 -0.0495  0.2674
  697MPD2    C210304   1.502   2.569  15.541  0.9757  0.7126 -0.6585
  697MPD2    C310305   1.570   2.689  15.568 -0.3451  0.5982 -0.2393
  697MPD2    C410306   1.541   2.753  15.691 -0.7787  0.2048 -0.4021
  697MPD2    C510307   1.441   2.710  15.769 -0.1147 -0.3669 -0.6561
  697MPD2     H10308   1.532   2.514  15.453  0.9419 -0.4159  0.0387
  697MPD2    H110309   1.576   2.854  15.712 -0.5584 -0.1718  1.0311
  697MPD2    H210310   1.319   2.548  15.824  2.5976 -0.0365  1.2057
  697MPD2    H310311   1.418   2.762  15.861  0.9752 -0.0220 -0.5812
  697MPD2     N10312   1.670   2.721  15.476 -0.1839 -0.3075  0.0545
  697MPD2    H510313   1.671   2.660  15.395 -0.1731  0.8350 -0.7978
  697MPD2    N110314   1.373   2.378  15.618  0.3204 -0.1117  0.1326
  697MPD2    H710315   1.383   2.332  15.529 -0.0105 -0.0305  0.0541
  698TMC3    C110316   1.829   2.850  15.370  0.1669 -0.4109  0.1514
  698TMC3    C210317   1.935   2.937  15.373 -0.3013 -0.2978 -0.2385
  698TMC3    C310318   2.008   2.969  15.260 -0.4143 -0.6668  0.3895
  698TMC3    C410319   1.792   2.800  15.246  1.1692 -0.1103  0.5843
  698TMC3    C510320   1.864   2.828  15.139  1.2748  0.3909 -0.5421
  698TMC3    C610321   1.969   2.913  15.140  0.2491  0.9644  0.4451
  698TMC3     C10322   1.751   2.829  15.490 -0.6191  0.3394 -0.3512
  698TMC3     O10323   1.773   2.905  15.587  0.1581  1.1562 -0.4592
  698TMC3     H10324   1.958   2.984  15.467 -0.2034 -1.6247  0.4024
  698TMC3    H110325   1.712   2.727  15.239 -1.6913  3.3103 -2.6497
  698TMC3    H210326   1.984   2.961  15.044 -1.6205 -2.2061 -1.4385
  698TMC3    C710327   1.819   2.767  15.013  0.3747  0.3097  0.1597
  698TMC3    C810328   2.043   3.109  15.248  0.2391 -1.0097  0.1622
  698TMC3    O110329   1.717   2.704  15.023 -0.3103 -0.7682  0.0041
  698TMC3    O210330   2.000   3.192  15.323 -0.2794 -0.1448  0.4377
  699TMC3    C110331   1.420   0.451  13.058 -0.0362 -0.1746 -0.4093
  699TMC3    C210332   1.476   0.370  13.155  0.2345 -0.3952  0.0766
  699TMC3    C310333   1.403   0.355  13.272  0.3865 -0.3488  0.4678
  699TMC3    C410334   1.292   0.504  13.070  0.0015 -0.0044  0.1257
  699TMC3    C510335   1.223   0.485  13.192  0.0837 -0.0612  0.7918
  699TMC3    C610336   1.282   0.416  13.297 -0.2387  0.0388  0.2771
  699TMC3     C10337   1.496   0.488  12.943  0.6027 -0.6867  0.3006
  699TMC3     O10338   1.433   0.516  12.842 -0.3854 -0.1310 -0.2392
  699TMC3     H10339   1.580   0.338  13.150  1.0409  2.3170 -0.5369
  699TMC3    H110340   1.234   0.551  12.992  0.2870 -0.0749 -0.1277
  699TMC3    H210341   1.222   0.388  13.383  0.6279  1.1943  1.2664
  699TMC3    C710342   1.101   0.564  13.225 -0.7570  0.4207 -0.1749
  699TMC3    C810343   1.450   0.258  13.369 -0.9229 -0.0335 -0.4049
  699TMC3    O110344   1.056   0.529  13.333  0.7726 -0.5264  0.5540
  699TMC3    O210345   1.380   0.255  13.470 -0.2490 -0.0920 -1.1080
  700TMC3    C110346   0.029   2.599  17.334  0.9750 -0.5525 -0.5496
  700TMC3    C210347   0.145   2.539  17.297  0.2902 -0.2066  0.3705
  700TMC3    C310348   0.209   2.476  17.394  0.2759 -0.4458 -0.4598
  700TMC3    C410349   4.700   2.590  17.461 -0.3488 -0.0205 -0.3847
  700TMC3    C510350   0.045   2.512  17.555  0.0275 -0.5154  0.4789
  700TMC3    C610351   0.168   2.457  17.518  0.0399 -0.4361  0.1845
  700TMC3     C10352   4.696   2.700  17.252 -0.2805 -0.6576  0.4182
  700TMC3     O10353   4.578   2.732  17.272 -0.4357 -0.0527  0.1827
  700TMC3     H10354   0.177   2.544  17.193  0.5234 -0.5861  0.4237
  700TMC3    H110355   4.616   2.658  17.476  0.1170  0.4250  0.2284
  700TMC3    H210356   0.224   2.398  17.588 -0.4110  0.0412  0.9459
  700TMC3    C710357   0.057   2.583  17.671  0.3200  0.6392 -0.6500
  700TMC3    C810358   0.316   2.398  17.347  0.5745 -0.4582  0.0001
  700TMC3    O110359   0.168   2.609   0.029  0.2468 -0.6102  0.2743
  700TMC3    O210360   0.376   2.444  17.249  0.9579 -0.1796 -0.1654
  701TMC3    C110361   0.689   1.497  15.632 -0.2790  1.0430  0.7266
  701TMC3    C210362   0.673   1.448  15.504  0.2936 -1.0743 -0.6959
  701TMC3    C310363   0.763   1.501  15.408  0.5910  0.5224  0.2621
  701TMC3    C410364   0.783   1.589  15.668  0.1976  0.7060  0.2022
  701TMC3    C510365   0.877   1.627  15.571  0.5961 -0.6819  0.2751
  701TMC3    C610366   0.862   1.587  15.447  0.1111 -0.4925  0.1562
  701TMC3     C10367   0.611   1.433  15.734 -0.0271 -0.5557  0.8596
  701TMC3     O10368   0.593   1.311  15.724 -0.8437  0.1280 -0.4879
  701TMC3     H10369   0.606   1.365  15.487 -2.3976  0.5999  1.6631
  701TMC3    H110370   0.791   1.616  15.773 -0.7851 -0.7701  0.6549
  701TMC3    H210371   0.927   1.623  15.368 -0.6743 -0.9193 -0.6955
  701TMC3    C710372   0.921   1.762  15.579 -0.5917 -0.2507 -0.6091
  701TMC3    C810373   0.739   1.500  15.263  0.6673  0.3836  1.3835
  701TMC3    O110374   0.963   1.809  15.477  0.3996 -0.0495 -0.3548
  701TMC3    O210375   0.826   1.524  15.182  0.2647  0.2110  0.0590
  702MPD2     C10376   0.155   3.719  10.322 -0.0509 -0.4812  0.5720
  702MPD2    C110377   0.082   3.829  10.363 -0.6500 -0.2449  0.2635
  702MPD2    C210378   0.089   3.943  10.281 -0.5033 -0.1711 -0.3780
  702MPD2    C310379   0.163   3.941  10.161 -0.1154 -0.1146 -0.3691
  702MPD2    C410380   0.227   3.827  10.118  0.5724 -0.0555  0.2204
  702MPD2    C510381   0.212   3.712  10.194 -0.0738  0.4017  0.4695
  702MPD2     H10382   0.046   4.036  10.316  0.2302 -0.0431  0.1882
  702MPD2    H110383   0.276   3.835  10.023  0.2349 -1.4557 -0.0796
  702MPD2    H210384   0.154   3.630  10.384 -3.3760 -0.3772  0.6897
  702MPD2    H310385   0.260   3.621  10.159 -1.4409  0.6450 -2.0626
  702MPD2     N10386   0.168   4.052  10.078  0.1179 -0.2163 -0.3300
  702MPD2    H510387   0.250   4.059  10.018  1.6374  1.2954  1.9286
  702MPD2    N110388   0.030   3.839  10.492 -0.4676 -0.3932 -0.0658
  702MPD2    H710389   4.721   3.932  10.520 -1.7955 -0.6932 -0.5170
  703TMC3    C110390   0.095   4.280  10.031  0.5744  0.4950 -0.1076
  703TMC3    C210391   0.022   4.378  10.088 -0.1140  0.4317  0.2663
  703TMC3    C310392   0.073   4.508  10.094 -0.0429 -0.0944 -0.0082
  703TMC3    C410393   0.217   4.301   9.978  0.2014  0.4505 -0.3323
  703TMC3    C510394   0.252   4.440   9.974  0.1978 -0.1032 -0.0471
  703TMC3    C610395   0.189   4.545  10.028 -0.7966  0.6232  0.2508
  703TMC3     C10396   0.068   4.145  10.082 -0.3431  0.0608  0.5508
  703TMC3     O10397   4.677   4.129  10.118 -0.0825  0.0205  0.1767
  703TMC3     H10398   4.647   4.365  10.135 -0.5363 -0.6322 -0.9039
  703TMC3    H110399   0.278   4.221   9.939  0.4011  0.6483 -0.4293
  703TMC3    H210400   0.238   4.641  10.043 -1.4208  0.5127  3.0719
  703TMC3    C710401   0.383   4.469   9.927  0.1295 -0.6485 -0.0785
  703TMC3    C810402   4.714   4.614  10.149  0.2050  0.4648 -0.0884
  703TMC3    O110403   0.459   4.373   9.919  0.1887  0.3475 -0.2530
  703TMC3    O210404   0.014   0.006  10.119  0.2174  0.6551  0.1622
  704TMC3    C110405   2.513   2.422  12.392  0.0766 -0.6285  0.1740
  704TMC3    C210406   2.641   2.445  12.349  0.2739  0.3322 -0.1488
  704TMC3    C310407   2.739   2.371  12.411 -0.7851  0.2772  0.5321
  704TMC3    C410408   2.487   2.334  12.497 -0.6845 -0.5523 -0.0963
  704TMC3    C510409   2.593   2.263  12.555 -0.2521  0.2638  0.1499
  704TMC3    C610410   2.724   2.277  12.511 -0.7667 -0.6642 -0.2726
  704TMC3     C10411   2.397   2.470  12.318 -0.3367  0.2408 -0.4909
  704TMC3     O10412   2.290   2.424  12.353  0.7996  0.7710  0.3861
  704TMC3     H10413   2.669   2.508  12.265  0.3780 -0.2614 -0.5551
  704TMC3    H110414   2.385   2.309  12.524 -0.9926 -0.3217 -1.0421
  704TMC3    H210415   2.800   2.203  12.532 -0.0106 -0.1163 -1.0940
  704TMC3    C710416   2.561   2.122  12.569  0.3887  0.1534  0.1927
  704TMC3    C810417   2.860   2.345  12.331 -0.6152  0.1861 -0.1393
  704TMC3    O110418   2.648   2.044  12.520  0.4614  0.1648  0.0177
  704TMC3    O210419   2.848   2.377  12.212 -0.6268  0.4788 -0.4652
  705MPD2     C10420   2.171   0.410  16.537  0.1847 -0.0866 -0.2441
  705MPD2    C110421   2.105   0.512  16.466  0.5473  0.1941  0.4277
  705MPD2    C210422   1.995   0.574  16.523 -0.7652 -0.1428  0.3158
  705MPD2    C310423   1.953   0.543  16.650  0.6484  0.2585 -0.0276
  705MPD2    C410424   2.029   0.456  16.723  0.0591  0.5539 -0.2391
  705MPD2    C510425   2.133   0.380  16.666  0.0253 -0.0167 -0.4814
  705MPD2     H10426   1.937   0.642  16.462 -1.1098 -0.0565  0.7390
  705MPD2    H110427   2.005   0.429  16.826  2.2054 -0.6915 -0.0696
  705MPD2    H210428   2.252   0.348  16.501 -0.5774  0.0072 -2.1353
  705MPD2    H310429   2.190   0.314  16.730 -1.7620 -1.5207 -0.4523
  705MPD2     N10430   1.840   0.602  16.722 -0.5255  0.5127 -0.0850
  705MPD2    H510431   1.816   0.560  16.811 -0.7019 -0.5977 -0.6550
  705MPD2    N110432   2.118   0.527  16.323  0.5501 -0.4305 -0.2480
  705MPD2    H710433   2.054   0.599  16.290  0.1326 -1.5946 -2.0014
  706TMC3    C110434   2.223   0.441  15.884  0.3459  0.6695  0.3078
  706TMC3    C210435   2.204   0.569  15.848 -0.3663 -0.1184 -0.6601
  706TMC3    C310436   2.180   0.659  15.946  0.1243  0.7748  0.6627
  706TMC3    C410437   2.222   0.398  16.010 -0.5183 -0.4146 -0.3236
  706TMC3    C510438   2.194   0.489  16.106 -0.3178 -0.7476 -0.4488
  706TMC3    C610439   2.176   0.621  16.080  0.3013 -0.3375  0.0022
  706TMC3     C10440   2.233   0.341  15.784 -0.2850  0.1686 -0.0089
  706TMC3     O10441   2.289   0.232  15.795 -0.1815 -0.6160 -0.4048
  706TMC3     H10442   2.206   0.602  15.745 -0.4962 -1.9369 -1.2327
  706TMC3    H110443   2.244   0.295  16.038  0.4288 -0.7232 -2.1838
  706TMC3    H210444   2.162   0.693  16.160  2.4728  0.1544 -0.0724
  706TMC3    C710445   2.196   0.447  16.244 -0.1750 -0.1589 -0.4545
  706TMC3    C810446   2.175   0.798  15.910 -1.0493 -0.0823 -0.4815
  706TMC3    O110447   2.267   0.356  16.278  0.2347  0.5153 -0.1616
  706TMC3    O210448   2.159   0.826  15.794 -0.0032  0.5273  0.2447
  707TMC3    C110449   4.238   4.144   1.716 -0.5178  0.2902  0.1094
  707TMC3    C210450   4.167   4.055   1.796 -0.2617  0.1333 -0.3483
  707TMC3    C310451   4.040   4.079   1.838  0.2102  0.7758  0.3967
  707TMC3    C410452   4.175   4.254   1.670  0.2633  0.0408 -0.2910
  707TMC3    C510453   4.052   4.286   1.720 -0.7841  0.3366  0.0635
  707TMC3    C610454   3.987   4.209   1.818 -0.3460 -0.2346 -0.7123
  707TMC3     C10455   4.347   4.092   1.627  0.1816  0.1394  0.0520
  707TMC3     O10456   4.352   4.132   1.514 -0.1598  0.0185 -0.3789
  707TMC3     H10457   4.210   3.958   1.819  0.6716  0.2549 -1.5868
  707TMC3    H110458   4.225   4.330   1.612  2.0353  0.6387  1.9996
  707TMC3    H210459   3.881   4.220   1.835 -0.2653  0.7824 -0.8732
  707TMC3    C710460   3.977   4.415   1.693  0.8123 -0.0731  0.0226
  707TMC3    C810461   3.966   3.985   1.905  0.0151 -0.4242  0.1143
  707TMC3    O110462   3.904   4.454   1.783  0.6340  0.7750 -0.1803
  707TMC3    O210463   3.883   4.021   1.986  0.5748 -0.4813 -0.1730
  708MPD2     C10464   0.967   3.255  13.973  0.1490 -0.3634  0.1602
  708MPD2    C110465   0.884   3.368  13.971 -0.0536 -0.7520  0.2480
  708MPD2    C210466   0.805   3.399  14.082  0.1667  0.0023 -0.1052
  708MPD2    C310467   0.795   3.308  14.183  0.5208 -0.1199  0.6901
  708MPD2    C410468   0.879   3.202  14.193  0.0851  0.7512 -0.2281
  708MPD2    C510469   0.961   3.172  14.085  0.5401 -0.0437  0.3359
  708MPD2     H10470   0.740   3.485  14.086  0.8794  0.5322  0.0284
  708MPD2    H110471   0.877   3.133  14.276 -0.1752  2.0394  0.8400
  708MPD2    H210472   1.028   3.223  13.890  0.8782 -0.7712  0.8586
  708MPD2    H310473   1.018   3.080  14.086  0.0858 -0.3195  1.0470
  708MPD2     N10474   0.708   3.345  14.284  0.0756  0.0984  0.2479
  708MPD2    H510475   0.647   3.424  14.265  0.4307  0.5906  1.1946
  708MPD2    N110476   0.900   3.475  13.884  0.1389 -0.3512  0.1636
  708MPD2    H710477   0.858   3.560  13.921 -0.3448 -0.8149  0.6776
  709TMC3    C110478   0.959   3.613  13.710  0.1653  0.6684  0.2036
  709TMC3    C210479   0.891   3.621  13.589  0.0477 -0.2382  0.1601
  709TMC3    C310480   0.830   3.738  13.571 -0.3451  0.6338  0.3534
  709TMC3    C410481   0.958   3.707  13.810  0.2945 -0.6793 -0.0930
  709TMC3    C510482   0.857   3.803  13.789  0.1116  0.2323 -0.5914
  709TMC3    C610483   0.796   3.824  13.670 -0.1722  0.4741 -0.0850
  709TMC3     C10484   0.964   3.478  13.766  0.2284 -0.3227 -0.1076
  709TMC3     O10485   1.022   3.388  13.710  0.4741  0.2847 -0.6691
  709TMC3     H10486   0.935   3.562  13.509  0.9893 -2.1474  2.0825
  709TMC3    H110487   1.016   3.700  13.901  0.2174  2.7691  0.2096
  709TMC3    H210488   0.718   3.896  13.649  0.3374  1.2247  0.6153
  709TMC3    C710489   0.774   3.808  13.912  0.7511 -0.2949  0.9486
  709TMC3    C810490   0.778   3.770  13.442  0.3569  1.0756  0.1565
  709TMC3    O110491   0.798   3.717  13.989  0.3599  0.0505 -0.5490
  709TMC3    O210492   0.741   3.889  13.417 -0.5430 -0.7385  0.5488
  710TMC3    C110493   1.120   0.034   0.589 -0.1147  0.5926  0.6142
  710TMC3    C210494   1.178   0.105   0.485  0.1531 -0.2806  0.0856
  710TMC3    C310495   1.251   0.036   0.394 -1.0051  0.1513  0.1275
  710TMC3    C410496   1.148   4.625   0.620 -0.5111  0.4661  0.5418
  710TMC3    C510497   1.231   4.561   0.538 -0.4339  0.3839 -0.1920
  710TMC3    C610498   1.275   4.622   0.417 -0.0070  0.1140 -0.1251
  710TMC3     C10499   1.012   0.102   0.656 -0.3753  0.5093  0.3727
  710TMC3     O10500   0.938   0.174   0.588  0.9975 -0.0591  0.0128
  710TMC3     H10501   1.137   0.202   0.457 -0.4351 -1.1503 -2.0320
  710TMC3    H110502   1.092   4.581   0.701  1.5338  0.6015  2.0344
  710TMC3    H210503   1.330   4.559   0.348 -1.3264 -1.2842  0.1051
  710TMC3    C710504   1.245   4.416   0.568  0.0186 -0.2997  0.8503
  710TMC3    C810505   1.310   0.093   0.276  0.6073 -0.1213  0.1957
  710TMC3    O110506   1.235   4.379   0.682 -0.1925 -0.4443  0.2121
  710TMC3    O210507   1.344   0.009   0.202  0.1133 -0.2461 -0.5640
  711TMC3    C110508   1.073   1.452  14.819  0.4586 -0.6006  0.2907
  711TMC3    C210509   1.059   1.550  14.909 -0.0802 -0.0909 -0.1204
  711TMC3    C310510   1.162   1.635  14.934 -0.4499 -0.1624  0.5489
  711TMC3    C410511   1.192   1.433  14.753 -0.5120  0.3522  0.3811
  711TMC3    C510512   1.288   1.530  14.766  0.2867  0.2606  0.1763
  711TMC3    C610513   1.274   1.632  14.858 -0.2045 -0.2801 -0.7352
  711TMC3     C10514   0.994   1.325  14.835  0.1621  0.4311  0.3273
  711TMC3     O10515   0.879   1.335  14.884  0.3424 -0.4574 -0.2324
  711TMC3     H10516   0.965   1.556  14.963  0.1226 -0.2930  0.2573
  711TMC3    H110517   1.222   1.350  14.691  0.9245 -0.3713  2.0605
  711TMC3    H210518   1.355   1.700  14.880  1.0874 -1.1562 -2.7619
  711TMC3    C710519   1.428   1.481  14.745 -0.4464 -0.1952  0.0945
  711TMC3    C810520   1.172   1.662  15.076 -0.1960  1.2774  0.1078
  711TMC3    O110521   1.433   1.361  14.753  0.2456 -0.3405 -0.4930
  711TMC3    O210522   1.074   1.702  15.140 -0.0329  0.0548 -0.2986
  712MPD2     C10523   3.095   2.195  13.843 -0.7518 -0.1128  0.1050
  712MPD2    C110524   2.985   2.210  13.761  0.3835  0.4320  0.3489
  712MPD2    C210525   2.978   2.320  13.674  0.1874 -0.2711  0.4385
  712MPD2    C310526   3.076   2.421  13.681 -0.5172  0.2236 -0.2487
  712MPD2    C410527   3.170   2.413  13.784 -0.4436  0.0724 -0.0543
  712MPD2    C510528   3.177   2.297  13.858  0.0696  0.5031  0.1399
  712MPD2     H10529   2.890   2.328  13.611  1.7411  1.6105 -1.5098
  712MPD2    H110530   3.247   2.488  13.800  1.8013 -1.9938 -1.1624
  712MPD2    H210531   3.110   2.107  13.904 -1.6488  0.7329  1.5616
  712MPD2    H310532   3.269   2.279  13.913  0.2804 -0.8775 -0.6589
  712MPD2     N10533   3.073   2.542  13.609  0.0979 -0.2365 -0.1467
  712MPD2    H510534   3.147   2.606  13.637 -1.2798 -0.4180  3.7972
  712MPD2    N110535   2.872   2.128  13.761  0.2595 -0.0840 -0.0380
  712MPD2    H710536   2.800   2.149  13.693 -0.5188 -2.2757  0.1314
  713TMC3    C110537   2.992   2.721  13.471  0.0569 -0.1209 -0.1743
  713TMC3    C210538   3.110   2.792  13.492 -0.0184  0.2964  0.8613
  713TMC3    C310539   3.121   2.921  13.443  0.5877  0.3619 -0.1102
  713TMC3    C410540   2.880   2.778  13.410 -0.1774 -0.1476 -0.0584
  713TMC3    C510541   2.893   2.913  13.372  0.2251  0.3846  0.0393
  713TMC3    C610542   3.013   2.977  13.380 -0.6904 -0.6156  0.4864
  713TMC3     C10543   2.977   2.584  13.519 -1.1455  0.5621 -0.0093
  713TMC3     O10544   2.881   2.523  13.473 -0.0435  0.5709 -0.0160
  713TMC3     H10545   3.191   2.736  13.537 -0.2303 -0.5370  0.2060
  713TMC3    H110546   2.785   2.728  13.424 -0.0306 -0.2692  0.5222
  713TMC3    H210547   3.022   3.075  13.333  0.9931 -0.5012  1.0621
  713TMC3    C710548   2.772   2.987  13.342 -0.4199 -0.0139  0.2497
  713TMC3    C810549   3.248   2.989  13.438  0.1239 -0.4945 -1.0677
  713TMC3    O110550   2.674   2.926  13.298 -0.6351 -0.0967 -0.1453
  713TMC3    O210551   3.252   3.088  13.367  0.2504 -0.2321 -0.6174
  714MPD2     C10552   0.455   1.082   1.806  0.0704  1.0154  0.2705
  714MPD2    C110553   0.414   0.959   1.760  0.3525 -0.1944  1.0903
  714MPD2    C210554   0.302   0.960   1.676 -0.6133  0.2318 -0.1927
  714MPD2    C310555   0.227   1.072   1.650 -0.3649 -0.1708 -0.0286
  714MPD2    C410556   0.281   1.193   1.679 -0.5390  1.3469  0.4424
  714MPD2    C510557   0.391   1.193   1.759  0.6796  0.6863 -1.0759
  714MPD2     H10558   0.267   0.867   1.634  1.9872 -0.2325 -1.2851
  714MPD2    H110559   0.241   1.290   1.651 -1.8552  0.4952 -0.5892
  714MPD2    H210560   0.545   1.090   1.865  0.4703 -4.1259  0.3301
  714MPD2    H310561   0.429   1.284   1.804 -1.1492 -0.0084  1.8932
  714MPD2     N10562   0.117   1.054   1.561  0.7861  0.5776 -0.0012
  714MPD2    H510563   0.087   0.957   1.554 -1.9804  1.3641  0.9580
  714MPD2    N110564   0.475   0.838   1.813 -0.3297  0.1557  0.4499
  714MPD2    H710565   0.557   0.850   1.870  0.4270  0.8896 -0.7893
  715TMC3    C110566   0.555   0.618   1.830 -0.4886  0.1295 -0.7118
  715TMC3    C210567   0.563   0.507   1.758  0.5004 -0.4290 -0.2498
  715TMC3    C310568   0.679   0.439   1.763  0.3136 -0.2794  0.5555
  715TMC3    C410569   0.655   0.657   1.913 -0.4887  0.6133 -0.0147
  715TMC3    C510570   0.765   0.582   1.914  0.3479  0.4155  0.3599
  715TMC3    C610571   0.782   0.481   1.832 -0.1633  0.3277  0.2991
  715TMC3     C10572   0.449   0.702   1.786  0.2812 -0.3318 -0.5936
  715TMC3     O10573   0.370   0.661   1.706 -0.4351  0.0344 -0.3423
  715TMC3     H10574   0.474   0.463   1.714  1.6169 -1.4785 -1.4266
  715TMC3    H110575   0.641   0.747   1.972 -2.1355 -0.9072  1.9228
  715TMC3    H210576   0.870   0.418   1.838  0.0985  0.4541 -2.4691
  715TMC3    C710577   0.855   0.586   2.029 -0.2259  0.6396 -0.8526
  715TMC3    C810578   0.683   0.321   1.679  0.1148  0.2931  0.1044
  715TMC3    O110579   0.909   0.481   2.059  0.7737 -0.8215 -0.3986
  715TMC3    O210580   0.594   0.317   1.595  0.0480  0.9183 -0.7828
  716MPD2     C10581   3.907   4.072  10.155 -0.6091 -0.2218 -0.2678
  716MPD2    C110582   3.831   4.010  10.057  0.3639 -0.4335  0.6490
  716MPD2    C210583   3.801   3.874  10.074 -0.4224  0.3250 -0.3381
  716MPD2    C310584   3.869   3.799  10.167  0.6535 -0.2121  0.9838
  716MPD2    C410585   3.955   3.862  10.254 -0.9322 -0.0244  0.5344
  716MPD2    C510586   3.975   3.993  10.248  0.2456 -0.1944  0.3339
  716MPD2     H10587   3.740   3.821  10.001 -1.2707 -0.7257  1.1476
  716MPD2    H110588   4.015   3.804  10.323 -1.3373 -0.9171  0.1246
  716MPD2    H210589   3.927   4.178  10.144  0.5007 -0.2340  1.5080
  716MPD2    H310590   4.052   4.029  10.315 -1.2822  2.3776  0.6806
  716MPD2     N10591   3.839   3.659  10.169 -0.0768  0.0964 -0.2023
  716MPD2    H510592   3.779   3.633  10.091 -0.4653 -1.1504  0.4970
  716MPD2    N110593   3.765   4.089   9.961 -0.3180 -0.2209  0.2644
  716MPD2    H710594   3.782   4.187   9.984 -2.9274 -0.0056  1.3845
  717TMC3    C110595   3.862   3.440  10.230 -0.3966  1.2307  0.5369
  717TMC3    C210596   3.858   3.415  10.097  0.2397 -0.0664 -0.4894
  717TMC3    C310597   3.864   3.278  10.067 -0.4577  0.2606 -0.0526
  717TMC3    C410598   3.866   3.340  10.329 -0.2370 -0.1963 -0.1392
  717TMC3    C510599   3.904   3.218  10.286  0.1756  0.6322 -0.1263
  717TMC3    C610600   3.893   3.181  10.157 -0.8924 -0.3864 -0.7609
  717TMC3     C10601   3.880   3.575  10.264 -0.5214  0.3654 -0.4292
  717TMC3     O10602   3.925   3.598  10.373 -0.8302 -0.0150  0.3398
  717TMC3     H10603   3.846   3.490  10.019 -0.6371  0.7709  0.4508
  717TMC3    H110604   3.862   3.366  10.434 -2.3323  2.5583 -0.8949
  717TMC3    H210605   3.905   3.079  10.125  1.3219 -0.2951 -0.1783
  717TMC3    C710606   3.890   3.110  10.378  0.0751  0.2213 -0.0176
  717TMC3    C810607   3.879   3.253   9.928 -0.0981  0.1211  0.0094
  717TMC3    O110608   3.857   3.003  10.335 -0.1194  0.2238  0.3448
  717TMC3    O210609   3.816   3.327   9.859 -0.0635 -0.4802 -0.3865
  718MPD2     C10610   4.405   2.242  13.183 -0.2581  0.2205  0.1831
  718MPD2    C110611   4.269   2.260  13.146  0.6466 -0.1736  0.6465
  718MPD2    C210612   4.207   2.151  13.081  0.9773  1.1820 -0.1943
  718MPD2    C310613   4.281   2.050  13.028 -0.2229 -0.3600 -0.1692
  718MPD2    C410614   4.417   2.043  13.055  0.1693 -0.2571  0.1841
  718MPD2    C510615   4.472   2.141  13.135  0.4687  0.3044 -0.5258
  718MPD2     H10616   4.098   2.144  13.078  1.0967 -0.1912 -1.1721
  718MPD2    H110617   4.471   1.957  13.019 -0.9565 -1.1790  0.6860
  718MPD2    H210618   4.459   2.316  13.242 -1.7555 -0.3493  2.2466
  718MPD2    H310619   4.571   2.129  13.176  0.3641  1.3717  0.0357
  718MPD2     N10620   4.202   1.948  12.963  0.0523  0.2311 -0.0606
  718MPD2    H510621   4.101   1.957  12.968  0.1643  0.6500  1.2377
  718MPD2    N110622   4.211   2.378  13.184  0.6097  0.3185 -0.2567
  718MPD2    H710623   4.274   2.447  13.223 -0.4667  1.0621  0.1613
  719TMC3    C110624   4.051   2.559  13.133  0.1727 -0.8875  0.2952
  719TMC3    C210625   3.936   2.571  13.057  1.0007 -0.2820  0.7298
  719TMC3    C310626   3.939   2.646  12.940 -0.7809 -0.0221  1.5094
  719TMC3    C410627   4.163   2.646  13.113  0.5611 -0.3394  1.0249
  719TMC3    C510628   4.141   2.738  13.013  0.5500 -0.4084  0.8391
  719TMC3    C610629   4.041   2.733  12.912 -0.0789  1.1923  0.1658
  719TMC3     C10630   4.093   2.415  13.121 -0.4636  1.0250  0.3373
  719TMC3     O10631   4.015   2.341  13.063 -0.4447  0.3463 -0.3316
  719TMC3     H10632   3.859   2.498  13.077  0.0552  0.5822  0.2555
  719TMC3    H110633   4.244   2.650  13.185  1.1372  2.3437  0.2109
  719TMC3    H210634   4.040   2.784  12.816 -1.7185 -0.7248 -0.8366
  719TMC3    C710635   4.248   2.830  12.980 -0.0939 -0.2808  0.5664
  719TMC3    C810636   3.886   2.586  12.820 -0.0199 -0.0246  0.0693
  719TMC3    O110637   4.277   2.834  12.862 -0.4020 -0.2643 -0.7169
  719TMC3    O210638   3.818   2.654  12.745  0.0079 -0.0890  0.5537
  720MPD2     C10639   2.343   4.184  14.078 -0.4496  0.5635  0.8652
  720MPD2    C110640   2.431   4.161  13.971  0.7505 -0.3144 -0.1411
  720MPD2    C210641   2.555   4.103  14.005  0.5669  0.7294  0.1666
  720MPD2    C310642   2.585   4.052  14.134 -0.3040 -0.2262  0.1970
  720MPD2    C410643   2.485   4.073  14.234 -0.1441  0.7653 -0.3596
  720MPD2    C510644   2.370   4.136  14.205  0.7128 -0.2012 -0.0979
  720MPD2     H10645   2.626   4.089  13.923  0.1509 -0.0113 -0.0644
  720MPD2    H110646   2.496   4.040  14.337  1.1062 -0.9031 -1.0300
  720MPD2    H210647   2.241   4.217  14.061 -0.6282 -0.7774 -0.6849
  720MPD2    H310648   2.295   4.157  14.279  0.7569  1.2699 -0.4589
  720MPD2     N10649   2.722   4.015  14.161  0.3908  0.5355 -0.1707
  720MPD2    H510650   2.780   3.995  14.079  0.4846 -0.5415  0.1622
  720MPD2    N110651   2.412   4.217  13.838  0.1618 -0.4176 -0.1496
  720MPD2    H710652   2.468   4.177  13.763  1.8330  1.2872  0.2079
  721TMC3    C110653   2.925   3.980  14.285 -0.0367 -0.3921 -0.3362
  721TMC3    C210654   2.960   3.926  14.403 -0.4930  0.2231 -1.0467
  721TMC3    C310655   3.084   3.969  14.448  0.0039 -0.3874  1.1064
  721TMC3    C410656   2.996   4.071  14.211 -0.0684 -0.3460  0.3394
  721TMC3    C510657   3.114   4.110  14.262 -0.0716  0.0422  0.8374
  721TMC3    C610658   3.163   4.055  14.376  0.0559  0.1602  0.2278
  721TMC3     C10659   2.781   3.997  14.285  0.2681 -0.0655  0.1079
  721TMC3     O10660   2.723   3.994  14.393  0.3418 -0.1392  0.1708
  721TMC3     H10661   2.892   3.857  14.452  1.5481 -0.0416  1.4520
  721TMC3    H110662   2.948   4.126  14.131  1.7607  0.3920 -0.2385
  721TMC3    H210663   3.266   4.077  14.404  0.8060  0.5073 -2.8889
  721TMC3    C710664   3.217   4.183  14.184  0.4229  0.6046 -0.2771
  721TMC3    C810665   3.154   3.893  14.560 -0.7855  0.2079 -0.3104
  721TMC3    O110666   3.333   4.161  14.202  0.4233 -0.2345  0.0369
  721TMC3    O210667   3.270   3.922  14.573 -0.1926  0.4719  0.2114
  722MPD2     C10668   1.773   2.815  13.040 -0.2065 -0.5111 -0.7485
  722MPD2    C110669   1.728   2.928  13.089 -0.5098 -0.4152  0.0950
  722MPD2    C210670   1.594   2.934  13.109  0.4671  0.5607  0.1871
  722MPD2    C310671   1.510   2.829  13.080 -0.1160  0.1549 -0.3965
  722MPD2    C410672   1.562   2.716  13.023 -0.5929 -0.8580  0.4720
  722MPD2    C510673   1.696   2.713  12.999 -0.2791  0.3360  0.2520
  722MPD2     H10674   1.552   3.028  13.144 -1.6124 -0.1143 -0.5182
  722MPD2    H110675   1.506   2.627  12.999 -2.4500  0.8263 -1.4740
  722MPD2    H210676   1.877   2.785  13.045  0.3822  1.4442 -1.1593
  722MPD2    H310677   1.745   2.622  12.966 -1.9762 -0.2241 -0.7677
  722MPD2     N10678   1.376   2.834  13.116  0.1063  0.3269  0.3026
  722MPD2    H510679   1.357   2.919  13.169 -1.6663  0.1437 -0.0482
  722MPD2    N110680   1.805   3.041  13.095  0.3896  0.5394 -0.1778
  722MPD2    H710681   1.751   3.126  13.110  0.4910  0.9093 -1.9461
  723TMC3    C110682   1.150   2.769  13.139 -0.3390  0.2172  0.5434
  723TMC3    C210683   1.080   2.664  13.196 -0.2141 -0.1321 -0.0155
  723TMC3    C310684   0.954   2.641  13.149  0.0173  0.1237  0.1918
  723TMC3    C410685   1.096   2.860  13.052 -0.0070 -0.1619 -0.3667
  723TMC3    C510686   0.982   2.815  12.989  0.3086  0.2162  0.5614
  723TMC3    C610687   0.908   2.712  13.044 -0.5311  0.9451  0.3946
  723TMC3     C10688   1.284   2.729  13.114  0.4429 -0.1358  0.7008
  723TMC3     O10689   1.302   2.613  13.086 -0.1424 -0.0915 -0.2816
  723TMC3     H10690   1.137   2.599  13.261  0.8269  1.4012  0.6057
  723TMC3    H110691   1.164   2.929  13.002 -0.8983  2.3646  1.9803
  723TMC3    H210692   0.809   2.691  13.004  0.3655 -1.8774 -0.4104
  723TMC3    C710693   0.907   2.915  12.909 -0.0664 -0.3301  1.0843
  723TMC3    C810694   0.888   2.516  13.186  0.1943 -0.9543 -0.1008
  723TMC3    O110695   0.813   2.872  12.850 -0.4572  0.1696 -0.0115
  723TMC3    O210696   0.906   2.475  13.301 -0.2609  0.3272  0.4263
  724TMC3    C110697   0.605   1.609   9.090 -1.1169 -0.2052 -0.2238
  724TMC3    C210698   0.588   1.743   9.096 -0.1812 -0.4008  0.3111
  724TMC3    C310699   0.697   1.824   9.120 -0.6296  0.5506  0.0675
  724TMC3    C410700   0.726   1.558   9.117 -0.5757 -0.4286 -0.0899
  724TMC3    C510701   0.834   1.635   9.157 -0.1302 -0.1559  0.5805
  724TMC3    C610702   0.823   1.773   9.156 -0.6031 -0.5322 -0.4080
  724TMC3     C10703   0.491   1.523   9.074  0.0797  0.6154  0.0489
  724TMC3     O10704   0.383   1.578   9.049 -0.2413  0.4307 -0.3839
  724TMC3     H10705   0.494   1.792   9.071 -0.4997 -0.3952  1.5053
  724TMC3    H110706   0.749   1.453   9.105  1.5055  0.3471 -2.7871
  724TMC3    H210707   0.904   1.819   9.212 -0.6929  0.2036 -0.8873
  724TMC3    C710708   0.974   1.586   9.149 -0.2140  0.0240  0.6685
  724TMC3    C810709   0.679   1.968   9.118  0.5265  0.3677 -0.4719
  724TMC3    O110710   1.046   1.681   9.120 -0.3758  0.2023 -0.0263
  724TMC3    O210711   0.574   2.015   9.084  0.1714  0.0231  0.5008
  725TMC3    C110712   2.553   4.551  12.441  0.5853  0.4027 -0.8091
  725TMC3    C210713   2.580   4.577  12.305  0.0823  0.0034  0.0416
  725TMC3    C310714   2.503   4.509  12.210  0.2500 -0.3037  0.2059
  725TMC3    C410715   2.453   4.465  12.479 -0.1162 -0.8236 -0.5642
  725TMC3    C510716   2.385   4.400  12.381  0.0065 -0.4856  0.1933
  725TMC3    C610717   2.401   4.425  12.247 -0.6783  0.5116  0.1774
  725TMC3     C10718   2.658   4.594  12.531  0.4206 -0.6359  0.1315
  725TMC3     O10719   2.761   4.649  12.481  0.0236  0.2648 -0.7875
  725TMC3     H10720   2.658   4.649  12.285 -0.8977  0.6362 -1.4409
  725TMC3    H110721   2.434   4.439  12.583 -0.7118  2.1229  0.0742
  725TMC3    H210722   2.346   4.367  12.175  0.0396  1.2579 -0.9725
  725TMC3    C710723   2.347   4.262  12.396 -0.5691  0.2593 -0.2074
  725TMC3    C810724   2.541   4.497  12.069  0.0176  0.3968 -0.4654
  725TMC3    O110725   2.244   4.229  12.338  0.0539  0.0622  0.2525
  725TMC3    O210726   2.483   4.414  12.003  0.1612  0.6995  0.4454
  726MPD2     C10727   1.065   1.285   9.999 -0.2602 -0.1528 -0.4469
  726MPD2    C110728   0.986   1.375  10.070  0.6439  0.7242  0.7360
  726MPD2    C210729   0.906   1.332  10.172  0.1820 -0.6263  0.7706
  726MPD2    C310730   0.906   1.197  10.207  0.1972 -0.5358 -0.1181
  726MPD2    C410731   0.985   1.110  10.137 -0.0081 -0.6375  0.1768
  726MPD2    C510732   1.066   1.159  10.036  0.6660 -0.2586  0.1762
  726MPD2     H10733   0.862   1.408  10.236 -1.3462 -0.5490 -0.3654
  726MPD2    H110734   0.995   1.004  10.159  0.8626 -0.8025 -1.0071
  726MPD2    H210735   1.111   1.315   9.906  1.9045  1.5150  1.1545
  726MPD2    H310736   1.113   1.089   9.968 -1.2277 -1.9435  0.5837
  726MPD2     N10737   0.837   1.141  10.306  0.2206 -0.3796  0.4051
  726MPD2    H510738   0.823   1.041  10.295 -1.8847 -0.1377  0.8708
  726MPD2    N110739   0.971   1.506  10.022 -0.4527  0.2848 -0.1803
  726MPD2    H710740   0.888   1.554  10.055  0.1337  1.6555 -0.6999
  727TMC3    C110741   1.006   1.692   9.900  0.1922 -0.2935 -0.0205
  727TMC3    C210742   1.085   1.801   9.893  0.4836  0.1277  0.2834
  727TMC3    C310743   1.024   1.917   9.853  0.0672  1.1083  0.0567
  727TMC3    C410744   0.869   1.701   9.886 -0.6769 -0.5871  0.0091
  727TMC3    C510745   0.817   1.821   9.848 -0.6552 -0.0939  0.6458
  727TMC3    C610746   0.893   1.930   9.827 -0.2437 -0.4096  0.5472
  727TMC3     C10747   1.060   1.568   9.945  1.1127  0.0564  0.2307
  727TMC3     O10748   1.181   1.551   9.941  0.1362  0.3147  0.4193
  727TMC3     H10749   1.191   1.796   9.915  0.5968 -2.0112 -0.7365
  727TMC3    H110750   0.801   1.617   9.873 -0.4644 -0.8778  0.7548
  727TMC3    H210751   0.848   2.026   9.802  0.8800 -0.3001 -0.9898
  727TMC3    C710752   0.675   1.817   9.810  0.3729  0.1353 -0.3378
  727TMC3    C810753   1.092   2.042   9.871 -0.9016 -0.0600  0.0182
  727TMC3    O110754   0.599   1.734   9.859 -0.4824  0.0749  0.5636
  727TMC3    O210755   1.027   2.147   9.862 -0.5289  0.0808 -0.0361
  728TMC3    C110756   4.711   4.494  15.419  0.5916  0.2896  0.2529
  728TMC3    C210757   0.106   4.518  15.484 -0.5073 -0.2086 -0.9692
  728TMC3    C310758   0.220   4.573  15.419  0.3777  0.1594  0.1916
  728TMC3    C410759   4.700   4.542  15.294 -0.3305 -0.2387  0.6247
  728TMC3    C510760   0.081   4.617  15.242 -0.1449 -0.0443  0.0725
  728TMC3    C610761   0.209   4.625  15.293 -0.1491  0.3571  0.2102
  728TMC3     C10762   4.596   4.468  15.499 -0.7126 -0.0502  0.5648
  728TMC3     O10763   4.603   4.366  15.567 -0.3182  0.2192  0.4237
  728TMC3     H10764   0.099   4.490  15.588  1.1610 -0.0682 -0.8240
  728TMC3    H110765   4.611   4.515  15.238  0.2541  1.1612 -0.9596
  728TMC3    H210766   0.293   4.670  15.241 -0.8264  1.2839 -0.0824
  728TMC3    C710767   0.049   4.666  15.108  0.2594 -0.0076 -0.5610
  728TMC3    C810768   0.341   4.588  15.504 -0.5103 -0.4603 -0.1327
  728TMC3    O110769   4.688   4.602  15.043 -0.2470  0.6702  0.3523
  728TMC3    O210770   0.325   4.565  15.623  0.1183  0.1025 -0.0636
  729MPD2     C10771   2.557   1.387  16.642 -0.1505  0.6820 -0.6091
  729MPD2    C110772   2.684   1.338  16.606 -0.0251  0.2036 -0.1464
  729MPD2    C210773   2.775   1.326  16.710 -0.3118  0.6626  0.2241
  729MPD2    C310774   2.745   1.362  16.837 -0.1787  0.0528  0.2092
  729MPD2    C410775   2.616   1.402  16.872  0.5729 -0.8940 -0.0807
  729MPD2    C510776   2.522   1.419  16.769 -0.2668 -0.4434  0.2577
  729MPD2     H10777   2.872   1.287  16.683  1.0897  2.9333  1.9916
  729MPD2    H110778   2.582   1.422  16.973 -1.1823 -2.7219 -0.3080
  729MPD2    H210779   2.481   1.389  16.564 -0.2760 -0.4204 -0.5268
  729MPD2    H310780   2.416   1.444  16.776  0.0825  0.4887  2.0289
  729MPD2     N10781   2.842   1.371  16.934 -0.5299 -0.2987  0.0971
  729MPD2    H510782   2.813   1.416  17.020  3.4739 -0.2523  1.4578
  729MPD2    N110783   2.706   1.310  16.468  0.0994 -0.6428  0.0398
  729MPD2    H710784   2.633   1.334  16.402 -0.2066  0.7987  0.8984
  730TMC3    C110785   3.025   1.337  17.067  0.3757  0.1826  0.3647
  730TMC3    C210786   3.148   1.390  17.063 -0.5068 -0.0181 -0.1525
  730TMC3    C310787   3.187   1.488  17.151  0.3244  0.3085  0.1990
  730TMC3    C410788   2.941   1.394  17.164 -0.7129 -0.1110  0.5000
  730TMC3    C510789   2.984   1.489  17.253 -0.0967 -0.1407  0.3689
  730TMC3    C610790   3.111   1.534  17.252  0.2669  0.0005 -0.4663
  730TMC3     C10791   2.966   1.321  16.938  0.9215  0.1755 -0.0953
  730TMC3     O10792   3.044   1.279  16.848  0.1668 -0.0850  0.6455
  730TMC3     H10793   3.232   1.347  17.010 -0.1866  0.2324  0.1540
  730TMC3    H110794   2.845   1.346  17.181 -1.0623 -0.2564 -1.8430
  730TMC3    H210795   3.136   1.620  17.313 -0.0743 -0.7106  0.6878
  730TMC3    C710796   2.891   1.593  17.244  0.1985  0.4725 -0.6715
  730TMC3    C810797   3.318   1.546  17.143  0.4619  0.1408  0.2960
  730TMC3    O110798   2.810   1.591  17.148 -0.1225  0.5327  0.4947
  730TMC3    O210799   3.362   1.603  17.241 -0.7143 -0.5576 -0.6512
  731MPD2     C10800   2.510   3.698  11.899 -0.4010 -0.0099  0.2736
  731MPD2    C110801   2.646   3.678  11.913 -0.7701  0.6706 -0.6783
  731MPD2    C210802   2.703   3.643  12.035  0.0670 -0.5922 -0.4099
  731MPD2    C310803   2.617   3.615  12.142 -0.3447 -0.0318  0.3434
  731MPD2    C410804   2.484   3.637  12.125 -0.2423 -0.7507 -0.4071
  731MPD2    C510805   2.424   3.671  12.005 -0.5257  0.1000 -0.7861
  731MPD2     H10806   2.806   3.614  12.052  0.5143  1.9404  1.2541
  731MPD2    H110807   2.414   3.617  12.205 -0.0885 -1.6512 -0.4994
  731MPD2    H210808   2.473   3.730  11.802  2.4097 -0.5072 -0.9651
  731MPD2    H310809   2.317   3.687  12.007 -0.4493  0.3487  1.0063
  731MPD2     N10810   2.666   3.547  12.260  0.1424 -0.2038  0.4702
  731MPD2    H510811   2.766   3.536  12.269 -0.2118 -0.4528  3.8039
  731MPD2    N110812   2.723   3.695  11.794  0.1041 -0.4103  0.2342
  731MPD2    H710813   2.672   3.712  11.708  1.6174  0.8927 -0.3842
  732TMC3    C110814   2.905   3.690  11.644 -0.0821 -0.2981 -0.3608
  732TMC3    C210815   2.829   3.625  11.550  0.1540  0.1800  0.0787
  732TMC3    C310816   2.849   3.660  11.416 -0.2156 -0.3856 -0.2266
  732TMC3    C410817   3.012   3.774  11.614  0.2946 -0.0020  0.5213
  732TMC3    C510818   3.039   3.802  11.487 -0.0613  0.2128 -0.2582
  732TMC3    C610819   2.955   3.746  11.383 -0.0306  0.3329 -0.0969
  732TMC3     C10820   2.857   3.693  11.787  0.0724 -0.4255  0.2303
  732TMC3     O10821   2.945   3.696  11.870  0.2986 -0.7836 -0.4057
  732TMC3     H10822   2.749   3.560  11.583  1.0970  1.1233  4.2372
  732TMC3    H110823   3.079   3.796  11.696  0.5226 -2.4147  0.9897
  732TMC3    H210824   2.953   3.776  11.279  1.7689 -1.5986 -0.6927
  732TMC3    C710825   3.092   3.935  11.455  0.2961 -0.0169  0.9669
  732TMC3    C810826   2.732   3.661  11.329  0.3860 -0.5677  0.1433
  732TMC3    O110827   3.086   3.982  11.345  0.1181 -0.2042 -0.0328
  732TMC3    O210828   2.742   3.611  11.216  0.0644  0.4550  0.5389
  733TMC3    C110829   3.940   1.696  12.802  0.3557 -0.0825 -0.6755
  733TMC3    C210830   4.054   1.724  12.874 -0.0597 -0.4142  0.0066
  733TMC3    C310831   4.159   1.770  12.810  0.2622  0.7708  0.0287
  733TMC3    C410832   3.922   1.735  12.672 -0.2600 -0.3067 -0.1815
  733TMC3    C510833   4.024   1.801  12.608 -0.4667 -0.1572  0.4983
  733TMC3    C610834   4.148   1.818  12.683 -0.3291  0.3565 -0.2457
  733TMC3     C10835   3.811   1.678  12.876 -0.1444 -0.0916 -0.6662
  733TMC3     O10836   3.705   1.672  12.812  0.1753 -0.4760  0.9095
  733TMC3     H10837   4.070   1.680  12.971 -1.7438  1.0230  0.9513
  733TMC3    H110838   3.828   1.735  12.619 -0.6834 -0.2278  0.5779
  733TMC3    H210839   4.230   1.878  12.643 -0.2512 -1.0078 -2.1516
  733TMC3    C710840   3.974   1.920  12.550  0.7678  0.7463  0.6086
  733TMC3    C810841   4.261   1.857  12.875  0.4536 -0.0285  0.4368
  733TMC3    O110842   3.924   1.910  12.441 -0.2894 -0.0032  0.3251
  733TMC3    O210843   4.364   1.880  12.816 -0.6922 -0.0622 -0.1228
  734MPD2     C10844   0.891   0.459  12.219 -0.5021 -0.4396 -0.1835
  734MPD2    C110845   0.836   0.373  12.128 -0.1932 -0.0269  0.0174
  734MPD2    C210846   0.834   0.413  11.995 -0.6130 -0.8145  0.3512
  734MPD2    C310847   0.921   0.509  11.952 -0.3983 -0.1364  0.3384
  734MPD2    C410848   0.988   0.582  12.045  0.4527 -0.0986  0.3285
  734MPD2    C510849   0.970   0.560  12.181  0.0779 -0.2624  0.0533
  734MPD2     H10850   0.781   0.358  11.918  0.9352 -0.1596 -1.1982
  734MPD2    H110851   1.058   0.658  12.013 -0.9982  1.0279 -0.1894
  734MPD2    H210852   0.888   0.438  12.325  1.1285  3.7505  0.6673
  734MPD2    H310853   1.015   0.622  12.258  2.6596  0.2070 -1.8229
  734MPD2     N10854   0.947   0.521  11.814 -0.1089  0.1220  0.8147
  734MPD2    H510855   0.897   0.456  11.754  2.4893 -1.6080  0.5496
  734MPD2    N110856   0.755   0.267  12.180  0.0291  0.0466  0.0469
  734MPD2    H710857   0.749   0.252  12.280  2.0383  2.6810  0.5614
  735TMC3    C110858   0.630   0.066  12.158  0.2968  0.4509  0.7239
  735TMC3    C210859   0.527   0.026  12.076 -0.9014 -0.1088 -0.0992
  735TMC3    C310860   0.498   4.614  12.038  0.1716 -0.1916 -0.1029
  735TMC3    C410861   0.704   4.693  12.218  1.0136 -0.4120  0.3098
  735TMC3    C510862   0.682   4.562  12.186 -0.2014  0.2423  0.3498
  735TMC3    C610863   0.582   4.522  12.099  0.4001  0.2265  0.1179
  735TMC3     C10864   0.692   0.179  12.093  0.3171  0.5549 -0.5156
  735TMC3     O10865   0.715   0.155  11.979 -0.3237 -0.1143 -0.1340
  735TMC3     H10866   0.468   0.102  12.026 -1.7220 -0.0032  1.0306
  735TMC3    H110867   0.776   4.720  12.294  0.7055 -0.8786  0.7640
  735TMC3    H210868   0.581   4.420  12.061  3.4802  0.9585 -1.9005
  735TMC3    C710869   0.805   4.501  12.142  0.0117 -0.3402  0.0125
  735TMC3    C810870   0.500   4.595  11.896 -0.7390 -0.2806  0.1553
  735TMC3    O110871   0.822   4.480  12.019 -0.0051 -0.0896 -0.2959
  735TMC3    O210872   0.478   4.477  11.859  0.2013  0.1823 -0.2074
  736MPD2     C10873   1.019   4.272  12.338 -0.0064  0.0517  0.4779
  736MPD2    C110874   0.983   4.357  12.235 -0.1209 -0.1505 -0.5911
  736MPD2    C210875   1.068   4.351  12.120  0.0630 -0.5021 -0.2578
  736MPD2    C310876   1.185   4.278  12.118 -0.5585  0.5474  0.2153
  736MPD2    C410877   1.218   4.204  12.220  0.3629 -0.7502  0.0781
  736MPD2    C510878   1.135   4.201  12.328 -1.0373 -0.3489 -0.2433
  736MPD2     H10879   1.048   4.416  12.036  0.3233 -2.4026 -1.7962
  736MPD2    H110880   1.307   4.143  12.224  1.2518  0.4895 -0.8797
  736MPD2    H210881   0.960   4.257  12.427  0.2502  1.0310  0.8068
  736MPD2    H310882   1.162   4.139  12.414  1.3388 -0.4157 -1.0166
  736MPD2     N10883   1.277   4.291  12.012 -0.5007 -0.1894  0.5486
  736MPD2    H510884   1.364   4.242  12.029 -0.5796 -0.4629  0.1634
  736MPD2    N110885   0.877   4.446  12.245 -0.0353  0.3226  0.0395
  736MPD2    H710886   0.827   4.446  12.334  2.3458  0.2793  1.3640
  737TMC3    C110887   1.399   4.356  11.825 -0.3141 -0.2710 -0.2375
  737TMC3    C210888   1.438   4.467  11.764  0.5935  0.1558 -0.0951
  737TMC3    C310889   1.539   4.450  11.675  0.0582  0.0360 -0.2029
  737TMC3    C410890   1.436   4.229  11.791 -0.3605 -0.8512 -0.5636
  737TMC3    C510891   1.535   4.216  11.698  0.6904 -0.0193  0.5244
  737TMC3    C610892   1.590   4.328  11.643  0.2992 -0.3800  0.0220
  737TMC3     C10893   1.284   4.382  11.909 -0.2255 -0.5130 -0.6797
  737TMC3     O10894   1.209   4.474  11.883 -0.2152 -0.0527 -0.1435
  737TMC3     H10895   1.396   4.566  11.773 -1.3545 -0.6760 -0.0939
  737TMC3    H110896   1.370   4.150  11.823  0.4501 -1.3573 -0.1421
  737TMC3    H210897   1.670   4.315  11.571 -0.4274 -1.0897 -0.6615
  737TMC3    C710898   1.560   4.079  11.647  0.1993  0.3174 -0.7674
  737TMC3    C810899   1.591   4.571  11.620  0.1737 -0.5169  0.7893
  737TMC3    O110900   1.502   3.987  11.706 -0.0567 -0.0962 -0.6480
  737TMC3    O210901   1.613   4.662  11.697 -0.1641 -0.0082  0.1547
  738MPD2     C10902   2.116   3.371  15.112 -0.2544  0.1139  0.1997
  738MPD2    C110903   2.169   3.249  15.082 -0.4083  0.4143  0.1639
  738MPD2    C210904   2.278   3.245  14.990  0.7076  0.1586  0.4652
  738MPD2    C310905   2.341   3.359  14.947 -0.0224  0.1315  0.3543
  738MPD2    C410906   2.280   3.480  14.972  0.3983 -0.3813  1.1851
  738MPD2    C510907   2.171   3.482  15.050  0.0662 -0.5152  0.6488
  738MPD2     H10908   2.316   3.146  14.967  0.8810 -0.2139  2.3612
  738MPD2    H110909   2.320   3.576  14.943  1.8567 -1.1950  0.5448
  738MPD2    H210910   2.030   3.372  15.178 -0.1483  1.9118  0.3108
  738MPD2    H310911   2.131   3.576  15.084  2.9443  1.4465 -1.4143
  738MPD2     N10912   2.469   3.359  14.883 -0.2016 -0.2329 -0.4491
  738MPD2    H510913   2.499   3.443  14.836 -0.3516 -1.2319 -2.3306
  738MPD2    N110914   2.123   3.129  15.140 -0.1052 -0.4021 -0.6389
  738MPD2    H710915   2.171   3.046  15.108 -0.3112  0.1058 -2.2659
  739TMC3    C110916   2.668   3.279  14.787 -0.6822 -0.3166 -0.0188
  739TMC3    C210917   2.662   3.375  14.687  0.3542 -0.3312 -0.6214
  739TMC3    C310918   2.774   3.425  14.633 -0.4325  0.9502  0.4631
  739TMC3    C410919   2.791   3.226  14.827 -0.6995  0.5886  0.0607
  739TMC3    C510920   2.901   3.288  14.774  0.4941  0.7435 -0.0825
  739TMC3    C610921   2.900   3.384  14.675  0.4780 -0.2644 -0.3766
  739TMC3     C10922   2.551   3.244  14.868 -0.5231 -0.6798  0.5697
  739TMC3     O10923   2.555   3.139  14.925 -0.2650  0.4342 -0.1625
  739TMC3     H10924   2.565   3.400  14.645 -0.4908 -3.0477 -0.2845
  739TMC3    H110925   2.804   3.150  14.903 -2.1780 -0.2671 -0.5478
  739TMC3    H210926   2.993   3.427  14.641  1.9139 -2.3057  0.9940
  739TMC3    C710927   3.028   3.251  14.834 -0.6428 -0.2326  0.1242
  739TMC3    C810928   2.760   3.519  14.521  0.4385  0.3868 -0.4164
  739TMC3    O110929   3.023   3.209  14.952  0.2160  0.2356  0.6018
  739TMC3    O210930   2.647   3.558  14.492  0.2400  0.1553  0.0330
  740TMC3    C110931   2.565   4.355  14.410  0.5648 -0.0757  0.0503
  740TMC3    C210932   2.650   4.308  14.501  0.2217 -0.1628  0.1247
  740TMC3    C310933   2.780   4.323  14.474 -0.1937 -0.7187  0.9165
  740TMC3    C410934   2.605   4.401  14.286 -0.7322 -0.1008 -0.2872
  740TMC3    C510935   2.737   4.421  14.258  0.4819 -0.4730 -0.0532
  740TMC3    C610936   2.821   4.375  14.358  0.0695 -0.1498  0.5580
  740TMC3     C10937   2.444   4.427  14.460  0.1630 -0.4147 -0.0139
  740TMC3     O10938   2.403   4.518  14.389 -0.8148  0.7040 -0.5200
  740TMC3     H10939   2.614   4.292  14.602  3.0374  1.7105  1.4350
  740TMC3    H110940   2.523   4.424  14.219 -0.0525 -0.0155 -1.0771
  740TMC3    H210941   2.929   4.370  14.348  0.2080  0.3994  1.8649
  740TMC3    C710942   2.781   4.378  14.122 -0.1419 -0.2304 -0.0410
  740TMC3    C810943   2.883   4.285  14.567 -0.0035  0.6951  0.6689
  740TMC3    O110944   2.897   4.349  14.108  0.6540  0.0382  0.0662
  740TMC3    O210945   2.994   4.263  14.520 -0.4787  0.4836  0.2302
  741TMC3    C110946   2.042   4.241  14.604  0.0795  0.4187  0.5300
  741TMC3    C210947   2.020   4.127  14.686  0.0286 -0.1868 -0.3217
  741TMC3    C310948   1.954   4.146  14.804 -0.1222 -0.3959  0.2797
  741TMC3    C410949   1.992   4.367  14.637 -0.8594  0.1696  0.2715
  741TMC3    C510950   1.915   4.367  14.750 -0.0948  0.2171  0.5337
  741TMC3    C610951   1.903   4.266  14.839 -0.1978 -0.2135  0.4642
  741TMC3     C10952   2.067   4.214  14.465  0.0100 -0.6048 -0.7207
  741TMC3     O10953   2.142   4.117  14.447 -0.5296  0.3308 -0.1811
  741TMC3     H10954   2.062   4.034  14.649  1.6875  0.1489  0.6939
  741TMC3    H110955   2.023   4.458  14.588 -1.5559 -0.1531 -0.7659
  741TMC3    H210956   1.834   4.277  14.922 -0.8366 -0.7402  0.0097
  741TMC3    C710957   1.858   4.494  14.808 -1.1364 -0.1514  0.3669
  741TMC3    C810958   1.891   4.030  14.869 -0.3779  0.4551  0.0896
  741TMC3    O110959   1.836   4.510  14.928 -0.0643  0.5893  0.2186
  741TMC3    O210960   1.793   4.052  14.940  0.4756 -0.4305  0.8098
  742TMC3    C110961   1.857   2.159  15.301  0.4800  0.5868 -0.9439
  742TMC3    C210962   1.797   2.167  15.182 -0.8081 -0.1300  0.0973
  742TMC3    C310963   1.852   2.106  15.078  0.2545  0.2128 -0.0775
  742TMC3    C410964   1.987   2.124  15.314  0.3804  0.7509 -0.0839
  742TMC3    C510965   2.041   2.063  15.202 -0.1398 -0.2659 -0.6285
  742TMC3    C610966   1.975   2.053  15.088 -0.0959  0.5018 -0.4188
  742TMC3     C10967   1.781   2.213  15.417  0.1154 -0.0343  0.4383
  742TMC3     O10968   1.688   2.290  15.402  0.4289 -0.0204  0.5422
  742TMC3     H10969   1.690   2.187  15.179 -1.0954 -1.6423  0.1111
  742TMC3    H110970   2.024   2.115  15.416 -0.7816  1.9804  0.4497
  742TMC3    H210971   2.028   2.032  14.995  0.2450  1.6191 -0.4802
  742TMC3    C710972   2.167   1.993  15.205 -0.0381 -0.4500  0.2592
  742TMC3    C810973   1.801   2.135  14.941  0.0241  0.2803 -0.6068
  742TMC3    O110974   2.205   1.935  15.101 -0.7950  0.2132 -0.1518
  742TMC3    O210975   1.854   2.075  14.847  1.0160  0.4571  0.3074
  743MPD2     C10976   4.078   2.581   1.663 -0.2419 -0.3244 -0.6736
  743MPD2    C110977   4.130   2.705   1.701 -0.2663  0.6838  0.8747
  743MPD2    C210978   4.245   2.709   1.784 -0.2787  0.2255 -0.5269
  743MPD2    C310979   4.306   2.592   1.824 -0.3557  0.0590 -0.1043
  743MPD2    C410980   4.261   2.471   1.771  0.0888 -0.6765 -1.1851
  743MPD2    C510981   4.151   2.466   1.691  0.2607 -0.2810 -0.5250
  743MPD2     H10982   4.295   2.799   1.817 -0.4223  0.4377 -0.8940
  743MPD2    H110983   4.311   2.381   1.805 -0.4095 -1.6106 -2.9415
  743MPD2    H210984   3.985   2.568   1.609  0.9858 -1.6864 -2.4546
  743MPD2    H310985   4.104   2.370   1.674  2.7597 -1.5552 -0.1995
  743MPD2     N10986   4.430   2.607   1.883 -0.0706  0.6877  0.0138
  743MPD2    H510987   4.463   2.701   1.904  1.3318  0.4215 -0.9979
  743MPD2    N110988   4.079   2.819   1.634  0.2384  0.1036  0.3429
  743MPD2    H710989   4.027   2.812   1.547 -0.1335  3.4452  0.2667
  744TMC3    C110990   4.028   3.036   1.585 -0.5616 -0.6307  0.2520
  744TMC3    C210991   3.978   3.149   1.635 -0.1823 -0.1599  0.2345
  744TMC3    C310992   3.965   3.258   1.555 -0.6388 -0.4394 -0.2373
  744TMC3    C410993   4.075   3.031   1.458  0.2613 -0.0302  0.5488
  744TMC3    C510994   4.038   3.141   1.377 -0.1876  0.1406  0.1180
  744TMC3    C610995   3.994   3.262   1.423 -0.0530  0.3190  0.1531
  744TMC3     C10996   4.089   2.946   1.677  0.8952 -0.3326 -0.3115
  744TMC3     O10997   4.123   2.979   1.791 -0.0525  0.2365 -0.2115
  744TMC3     H10998   3.972   3.157   1.743  1.4963 -0.2269  0.3291
  744TMC3    H110999   4.131   2.949   1.414  0.2711  0.4642 -0.3733
  744TMC3    H211000   3.975   3.348   1.360 -3.9854 -1.2103 -0.7849
  744TMC3    C711001   4.055   3.127   1.234  0.0308 -0.1544 -0.0055
  744TMC3    C811002   3.955   3.391   1.613  0.2058  0.0868 -0.9772
  744TMC3    O111003   4.053   3.225   1.162  0.1835  0.4657  0.3258
  744TMC3    O211004   3.994   3.487   1.542 -0.3652  0.4005  0.6428
  745TMC3    C111005   2.702   1.995  13.850 -0.6628  0.0162 -0.0140
  745TMC3    C211006   2.627   1.987  13.962  0.6070  0.2100  0.5858
  745TMC3    C311007   2.497   1.956  13.953 -0.2128 -0.0297 -0.4612
  745TMC3    C411008   2.655   1.960  13.725  0.8212  0.1208 -0.0338
  745TMC3    C511009   2.519   1.915  13.720  0.2487 -0.0467 -0.2177
  745TMC3    C611010   2.440   1.915  13.834  0.4870  1.1555  0.0860
  745TMC3     C11011   2.838   2.041  13.856  0.1700 -0.0608  0.9153
  745TMC3     O11012   2.901   2.024  13.962 -0.0469  0.2015  0.3106
  745TMC3     H11013   2.680   2.007  14.055  2.3417  2.1630 -0.8205
  745TMC3    H111014   2.718   1.974  13.638  1.6327  0.1460  0.5550
  745TMC3    H211015   2.333   1.897  13.826  0.9389 -1.1961 -0.4921
  745TMC3    C711016   2.456   1.875  13.597 -0.1354 -0.2077  0.1224
  745TMC3    C811017   2.410   1.997  14.061  0.1683  0.8035  0.9097
  745TMC3    O111018   2.335   1.868  13.592  0.0165  0.0620 -0.0264
  745TMC3    O211019   2.301   1.946  14.067  0.6086 -0.9078  0.1672
  746TMC3    C111020   4.641   4.001  10.816 -0.4017 -0.7446 -0.1805
  746TMC3    C211021   4.720   3.933  10.722 -0.6068  0.5458  0.2226
  746TMC3    C311022   4.693   3.800  10.707 -0.2820 -0.0908 -1.3021
  746TMC3    C411023   4.553   3.935  10.893 -0.4525  0.4851  0.2137
  746TMC3    C511024   4.526   3.804  10.868 -0.6194  0.3374 -0.1456
  746TMC3    C611025   4.591   3.735  10.773  0.2976  0.0233 -0.4921
  746TMC3     C11026   4.639   4.145  10.832  0.5941 -0.5941 -0.0209
  746TMC3     O11027   4.539   4.197  10.879  0.2154  0.1467 -0.2688
  746TMC3     H11028   0.081   3.985  10.676 -1.7183  0.3352 -2.0777
  746TMC3    H111029   4.489   3.994  10.958 -1.3220  0.0646 -0.2633
  746TMC3    H211030   4.573   3.629  10.760  2.8797 -0.3961 -0.4599
  746TMC3    C711031   4.416   3.737  10.941  0.1300 -1.0960  0.6343
  746TMC3    C811032   4.721   3.741  10.580  0.4404 -0.0539 -0.3190
  746TMC3    O111033   4.347   3.656  10.880 -0.1429  0.9149 -0.1026
  746TMC3    O211034   0.001   3.619  10.567  0.1231  0.4858  0.2495
  747TMC3    C111035   2.290   3.856  10.902 -0.1548 -0.7136 -0.1336
  747TMC3    C211036   2.164   3.828  10.952  0.0676 -0.3537  0.3531
  747TMC3    C311037   2.130   3.872  11.082 -0.6534 -0.6933  0.1721
  747TMC3    C411038   2.387   3.921  10.977  0.3967  0.3647 -0.0251
  747TMC3    C511039   2.339   3.966  11.096 -0.0805  0.4136  0.2471
  747TMC3    C611040   2.218   3.940  11.156  0.6227 -0.1471 -0.1234
  747TMC3     C11041   2.334   3.830  10.766  0.0041  0.7627  0.1271
  747TMC3     O11042   2.434   3.884  10.728  0.6030 -0.3326  0.3479
  747TMC3     H11043   2.089   3.784  10.887  0.1778  0.1216 -0.0950
  747TMC3    H111044   2.489   3.935  10.945  0.7354  0.6276  1.1707
  747TMC3    H211045   2.208   3.961  11.262 -1.6015  0.0659 -0.3845
  747TMC3    C711046   2.424   4.036  11.190 -0.7659  0.5706  0.1530
  747TMC3    C811047   2.008   3.823  11.144  0.4735  0.2042  0.1494
  747TMC3    O111048   2.372   4.112  11.268  0.0775 -0.2815 -0.2989
  747TMC3    O211049   1.954   3.719  11.102 -0.0634  0.4652  0.2136
  748MPD2     C11050   4.082   4.307   2.175 -0.2008  0.0696 -0.0608
  748MPD2    C111051   4.183   4.244   2.106 -0.3309 -0.1487 -0.4839
  748MPD2    C211052   4.257   4.318   2.027 -0.1367  0.3779 -0.4965
  748MPD2    C311053   4.222   4.448   1.995  0.8310 -0.0667 -0.8551
  748MPD2    C411054   4.110   4.505   2.046  0.2968  0.5729  0.1942
  748MPD2    C511055   4.047   4.433   2.142 -0.5470 -0.0288  0.1355
  748MPD2     H11056   4.348   4.276   1.986  1.7536  2.5404  1.4850
  748MPD2    H111057   4.076   4.602   2.014  1.8319  0.5815 -1.3895
  748MPD2    H211058   4.027   4.254   2.252 -0.3998  0.3553 -0.0060
  748MPD2    H311059   3.970   4.482   2.200  0.1795 -1.4630  2.3223
  748MPD2     N11060   4.306   4.520   1.908 -0.1364 -0.2926 -0.5469
  748MPD2    H511061   4.388   4.467   1.881  0.8963  0.0467  1.9459
  748MPD2    N111062   4.209   4.106   2.138 -0.2333 -0.0814 -0.2842
  748MPD2    H711063   4.150   4.066   2.210  0.7905 -1.2785 -0.0925
  749TMC3    C111064   4.418   4.680   1.800  0.0581  0.1690 -0.1618
  749TMC3    C211065   4.536   4.636   1.853  0.0721 -0.0543  0.3368
  749TMC3    C311066   4.647   4.639   1.770 -0.4734 -0.3739 -0.6333
  749TMC3    C411067   4.406   4.704   1.663  0.5923  0.3599  0.1894
  749TMC3    C511068   4.519   4.706   1.592  0.4732 -0.6264 -0.1178
  749TMC3    C611069   4.641   4.685   1.643 -0.0406  0.0263  0.0146
  749TMC3     C11070   4.294   4.644   1.862  0.7969 -0.1256  0.3963
  749TMC3     O11071   4.199   4.716   1.849 -0.3054  0.1498  0.3976
  749TMC3     H11072   4.555   4.618   1.958 -1.3641  1.6989  0.9106
  749TMC3    H111073   4.306   0.001   1.625  1.2784 -0.6444 -2.0733
  749TMC3    H211074   0.006   4.697   1.579 -1.1391 -0.5751 -1.5721
  749TMC3    C711075   4.517   0.056   1.467 -0.1428 -0.4869 -0.2879
  749TMC3    C811076   0.037   4.566   1.819  0.2827 -0.1194 -0.6177
  749TMC3    O111077   4.618   0.114   1.432 -0.1267  0.2010 -0.0933
  749TMC3    O211078   0.049   4.591   1.937 -0.2353 -0.2446  0.0409
  750MPD2     C11079   0.154   1.058  11.029 -0.2005  0.2619  0.3812
  750MPD2    C111080   0.018   1.027  11.045 -0.5491 -0.6261 -0.3074
  750MPD2    C211081   4.693   0.909  10.983 -0.4354 -0.0042 -0.6364
  750MPD2    C311082   0.062   0.817  10.926  0.0126 -0.1910  0.0076
  750MPD2    C411083   0.197   0.847  10.930  0.2116 -0.3982 -0.2799
  750MPD2    C511084   0.239   0.962  10.981  0.8848  0.1961 -0.9311
  750MPD2     H11085   4.585   0.898  10.983 -0.6331  1.9601 -1.7727
  750MPD2    H111086   0.270   0.778  10.890  2.1473 -0.3314  3.1360
  750MPD2    H211087   0.204   1.151  11.056 -0.1654  0.5878 -0.8264
  750MPD2    H311088   0.344   0.989  10.972  1.0005 -0.3418 -1.1985
  750MPD2     N11089   0.033   0.688  10.877 -0.1114  0.1865  0.7169
  750MPD2    H511090   0.117   0.637  10.851  0.1956  0.3291  1.4504
  750MPD2    N111091   4.654   1.120  11.107 -0.5452 -0.2814  0.3295
  750MPD2    H711092   4.711   1.195  11.145 -1.0849  0.3057 -0.0085
  751TMC3    C111093   4.625   0.496  10.825 -0.2059  0.5930  0.2387
  751TMC3    C211094   4.514   0.435  10.845 -0.1432 -0.3127  0.4535
  751TMC3    C311095   4.514   0.294  10.832 -1.1229  0.1953 -0.2967
  751TMC3    C411096   0.003   0.439  10.755  0.1344  0.4364  0.4575
  751TMC3    C511097   4.718   0.297  10.739 -0.9513 -0.7725  0.2112
  751TMC3    C611098   4.610   0.216  10.771 -0.1052 -0.1401  0.5735
  751TMC3     C11099   4.629   0.633  10.867 -0.1335  0.8780  0.3480
  751TMC3     O11100   4.520   0.684  10.898  1.1808 -0.7280  0.0118
  751TMC3     H11101   4.423   0.494  10.852  0.7105  0.9801  0.4966
  751TMC3    H111102   0.094   0.488  10.725  0.8182 -1.1555 -0.0540
  751TMC3    H211103   4.587   0.111  10.758  1.1864 -0.3199 -0.2577
  751TMC3    C711104   0.091   0.240  10.644  0.4777  0.4118  0.5511
  751TMC3    C811105   4.400   0.224  10.883 -0.1581  0.6347 -0.5133
  751TMC3    O111106   0.167   0.321  10.591 -0.0663  0.4319 -0.5703
  751TMC3    O211107   4.373   0.121  10.822  0.2417 -0.5890  0.1047
  752TMC3    C111108   3.324   1.068  17.017 -0.3849  0.2326  0.5846
  752TMC3    C211109   3.194   1.028  17.008 -0.4745  0.2007  0.0028
  752TMC3    C311110   3.129   0.995  17.123  0.5020  0.1125  0.1402
  752TMC3    C411111   3.393   1.081  17.131 -1.1474  0.8604  0.9148
  752TMC3    C511112   3.326   1.048  17.245  0.5695  0.1635 -0.2056
  752TMC3    C611113   3.197   1.000  17.242  0.4253 -0.2969 -0.7041
  752TMC3     C11114   3.404   1.119  16.900 -1.0154  0.2994  0.1061
  752TMC3     O11115   3.525   1.144  16.913 -0.5920 -0.2802  0.4929
  752TMC3     H11116   3.151   1.036  16.909 -0.4010  1.5154  0.0800
  752TMC3    H111117   3.496   1.115  17.138 -1.1959  0.6089  2.8466
  752TMC3    H211118   3.140   0.990  17.335  0.1481  0.9872 -0.7444
  752TMC3    C711119   3.356   1.137  17.350  0.2223 -0.4281  0.3836
  752TMC3    C811120   2.981   0.988  17.126 -0.4429 -0.3596  0.3130
  752TMC3    O111121   3.408   1.241  17.320 -0.2160  0.0939  0.0570
  752TMC3    O211122   2.927   1.005  17.234 -1.1379  0.0117 -0.4026
  753TMC3    C111123   1.054   2.284  13.486 -0.7174  0.3060 -0.0425
  753TMC3    C211124   1.008   2.255  13.615 -0.7805  0.7383 -0.0351
  753TMC3    C311125   0.953   2.130  13.627  0.0311 -0.1527 -0.5165
  753TMC3    C411126   1.040   2.207  13.376  0.3581  0.0160  0.2612
  753TMC3    C511127   0.970   2.089  13.394  0.3180  0.3854  0.0205
  753TMC3    C611128   0.934   2.048  13.519 -0.2262 -0.4351  0.6240
  753TMC3     C11129   1.151   2.386  13.488 -0.9607 -0.2065 -0.6996
  753TMC3     O11130   1.143   2.473  13.574  0.4054  0.3877 -0.3495
  753TMC3     H11131   1.019   2.328  13.694 -2.3589 -1.3211  2.1023
  753TMC3    H111132   1.064   2.240  13.276  0.0227 -1.0446 -0.1719
  753TMC3    H211133   0.875   1.957  13.520  0.7486 -1.0499  2.2385
  753TMC3    C711134   0.977   2.001  13.282  0.3031 -0.2507 -0.1438
  753TMC3    C811135   0.895   2.083  13.751  0.0803  0.0564 -0.1950
  753TMC3    O111136   1.070   2.010  13.206 -0.3703  0.1403  0.5066
  753TMC3    O211137   0.809   2.000  13.751 -0.1724 -0.1762 -1.0991
  754MPD2     C11138   3.871   4.687  12.696  0.1036  0.0104  0.5380
  754MPD2    C111139   3.887   0.096  12.739  0.3215  0.1821 -0.3944
  754MPD2    C211140   3.769   0.164  12.767 -1.0449  0.1059 -0.0823
  754MPD2    C311141   3.648   0.103  12.759 -0.3533  0.0291 -0.3546
  754MPD2    C411142   3.634   4.691  12.719  0.1111 -0.6219  0.5003
  754MPD2    C511143   3.752   4.621  12.694  0.5125  0.8741 -0.7295
  754MPD2     H11144   3.768   0.269  12.796 -0.4541  0.2855 -0.7200
  754MPD2    H111145   3.538   4.640  12.718 -0.9816  1.4114  1.9601
  754MPD2    H211146   3.959   4.628  12.673  0.1633  0.1233  0.4749
  754MPD2    H311147   3.741   4.515  12.671  0.2981  0.3547  1.8093
  754MPD2     N11148   3.522   0.163  12.786 -0.6502 -0.4736 -0.1911
  754MPD2    H511149   3.439   0.122  12.743 -0.9640 -0.4777  0.4026
  754MPD2    N111150   4.017   0.159  12.746 -0.3825 -0.5932 -0.3625
  754MPD2    H711151   4.098   0.099  12.735 -0.3626 -0.4448 -1.0360
  755MPD2     C11152   2.875   0.906  13.216  0.3113 -0.2751  0.0017
  755MPD2    C111153   2.967   0.842  13.293 -0.5258  0.5279 -0.0551
  755MPD2    C211154   3.018   0.725  13.254 -0.0200  0.3271 -1.0156
  755MPD2    C311155   2.978   0.674  13.133  0.0440  0.6673  0.2792
  755MPD2    C411156   2.886   0.741  13.062  0.0141  0.6517 -0.1580
  755MPD2    C511157   2.821   0.850  13.104  0.2710  0.3067  0.0192
  755MPD2     H11158   3.089   0.683  13.325  0.1075  3.7540  0.8548
  755MPD2    H111159   2.853   0.689  12.973  0.4658 -2.7470  1.6229
  755MPD2    H211160   2.828   1.001  13.237  2.2817  0.5002  0.9126
  755MPD2    H311161   2.729   0.883  13.058  1.5484  2.1966 -1.1973
  755MPD2     N11162   3.033   0.564  13.066  0.0778  0.1983  0.5607
  755MPD2    H511163   2.987   0.534  12.980  0.5210  0.2142  0.3188
  755MPD2    N111164   3.011   0.892  13.420 -0.2485 -0.8839  0.5235
  755MPD2    H711165   3.066   0.829  13.477  0.2802  1.2749  2.3972
  756MPD2     C11166   3.791   1.816   9.411 -0.3527 -0.7719  0.4278
  756MPD2    C111167   3.691   1.802   9.497  0.2046  0.0753  0.5507
  756MPD2    C211168   3.559   1.763   9.459  0.6644  0.5040 -0.5682
  756MPD2    C311169   3.531   1.734   9.326  0.2689  0.1746  0.0892
  756MPD2    C411170   3.631   1.758   9.236  0.0291  0.2549  0.0281
  756MPD2    C511171   3.755   1.790   9.277  0.0071 -0.1147 -0.3364
  756MPD2     H11172   3.483   1.745   9.534  1.3432 -0.1395 -0.0301
  756MPD2    H111173   3.610   1.763   9.129 -2.1501  0.6159  0.4781
  756MPD2    H211174   3.898   1.828   9.427 -0.5063  0.6082  0.3635
  756MPD2    H311175   3.834   1.805   9.204  0.6500 -1.4009  0.0906
  756MPD2     N11176   3.398   1.704   9.287 -0.4402 -0.2405  0.5248
  756MPD2    H511177   3.326   1.702   9.359 -0.6445 -0.7689  0.3073
  756MPD2    N111178   3.709   1.848   9.630 -0.2084 -0.7457 -0.3469
  756MPD2    H711179   3.637   1.818   9.695  0.3903  2.1468  1.6771
  757MPD2     C11180   2.765   1.650   9.819 -0.2283 -0.6217  0.2988
  757MPD2    C111181   2.871   1.572   9.798  0.2141 -0.1000  0.1576
  757MPD2    C211182   2.933   1.573   9.672 -0.5212  0.5644 -0.0367
  757MPD2    C311183   2.877   1.647   9.572  0.4204 -0.4833  0.3814
  757MPD2    C411184   2.766   1.727   9.594  0.0522 -0.6301  0.5614
  757MPD2    C511185   2.722   1.733   9.718 -0.2998  0.2813 -0.1072
  757MPD2     H11186   3.016   1.507   9.648 -2.6400 -2.1486  0.1252
  757MPD2    H111187   2.716   1.784   9.517  0.4578  0.8817  1.4178
  757MPD2    H211188   2.722   1.653   9.918 -3.0605  0.4265 -0.9535
  757MPD2    H311189   2.641   1.802   9.742 -0.7115 -0.1233 -0.3339
  757MPD2     N11190   2.939   1.649   9.449  0.1150  0.6352 -0.5122
  757MPD2    H511191   3.031   1.606   9.456  0.1796  0.7005 -0.9555
  757MPD2    N111192   2.909   1.481   9.905  0.1916 -0.2351 -0.4358
  757MPD2    H711193   2.853   1.480   9.990 -1.1678 -1.6316 -1.3352
  758MPD2     C11194   4.283   0.180  15.908 -0.0127 -0.0076  0.3174
  758MPD2    C111195   4.310   0.078  16.004  0.6649 -0.5624  0.2549
  758MPD2    C211196   4.284   0.114  16.135  1.0038 -0.4668  0.1291
  758MPD2    C311197   4.231   0.237  16.173 -0.3934 -0.3205  0.1806
  758MPD2    C411198   4.199   0.329  16.077 -0.0396  0.1134  0.4595
  758MPD2    C511199   4.225   0.298  15.946 -0.6513  0.0032 -0.3042
  758MPD2     H11200   4.317   0.058  16.222 -0.5542 -2.9067 -0.8519
  758MPD2    H111201   4.145   0.418  16.104 -1.3148 -0.0409 -1.5112
  758MPD2    H211202   4.305   0.170  15.802 -1.6942  0.5660 -0.0800
  758MPD2    H311203   4.195   0.371  15.871  0.6994  0.8820  0.0217
  758MPD2     N11204   4.217   0.292  16.298  0.0207 -0.4084 -0.1161
  758MPD2    H511205   4.173   0.383  16.308  0.0004 -0.6948  2.3995
  758MPD2    N111206   4.373   4.674  15.973  0.0716 -0.3136  0.5832
  758MPD2    H711207   4.418   4.681  15.883 -0.3428  1.0225  0.4808
  759MPD2     C11208   2.937   3.761  10.029  0.1446 -0.3392 -0.2006
  759MPD2    C111209   2.812   3.695  10.012 -0.2687  0.2111 -0.4270
  759MPD2    C211210   2.773   3.665   9.882  0.6600  0.3143 -0.2984
  759MPD2    C311211   2.845   3.697   9.769 -0.7235 -0.0316 -0.7041
  759MPD2    C411212   2.957   3.769   9.789  0.0896 -0.5333  0.4700
  759MPD2    C511213   3.011   3.790   9.916  0.4501  0.2525 -0.3738
  759MPD2     H11214   2.682   3.606   9.871  1.9942 -1.4351 -1.8229
  759MPD2    H111215   3.010   3.804   9.701 -1.2344  1.9087  0.6356
  759MPD2    H211216   2.968   3.793  10.127  0.4776  0.1678 -0.4716
  759MPD2    H311217   3.100   3.852   9.923 -1.8401  3.5128 -0.2938
  759MPD2     N11218   2.801   3.646   9.647  0.8552  0.9465  0.0827
  759MPD2    H511219   2.712   3.599   9.662 -0.0550  2.6928  0.2075
  759MPD2    N111220   2.735   3.641  10.119 -0.0012 -0.7112  0.1284
  759MPD2    H711221   2.642   3.604  10.098 -0.7930  0.5194  1.4518
  760MPD2     C11222   2.626   0.862  11.920  0.0423  0.7855  0.3472
  760MPD2    C111223   2.709   0.894  11.825 -0.0537 -0.1228  0.1282
  760MPD2    C211224   2.794   0.796  11.780 -0.2558  0.4815  0.4767
  760MPD2    C311225   2.793   0.667  11.830 -0.3419 -0.3738 -0.4327
  760MPD2    C411226   2.692   0.630  11.913  0.0780 -0.3551  0.3133
  760MPD2    C511227   2.612   0.733  11.960 -0.4553  0.2153  0.0531
  760MPD2     H11228   2.869   0.829  11.709  1.7214 -3.1561  0.8554
  760MPD2    H111229   2.678   0.528  11.947 -1.7169 -0.2414 -0.0753
  760MPD2    H211230   2.554   0.933  11.959 -1.3324 -0.9115  0.9017
  760MPD2    H311231   2.535   0.713  12.034 -0.3543  0.6302  0.2709
  760MPD2     N11232   2.884   0.568  11.777 -0.0533  0.5339 -0.1942
  760MPD2    H511233   2.888   0.477  11.822  0.3034  0.0266 -1.2483
  760MPD2    N111234   2.732   1.032  11.783 -0.5727 -0.0304  0.2793
  760MPD2    H711235   2.780   1.041  11.695 -1.4301  0.5912 -0.1241
  761MPD2     C11236   3.977   0.156  11.180  0.4668  0.4472 -0.0725
  761MPD2    C111237   4.013   0.112  11.056 -0.5436 -0.6121  0.1736
  761MPD2    C211238   4.127   0.150  10.992  0.2469  0.5658 -0.0835
  761MPD2    C311239   4.204   0.257  11.035  0.2066  0.0951  0.2894
  761MPD2    C411240   4.158   0.317  11.155 -0.2779  0.3279  0.5446
  761MPD2    C511241   4.047   0.274  11.221 -0.3789 -0.5090 -0.0028
  761MPD2     H11242   4.162   0.091  10.908  0.0993 -0.9511  0.9116
  761MPD2    H111243   4.200   0.407  11.199 -1.3158 -0.2859  2.7744
  761MPD2    H211244   3.900   0.103  11.233  1.1708 -1.8169 -1.3346
  761MPD2    H311245   4.015   0.324  11.312 -3.0974 -1.8515 -0.2167
  761MPD2     N11246   4.330   0.288  10.979 -0.9561  0.4300  0.0531
  761MPD2    H511247   4.360   0.380  11.009  0.3652  0.3534 -1.0302
  761MPD2    N111248   3.946   4.717  11.009  0.3794  0.3396  0.8279
  761MPD2    H711249   3.882   4.669  11.071  1.9357 -1.0643  1.3329
  762MPD2     C11250   4.387   0.082  10.497 -0.5752  0.0240  0.5682
  762MPD2    C111251   4.401   4.671  10.526  0.2124 -0.1707 -0.3752
  762MPD2    C211252   4.481   4.591  10.443  0.3237  1.0837  0.0889
  762MPD2    C311253   4.553   4.651  10.336 -0.1255 -0.0761 -0.1306
  762MPD2    C411254   4.544   0.064  10.313 -0.3026  0.7058 -0.7338
  762MPD2    C511255   4.456   0.138  10.393 -0.9628 -0.0666 -0.2826
  762MPD2     H11256   4.478   4.483  10.451 -3.0469  1.2539  1.3799
  762MPD2    H111257   4.579   0.114  10.223  0.1263  0.1332 -0.8775
  762MPD2    H211258   4.335   0.154  10.559 -1.0886 -1.9665  2.4246
  762MPD2    H311259   4.439   0.242  10.368 -0.7237  0.0881  0.1966
  762MPD2     N11260   4.636   4.566  10.254 -0.0607 -0.9823  0.2855
  762MPD2    H511261   4.631   4.469  10.284  0.4767 -1.5141 -1.3833
  762MPD2    N111262   4.339   4.627  10.646  0.0619  0.0674  0.3687
  762MPD2    H711263   4.290   4.702  10.694 -0.0660 -0.4311  1.0155
  763MPD2     C11264   1.237   0.434  16.620  0.1356  0.6603 -0.6648
  763MPD2    C111265   1.320   0.501  16.525  0.1203 -0.3514 -0.0344
  763MPD2    C211266   1.334   0.637  16.540  0.1009 -0.0527 -0.4225
  763MPD2    C311267   1.287   0.698  16.653 -0.4657  0.5934 -0.1927
  763MPD2    C411268   1.222   0.634  16.750  0.3711  0.1186  0.4720
  763MPD2    C511269   1.181   0.502  16.725 -0.6827  0.3440  0.0597
  763MPD2     H11270   1.388   0.692  16.464  0.1431  0.1686 -0.2308
  763MPD2    H111271   1.175   0.679  16.837  2.5423  0.3059  1.5581
  763MPD2    H211272   1.219   0.328  16.606  1.6272  0.4600 -1.0519
  763MPD2    H311273   1.127   0.447  16.801 -0.0628  0.5838  0.6731
  763MPD2     N11274   1.298   0.839  16.666  1.1021  0.0616  0.0944
  763MPD2    H511275   1.268   0.880  16.754 -0.2858 -2.6228  0.8785
  763MPD2    N111276   1.374   0.436  16.405 -0.1588  0.1680  0.2163
  763MPD2    H711277   1.408   0.500  16.334  2.1748  0.2091  1.3757
  764MPD2     C11278   4.337   2.368   0.150  0.1701 -0.8101 -0.0070
  764MPD2    C111279   4.397   2.269   0.069  0.1127  0.4157  0.0176
  764MPD2    C211280   4.414   2.143   0.122  0.1078 -0.0510  0.5158
  764MPD2    C311281   4.382   2.117   0.255  0.0231  0.0514  0.4144
  764MPD2    C411282   4.325   2.215   0.332 -0.1954  0.0919  0.2716
  764MPD2    C511283   4.296   2.339   0.282  0.1142 -0.1022  0.0858
  764MPD2     H11284   4.443   2.057   0.063  3.9016  0.2004  2.0137
  764MPD2    H111285   4.285   2.193   0.431 -0.2510 -1.8292 -0.1719
  764MPD2    H211286   4.330   2.473   0.124 -0.4915 -1.2158 -1.4316
  764MPD2    H311287   4.252   2.415   0.346  1.2706 -0.4874  1.3513
  764MPD2     N11288   4.404   1.985   0.298  0.1291 -0.4277 -0.1301
  764MPD2    H511289   4.462   1.928   0.237  0.9491 -0.4874  0.7062
  764MPD2    N111290   4.423   2.286  17.621 -0.4710  0.0959 -0.1194
  764MPD2    H711291   4.452   2.201  17.574 -0.2937 -0.1261  0.3894
  765MPD2     C11292   3.263   4.308  16.236  0.3394  0.0206  0.2242
  765MPD2    C111293   3.341   4.409  16.189  0.3949 -0.2857  0.7934
  765MPD2    C211294   3.476   4.389  16.154  0.0758 -0.2442 -0.1730
  765MPD2    C311295   3.533   4.264  16.173  0.4299  0.0204 -0.6831
  765MPD2    C411296   3.451   4.164  16.218  0.8823  0.2616  0.1230
  765MPD2    C511297   3.312   4.187  16.249  0.9483 -0.4871 -0.0860
  765MPD2     H11298   3.543   4.465  16.117 -1.8130  1.8853  0.7792
  765MPD2    H111299   3.478   4.061  16.235 -1.4790  0.2134  3.7015
  765MPD2    H211300   3.158   4.325  16.255  0.6578  0.1092  1.9398
  765MPD2    H311301   3.244   4.106  16.275  1.9367 -1.5803 -0.8952
  765MPD2     N11302   3.669   4.248  16.141 -0.1920 -0.0986 -0.0123
  765MPD2    H511303   3.719   4.333  16.118  0.2317 -0.0807  0.9742
  765MPD2    N111304   3.276   4.535  16.168 -0.4023  0.7013  0.1258
  765MPD2    H711305   3.175   4.533  16.180 -0.0998  0.1213  2.4933
  766MPD2     C11306   2.992   4.525  15.532  0.8294 -0.3377  0.4140
  766MPD2    C111307   3.113   4.594  15.547 -0.2539 -0.0747  0.6373
  766MPD2    C211308   3.218   4.588  15.455 -0.4034  0.5976  0.1035
  766MPD2    C311309   3.208   4.517  15.337 -0.4948  0.4758 -0.0613
  766MPD2    C411310   3.087   4.461  15.311 -0.7709 -0.4908  0.4424
  766MPD2    C511311   2.988   4.457  15.407  0.6617 -0.3701 -0.3643
  766MPD2     H11312   3.309   4.638  15.485 -0.2233  0.8525 -0.8571
  766MPD2    H111313   3.067   4.393  15.229 -0.4244 -0.9286  0.7122
  766MPD2    H211314   2.907   4.520  15.598  1.2496 -2.3485  0.8175
  766MPD2    H311315   2.895   4.408  15.383  0.0609  0.3265  0.5480
  766MPD2     N11316   3.309   4.512  15.236  0.0542  0.2168 -0.3261
  766MPD2    H511317   3.274   4.480  15.147 -0.0935 -0.8156  0.1049
  766MPD2    N111318   3.131   4.675  15.661 -0.4037  0.0718  0.0892
  766MPD2    H711319   3.222   4.718  15.671 -0.3656  0.0252 -0.0552
  767MPD2     C11320   2.955   0.014  15.159 -0.3016 -0.2273 -0.3893
  767MPD2    C111321   3.081   0.051  15.116 -0.0842 -0.2307 -0.9406
  767MPD2    C211322   3.130   0.021  14.993  0.7315  0.4411 -0.0562
  767MPD2    C311323   3.052   4.664  14.910  0.7315 -0.5780  0.0248
  767MPD2    C411324   2.923   4.622  14.948 -0.1137 -0.3143 -0.3329
  767MPD2    C511325   2.881   4.656  15.076 -0.5386  0.1102  0.9122
  767MPD2     H11326   3.219   0.070  14.955  0.6470  0.3651 -0.3564
  767MPD2    H111327   2.859   4.551  14.898  0.6302 -0.7355 -0.6856
  767MPD2    H211328   2.901   0.049  15.246 -0.1516 -3.4122  0.9651
  767MPD2    H311329   2.782   4.625  15.108 -1.3113  2.0531  0.4108
  767MPD2     N11330   3.101   4.614  14.784 -0.5531 -0.0158  0.2642
  767MPD2    H511331   3.199   4.613  14.759 -1.1720  1.0924 -2.2068
  767MPD2    N111332   3.152   0.152  15.191  0.0414  0.6088  0.0289
  767MPD2    H711333   3.233   0.198  15.151  0.0946  2.2328  1.9866
  768MPD2     C11334   3.780   2.938  11.506  0.4376  0.7061 -0.8202
  768MPD2    C111335   3.868   2.997  11.413  0.4337 -0.2321 -0.3703
  768MPD2    C211336   3.998   3.001  11.453  0.5895  0.1334 -0.6986
  768MPD2    C311337   4.052   2.942  11.568  0.1874  0.1183 -0.9482
  768MPD2    C411338   3.963   2.887  11.656  1.1393 -0.3539 -0.5676
  768MPD2    C511339   3.831   2.883  11.619  0.1398 -0.2838  0.4241
  768MPD2     H11340   4.068   3.045  11.382 -0.2441 -2.6831 -3.2718
  768MPD2    H111341   4.002   2.830  11.740 -0.8506 -0.0535  0.5502
  768MPD2    H211342   3.675   2.935  11.478  0.0332  1.9330  0.5900
  768MPD2    H311343   3.756   2.845  11.687  1.9035 -5.0258 -0.3271
  768MPD2     N11344   4.186   2.938  11.606 -0.6181  0.7600  0.0563
  768MPD2    H511345   4.209   2.915  11.702 -1.3219  0.4334  0.1490
  768MPD2    N111346   3.835   3.076  11.300  0.3114 -0.2588 -0.0348
  768MPD2    H711347   3.910   3.131  11.258 -0.4607  0.1349 -0.8891
  769MPD2     C11348   0.400   1.559  14.881 -0.5487  0.3806 -0.1279
  769MPD2    C111349   0.339   1.500  14.992  0.5256 -0.1383  0.2156
  769MPD2    C211350   0.406   1.464  15.107 -0.7802  0.1142 -0.6264
  769MPD2    C311351   0.539   1.496  15.111 -0.2240  0.0478 -0.3256
  769MPD2    C411352   0.596   1.570  15.011 -0.4094  0.6205 -0.0767
  769MPD2    C511353   0.532   1.592  14.890  0.0752  0.0520  0.3305
  769MPD2     H11354   0.360   1.420  15.195 -1.9122 -0.1197 -1.3408
  769MPD2    H111355   0.700   1.599  15.011 -0.3895  0.5433 -1.7441
  769MPD2    H211356   0.352   1.562  14.784  1.1317 -3.2832 -1.0951
  769MPD2    H311357   0.580   1.632  14.801  1.5596  1.4483  1.7574
  769MPD2     N11358   0.606   1.477  15.238  0.7803  0.4962 -0.2018
  769MPD2    H511359   0.549   1.448  15.317  0.8477 -0.2027 -0.4055
  769MPD2    N111360   0.204   1.461  14.972  0.0312  0.4943  0.7014
  769MPD2    H711361   0.165   1.487  14.882 -1.4006 -0.3933  1.0737
  770MPD2     C11362   4.170   0.862  15.386 -0.1179 -0.0946  0.2601
  770MPD2    C111363   4.266   0.815  15.296 -0.0950 -0.0956  0.0317
  770MPD2    C211364   4.344   0.906  15.221 -0.1321 -0.4932 -0.3278
  770MPD2    C311365   4.321   1.042  15.240 -0.7500 -0.2551  0.1247
  770MPD2    C411366   4.234   1.093  15.328  0.0433 -0.5661 -0.1001
  770MPD2    C511367   4.163   0.998  15.398  0.0048 -0.0786  0.4339
  770MPD2     H11368   4.415   0.872  15.146  0.7657  0.3043  0.1619
  770MPD2    H111369   4.218   1.199  15.342 -1.4160 -0.6276 -1.2656
  770MPD2    H211370   4.125   0.790  15.454  1.3455 -1.7295 -0.5095
  770MPD2    H311371   4.093   1.034  15.472 -0.5295 -3.0703  1.3929
  770MPD2     N11372   4.404   1.123  15.162  1.0395 -0.1408 -0.6907
  770MPD2    H511373   4.457   1.085  15.084  1.4851  1.3640 -1.1210
  770MPD2    N111374   4.279   0.675  15.278  0.3014  1.2870  0.2499
  770MPD2    H711375   4.216   0.611  15.326  0.5945  0.6858 -0.1698
  771MPD2     C11376   1.272   3.867  13.714  0.3996  0.2560  0.1573
  771MPD2    C111377   1.192   3.975  13.677 -1.1108 -0.5775  0.3491
  771MPD2    C211378   1.123   3.981  13.555 -0.4984 -0.3573 -1.0590
  771MPD2    C311379   1.146   3.879  13.469 -0.5506  0.3088 -0.7473
  771MPD2    C411380   1.224   3.772  13.510  0.5072  0.0542 -0.1209
  771MPD2    C511381   1.281   3.763  13.633 -0.4065  0.0284  0.0000
  771MPD2     H11382   1.069   4.065  13.513  0.6075  1.1520  0.5120
  771MPD2    H111383   1.234   3.684  13.447 -2.8979  1.0582 -2.0453
  771MPD2    H211384   1.327   3.875  13.807  0.9361  1.0243 -0.2291
  771MPD2    H311385   1.349   3.682  13.656 -0.9453 -0.4919 -0.2443
  771MPD2     N11386   1.090   3.886  13.342  0.2562 -0.4090  0.4399
  771MPD2    H511387   1.026   3.965  13.342  0.4873 -0.2109 -0.6678
  771MPD2    N111388   1.197   4.084  13.768  1.0627  0.0120 -0.2263
  771MPD2    H711389   1.259   4.079  13.848  0.6920 -1.3925 -0.0185
  772MPD2     C11390   0.922   0.171  14.009 -0.3224 -0.1365 -0.0911
  772MPD2    C111391   0.877   0.046  13.973  0.0417  0.3474  0.3801
  772MPD2    C211392   0.746   0.024  13.977  0.0661 -0.4406 -0.6680
  772MPD2    C311393   0.668   0.121  14.036 -0.1261 -0.3615 -1.0049
  772MPD2    C411394   0.713   0.243  14.087  0.4623  0.0350  0.4960
  772MPD2    C511395   0.845   0.265  14.064 -0.3754  0.4178 -0.5137
  772MPD2     H11396   0.710   4.648  13.946 -2.0069  0.6069 -1.5653
  772MPD2    H111397   0.651   0.322  14.126  2.2434  1.0644  1.2685
  772MPD2    H211398   1.022   0.203  13.982 -0.7920 -0.2893 -2.0793
  772MPD2    H311399   0.886   0.366  14.071  0.7391  0.0938 -2.4986
  772MPD2     N11400   0.529   0.101  14.055 -0.1458  0.0304  0.1238
  772MPD2    H511401   0.481   0.160  14.123 -1.0402 -0.8232  0.2291
  772MPD2    N111402   0.962   4.671  13.905 -0.5243  0.1361  0.1332
  772MPD2    H711403   0.919   4.584  13.876  0.8664 -0.3214 -0.5336
  773MPD2     C11404   0.208   0.598   0.911  0.1733  0.3794  0.0547
  773MPD2    C111405   0.162   0.548   0.787 -0.1863 -0.3846  0.1222
  773MPD2    C211406   0.180   0.414   0.757 -0.1643 -0.3294  0.1290
  773MPD2    C311407   0.252   0.325   0.840  0.2465  0.6169 -0.5129
  773MPD2    C411408   0.306   0.384   0.957  0.2957  0.4886 -0.0890
  773MPD2    C511409   0.277   0.513   0.992 -0.4392  0.9298 -0.1909
  773MPD2     H11410   0.151   0.357   0.669  1.3754 -0.5903 -0.2168
  773MPD2    H111411   0.369   0.325   1.023 -1.5221  0.7743  1.9202
  773MPD2    H211412   0.193   0.700   0.943  0.1290  0.6166 -0.7078
  773MPD2    H311413   0.319   0.540   1.088  2.1704 -0.8752 -0.8210
  773MPD2     N11414   0.277   0.192   0.807 -0.0614  0.5145 -0.1867
  773MPD2    H511415   0.226   0.150   0.730 -2.6070 -0.1312  1.8755
  773MPD2    N111416   0.090   0.629   0.693  0.1465 -0.5236 -0.4759
  773MPD2    H711417   0.057   0.588   0.607 -0.0509  0.8863 -1.0806
  774MPD2     C11418   4.008   4.349  13.118  0.3824  0.4843 -1.0984
  774MPD2    C111419   4.057   4.419  13.219  0.8309  0.4157 -0.6690
  774MPD2    C211420   4.147   4.525  13.189  0.3589  0.1836  0.3283
  774MPD2    C311421   4.200   4.540  13.065 -0.4165  0.6369  0.5161
  774MPD2    C411422   4.167   4.460  12.961  0.3938 -0.3655  0.1148
  774MPD2    C511423   4.058   4.376  12.987 -0.3197  0.1191  0.3923
  774MPD2     H11424   4.171   4.601  13.262 -0.4495  1.3051 -0.5577
  774MPD2    H111425   4.207   4.475  12.861  1.4202 -0.3130  0.5359
  774MPD2    H211426   3.927   4.276  13.116 -0.7118  1.5966  2.7097
  774MPD2    H311427   4.009   4.320  12.909 -0.3277  0.9160 -0.1668
  774MPD2     N11428   4.273   4.660  13.047 -0.0137 -0.2249 -0.5607
  774MPD2    H511429   4.262   4.721  13.128  0.5102 -2.1732  0.9873
  774MPD2    N111430   4.028   4.393  13.354  0.4536 -0.6592 -0.5292
  774MPD2    H711431   4.062   4.464  13.419  0.3659  0.7320 -2.0178
  775MPD2     C11432   1.215   1.355  15.982 -0.0557 -0.0959  0.3925
  775MPD2    C111433   1.135   1.464  15.973 -0.2428  0.0341  0.1269
  775MPD2    C211434   1.187   1.579  15.925  0.2111 -0.3185  0.0326
  775MPD2    C311435   1.327   1.590  15.896  0.2963 -0.0613 -0.2848
  775MPD2    C411436   1.403   1.472  15.899 -0.2060 -0.2990 -0.1893
  775MPD2    C511437   1.343   1.353  15.934 -0.1436  0.6532 -1.0947
  775MPD2     H11438   1.121   1.659  15.894 -0.0068 -0.6205 -0.2889
  775MPD2    H111439   1.504   1.475  15.857 -0.7111 -0.5070 -1.4304
  775MPD2    H211440   1.181   1.259  16.018 -0.2532 -0.0483  0.3334
  775MPD2    H311441   1.409   1.268  15.946  0.0636  0.9120 -0.4456
  775MPD2     N11442   1.381   1.712  15.846 -0.4275  0.3724 -0.6940
  775MPD2    H511443   1.481   1.714  15.826 -0.2931 -0.2413 -0.1094
  775MPD2    N111444   1.003   1.444  16.013  0.0060  0.1688  0.0146
  775MPD2    H711445   0.990   1.347  16.042  1.2099  0.0848  0.2777
  776MPD2     C11446   0.127   1.567  11.476  0.3329 -0.6158 -0.4343
  776MPD2    C111447   0.010   1.624  11.423  0.5989  0.1921 -0.3818
  776MPD2    C211448   4.714   1.759  11.419  0.7589  0.2276 -0.1730
  776MPD2    C311449   0.100   1.839  11.468 -0.9257  0.7336  0.0537
  776MPD2    C411450   0.213   1.783  11.520  0.4827  0.4612  0.4746
  776MPD2    C511451   0.231   1.645  11.521 -0.1001  0.6804  0.1790
  776MPD2     H11452   4.625   1.796  11.370 -0.3364  0.1852  1.7691
  776MPD2    H111453   0.282   1.853  11.566 -0.8407  1.1675  1.3785
  776MPD2    H211454   0.139   1.460  11.483  0.1706 -0.3578  3.5714
  776MPD2    H311455   0.323   1.613  11.569 -0.2162  3.9743  2.5692
  776MPD2     N11456   0.090   1.981  11.474 -0.0667  0.1960  0.2094
  776MPD2    H511457   0.171   2.032  11.505  0.0079 -0.8759  1.7999
  776MPD2    N111458   4.632   1.529  11.380 -0.6946  0.4518 -0.5244
  776MPD2    H711459   4.655   1.430  11.376 -0.5695  0.4034  1.2260
  777MPD2     C11460   4.705   3.861   1.029  0.6563  0.5263  0.4731
  777MPD2    C111461   0.057   3.751   1.058  0.5131  0.1511  0.4477
  777MPD2    C211462   0.043   3.638   0.974  0.3478 -0.4375  0.1427
  777MPD2    C311463   4.676   3.643   0.867 -0.1051  0.3282 -0.2161
  777MPD2    C411464   4.596   3.751   0.850  1.1647 -0.4924  0.0703
  777MPD2    C511465   4.613   3.863   0.927 -0.2063  0.1488  0.7517
  777MPD2     H11466   0.102   3.547   0.980 -1.0664 -1.2344  1.6314
  777MPD2    H111467   4.518   3.748   0.775  2.1039 -2.0442 -0.8259
  777MPD2    H211468   4.720   3.952   1.087 -0.1091  0.6864  0.4196
  777MPD2    H311469   4.542   3.944   0.917  1.8553  1.8869  0.2980
  777MPD2     N11470   4.642   3.523   0.801  0.1129 -0.2617 -0.0614
  777MPD2    H511471   4.686   3.439   0.838  0.7445 -0.2421 -0.7475
  777MPD2    N111472   0.148   3.764   1.172  0.4087  0.1760  0.3270
  777MPD2    H711473   0.149   3.858   1.211  0.5254  0.7482 -1.0373
  778MPD2     C11474   0.990   3.878  15.704  0.2234 -1.0189 -0.7534
  778MPD2    C111475   0.964   3.849  15.575  0.4656  0.2100 -0.0346
  778MPD2    C211476   1.037   3.899  15.471 -0.5086 -0.6130  0.4142
  778MPD2    C311477   1.137   3.995  15.493 -0.8628 -0.3769  0.7818
  778MPD2    C411478   1.167   4.021  15.629  0.1420 -0.2271 -0.2743
  778MPD2    C511479   1.097   3.961  15.728 -0.1272  0.2681  0.4218
  778MPD2     H11480   1.018   3.885  15.365  0.9024 -2.8149  0.4623
  778MPD2    H111481   1.252   4.085  15.651  0.0715 -0.8430  1.7746
  778MPD2    H211482   0.942   3.831  15.789 -0.7762  1.3854  0.0288
  778MPD2    H311483   1.121   3.971  15.833 -0.1049 -1.0345  0.5393
  778MPD2     N11484   1.222   4.058  15.397 -0.3700  0.6669  0.3340
  778MPD2    H511485   1.285   4.129  15.432  1.5826 -0.2370 -1.3521
  778MPD2    N111486   0.861   3.760  15.537  0.6371  0.5119  0.4260
  778MPD2    H711487   0.850   3.730  15.440  2.1561  3.1314 -0.5318
  779MPD2     C11488   1.037   2.837  14.910  0.4211  0.2669  0.7529
  779MPD2    C111489   1.084   2.895  14.794  0.3137  0.2334  0.4974
  779MPD2    C211490   1.127   3.028  14.798  0.9459 -0.4096 -0.3631
  779MPD2    C311491   1.137   3.097  14.918  0.2632  0.5234  0.0415
  779MPD2    C411492   1.084   3.034  15.032 -0.3517 -0.7126  0.5530
  779MPD2    C511493   1.038   2.907  15.025  0.5650  0.0191  0.0134
  779MPD2     H11494   1.145   3.079  14.704  0.1092  0.3100 -0.1385
  779MPD2    H111495   1.096   3.082  15.128  2.5760 -0.1482 -0.1092
  779MPD2    H211496   1.004   2.733  14.917 -1.4528  1.0570  3.7483
  779MPD2    H311497   1.003   2.856  15.114 -0.2349  2.7177  1.2627
  779MPD2     N11498   1.194   3.233  14.917  0.0995 -0.2138  0.5041
  779MPD2    H511499   1.235   3.273  14.833 -0.1834 -3.6182 -1.2712
  779MPD2    N111500   1.110   2.832  14.668 -0.4208 -0.2952  0.0160
  779MPD2    H711501   1.150   2.884  14.591 -0.0521  0.1984  0.5364
  780MPD2     C11502   0.548   2.800   1.431  0.5244  0.6812  0.3380
  780MPD2    C111503   0.440   2.729   1.384  0.6166 -0.4114 -0.8553
  780MPD2    C211504   0.405   2.736   1.247 -0.0984 -0.7048 -0.5847
  780MPD2    C311505   0.473   2.819   1.162  0.0898  0.3584  0.6523
  780MPD2    C411506   0.572   2.902   1.212  0.1908 -0.6460 -0.3751
  780MPD2    C511507   0.604   2.886   1.345 -0.9559  0.5643 -0.0654
  780MPD2     H11508   0.320   2.678   1.212 -1.0670  0.5106 -0.2377
  780MPD2    H111509   0.627   2.970   1.148 -0.1347  0.8412  0.9444
  780MPD2    H211510   0.576   2.791   1.536  1.7762  0.3341 -0.0191
  780MPD2    H311511   0.679   2.948   1.392 -0.4113  0.2219 -0.4867
  780MPD2     N11512   0.426   2.818   1.033 -1.0453 -0.3202  0.0467
  780MPD2    H511513   0.342   2.762   1.018  0.4632 -2.5657 -0.1247
  780MPD2    N111514   0.359   2.662   1.478  0.1209 -0.2999 -0.6055
  780MPD2    H711515   0.398   2.647   1.570  0.0452 -0.2814 -0.5706
  781MPD2     C11516   2.123   0.331  11.939 -0.2216 -0.7727  0.8358
  781MPD2    C111517   2.163   0.198  11.940  0.2248 -0.7165 -0.6502
  781MPD2    C211518   2.237   0.149  11.834 -0.4933 -0.9141 -0.1898
  781MPD2    C311519   2.274   0.233  11.733  0.1452 -0.5754 -0.0276
  781MPD2    C411520   2.246   0.366  11.736  0.7333  0.5104 -0.0484
  781MPD2    C511521   2.166   0.413  11.837 -0.1166  0.3351 -0.2806
  781MPD2     H11522   2.253   0.042  11.844  2.3518 -0.4040  0.7142
  781MPD2    H111523   2.278   0.429  11.654 -1.0399 -0.3570 -1.4111
  781MPD2    H211524   2.064   0.381  12.015 -1.6551 -1.3002  0.0719
  781MPD2    H311525   2.149   0.520  11.837  3.9699  0.9782 -0.2304
  781MPD2     N11526   2.344   0.185  11.623  0.1977 -0.0682 -0.0013
  781MPD2    H511527   2.375   0.265  11.569  2.8016 -1.9227 -1.2496
  781MPD2    N111528   2.139   0.121  12.050 -0.3745 -0.2478  1.0502
  781MPD2    H711529   2.148   0.021  12.038 -1.2446 -0.0627 -1.1121
  782MPD2     C11530   0.256   0.575  10.072  0.7446  0.3318  0.0570
  782MPD2    C111531   0.395   0.559  10.072 -0.1835 -0.6064 -0.4954
  782MPD2    C211532   0.471   0.655  10.133  0.3345  0.2101  0.1977
  782MPD2    C311533   0.411   0.747  10.222 -0.7567  0.5641  0.3038
  782MPD2    C411534   0.272   0.757  10.232  0.0089 -0.6087 -0.3337
  782MPD2    C511535   0.196   0.671  10.152  0.5655 -0.1176  1.1963
  782MPD2     H11536   0.577   0.639  10.144  0.4299  0.4299 -0.4075
  782MPD2    H111537   0.213   0.825  10.291 -0.6373 -0.6737 -0.9031
  782MPD2    H211538   0.192   0.512  10.011  2.0303  0.2315 -1.1690
  782MPD2    H311539   0.089   0.687  10.139  0.5939 -0.3491  0.6750
  782MPD2     N11540   0.496   0.819  10.305 -0.2091  0.2808  0.3209
  782MPD2    H511541   0.595   0.809  10.285 -0.6689  0.0047 -1.9129
  782MPD2    N111542   0.454   0.457   9.992 -0.4566  1.0598 -0.8601
  782MPD2    H711543   0.391   0.384   9.961  0.4685  0.1622 -0.6418
  783MPD2     C11544   0.143   4.620  10.510  0.0746  0.1292 -0.3866
  783MPD2    C111545   0.162   0.038  10.522 -0.7551  0.2262  0.7911
  783MPD2    C211546   0.257   0.091  10.433  0.0258 -0.0490 -1.3556
  783MPD2    C311547   0.335   0.009  10.353  0.3919  0.0859  0.2685
  783MPD2    C411548   0.319   4.595  10.360  0.0422  0.0666  0.1052
  783MPD2    C511549   0.220   4.541  10.435  0.1375 -0.5985 -0.0021
  783MPD2     H11550   0.282   0.195  10.413  2.8037 -0.5233 -0.3496
  783MPD2    H111551   0.393   4.526  10.323  0.2798  0.8728 -0.9081
  783MPD2    H211552   0.060   4.575  10.564 -1.0437  1.7305 -0.7658
  783MPD2    H311553   0.205   4.434  10.422 -0.3803 -0.3521 -1.3553
  783MPD2     N11554   0.421   0.068  10.261 -0.2224 -0.4511 -0.0394
  783MPD2    H511555   0.425   0.169  10.248 -0.9347 -0.3793  0.2891
  783MPD2    N111556   0.073   0.106  10.612  0.3235  0.1793 -0.0789
  783MPD2    H711557   4.719   0.055  10.656 -0.0838  1.5074  0.7520
  784MPD2     C11558   2.452   1.016   0.102  0.1848 -0.6194 -0.5009
  784MPD2    C111559   2.542   1.072   0.192  0.5773  0.0216  0.0466
  784MPD2    C211560   2.476   1.143   0.297  1.0638 -0.5982 -0.7571
  784MPD2    C311561   2.342   1.146   0.323 -0.0731  0.5760  0.2930
  784MPD2    C411562   2.256   1.082   0.235  0.3345  0.1514 -0.2626
  784MPD2    C511563   2.315   1.018   0.127 -0.2514 -0.6251  0.7636
  784MPD2     H11564   2.541   1.182   0.374  0.3796 -1.2105  0.1249
  784MPD2    H111565   2.148   1.085   0.235  0.2731 -1.8498  1.4247
  784MPD2    H211566   2.485   0.965   0.012 -1.0481 -0.9529 -0.7635
  784MPD2    H311567   2.256   0.977   0.046 -0.4369 -1.6301  1.4160
  784MPD2     N11568   2.302   1.224   0.433  0.5877 -0.0629 -0.2816
  784MPD2    H511569   2.378   1.258   0.491  1.3844 -0.0202 -1.3470
  784MPD2    N111570   2.677   1.075   0.190 -0.3656  0.1860  0.1796
  784MPD2    H711571   2.725   1.129   0.262  0.0778 -1.0146  0.7872
  785MPD2     C11572   3.133   4.439  10.766 -0.1684 -0.2001 -0.2452
  785MPD2    C111573   3.014   4.368  10.773  0.5801 -0.0864  0.1349
  785MPD2    C211574   2.989   4.279  10.669 -0.0715 -0.3398  0.1321
  785MPD2    C311575   3.088   4.243  10.581 -0.2766  0.0631  0.7768
  785MPD2    C411576   3.212   4.305  10.587  0.6302  0.4278  0.1951
  785MPD2    C511577   3.236   4.404  10.680  0.3971  0.1761 -0.9579
  785MPD2     H11578   2.894   4.228  10.661  0.4717 -0.9522 -2.3813
  785MPD2    H111579   3.299   4.265  10.536 -1.0176 -0.2239 -2.1263
  785MPD2    H211580   3.159   4.521  10.832 -1.1179 -0.6564  0.6795
  785MPD2    H311581   3.329   4.459  10.677  1.6408 -1.7108  2.7859
  785MPD2     N11582   3.060   4.140  10.489  0.1893 -0.5657  0.8260
  785MPD2    H511583   2.970   4.092  10.488 -1.3749  2.4617 -0.7336
  785MPD2    N111584   2.918   4.414  10.870  0.0101  0.1782 -0.3382
  785MPD2    H711585   2.943   4.493  10.930 -0.3692  1.4072 -1.8044
  786MPD2     C11586   1.458   2.317  14.607 -0.0704  0.4554 -0.1290
  786MPD2    C111587   1.546   2.210  14.600 -0.6203 -0.0557  1.1895
  786MPD2    C211588   1.629   2.183  14.701 -0.0629  0.4078  0.5461
  786MPD2    C311589   1.626   2.263  14.816  0.8164  0.5131  0.1010
  786MPD2    C411590   1.542   2.369  14.822  0.7130 -0.5228  1.0128
  786MPD2    C511591   1.466   2.401  14.713 -0.1948  0.4693  0.6914
  786MPD2     H11592   1.691   2.095  14.691  0.4726  0.8563 -0.0909
  786MPD2    H111593   1.534   2.422  14.916  1.2038 -1.4945  1.6045
  786MPD2    H211594   1.380   2.327  14.533  0.3715 -2.2587 -0.9584
  786MPD2    H311595   1.392   2.479  14.727  0.8001  1.5810 -0.1731
  786MPD2     N11596   1.703   2.231  14.932 -0.7499  0.5652  0.6798
  786MPD2    H511597   1.683   2.289  15.012 -3.9452 -1.2144  1.1638
  786MPD2    N111598   1.535   2.120  14.490  0.3071  0.1440  0.0569
  786MPD2    H711599   1.589   2.035  14.504  0.8195  0.6537  1.1521
  787MPD2     C11600   1.243   1.399  14.392 -0.2091  0.1349 -0.3095
  787MPD2    C111601   1.365   1.448  14.361 -0.2369 -0.6757 -0.3773
  787MPD2    C211602   1.475   1.368  14.377  0.2228 -0.4130 -0.0385
  787MPD2    C311603   1.467   1.237  14.430  0.0659  0.7878  0.0806
  787MPD2    C411604   1.336   1.181  14.449  0.4954  0.6011  0.0668
  787MPD2    C511605   1.229   1.269  14.427 -0.8353 -0.0113  0.1077
  787MPD2     H11606   1.574   1.411  14.369 -0.4571  0.8426 -1.6647
  787MPD2    H111607   1.311   1.076  14.463  0.3669  0.3408 -2.0975
  787MPD2    H211608   1.156   1.463  14.389  0.9668  1.6626 -1.9581
  787MPD2    H311609   1.131   1.226  14.447 -1.4663  1.2655 -0.2627
  787MPD2     N11610   1.591   1.180  14.458 -0.4284 -0.4239 -0.6843
  787MPD2    H511611   1.674   1.236  14.442  0.0194 -0.1517  2.4370
  787MPD2    N111612   1.363   1.585  14.332 -0.1550  0.7811 -0.0409
  787MPD2    H711613   1.276   1.635  14.349 -0.3613 -0.2136  1.8134
  788MPD2     C11614   3.396   4.660   0.836 -0.2904  0.4333  0.1161
  788MPD2    C111615   3.304   4.650   0.729 -0.0080 -0.0132 -0.2963
  788MPD2    C211616   3.292   0.027   0.635  0.1346 -0.0078  0.4075
  788MPD2    C311617   3.367   0.143   0.650 -0.2025  0.1924 -0.6929
  788MPD2    C411618   3.445   0.167   0.766  0.6591 -0.5866 -0.4851
  788MPD2    C511619   3.463   0.062   0.855 -0.3561 -0.1706  0.9440
  788MPD2     H11620   3.236   4.715   0.549  0.8747 -2.0428  0.7304
  788MPD2    H111621   3.510   0.253   0.781  1.7691 -1.9235  2.2594
  788MPD2    H211622   3.393   4.590   0.919 -0.2786 -1.1444 -1.2312
  788MPD2    H311623   3.531   0.066   0.939  0.5360  0.0723  0.2043
  788MPD2     N11624   3.375   0.251   0.555  0.3829 -0.0254 -0.3021
  788MPD2    H511625   3.438   0.323   0.589 -0.0969  1.2465 -2.1553
  788MPD2    N111626   3.235   4.532   0.698 -0.5996 -0.0201  0.6103
  788MPD2    H711627   3.185   4.540   0.609 -0.1651 -2.3382  0.1446
  789MPD2     C11628   3.877   0.190  16.301 -0.5573 -0.0842 -0.3230
  789MPD2    C111629   3.837   0.181  16.435  0.3794  0.6346  0.0924
  789MPD2    C211630   3.770   0.290  16.477  0.2947 -0.9203 -0.5931
  789MPD2    C311631   3.764   0.415  16.420  0.2077 -0.1434  0.0438
  789MPD2    C411632   3.815   0.423  16.293  0.0104 -0.1227  0.3193
  789MPD2    C511633   3.876   0.314  16.232  0.5097  0.3507 -0.1692
  789MPD2     H11634   3.711   0.280  16.567 -0.6301  0.9460 -1.0013
  789MPD2    H111635   3.813   0.515  16.237 -1.6528 -1.9542 -2.5992
  789MPD2    H211636   3.915   0.104  16.248  0.0375 -1.6841  2.6734
  789MPD2    H311637   3.934   0.326  16.142  1.2212  0.7696  0.3453
  789MPD2     N11638   3.690   0.517  16.481  0.0740 -0.3567 -0.0875
  789MPD2    H511639   3.668   0.589  16.413 -0.5032 -0.9853 -0.5709
  789MPD2    N111640   3.829   0.059  16.501  0.2764  0.2065 -0.3464
  789MPD2    H711641   3.785   0.071  16.592 -1.4414 -0.6970 -1.0649
  790MPD2     C11642   4.551   2.025  13.658  0.3481 -0.1267 -0.1159
  790MPD2    C111643   4.654   1.938  13.640  0.2056  0.1648 -0.1443
  790MPD2    C211644   4.667   1.862  13.520  0.4851 -0.0347 -0.1231
  790MPD2    C311645   4.562   1.872  13.429  0.2686 -0.4904  0.8161
  790MPD2    C411646   4.464   1.964  13.450  0.2931 -0.0503 -0.0460
  790MPD2    C511647   4.455   2.043  13.563 -0.1948  0.3249 -0.5024
  790MPD2     H11648   0.027   1.793  13.502  1.1605  1.4862 -2.7626
  790MPD2    H111649   4.377   1.975  13.387 -1.0871 -1.6830  1.5874
  790MPD2    H211650   4.543   2.088  13.746  0.7346 -2.2016  1.4100
  790MPD2    H311651   4.368   2.107  13.567 -0.1408  0.3456  0.3721
  790MPD2     N11652   4.567   1.780  13.326  0.1110  0.1163  0.2281
  790MPD2    H511653   4.650   1.721  13.322 -0.8605 -1.3677  1.8156
  790MPD2    N111654   0.023   1.920  13.749  0.1488  0.4404 -0.2999
  790MPD2    H711655   4.719   1.982  13.825 -1.4098  0.3305 -0.7255
  791MPD2     C11656   4.246   1.516  12.539  0.2738  0.3255 -0.3467
  791MPD2    C111657   4.223   1.471  12.659 -0.0558 -0.3085 -0.4859
  791MPD2    C211658   4.097   1.421  12.672  0.3072 -0.6599 -0.1801
  791MPD2    C311659   4.008   1.409  12.571 -0.5411  0.1524  0.4383
  791MPD2    C411660   4.040   1.460  12.440 -0.8138  0.7557 -0.0125
  791MPD2    C511661   4.167   1.504  12.428  0.2951 -0.1373  0.1866
  791MPD2     H11662   4.062   1.379  12.765 -1.3398 -0.5005 -0.7292
  791MPD2    H111663   3.971   1.452  12.357 -2.2330  1.4690  1.0870
  791MPD2    H211664   4.348   1.548  12.519  0.0772  0.5043 -1.0362
  791MPD2    H311665   4.196   1.549  12.334 -1.4417 -0.5201 -0.5220
  791MPD2     N11666   3.885   1.351  12.595 -0.5401 -0.1681  0.0781
  791MPD2    H511667   3.864   1.336  12.693 -1.2168  0.5431  0.0468
  791MPD2    N111668   4.329   1.480  12.752 -0.4168 -0.4609  0.1245
  791MPD2    H711669   4.416   1.517  12.717 -0.2518  0.6283  1.6836
  792MPD2     C11670   0.104   1.485  10.974  0.6185 -0.8932 -0.3432
  792MPD2    C111671   4.709   1.544  11.021 -0.0094 -0.1433 -0.3184
  792MPD2    C211672   4.585   1.499  10.992 -0.1227 -0.9185 -0.2322
  792MPD2    C311673   4.574   1.388  10.909 -0.2714 -0.2028 -0.8517
  792MPD2    C411674   4.686   1.337  10.852 -0.0691  0.3592  0.4318
  792MPD2    C511675   0.088   1.376  10.891 -0.7928 -0.1678  0.0168
  792MPD2     H11676   4.495   1.550  11.025 -0.6060 -1.2909 -0.9553
  792MPD2    H111677   4.674   1.266  10.771  0.1106 -0.4273  1.0886
  792MPD2    H211678   0.203   1.521  11.000  0.8088 -0.3610 -1.8134
  792MPD2    H311679   0.172   1.347  10.830 -0.7617  1.1635 -0.5544
  792MPD2     N11680   4.447   1.336  10.863 -0.2427  0.1576  0.5347
  792MPD2    H511681   4.452   1.259  10.797  1.6330  0.3015  0.5124
  792MPD2    N111682   0.003   1.678  11.072  0.3489  0.1959 -0.7242
  792MPD2    H711683   0.096   1.717  11.056  1.3972 -2.1511 -0.3723
  793MPD2     C11684   3.530   1.660  10.352  0.2777  0.0506 -0.3922
  793MPD2    C111685   3.667   1.666  10.331  0.3434  0.0082 -0.4140
  793MPD2    C211686   3.761   1.595  10.412 -0.1055 -0.3951  0.2892
  793MPD2    C311687   3.707   1.522  10.521  0.0200 -0.1785  0.2284
  793MPD2    C411688   3.570   1.506  10.531  0.3140 -0.2574  0.1738
  793MPD2    C511689   3.486   1.575  10.448  0.0745  0.0504  0.1129
  793MPD2     H11690   3.866   1.600  10.387  0.4371 -0.1246  2.6240
  793MPD2    H111691   3.523   1.449  10.610  2.9696 -2.8216 -0.0861
  793MPD2    H211692   3.453   1.690  10.282  1.9104 -1.2594 -2.7454
  793MPD2    H311693   3.380   1.557  10.457  0.2948 -0.2633  2.2669
  793MPD2     N11694   3.795   1.454  10.618 -0.1049  0.4023 -0.1589
  793MPD2    H511695   3.753   1.385  10.679  0.2638 -1.3976 -1.9195
  793MPD2    N111696   3.730   1.731  10.214  0.2914 -0.0442 -0.0011
  793MPD2    H711697   3.827   1.709  10.194 -0.0950 -0.9517 -0.8277
  794MPD2     C11698   4.661   1.367   0.267 -0.4060 -0.3802 -0.4459
  794MPD2    C111699   4.647   1.243   0.201 -0.6505  0.4962  0.7047
  794MPD2    C211700   4.633   1.238   0.066 -0.2273  0.1272  0.2047
  794MPD2    C311701   4.646   1.354  17.680  0.0155  0.0439  0.6154
  794MPD2    C411702   4.676   1.469   0.056 -0.6805 -0.0947  0.7660
  794MPD2    C511703   4.672   1.479   0.192 -0.9902 -0.0608 -0.2431
  794MPD2     H11704   4.607   1.145   0.016 -0.2367 -0.1498  0.7213
  794MPD2    H111705   4.681   1.561  17.689  1.4482 -1.2709 -0.9539
  794MPD2    H211706   4.662   1.375   0.375  1.5927 -0.2201 -0.4827
  794MPD2    H311707   4.681   1.576   0.240  0.3909  0.2108 -1.0286
  794MPD2     N11708   4.641   1.362  17.534 -0.5114  0.1501 -0.0952
  794MPD2    H511709   4.629   1.454  17.494 -0.2984  0.4172  0.4569
  794MPD2    N111710   4.641   1.127   0.280 -0.3851  0.2582 -0.7070
  794MPD2    H711711   4.636   1.041   0.226 -0.1761  0.1386 -0.5377
  795MPD2     C11712   2.544   3.441  13.300 -0.9841 -0.0875 -0.9640
  795MPD2    C111713   2.506   3.320  13.258 -0.2283  0.2781 -0.0919
  795MPD2    C211714   2.592   3.214  13.277 -0.3046 -0.1194  0.2972
  795MPD2    C311715   2.711   3.224  13.342 -0.7635 -0.4908  0.1425
  795MPD2    C411716   2.745   3.348  13.392  0.0982  0.4484  0.2601
  795MPD2    C511717   2.667   3.456  13.366 -0.5506 -0.5790  0.1352
  795MPD2     H11718   2.563   3.115  13.245  1.6702 -0.5451 -0.1720
  795MPD2    H111719   2.826   3.354  13.463  0.9814 -2.5712 -0.4868
  795MPD2    H211720   2.483   3.531  13.300  1.2183  1.4112  0.3830
  795MPD2    H311721   2.689   3.553  13.409  0.8563 -2.6873  4.2257
  795MPD2     N11722   2.799   3.120  13.373 -0.2033 -0.4320  0.5717
  795MPD2    H511723   2.884   3.150  13.420 -0.1758 -0.8558  0.7938
  795MPD2    N111724   2.377   3.295  13.196 -0.8252  0.1705 -0.1839
  795MPD2    H711725   2.362   3.203  13.156  4.9311 -0.8416 -0.0117
  796MPD2     C11726   1.966   0.125  15.950  0.4501 -0.1314 -0.0098
  796MPD2    C111727   1.953   0.199  16.065  0.2336 -0.2836  0.3982
  796MPD2    C211728   1.889   0.317  16.056 -0.2397 -0.9086  0.0926
  796MPD2    C311729   1.848   0.367  15.932 -0.0888 -0.2125 -0.1273
  796MPD2    C411730   1.853   0.298  15.819  0.4751  0.3665  0.5582
  796MPD2    C511731   1.918   0.175  15.828  0.0273  0.1947  0.0656
  796MPD2     H11732   1.864   0.378  16.142  2.1357  2.3907 -1.5200
  796MPD2    H111733   1.815   0.334  15.725 -2.8706  1.5573  2.3716
  796MPD2    H211734   2.018   0.030  15.957  0.5885 -0.0431  0.1621
  796MPD2    H311735   1.928   0.117  15.737 -2.0244 -1.7774  1.1139
  796MPD2     N11736   1.792   0.495  15.925 -0.1369 -0.2000 -1.2104
  796MPD2    H511737   1.757   0.540  16.009  0.5828 -0.2801 -0.8679
  796MPD2    N111738   1.996   0.139  16.190 -0.0136  0.4589 -0.0412
  796MPD2    H711739   2.059   0.060  16.181  0.1894  0.9494 -3.0416
  797MPD2     C11740   2.915   4.142  17.179  0.5386 -0.1490  0.1393
  797MPD2    C111741   3.008   4.221  17.248 -0.1983 -0.1329 -0.3582
  797MPD2    C211742   2.994   4.358  17.242 -0.2077 -0.1037  0.2715
  797MPD2    C311743   2.908   4.419  17.164  0.9091 -0.0642  0.2148
  797MPD2    C411744   2.816   4.340  17.099 -0.1698 -0.0915 -0.6776
  797MPD2    C511745   2.807   4.203  17.111  1.1094 -1.0931 -0.2081
  797MPD2     H11746   3.074   4.414  17.288 -1.0194  0.9278  0.4292
  797MPD2    H111747   2.729   4.387  17.055 -1.0778 -0.8429  0.3244
  797MPD2    H211748   2.911   4.035  17.195  1.8114 -0.1184  0.6556
  797MPD2    H311749   2.720   4.148  17.077  0.7697  0.0172 -1.1204
  797MPD2     N11750   2.895   4.567  17.145  0.1485  0.2851  0.9877
  797MPD2    H511751   2.833   4.601  17.073 -0.0008  0.3799  1.1624
  797MPD2    N111752   3.122   4.170  17.316  0.4451 -0.1060  0.2567
  797MPD2    H711753   3.177   4.229  17.377 -1.5521  0.2790  1.6824
  798MPD2     C11754   3.510   0.068  17.163 -1.2011 -0.4856  0.4572
  798MPD2    C111755   3.394   0.026  17.221  0.4099 -0.5977  0.1417
  798MPD2    C211756   3.394   4.629  17.297 -0.5259 -0.3458  0.2349
  798MPD2    C311757   3.505   4.548  17.308 -0.0454  0.1076 -0.4192
  798MPD2    C411758   3.617   4.595  17.248  0.2535  0.5165  0.1744
  798MPD2    C511759   3.622   4.712  17.179 -0.0907 -0.6693  0.1875
  798MPD2     H11760   3.304   4.593  17.346 -1.0221  2.4364  1.3497
  798MPD2    H111761   3.705   4.533  17.262 -0.6484 -0.7563  0.2227
  798MPD2    H211762   3.511   0.157  17.101  1.5826 -1.2304 -0.5661
  798MPD2    H311763   3.713   0.008  17.124 -0.5764  0.0825 -0.3595
  798MPD2     N11764   3.489   4.411  17.349  0.6326  0.2623  0.3746
  798MPD2    H511765   3.393   4.382  17.366  0.6408  1.1083  1.8944
  798MPD2    N111766   3.275   0.091  17.217 -1.1924  0.2721 -0.0416
  798MPD2    H711767   3.207   0.028  17.259 -1.5846 -0.7290 -2.1814
  799MPD2     C11768   0.749   1.208  14.309  0.4618 -0.0885 -0.6026
  799MPD2    C111769   0.874   1.163  14.298 -0.3476 -0.8787  0.4134
  799MPD2    C211770   0.965   1.219  14.210 -0.5952  0.4181  0.2938
  799MPD2    C311771   0.928   1.322  14.125 -1.0483  0.1087  0.0537
  799MPD2    C411772   0.794   1.363  14.121  0.5691 -0.1981  0.1674
  799MPD2    C511773   0.717   1.307  14.223  0.2287  0.9325  0.8513
  799MPD2     H11774   1.060   1.167  14.203 -0.0556  1.4299  0.2153
  799MPD2    H111775   0.759   1.444  14.058 -0.2234 -0.5255  0.1765
  799MPD2    H211776   0.675   1.177  14.382  0.9558 -0.4514 -0.2579
  799MPD2    H311777   0.614   1.339  14.230 -1.0233 -2.5478 -1.6275
  799MPD2     N11778   1.004   1.373  14.019 -0.4892  0.3357  0.1530
  799MPD2    H511779   0.958   1.445  13.965 -0.4607 -0.9904 -1.6619
  799MPD2    N111780   0.909   1.051  14.381 -0.3701 -0.4133 -0.2843
  799MPD2    H711781   0.994   1.010  14.344  1.1116  1.9207  0.5495
  800MPD2     C11782   2.314   2.294  14.461 -0.0783 -0.1397  0.7578
  800MPD2    C111783   2.451   2.293  14.431 -0.2415 -0.0528  0.4183
  800MPD2    C211784   2.506   2.220  14.328  0.4793  1.0169 -0.4875
  800MPD2    C311785   2.421   2.152  14.248  1.0624 -0.6371 -0.8703
  800MPD2    C411786   2.283   2.156  14.270 -0.6459 -0.1791 -0.4046
  800MPD2    C511787   2.233   2.227  14.375 -0.7882 -0.3077  0.7238
  800MPD2     H11788   2.607   2.227  14.289  0.6083 -0.8960 -0.4816
  800MPD2    H111789   2.208   2.101  14.213 -0.4103 -0.8790 -0.0452
  800MPD2    H211790   2.273   2.357  14.538  0.3430  0.9298  0.1100
  800MPD2    H311791   2.125   2.240  14.375 -0.7198  0.2461  0.1980
  800MPD2     N11792   2.476   2.084  14.140 -0.6917  0.8803  0.8883
  800MPD2    H511793   2.574   2.102  14.123 -1.3779  1.0229 -2.8123
  800MPD2    N111794   2.528   2.388  14.499  0.2058  0.0587  0.1478
  800MPD2    H711795   2.480   2.449  14.565  0.3206  0.0991  0.1941
  801MPD2     C11796   2.482   2.922  14.103 -0.3823  0.2830  0.0541
  801MPD2    C111797   2.439   2.887  14.225  0.0395  0.3140 -0.0964
  801MPD2    C211798   2.317   2.919  14.274 -0.2204  0.3307 -0.3798
  801MPD2    C311799   2.225   2.972  14.190  0.3577 -0.0508  0.3544
  801MPD2    C411800   2.261   3.001  14.061 -0.0389 -0.2168 -0.2614
  801MPD2    C511801   2.392   2.976  14.014 -0.6636 -0.1329  0.0985
  801MPD2     H11802   2.291   2.883  14.373 -0.0051  2.0866  0.3212
  801MPD2    H111803   2.192   3.049  13.993  0.0966 -0.7602 -0.7863
  801MPD2    H211804   2.580   2.902  14.062 -0.4283 -0.7090  0.4072
  801MPD2    H311805   2.414   3.016  13.915 -0.4563 -0.2741  0.0869
  801MPD2     N11806   2.087   2.999  14.224 -0.2126  0.2459  0.4347
  801MPD2    H511807   2.022   3.017  14.148  0.7018  2.0048  0.0720
  801MPD2    N111808   2.524   2.817  14.312 -0.6266 -0.0048 -0.6829
  801MPD2    H711809   2.481   2.798  14.402  1.3350  1.0977  0.4808
  802MPD2     C11810   0.710   3.260  17.505 -0.6566  0.6013  0.3844
  802MPD2    C111811   0.826   3.275  17.577  1.4015 -0.8426  0.2064
  802MPD2    C211812   0.924   3.177  17.577  0.2650  0.7167  0.2622
  802MPD2    C311813   0.920   3.062  17.504 -0.9113  0.5352 -0.3370
  802MPD2    C411814   0.804   3.054  17.423  0.2195 -0.0619  0.3731
  802MPD2    C511815   0.700   3.144  17.428 -0.1101 -0.8556 -0.5461
  802MPD2     H11816   1.014   3.194  17.634 -1.1361 -1.8529  3.2845
  802MPD2    H111817   0.800   2.970  17.355  2.4533  0.2835 -0.1908
  802MPD2    H211818   0.625   3.325  17.518 -1.2008 -0.4164  1.9304
  802MPD2    H311819   0.611   3.127  17.367  0.6066 -0.9598 -1.5737
  802MPD2     N11820   1.025   2.978  17.510 -0.0224  1.1255  0.3277
  802MPD2    H511821   1.097   3.016  17.571  1.1154 -0.7783  0.1823
  802MPD2    N111822   0.852   3.395  17.640 -0.4877  0.2928 -0.0123
  802MPD2    H711823   0.947   3.397  17.676 -0.3761 -0.8712 -0.2616
  803MPD2     C11824   2.623   1.690  11.708  0.4378  0.2561  0.1946
  803MPD2    C111825   2.725   1.689  11.802 -0.1402  0.3065 -0.0666
  803MPD2    C211826   2.705   1.632  11.923  0.2153  0.2026  0.0938
  803MPD2    C311827   2.586   1.561  11.947 -0.2860 -0.0904  0.1622
  803MPD2    C411828   2.485   1.562  11.854 -0.1249 -0.3495 -0.9394
  803MPD2    C511829   2.500   1.634  11.739 -0.3069  0.2368  0.9097
  803MPD2     H11830   2.786   1.642  11.993 -0.3023 -1.6406  0.9407
  803MPD2    H111831   2.385   1.524  11.869  1.1871 -3.1412  0.6817
  803MPD2    H211832   2.634   1.741  11.613 -1.5317  4.7340  2.3431
  803MPD2    H311833   2.423   1.647  11.664 -0.4855  1.8339  1.3560
  803MPD2     N11834   2.561   1.493  12.065 -0.0377 -0.6446  0.1763
  803MPD2    H511835   2.468   1.453  12.075 -0.2561 -0.2338 -0.2116
  803MPD2    N111836   2.845   1.763  11.773  0.4674 -0.1475 -0.1646
  803MPD2    H711837   2.899   1.796  11.852  0.0542 -0.6245  0.3127
  804MPD2     C11838   2.012   3.008  17.033  0.6869  0.6014  0.0375
  804MPD2    C111839   2.021   2.963  17.163  0.1729 -0.0399 -0.1302
  804MPD2    C211840   2.096   3.037  17.251 -0.1915  0.0619 -0.2584
  804MPD2    C311841   2.153   3.156  17.215  0.9389  0.2773  0.5061
  804MPD2    C411842   2.134   3.208  17.085  0.2804  0.5156  0.2031
  804MPD2    C511843   2.065   3.129  16.999 -0.6940  0.0333 -0.0795
  804MPD2     H11844   2.110   3.009  17.354 -0.6111  2.2643  0.3862
  804MPD2    H111845   2.185   3.295  17.046  1.8675 -0.0783  0.9405
  804MPD2    H211846   1.945   2.958  16.964 -1.7050 -0.4152  3.1029
  804MPD2    H311847   2.046   3.159  16.896  2.1012  2.6565  0.1734
  804MPD2     N11848   2.239   3.212  17.309 -0.5918  0.1691 -0.9873
  804MPD2    H511849   2.260   3.165  17.397 -1.2487  1.6510 -0.0589
  804MPD2    N111850   1.953   2.847  17.210 -0.3341 -0.4665  0.4979
  804MPD2    H711851   1.965   2.821  17.308  0.3862  0.0529  0.5530
  805MPD2     C11852   1.238   1.603  15.366  0.5013  0.2584  1.2306
  805MPD2    C111853   1.331   1.598  15.264  0.3719 -0.9041  0.0171
  805MPD2    C211854   1.467   1.580  15.293 -0.4756  0.3198 -1.0593
  805MPD2    C311855   1.504   1.564  15.423  0.3002 -0.1378 -0.2910
  805MPD2    C411856   1.408   1.568  15.522 -0.6273  0.2950  0.5889
  805MPD2    C511857   1.283   1.598  15.491  0.3420  0.1061  0.7388
  805MPD2     H11858   1.540   1.577  15.213  0.0467 -1.0839 -0.5199
  805MPD2    H111859   1.428   1.553  15.628 -1.1253  1.2685  0.8152
  805MPD2    H211860   1.132   1.616  15.352  0.8113  2.0000  0.5598
  805MPD2    H311861   1.203   1.601  15.564 -0.0069 -0.4277  0.3779
  805MPD2     N11862   1.639   1.541  15.456 -0.1449 -0.0899 -0.1815
  805MPD2    H511863   1.711   1.574  15.392 -1.3367  0.0238 -1.4575
  805MPD2    N111864   1.294   1.618  15.129  0.0079  0.2180  0.3228
  805MPD2    H711865   1.373   1.601  15.067  1.7126  0.6772  2.3732
  806MPD2     C11866   1.943   0.539  17.475  0.0706 -0.0628 -0.0867
  806MPD2    C111867   1.909   0.629  17.572 -0.5192  0.3320  1.3976
  806MPD2    C211868   1.977   0.754  17.574 -0.4553 -0.6923  0.3798
  806MPD2    C311869   2.067   0.786  17.471 -0.7460 -0.0822 -0.2220
  806MPD2    C411870   2.086   0.696  17.368 -0.8285 -0.4671 -0.4081
  806MPD2    C511871   2.032   0.571  17.380 -0.0362 -0.0416  0.5384
  806MPD2     H11872   1.941   0.833  17.639  1.2580  1.3927 -1.2081
  806MPD2    H111873   2.151   0.713  17.283 -0.0592  0.8673  0.4475
  806MPD2    H211874   1.893   0.443  17.470  0.1671  0.0089 -2.3073
  806MPD2    H311875   2.030   0.509  17.291 -1.3071  0.0315  0.5216
  806MPD2     N11876   2.118   0.921  17.468 -0.3656  0.4412  0.3171
  806MPD2    H511877   2.080   0.974  17.545 -0.8324 -0.2349  0.5542
  806MPD2    N111878   1.819   0.575  17.670  0.6855 -0.0566  0.0602
  806MPD2    H711879   1.815   0.473  17.668  2.1856 -0.0837 -1.3918
  807MPD2     C11880   1.635   4.617   0.264  0.4935 -0.0822  0.4063
  807MPD2    C111881   1.620   4.699   0.376  0.8623 -0.3262 -0.6366
  807MPD2    C211882   1.597   4.644   0.499 -0.0294 -0.6574 -0.5170
  807MPD2    C311883   1.586   4.507   0.511 -0.3462  0.0319 -1.0247
  807MPD2    C411884   1.606   4.429   0.399 -0.4662  0.0694 -0.3820
  807MPD2    C511885   1.635   4.482   0.278  0.3402 -0.1770 -0.4670
  807MPD2     H11886   1.592   4.711   0.584 -2.9052  0.8360 -1.8489
  807MPD2    H111887   1.590   4.322   0.415 -0.0626 -0.1391 -1.4148
  807MPD2    H211888   1.642   4.662   0.166  3.6580  0.0040  0.6710
  807MPD2    H311889   1.656   4.421   0.191 -2.3668 -1.3841 -0.2816
  807MPD2     N11890   1.569   4.451   0.642  0.4572 -0.0307 -0.3216
  807MPD2    H511891   1.545   4.509   0.722  2.4605 -1.2797  1.2096
  807MPD2    N111892   1.635   0.120   0.366  0.0932  0.1332  0.0329
  807MPD2    H711893   1.615   0.173   0.450  0.0382 -1.5924  1.0915
  808MPD2     C11894   1.981   2.353   9.179 -0.5845  0.6137 -0.2703
  808MPD2    C111895   1.923   2.436   9.281  0.7734 -0.5876 -0.5440
  808MPD2    C211896   2.011   2.510   9.350  0.3336  0.3270  0.1734
  808MPD2    C311897   2.151   2.503   9.334 -0.4520 -0.3294 -0.5068
  808MPD2    C411898   2.201   2.421   9.235  0.0053  0.1381 -0.3993
  808MPD2    C511899   2.114   2.349   9.156  0.3412 -0.9929  0.5172
  808MPD2     H11900   1.973   2.586   9.417  1.4436  1.5140 -0.5460
  808MPD2    H111901   2.308   2.410   9.218 -0.1502  0.1384 -1.3840
  808MPD2    H211902   1.918   2.286   9.123  0.3515 -0.9690  0.5826
  808MPD2    H311903   2.155   2.290   9.075  0.4355 -0.6604  0.3248
  808MPD2     N11904   2.249   2.568   9.418 -0.0299  0.3114 -0.3684
  808MPD2    H511905   2.347   2.561   9.393  0.2084  0.5391  0.5216
  808MPD2    N111906   1.786   2.458   9.305  0.5146 -0.0582  0.0115
  808MPD2    H711907   1.752   2.521   9.377  0.0757 -1.1104  0.7370
  809MPD2     C11908   3.005   2.761   9.111 -0.0381 -0.1403  0.0275
  809MPD2    C111909   3.024   2.772   9.246  0.9648  0.2849 -0.2796
  809MPD2    C211910   2.913   2.797   9.335  0.2865  0.4075 -0.3827
  809MPD2    C311911   2.782   2.806   9.282 -0.2194  0.2354  0.0776
  809MPD2    C411912   2.768   2.789   9.148  0.6431 -0.2891  0.2811
  809MPD2    C511913   2.875   2.764   9.065  0.2650  0.2434  0.5967
  809MPD2     H11914   2.930   2.785   9.441  2.7881  0.9162 -0.7280
  809MPD2    H111915   2.672   2.791   9.097  1.0736 -0.4485 -0.5434
  809MPD2    H211916   3.082   2.754   9.035  0.6712  1.3864  0.6090
  809MPD2    H311917   2.867   2.759   8.957  2.4747 -1.2226  0.4968
  809MPD2     N11918   2.663   2.823   9.356 -0.3083 -0.0952 -0.0498
  809MPD2    H511919   2.577   2.805   9.306 -0.1420 -0.3334 -0.2594
  809MPD2    N111920   3.152   2.764   9.307 -0.2257  0.1878 -0.3291
  809MPD2    H711921   3.148   2.746   9.407 -1.5500  1.2465 -0.1955
  810MPD2     C11922   1.968   1.405   9.845  0.5891  0.1231 -0.0357
  810MPD2    C111923   1.889   1.497   9.769 -0.8212  0.1118  0.0096
  810MPD2    C211924   1.905   1.635   9.794  0.1889  0.6349  0.3369
  810MPD2    C311925   1.978   1.678   9.899 -0.5930 -0.4942  0.0029
  810MPD2    C411926   2.046   1.586   9.982  0.3310  0.7719 -0.4199
  810MPD2    C511927   2.043   1.452   9.950 -0.7911  0.1676 -0.4762
  810MPD2     H11928   1.860   1.716   9.737 -0.2748 -0.3683 -0.7130
  810MPD2    H111929   2.098   1.611  10.074 -0.4065 -1.5067  0.6182
  810MPD2    H211930   1.968   1.297   9.851  1.5625  0.0911 -0.6955
  810MPD2    H311931   2.096   1.387  10.019 -1.4439 -0.8537 -0.9442
  810MPD2     N11932   1.978   1.816   9.936 -0.3530 -0.3915 -0.0455
  810MPD2    H511933   1.917   1.877   9.883 -1.3737 -0.5444  0.9728
  810MPD2    N111934   1.788   1.448   9.684  0.3330  0.0476  0.3147
  810MPD2    H711935   1.797   1.348   9.667 -1.9840  0.0479 -1.0049
  811MPD2     C11936   0.893   1.600   9.547  0.2998  1.4957  0.2390
  811MPD2    C111937   1.024   1.641   9.560 -0.2834 -0.3041 -0.2216
  811MPD2    C211938   1.054   1.780   9.545 -0.1765 -0.1640 -0.6457
  811MPD2    C311939   0.949   1.865   9.524 -0.0291 -0.3592 -0.3616
  811MPD2    C411940   0.826   1.818   9.498  0.2987  0.1787 -0.6711
  811MPD2    C511941   0.797   1.687   9.505 -0.1616  0.9355  0.1961
  811MPD2     H11942   1.156   1.817   9.552  0.1244 -1.1711  0.3519
  811MPD2    H111943   0.742   1.883   9.475  2.0515  3.0255  0.9612
  811MPD2    H211944   0.861   1.497   9.546  0.9674  1.3099 -1.2176
  811MPD2    H311945   0.702   1.646   9.473  0.0642  1.8216 -1.5656
  811MPD2     N11946   0.976   2.005   9.507  0.3023 -0.6364 -0.0937
  811MPD2    H511947   1.075   2.025   9.501  0.4822 -1.9102 -1.7440
  811MPD2    N111948   1.131   1.545   9.572  0.4207  0.1509 -0.4320
  811MPD2    H711949   1.109   1.446   9.574 -2.5040  0.7935  0.5847
  812MPD2     C11950   0.505   1.762  12.020 -0.3478  0.4798 -0.0465
  812MPD2    C111951   0.492   1.771  12.158  0.2318 -0.4184  0.8404
  812MPD2    C211952   0.519   1.667  12.244 -0.7034  0.3194 -0.0453
  812MPD2    C311953   0.565   1.549  12.188 -0.1301  0.0555  0.1112
  812MPD2    C411954   0.582   1.537  12.048  0.6037 -0.0295 -0.7236
  812MPD2    C511955   0.553   1.643  11.969 -0.6043 -0.0301  0.1386
  812MPD2     H11956   0.485   1.668  12.347  0.6245 -1.0066  0.4137
  812MPD2    H111957   0.624   1.447  12.004 -2.1235 -2.2832  1.2890
  812MPD2    H211958   0.495   1.851  11.959 -0.9686 -0.0486 -0.7161
  812MPD2    H311959   0.577   1.639  11.863 -0.9024 -0.8171  0.0992
  812MPD2     N11960   0.594   1.450  12.283  0.0721  0.1294  0.4176
  812MPD2    H511961   0.600   1.480  12.380 -0.2367  2.0996 -0.1755
  812MPD2    N111962   0.442   1.893  12.197 -0.1084 -0.3457 -0.8572
  812MPD2    H711963   0.451   1.979  12.145 -0.5789  1.0669  1.3900
  813MPD2     C11964   4.722   3.695  12.622 -0.2963  0.1099 -0.5460
  813MPD2    C111965   0.018   3.813  12.686 -0.7375  0.2602 -1.4431
  813MPD2    C211966   4.641   3.856  12.775  0.8688  0.2116 -0.5781
  813MPD2    C311967   4.512   3.799  12.783  0.1491 -0.4011 -0.1882
  813MPD2    C411968   4.490   3.698  12.698  0.5377 -0.4395 -0.3218
  813MPD2    C511969   4.593   3.644  12.624 -0.3468 -0.0263 -0.1865
  813MPD2     H11970   4.658   3.942  12.839  0.7391  0.4678 -0.8896
  813MPD2    H111971   4.391   3.656  12.682  0.2503 -0.2393  0.9743
  813MPD2    H211972   0.072   3.658  12.549  1.5433  1.9771  0.3321
  813MPD2    H311973   4.577   3.551  12.571 -0.2192  0.2121 -0.6426
  813MPD2     N11974   4.428   3.842  12.888  0.1778 -0.5466  0.0649
  813MPD2    H511975   4.468   3.906  12.956  1.2812 -1.0777 -0.0843
  813MPD2    N111976   0.142   3.877  12.674 -0.0364 -0.0425  0.0958
  813MPD2    H711977   0.208   3.835  12.609 -0.1893  1.1318 -0.8086
  814MPD2     C11978   0.327   0.310  12.107 -0.2894 -0.1817  0.2417
  814MPD2    C111979   0.378   0.341  11.979  0.4278  0.8048 -0.4705
  814MPD2    C211980   0.463   0.454  11.968 -0.6107  0.1474  0.0351
  814MPD2    C311981   0.503   0.526  12.075 -0.2567  0.2550  0.0803
  814MPD2    C411982   0.461   0.486  12.198  0.0167  0.4684 -0.2178
  814MPD2    C511983   0.375   0.386  12.211  0.1498  0.3079  0.1924
  814MPD2     H11984   0.473   0.499  11.869  0.2865  0.9979  0.5160
  814MPD2    H111985   0.480   0.546  12.286  0.5738  1.1024 -0.7715
  814MPD2    H211986   0.253   0.232  12.123  0.6465 -1.0009  0.5299
  814MPD2    H311987   0.339   0.366  12.311  0.2028  2.3458  0.6203
  814MPD2     N11988   0.581   0.648  12.063 -0.2136 -0.0031  0.6896
  814MPD2    H511989   0.616   0.694  12.146  0.1823 -1.7237  1.4838
  814MPD2    N111990   0.351   0.282  11.859 -0.1371 -0.1427 -0.1739
  814MPD2    H711991   0.382   0.328  11.775  2.3372  1.7304  1.7745
  815MPD2     C11992   0.852   2.826  12.209 -0.4339 -0.2755  0.1020
  815MPD2    C111993   0.747   2.891  12.144 -0.2883  0.3576 -0.2261
  815MPD2    C211994   0.636   2.936  12.222 -0.2187  0.0701  0.4522
  815MPD2    C311995   0.639   2.929  12.361 -0.8711 -0.1969  0.5183
  815MPD2    C411996   0.747   2.859  12.422  0.2046  0.4604 -1.0250
  815MPD2    C511997   0.850   2.810  12.344 -0.3257  0.0836 -0.1679
  815MPD2     H11998   0.549   2.982  12.177  0.0790 -0.6037 -0.7954
  815MPD2    H111999   0.757   2.841  12.528 -2.6908 -0.2383 -0.8493
  815MPD2    H212000   0.939   2.778  12.164  0.2197 -1.0598  2.2092
  815MPD2    H312001   0.935   2.768  12.397 -0.8730  0.0588  0.6754
  815MPD2     N12002   0.531   2.984  12.434  0.2096 -0.4074 -0.1272
  815MPD2    H512003   0.472   3.045  12.379 -1.0766 -2.5170 -1.0806
  815MPD2    N112004   0.756   2.880  12.003 -0.1900 -0.5265 -0.3535
  815MPD2    H712005   0.836   2.831  11.963  0.1702 -1.4978  1.5630
  816MPD2     C12006   0.379   2.042  17.416 -0.2011  0.4123 -0.2752
  816MPD2    C112007   0.414   2.171  17.382  0.0234 -0.2331  0.3990
  816MPD2    C212008   0.533   2.190  17.309  0.0379 -0.0986 -0.0514
  816MPD2    C312009   0.612   2.083  17.276 -0.1182 -0.0126 -1.0205
  816MPD2    C412010   0.575   1.959  17.315 -0.6865  0.7353 -0.1010
  816MPD2    C512011   0.458   1.934  17.382 -0.5074  0.6341 -0.2842
  816MPD2     H12012   0.557   2.281  17.257 -1.8560 -0.6380 -1.8755
  816MPD2    H112013   0.627   1.869  17.283 -1.6140  0.4394 -0.7976
  816MPD2    H212014   0.285   2.013  17.461  0.4853 -1.8461 -0.3034
  816MPD2    H312015   0.436   1.834  17.418  0.3067 -0.6433 -3.3714
  816MPD2     N12016   0.716   2.113  17.190  0.4705 -0.2634  0.5088
  816MPD2    H512017   0.729   2.209  17.161  0.8517 -0.7491 -0.9585
  816MPD2    N112018   0.313   2.276  17.403 -0.2992  0.4920 -0.2944
  816MPD2    H712019   0.233   2.257  17.462 -2.1579  0.7210 -2.7380
  817MPD2     C12020   4.239   3.899  10.651  0.7552  0.2668  0.1750
  817MPD2    C112021   4.272   3.928  10.517 -0.1577  0.8415  0.2110
  817MPD2    C212022   4.242   4.049  10.462 -0.4179  0.4732  0.1667
  817MPD2    C312023   4.167   4.143  10.533  0.9193  0.2592 -0.1910
  817MPD2    C412024   4.128   4.117  10.662 -0.6381 -0.4385  0.0060
  817MPD2    C512025   4.164   3.991  10.721 -0.5025  0.3931  0.1182
  817MPD2     H12026   4.258   4.072  10.358  3.6114  0.2731  0.7030
  817MPD2    H112027   4.075   4.191  10.721 -1.5700  0.7009 -2.2609
  817MPD2    H212028   4.264   3.804  10.697 -2.5185 -0.0645  1.2785
  817MPD2    H312029   4.129   3.966  10.820 -1.6422  1.2881 -0.0526
  817MPD2     N12030   4.131   4.268  10.473 -0.2450  0.0668 -0.3040
  817MPD2    H512031   4.170   4.282  10.381  0.6168 -2.2677 -0.2913
  817MPD2    N112032   4.321   3.824  10.431  0.6030  0.3075 -0.5919
  817MPD2    H712033   4.329   3.851  10.333  0.7890 -1.0250 -0.9359
  818MPD2     C12034   3.345   3.957   9.794 -0.5344 -0.4829 -0.6322
  818MPD2    C112035   3.370   3.854   9.883 -0.4213 -0.2005 -1.2798
  818MPD2    C212036   3.340   3.728   9.839  0.9749 -0.6961  0.7147
  818MPD2    C312037   3.306   3.700   9.702 -0.2981  0.0527  0.8483
  818MPD2    C412038   3.276   3.803   9.618 -0.0046  0.1162  0.1386
  818MPD2    C512039   3.299   3.928   9.671  0.0956  0.3788 -0.4786
  818MPD2     H12040   3.369   3.650   9.908 -0.0109  0.0556  1.9910
  818MPD2    H112041   3.246   3.794   9.514  1.0535 -0.8972 -0.0752
  818MPD2    H212042   3.358   4.063   9.811  1.4289 -0.7642 -0.3785
  818MPD2    H312043   3.300   4.009   9.598 -2.9076  1.2029  0.4036
  818MPD2     N12044   3.282   3.569   9.646 -0.2750  0.6801  0.3994
  818MPD2    H512045   3.231   3.565   9.558  0.3015 -1.0892  0.1566
  818MPD2    N112046   3.422   3.874  10.016  0.3812 -0.1743 -0.3782
  818MPD2    H712047   3.440   3.789  10.068  3.2532  0.6721  0.0401
  819MPD2     C12048   2.361   1.368  15.426 -0.2433 -0.1346 -0.8764
  819MPD2    C112049   2.289   1.256  15.462  0.4273  0.6063  0.1121
  819MPD2    C212050   2.336   1.185  15.573 -0.1042  0.2732 -0.2249
  819MPD2    C312051   2.448   1.214  15.648 -0.2681 -0.5613 -0.2047
  819MPD2    C412052   2.516   1.331  15.618 -0.1097  0.0783 -0.2206
  819MPD2    C512053   2.472   1.402  15.506 -0.1430 -1.4261  0.0393
  819MPD2     H12054   2.289   1.092  15.602  0.1130  0.2691  0.1186
  819MPD2    H112055   2.604   1.363  15.674 -0.4940  3.2710 -1.4406
  819MPD2    H212056   2.328   1.442  15.354 -1.0055 -0.9765 -1.4017
  819MPD2    H312057   2.521   1.497  15.487 -0.9766 -1.0022  0.0074
  819MPD2     N12058   2.499   1.133  15.753  0.4659  0.6387  0.2579
  819MPD2    H512059   2.441   1.056  15.785 -0.3546  1.9619  1.9669
  819MPD2    N112060   2.161   1.229  15.398 -0.1007 -0.3162  0.0949
  819MPD2    H712061   2.131   1.304  15.335  0.2602 -0.7721 -0.6205
  820MPD2     C12062   1.743   1.656  14.784  0.9642  0.0249 -0.1148
  820MPD2    C112063   1.647   1.559  14.811  0.4958  0.1219  0.4288
  820MPD2    C212064   1.673   1.462  14.907  0.1580 -0.3474  0.3392
  820MPD2    C312065   1.789   1.454  14.973  0.0792  0.7601  0.4223
  820MPD2    C412066   1.890   1.535  14.933 -0.0773  0.4113 -0.7496
  820MPD2    C512067   1.866   1.643  14.848  0.1816  0.2859  0.4980
  820MPD2     H12068   1.597   1.386  14.921 -0.7461  0.4962  0.0118
  820MPD2    H112069   1.982   1.529  14.989 -0.3940  3.0644  0.0407
  820MPD2    H212070   1.732   1.735  14.711  0.8076 -1.3877 -1.5940
  820MPD2    H312071   1.946   1.716  14.840 -1.1569  1.6445 -0.5495
  820MPD2     N12072   1.817   1.373  15.084 -0.0944  0.2014 -0.1393
  820MPD2    H512073   1.915   1.361  15.107 -0.4613 -0.9825  0.7878
  820MPD2    N112074   1.523   1.574  14.750  0.0310  0.0484  0.4420
  820MPD2    H712075   1.484   1.659  14.711  3.4171  0.6433 -1.7283
  821MPD2     C12076   2.425   1.890  13.297 -0.1188 -0.2803 -0.5576
  821MPD2    C112077   2.547   1.855  13.357 -0.5566  0.3762 -0.5363
  821MPD2    C212078   2.664   1.843  13.285  0.3008  0.7343  0.7242
  821MPD2    C312079   2.647   1.859  13.150  0.3529  0.1296  1.1533
  821MPD2    C412080   2.526   1.878  13.083  0.2990 -0.7857  0.5468
  821MPD2    C512081   2.415   1.891  13.159  0.7010 -0.0547  0.2297
  821MPD2     H12082   2.757   1.824  13.337  0.2932 -1.5741 -0.1292
  821MPD2    H112083   2.522   1.881  12.974 -0.9570  0.9782  0.6434
  821MPD2    H212084   2.337   1.923  13.351  0.1122  1.1633 -1.0765
  821MPD2    H312085   2.320   1.912  13.111 -0.3363 -1.3164  1.7389
  821MPD2     N12086   2.759   1.865  13.067 -0.1657  0.5203 -0.0689
  821MPD2    H512087   2.754   1.907  12.975  0.6271  0.5838 -0.0878
  821MPD2    N112088   2.558   1.857  13.504  0.4765  0.0616 -0.0717
  821MPD2    H712089   2.653   1.843  13.537  0.5813  1.0387  0.0442
  822MPD2     C12090   2.692   2.225  15.688 -0.6175 -0.5995  0.1076
  822MPD2    C112091   2.741   2.245  15.809  0.3123 -0.3275 -0.1395
  822MPD2    C212092   2.680   2.341  15.885  0.3684 -0.7470  0.0285
  822MPD2    C312093   2.564   2.410  15.840 -0.0592  0.9375  0.0645
  822MPD2    C412094   2.521   2.384  15.708 -0.1137  0.2019  0.2098
  822MPD2    C512095   2.592   2.297  15.631 -0.5512 -0.2166 -0.6007
  822MPD2     H12096   2.710   2.349  15.989  1.8344  0.2746 -0.4717
  822MPD2    H112097   2.443   2.434  15.652  0.4474  1.4871  0.5864
  822MPD2    H212098   2.750   2.161  15.623 -2.4266 -1.1305 -1.0017
  822MPD2    H312099   2.574   2.290  15.524 -1.7011 -1.8377 -0.3005
  822MPD2     N12100   2.501   2.493  15.932  0.3383  0.3104  0.3501
  822MPD2    H512101   2.517   2.477  16.031 -0.0485 -1.7940  0.0788
  822MPD2    N112102   2.860   2.174  15.853  0.4952 -0.0129 -0.3434
  822MPD2    H712103   2.896   2.185  15.947  1.4700  0.2500 -0.7511
  823MPD2     C12104   2.047   2.711  16.657 -0.1192  0.1538  0.5801
  823MPD2    C112105   2.125   2.635  16.570 -0.2915 -0.0766 -0.6141
  823MPD2    C212106   2.202   2.538  16.627  0.1784 -0.3727  0.0355
  823MPD2    C312107   2.217   2.527  16.766 -0.2115  0.0365  0.1944
  823MPD2    C412108   2.133   2.605  16.850  0.1914 -0.5210 -0.2480
  823MPD2    C512109   2.047   2.696  16.789 -0.5309 -0.6473 -0.6186
  823MPD2     H12110   2.270   2.480  16.566  0.3670 -0.8108  0.6554
  823MPD2    H112111   2.129   2.593  16.958  1.3681 -0.0629 -0.1490
  823MPD2    H212112   1.984   2.789  16.616 -1.2633 -1.0004  0.1194
  823MPD2    H312113   1.969   2.747  16.845  0.7956  1.9551 -1.1066
  823MPD2     N12114   2.320   2.452  16.822 -0.0898  0.1409 -0.9587
  823MPD2    H512115   2.324   2.436  16.922 -0.7104 -1.3033 -1.1752
  823MPD2    N112116   2.122   2.664  16.430  0.9331  0.0095  0.7177
  823MPD2    H712117   2.076   2.752  16.410  2.9901  0.9773  0.2063
  824MPD2     C12118   3.052   1.431  15.766 -0.6574  0.1578 -0.0745
  824MPD2    C112119   3.167   1.506  15.763  0.2199  0.2316 -0.6292
  824MPD2    C212120   3.284   1.445  15.741 -0.0507  0.3019  0.1352
  824MPD2    C312121   3.287   1.307  15.720 -0.3419  0.4152  0.4924
  824MPD2    C412122   3.170   1.230  15.719 -0.1784 -0.0879  0.0197
  824MPD2    C512123   3.056   1.290  15.753  0.2163  0.1182  0.1033
  824MPD2     H12124   3.384   1.480  15.762  0.1073 -0.7043  1.0980
  824MPD2    H112125   3.174   1.126  15.690  1.3423  0.7777 -2.8589
  824MPD2    H212126   2.955   1.476  15.781 -1.2021 -0.7053 -1.0659
  824MPD2    H312127   2.964   1.235  15.738 -1.1152  2.8241 -1.6459
  824MPD2     N12128   3.420   1.255  15.685 -0.0629  0.2930  0.5660
  824MPD2    H512129   3.493   1.323  15.669 -0.8099  0.9345 -0.0682
  824MPD2    N112130   3.155   1.642  15.792 -0.2437  0.1126 -0.0111
  824MPD2    H712131   3.064   1.686  15.779  0.6767  1.9102 -0.3776
  825MPD2     C12132   3.988   1.055  15.063 -1.3396 -0.2370 -0.1172
  825MPD2    C112133   3.950   1.150  15.153  0.6974  0.4748 -0.3228
  825MPD2    C212134   3.989   1.283  15.127 -0.5533  1.4836 -0.2046
  825MPD2    C312135   4.057   1.315  15.009 -0.3668 -0.1670  0.0641
  825MPD2    C412136   4.067   1.214  14.912  0.1819 -0.5594 -0.1922
  825MPD2    C512137   4.031   1.085  14.941 -0.2026 -0.5045  0.4114
  825MPD2     H12138   3.978   1.359  15.204  3.8173  0.9063  0.9708
  825MPD2    H112139   4.121   1.241  14.822  0.8373 -0.5976  0.1882
  825MPD2    H212140   3.972   0.951  15.089  2.7296  0.1089  3.7719
  825MPD2    H312141   4.034   0.998  14.877 -0.7959  0.0943 -0.4211
  825MPD2     N12142   4.110   1.442  14.989 -0.6751 -0.1383  0.7208
  825MPD2    H512143   4.162   1.453  14.903 -0.8838 -0.5153  0.5468
  825MPD2    N112144   3.885   1.105  15.270  0.3522 -0.5478  0.1164
  825MPD2    H712145   3.867   1.006  15.277  0.2725 -0.5230  0.2713
  826MPD2     C12146   3.591   1.041  13.806 -0.4035  0.6359  0.2427
  826MPD2    C112147   3.496   1.074  13.710  0.0614 -0.1359  0.1953
  826MPD2    C212148   3.406   1.178  13.738 -0.1777 -0.6646  0.3856
  826MPD2    C312149   3.398   1.230  13.867 -0.2666 -0.1040 -0.0213
  826MPD2    C412150   3.481   1.182  13.962  0.4039  0.0633 -0.0650
  826MPD2    C512151   3.580   1.091  13.931  0.3493  0.1791  0.6008
  826MPD2     H12152   3.332   1.204  13.663 -1.3486  3.6344  3.0898
  826MPD2    H112153   3.468   1.211  14.066  0.1752 -1.1509  0.2478
  826MPD2    H212154   3.667   0.971  13.772 -1.3238 -1.1528  1.9325
  826MPD2    H312155   3.636   1.053  14.015  0.7354  1.1374  0.7700
  826MPD2     N12156   3.298   1.319  13.907  0.1326  0.0849  0.1979
  826MPD2    H512157   3.306   1.347  14.004 -1.0302  1.8427 -0.2194
  826MPD2    N112158   3.504   1.014  13.583  0.4113  0.5267  0.1398
  826MPD2    H712159   3.573   0.943  13.563 -0.4581 -0.1216 -0.5620
  827MPD2     C12160   4.055   2.305  10.101  0.1676  0.0674  0.7392
  827MPD2    C112161   3.959   2.329  10.198  0.0497 -0.8769 -0.9335
  827MPD2    C212162   3.829   2.286  10.171 -0.5638 -0.0422 -0.0196
  827MPD2    C312163   3.798   2.250  10.043 -1.0318 -0.1320  0.8370
  827MPD2    C412164   3.890   2.240   9.945  0.1605  0.1289 -0.7682
  827MPD2    C512165   4.023   2.262   9.973 -0.0029 -0.0686 -0.0807
  827MPD2     H12166   3.749   2.294  10.244  1.3677  3.8179  1.6988
  827MPD2    H112167   3.870   2.211   9.842 -2.1378  0.8345 -0.5275
  827MPD2    H212168   4.159   2.316  10.130 -0.0207  2.0632  0.6904
  827MPD2    H312169   4.098   2.256   9.894  2.6522  0.4138  2.4042
  827MPD2     N12170   3.658   2.236  10.017 -0.0508 -0.0662 -0.4129
  827MPD2    H512171   3.606   2.239  10.104  1.9663  2.7192  0.7350
  827MPD2    N112172   3.999   2.394  10.314  0.1893  0.4394 -0.1246
  827MPD2    H712173   4.098   2.416  10.319  0.4789 -0.3543 -2.3435
  828MPD2     C12174   2.875   2.775  12.464  0.0487 -0.1460 -0.1981
  828MPD2    C112175   2.860   2.762  12.325 -0.2189  0.0421  0.3888
  828MPD2    C212176   2.963   2.708  12.248  0.3060 -0.2048 -0.3797
  828MPD2    C312177   3.084   2.665  12.312 -0.1357 -0.1761  0.8938
  828MPD2    C412178   3.093   2.676  12.449  0.1859 -0.6421 -0.3631
  828MPD2    C512179   2.986   2.724  12.525  0.1843  0.0725 -0.2627
  828MPD2     H12180   2.948   2.699  12.141 -2.2726  0.5408 -0.0631
  828MPD2    H112181   3.189   2.663  12.498  0.2903  1.4414 -0.0177
  828MPD2    H212182   2.790   2.809  12.521 -0.4369 -0.8591 -0.4960
  828MPD2    H312183   3.002   2.743  12.631  2.3501 -1.9260 -0.2258
  828MPD2     N12184   3.191   2.597  12.240 -0.2576  0.7301 -0.5947
  828MPD2    H512185   3.262   2.554  12.299 -1.4887  0.7727  0.9370
  828MPD2    N112186   2.742   2.795  12.254 -0.0488 -0.0728 -0.5085
  828MPD2    H712187   2.758   2.797  12.154 -0.4997  3.1106 -0.5173
  829MPD2     C12188   2.787   3.019  11.469  0.3683 -0.1325  0.7691
  829MPD2    C112189   2.649   3.054  11.478  0.1528  0.0439 -0.7942
  829MPD2    C212190   2.583   3.034  11.599 -0.0789  0.3705 -0.4876
  829MPD2    C312191   2.653   2.989  11.708  0.8167 -0.5093  0.1655
  829MPD2    C412192   2.785   2.954  11.701  0.2732  0.6626  0.4883
  829MPD2    C512193   2.851   2.975  11.579  0.6988 -0.3287  0.0008
  829MPD2     H12194   2.478   3.059  11.607  0.3017  0.8697  2.9447
  829MPD2    H112195   2.845   2.922  11.785 -1.4798 -2.6779  0.4503
  829MPD2    H212196   2.848   3.038  11.382  0.0582  1.7538  0.9763
  829MPD2    H312197   2.959   2.961  11.577  0.5069 -1.7281 -0.4329
  829MPD2     N12198   2.600   2.965  11.834  0.3818  0.6343  0.3417
  829MPD2    H512199   2.655   2.917  11.905 -0.9141 -0.7072  0.4343
  829MPD2    N112200   2.586   3.092  11.355 -0.6353  0.6618  0.1060
  829MPD2    H712201   2.643   3.107  11.273 -0.7438 -0.6593 -0.2051
  830MPD2     C12202   2.595   0.370  16.108 -0.1527 -0.6790  0.1891
  830MPD2    C112203   2.567   0.468  16.013 -0.2152  0.2368  0.3748
  830MPD2    C212204   2.578   0.435  15.878  0.1183  0.1096 -0.1581
  830MPD2    C312205   2.614   0.311  15.833  0.4652  0.4862  0.6865
  830MPD2    C412206   2.638   0.215  15.925 -0.5766 -0.6575  0.5817
  830MPD2    C512207   2.631   0.244  16.058  0.1900 -0.4054  0.1746
  830MPD2     H12208   2.573   0.509  15.799 -2.3978  0.2218  0.1009
  830MPD2    H112209   2.667   0.116  15.893 -1.0526 -0.9870  1.1717
  830MPD2    H212210   2.582   0.396  16.213 -1.3889 -0.7693  0.0633
  830MPD2    H312211   2.652   0.164  16.127  0.5145 -0.9323 -0.5395
  830MPD2     N12212   2.641   0.292  15.695  0.4790  0.1938 -0.8434
  830MPD2    H512213   2.700   0.212  15.671 -1.0693 -0.7062 -1.6195
  830MPD2    N112214   2.544   0.601  16.052 -0.2251 -0.2550  0.1692
  830MPD2    H712215   2.566   0.628  16.147 -0.5715  0.7032 -0.0212
  831MPD2     C12216   2.711   2.735  16.295  0.1004 -0.2683  0.6299
  831MPD2    C112217   2.757   2.616  16.237 -0.7344 -0.1403  0.2809
  831MPD2    C212218   2.677   2.504  16.257  0.5458  0.1940 -0.5540
  831MPD2    C312219   2.565   2.504  16.342  0.1204 -0.3459  0.2074
  831MPD2    C412220   2.533   2.617  16.412  0.5237 -0.5147 -0.6555
  831MPD2    C512221   2.601   2.732  16.386  0.1020 -0.7106 -0.3886
  831MPD2     H12222   2.711   2.411  16.213  1.2742 -0.1498  0.7137
  831MPD2    H112223   2.443   2.611  16.473 -0.0433 -0.8803 -1.5168
  831MPD2    H212224   2.774   2.823  16.294  0.2430 -0.3905 -1.9070
  831MPD2    H312225   2.581   2.821  16.445  1.1506 -0.4807 -0.3704
  831MPD2     N12226   2.490   2.384  16.359  0.2763  0.4557  0.5925
  831MPD2    H512227   2.418   2.386  16.430 -0.5530  0.0080 -0.2254
  831MPD2    N112228   2.882   2.625  16.171 -0.4807  0.4776 -0.6984
  831MPD2    H712229   2.913   2.720  16.156  0.7567  0.0841 -0.6214
  832MPD2     C12230   1.156   3.435  17.275 -0.6409 -0.3990  0.1926
  832MPD2    C112231   1.066   3.535  17.293  0.8343  0.3217 -0.4449
  832MPD2    C212232   0.943   3.527  17.239  0.5943  0.3409 -0.4932
  832MPD2    C312233   0.896   3.412  17.174  0.2981 -0.7206 -0.2950
  832MPD2    C412234   0.982   3.305  17.170  0.0538 -1.0294 -0.4183
  832MPD2    C512235   1.109   3.315  17.211  0.0596  0.0964  1.1321
  832MPD2     H12236   0.864   3.598  17.259 -0.8289 -1.8038  1.5907
  832MPD2    H112237   0.956   3.216  17.114 -1.6861 -1.0054  0.3644
  832MPD2    H212238   1.253   3.434  17.323 -1.5209 -1.3445  1.9588
  832MPD2    H312239   1.170   3.227  17.196 -0.5185 -0.0032 -0.6446
  832MPD2     N12240   0.771   3.395  17.101 -0.7694 -0.1311 -0.2510
  832MPD2    H512241   0.747   3.300  17.073  0.4929 -1.2306  2.3129
  832MPD2    N112242   1.101   3.652  17.361  0.5706 -0.9473 -0.1054
  832MPD2    H712243   1.024   3.713  17.383  1.3184  1.0425 -2.9566
  833MPD2     C12244   3.307   0.292  12.492  0.2977  0.9557 -0.0406
  833MPD2    C112245   3.356   0.407  12.444  0.1968  0.0671  0.2733
  833MPD2    C212246   3.474   0.402  12.375 -0.4854  0.4672 -0.7914
  833MPD2    C312247   3.549   0.289  12.368 -0.0180  0.6595  0.4417
  833MPD2    C412248   3.499   0.173  12.415 -0.1592 -0.5370  0.6283
  833MPD2    C512249   3.380   0.174  12.478 -0.7006  0.2122  0.3442
  833MPD2     H12250   3.498   0.489  12.315  0.2512  0.5478 -0.3838
  833MPD2    H112251   3.547   0.077  12.402  1.7937  0.4554  0.5270
  833MPD2    H212252   3.205   0.278  12.525 -0.2938  1.7271 -1.5751
  833MPD2    H312253   3.335   0.078  12.497 -0.0404 -0.3306 -0.7717
  833MPD2     N12254   3.661   0.267  12.281 -0.4648  0.2328  0.4703
  833MPD2    H512255   3.687   0.170  12.267  1.1343  0.8749 -0.8693
  833MPD2    N112256   3.263   0.520  12.444 -0.6001  0.7034 -0.3260
  833MPD2    H712257   3.171   0.507  12.485  0.4973 -0.3522  1.8005
  834MPD2     C12258   3.569   4.215  11.955 -0.6192  0.3481 -0.0209
  834MPD2    C112259   3.548   4.280  11.840 -0.1670 -0.0987  0.4911
  834MPD2    C212260   3.563   4.418  11.836 -0.5572  0.3644  0.6157
  834MPD2    C312261   3.594   4.488  11.954  0.1627 -0.0159 -0.4753
  834MPD2    C412262   3.608   4.416  12.072  0.0164 -0.9354  1.1411
  834MPD2    C512263   3.600   4.278  12.071  0.2048 -0.3073 -0.5240
  834MPD2     H12264   3.549   4.481  11.749  0.4979 -2.3631 -1.5248
  834MPD2    H112265   3.633   4.471  12.162  0.5431  2.3971 -1.0515
  834MPD2    H212266   3.568   4.106  11.953 -1.0847  0.3636 -0.7328
  834MPD2    H312267   3.619   4.214  12.157  2.2452  0.7478 -0.1859
  834MPD2     N12268   3.622   4.630  11.940  0.7689  0.3131  0.9493
  834MPD2    H512269   3.629   4.668  11.846 -1.0927 -3.0896 -0.5185
  834MPD2    N112270   3.508   4.210  11.722  0.4496  0.6679 -0.1960
  834MPD2    H712271   3.508   4.108  11.727 -3.1310  0.6458 -0.9038
  835MPD2     C12272   3.618   2.514  11.600  0.1166 -0.2431  0.3025
  835MPD2    C112273   3.520   2.613  11.612  0.0870 -0.1622  0.5799
  835MPD2    C212274   3.510   2.680  11.728  0.0835 -0.2413 -0.2588
  835MPD2    C312275   3.590   2.654  11.836  0.3076  0.0240  0.2849
  835MPD2    C412276   3.682   2.554  11.828 -0.2067 -0.2642  0.1956
  835MPD2    C512277   3.704   2.487  11.710  1.0138 -0.4568  0.0905
  835MPD2     H12278   3.429   2.750  11.744  0.5751 -0.0524  1.3849
  835MPD2    H112279   3.745   2.519  11.909  0.0198 -2.9084 -1.1174
  835MPD2    H212280   3.631   2.462  11.506 -4.0172  0.1378 -0.4700
  835MPD2    H312281   3.793   2.425  11.703  0.5846 -1.0398 -0.1333
  835MPD2     N12282   3.571   2.718  11.961 -0.1565  0.5603 -0.1790
  835MPD2    H512283   3.639   2.699  12.034 -1.0401  1.6607  0.9302
  835MPD2    N112284   3.432   2.651  11.507 -0.3655 -0.2752  0.0183
  835MPD2    H712285   3.362   2.719  11.536 -0.4654 -0.9119  1.2904
  836MPD2     C12286   2.982   3.131  12.223 -0.5106  0.0542 -0.2780
  836MPD2    C112287   3.052   3.070  12.325 -0.1668 -0.7082  0.4237
  836MPD2    C212288   3.000   3.077  12.455  0.4373 -0.5224 -0.0886
  836MPD2    C312289   2.876   3.126  12.478 -0.3136  0.1360  0.0851
  836MPD2    C412290   2.802   3.169  12.366 -0.1753 -0.6472  0.4929
  836MPD2    C512291   2.851   3.178  12.238  0.9411  0.5978 -0.5511
  836MPD2     H12292   3.057   3.036  12.537  1.2538  1.0306  0.1191
  836MPD2    H112293   2.705   3.215  12.377 -0.2017 -0.7136  0.5413
  836MPD2    H212294   3.021   3.126  12.122  3.6063 -0.7216  1.3427
  836MPD2    H312295   2.801   3.212  12.148  0.4663 -1.5820 -1.1133
  836MPD2     N12296   2.801   3.117  12.600  0.2292  0.3715 -0.4449
  836MPD2    H512297   2.700   3.115  12.603  0.1657  2.7236 -0.3742
  836MPD2    N112298   3.188   3.024  12.298  0.1153 -0.5132 -0.1811
  836MPD2    H712299   3.211   3.023  12.199  1.2202  2.4179  0.0438
  837MPD2     C12300   1.495   2.566   9.759 -0.1008 -0.2549 -0.7295
  837MPD2    C112301   1.363   2.581   9.791  0.0375 -0.1191 -0.0216
  837MPD2    C212302   1.328   2.638   9.909  0.3343  0.1070  0.3355
  837MPD2    C312303   1.417   2.691  10.002  0.2440  0.2631  0.9549
  837MPD2    C412304   1.542   2.687   9.952 -0.2965  0.4061 -0.3436
  837MPD2    C512305   1.581   2.630   9.838  0.5502  0.2731  0.0609
  837MPD2     H12306   1.222   2.651   9.928  0.3805  0.7672  0.1481
  837MPD2    H112307   1.626   2.716  10.015  0.2141  0.3045 -0.9759
  837MPD2    H212308   1.533   2.524   9.667  1.5589 -1.7269  0.6374
  837MPD2    H312309   1.688   2.620   9.821  0.1621 -0.7050 -1.7693
  837MPD2     N12310   1.383   2.766  10.116  0.0635 -0.0181 -0.1141
  837MPD2    H512311   1.461   2.808  10.166  0.2391  2.2951 -2.3441
  837MPD2    N112312   1.252   2.532   9.718 -0.2481  0.3064 -0.1191
  837MPD2    H712313   1.165   2.563   9.758  0.0294  3.0565 -1.6433
  838MPD2     C12314   4.679   0.865  11.410  0.0530 -0.6346 -0.0241
  838MPD2    C112315   4.688   0.834  11.546  0.2225 -0.2514  0.3837
  838MPD2    C212316   4.603   0.734  11.601  0.6294  0.7593 -0.4026
  838MPD2    C312317   4.504   0.672  11.522 -0.2195  1.1513  0.2351
  838MPD2    C412318   4.494   0.713  11.388  0.8755 -0.8803  0.4068
  838MPD2    C512319   4.577   0.806  11.337 -0.4728  0.3072 -0.4958
  838MPD2     H12320   4.610   0.704  11.705 -0.8901 -0.3674 -0.6278
  838MPD2    H112321   4.424   0.665  11.320  1.2817  1.6410 -1.8432
  838MPD2    H212322   0.019   0.928  11.349 -2.0142  2.5766  1.2149
  838MPD2    H312323   4.571   0.822  11.230  1.4897  3.8211 -0.0645
  838MPD2     N12324   4.416   0.581  11.584 -0.0485  0.1503  0.0096
  838MPD2    H512325   4.440   0.566  11.682 -1.1894 -0.8028  0.1340
  838MPD2    N112326   0.057   0.900  11.624 -0.6113  0.0005  0.3235
  838MPD2    H712327   0.076   0.854  11.713 -3.0438 -0.4933  0.5779
  839MPD2     C12328   4.646   0.282  11.719  0.5850  0.1004  0.3230
  839MPD2    C112329   4.687   0.320  11.593  0.4357  0.4156 -0.4589
  839MPD2    C212330   0.077   0.414  11.591  0.1327 -0.7315 -0.1794
  839MPD2    C312331   0.131   0.463  11.705 -0.6935 -0.2873  1.0260
  839MPD2    C412332   0.077   0.426  11.824 -0.3320  0.2980  0.0253
  839MPD2    C512333   4.705   0.331  11.835 -0.5152  0.2075 -0.5878
  839MPD2     H12334   0.111   0.465  11.502 -1.4120  1.4381  0.4829
  839MPD2    H112335   0.106   0.468  11.920 -0.1485 -0.3029  0.2300
  839MPD2    H212336   4.576   0.201  11.732 -0.2066  1.0293  1.8351
  839MPD2    H312337   4.676   0.301  11.935  0.6740 -2.0404 -0.9387
  839MPD2     N12338   0.230   0.566  11.703 -0.9460  0.0196 -0.0352
  839MPD2    H512339   0.235   0.622  11.788 -1.1395 -0.8967  0.5852
  839MPD2    N112340   4.627   0.271  11.477  0.4189 -0.0232 -0.1696
  839MPD2    H712341   4.670   0.296  11.389 -1.0584 -2.5467 -1.6014
  840MPD2     C12342   4.514   2.795  10.324 -0.0126  0.0620 -0.4545
  840MPD2    C112343   4.484   2.767  10.456  0.3426  0.3651 -0.2356
  840MPD2    C212344   4.567   2.826  10.546  0.2068  0.2972  0.1501
  840MPD2    C312345   4.681   2.902  10.512  0.8334 -0.4738  1.1231
  840MPD2    C412346   4.703   2.933  10.379 -0.3977  0.4802 -0.1374
  840MPD2    C512347   4.613   2.879  10.287  0.2584 -0.3593 -0.0647
  840MPD2     H12348   4.560   2.794  10.650  0.6416  1.5316  0.5587
  840MPD2    H112349   0.067   2.982  10.335  0.6737 -1.3749 -0.1180
  840MPD2    H212350   4.447   2.762  10.245 -0.4549 -1.1548  0.4220
  840MPD2    H312351   4.622   2.902  10.182 -1.3586 -3.4006 -0.8744
  840MPD2     N12352   0.050   2.954  10.604 -0.0920 -0.1424 -0.0311
  840MPD2    H512353   0.134   2.992  10.562 -0.7780  2.9547  1.3592
  840MPD2    N112354   4.373   2.684  10.486 -0.3833 -0.1051  0.2954
  840MPD2    H712355   4.322   2.640  10.409  0.5395 -1.5381  0.5169
  841MPD2     C12356   4.675   2.491  14.879  0.3495 -0.4035 -1.1252
  841MPD2    C112357   4.654   2.507  14.739  0.7009 -0.2400  0.4405
  841MPD2    C212358   4.641   2.638  14.685 -0.0738 -0.0005 -0.0502
  841MPD2    C312359   4.667   2.744  14.766 -0.0279 -0.0864  0.1075
  841MPD2    C412360   4.680   2.735  14.900  0.2029 -0.0602 -0.6773
  841MPD2    C512361   4.687   2.603  14.960 -0.3074  0.4032 -0.3166
  841MPD2     H12362   4.630   2.646  14.578  0.8970 -0.3549 -0.1765
  841MPD2    H112363   4.708   2.817  14.965 -1.9400 -0.8353  1.2527
  841MPD2    H212364   4.679   2.392  14.924  0.5759 -0.5507 -1.4707
  841MPD2    H312365   4.697   2.596  15.068 -1.1861 -1.3921 -0.3536
  841MPD2     N12366   4.680   2.867  14.700  0.1258 -0.1653 -0.0827
  841MPD2    H512367   4.702   2.863  14.601 -2.4189 -0.3825 -0.6615
  841MPD2    N112368   4.645   2.394  14.646  0.0376 -0.8230  0.3212
  841MPD2    H712369   4.609   2.418  14.554 -0.4024  1.0964  0.9870
  842MPD2     C12370   0.328   3.847  16.623 -0.6789  0.1191  0.2257
  842MPD2    C112371   0.229   3.755  16.633  0.1022  0.2107 -0.1970
  842MPD2    C212372   0.212   3.683  16.751  0.0844  0.1045  0.1018
  842MPD2    C312373   0.296   3.706  16.856 -0.7156 -0.7054 -0.3992
  842MPD2    C412374   0.384   3.810  16.850  0.4380 -0.2788 -1.2944
  842MPD2    C512375   0.408   3.871  16.727 -0.4422  0.1959  0.4459
  842MPD2     H12376   0.127   3.616  16.761  0.1154  0.3759  2.2798
  842MPD2    H112377   0.448   3.834  16.934 -0.5800 -1.1371 -0.2868
  842MPD2    H212378   0.342   3.901  16.530 -0.5764 -0.6263 -0.1911
  842MPD2    H312379   0.469   3.961  16.725  1.1377 -0.8834 -0.4683
  842MPD2     N12380   0.277   3.641  16.982  0.2587  0.0955 -0.0314
  842MPD2    H512381   0.317   3.695  17.058  1.9138  0.7143 -1.3508
  842MPD2    N112382   0.139   3.745  16.518 -0.2047 -0.2974  0.2529
  842MPD2    H712383   0.158   3.809  16.441  2.3485 -0.4783  0.7430
  843MPD2     C12384   2.150   4.264  17.016 -0.0207 -0.7028  0.1866
  843MPD2    C112385   2.233   4.174  17.076 -0.2406  0.4659  0.2313
  843MPD2    C212386   2.348   4.219  17.146 -0.1554 -0.6772  0.2170
  843MPD2    C312387   2.390   4.351  17.143  0.5833 -0.8075 -0.2593
  843MPD2    C412388   2.315   4.441  17.069 -0.1936 -0.3721  0.5424
  843MPD2    C512389   2.196   4.398  17.006 -0.2746  0.1641  0.1141
  843MPD2     H12390   2.405   4.143  17.198  3.0901  1.1054 -0.7530
  843MPD2    H112391   2.341   4.545  17.076  2.9218 -0.9397 -2.4579
  843MPD2    H212392   2.061   4.237  16.960 -0.4826 -0.3225  0.7400
  843MPD2    H312393   2.139   4.466  16.943 -1.5214 -1.4481 -0.4839
  843MPD2     N12394   2.500   4.397  17.219 -0.8758 -0.3654 -0.7240
  843MPD2    H512395   2.532   4.491  17.202  1.2875 -1.2163 -1.4282
  843MPD2    N112396   2.203   4.041  17.059  0.0879  0.1914  0.0060
  843MPD2    H712397   2.106   4.017  17.040  0.8310 -3.3195  0.5544
  844MPD2     C12398   0.472   2.941  16.584 -0.3106  0.3466  0.0641
  844MPD2    C112399   0.577   2.937  16.496  0.5924  0.2027  0.0387
  844MPD2    C212400   0.693   2.981  16.547  0.1374 -0.1006  0.0966
  844MPD2    C312401   0.700   3.052  16.665 -0.6974 -0.0941  0.2974
  844MPD2    C412402   0.598   3.047  16.754  0.7426  0.1585  0.1082
  844MPD2    C512403   0.478   2.993  16.714 -0.0722 -0.5318 -0.0301
  844MPD2     H12404   0.785   2.971  16.491 -0.4648 -1.7024 -0.6053
  844MPD2    H112405   0.602   3.081  16.857 -0.4616  0.9668 -0.1136
  844MPD2    H212406   0.372   2.905  16.561 -0.8408  1.5946  0.4358
  844MPD2    H312407   0.396   2.986  16.784  0.4187  1.9856  0.8017
  844MPD2     N12408   0.831   3.118  16.689 -0.6796 -0.5810  0.5919
  844MPD2    H512409   0.915   3.114  16.632 -1.9371  0.4912 -1.3525
  844MPD2    N112410   0.567   2.871  16.371  0.4021 -0.5675 -0.3217
  844MPD2    H712411   0.647   2.892  16.313  0.7080 -0.3496  0.1834
  845MPD2     C12412   1.190   4.013  17.003  0.2727  0.7812  0.2748
  845MPD2    C112413   1.077   3.956  17.062  0.2503 -0.0458 -0.8990
  845MPD2    C212414   1.054   3.820  17.042 -0.4744 -0.6187  0.7353
  845MPD2    C312415   1.141   3.742  16.968  0.3216 -0.6506 -0.0058
  845MPD2    C412416   1.252   3.803  16.911  0.3894  0.1058  0.2790
  845MPD2    C512417   1.276   3.937  16.924 -0.0253  1.1590  1.3424
  845MPD2     H12418   0.969   3.772  17.091 -2.0560  1.2939 -0.1380
  845MPD2    H112419   1.328   3.758  16.848  0.2643 -0.1913  0.3420
  845MPD2    H212420   1.207   4.119  17.018 -1.6603  1.4750 -2.4114
  845MPD2    H312421   1.361   3.984  16.876 -1.3887  0.1108 -2.0615
  845MPD2     N12422   1.113   3.610  16.944 -0.1535  0.3082  0.1245
  845MPD2    H512423   1.027   3.567  16.976 -0.4653  2.9415  2.7744
  845MPD2    N112424   0.996   4.039  17.148  0.7297 -0.7048 -0.2565
  845MPD2    H712425   1.029   4.135  17.151 -0.2779 -0.3474 -0.5681
  846MPD2     C12426   2.824   4.421  13.624 -0.0394  0.3731  0.4097
  846MPD2    C112427   2.715   4.497  13.666  0.0799  0.1551  0.5853
  846MPD2    C212428   2.674   4.501  13.794  0.6150  0.4662 -0.0200
  846MPD2    C312429   2.733   4.412  13.883  0.8104 -0.6163  0.1708
  846MPD2    C412430   2.823   4.317  13.837  0.0671 -0.0235  0.9191
  846MPD2    C512431   2.879   4.327  13.708 -0.3318  0.5766 -0.5624
  846MPD2     H12432   2.585   4.554  13.824 -0.3729 -0.4020 -1.4656
  846MPD2    H112433   2.858   4.238  13.902 -3.9622 -0.8071  2.0799
  846MPD2    H212434   2.855   4.416  13.520 -1.3901  2.1178 -0.0659
  846MPD2    H312435   2.949   4.257  13.665  1.6329  2.3671 -0.2663
  846MPD2     N12436   2.693   4.414  14.019  0.7119  0.1089 -0.2583
  846MPD2    H512437   2.624   4.484  14.044  1.1287  0.2793  0.4484
  846MPD2    N112438   2.649   4.579  13.577  0.1582  0.0988 -0.4077
  846MPD2    H712439   2.573   4.633  13.617  0.9735 -0.0502  1.3477
  847MPD2     C12440   2.775   0.676  14.429  0.3506 -0.2370 -0.2415
  847MPD2    C112441   2.892   0.746  14.462 -0.1221 -0.4512  0.3159
  847MPD2    C212442   2.998   0.664  14.485 -0.2725  0.6484  0.1347
  847MPD2    C312443   2.993   0.525  14.476 -0.0812  0.2103  0.0654
  847MPD2    C412444   2.879   0.463  14.437 -0.3474 -0.9005  0.3298
  847MPD2    C512445   2.770   0.542  14.415  0.1664  0.3514  0.5725
  847MPD2     H12446   3.088   0.715  14.516 -0.3989  1.4655 -0.8239
  847MPD2    H112447   2.867   0.355  14.430  2.6722 -1.1569 -0.7592
  847MPD2    H212448   2.683   0.728  14.403  0.9334 -0.2662 -2.3611
  847MPD2    H312449   2.682   0.488  14.381 -0.6411  1.2873  1.1927
  847MPD2     N12450   3.111   0.459  14.517 -0.0129 -0.0402  0.7467
  847MPD2    H512451   3.189   0.518  14.544  0.5646  0.1822 -1.3860
  847MPD2    N112452   2.899   0.885  14.477  0.5237 -0.0762  0.1841
  847MPD2    H712453   2.992   0.926  14.486  0.6788 -0.1789 -0.9239
  848MPD2     C12454   0.413   3.579  16.388 -0.4079 -0.3220  0.3181
  848MPD2    C112455   0.507   3.631  16.483  0.1373  0.2014 -0.0257
  848MPD2    C212456   0.571   3.751  16.451 -0.3340  0.2952  1.1468
  848MPD2    C312457   0.540   3.822  16.334 -0.5009 -0.1197 -0.3334
  848MPD2    C412458   0.434   3.779  16.258 -0.7590  0.0310  0.6521
  848MPD2    C512459   0.385   3.652  16.276  0.6824 -0.0561 -0.5158
  848MPD2     H12460   0.642   3.790  16.524  0.0113  0.9065  0.4802
  848MPD2    H112461   0.396   3.836  16.174  2.6597  0.6772 -0.4378
  848MPD2    H212462   0.362   3.485  16.406 -2.3636  0.6987  0.1097
  848MPD2    H312463   0.303   3.619  16.214  1.1168  2.6162 -2.4921
  848MPD2     N12464   0.608   3.937  16.298 -0.1707 -0.3242  0.2815
  848MPD2    H512465   0.577   3.982  16.213  0.6924 -0.7970 -0.2910
  848MPD2    N112466   0.525   3.571  16.608 -0.3264 -0.0240  0.0422
  848MPD2    H712467   0.561   3.634  16.678 -1.6785 -0.0630  0.7715
  849MPD2     C12468   0.507   4.029  14.023  0.5135  0.4179 -0.5566
  849MPD2    C112469   0.577   3.911  14.013  0.6275  0.7802 -0.2596
  849MPD2    C212470   0.539   3.800  14.092 -0.3952  0.9110  0.3193
  849MPD2    C312471   0.452   3.822  14.193  0.3582 -0.1040 -0.1825
  849MPD2    C412472   0.393   3.942  14.209  0.1853 -0.4278  0.2950
  849MPD2    C512473   0.407   4.040  14.115 -0.2724  0.4333 -0.2810
  849MPD2     H12474   0.577   3.700  14.072 -0.8114  0.6903  0.6237
  849MPD2    H112475   0.326   3.965  14.292 -0.0550  0.2268 -0.0826
  849MPD2    H212476   0.537   4.107  13.954 -0.6410 -0.5428 -2.1400
  849MPD2    H312477   0.339   4.123  14.130  0.1236  0.5010  1.0798
  849MPD2     N12478   0.400   3.728  14.285  0.4149 -0.1957 -0.1534
  849MPD2    H512479   0.337   3.759  14.358  2.6611 -0.2915  1.8327
  849MPD2    N112480   0.681   3.903  13.913  0.0561 -0.2329  0.9971
  849MPD2    H712481   0.698   3.980  13.849 -2.4055  0.0149  0.6422
  850MPD2     C12482   3.350   1.389  14.880 -0.8130 -0.1447  0.4086
  850MPD2    C112483   3.299   1.445  14.994 -0.6514  0.3605  0.4784
  850MPD2    C212484   3.383   1.481  15.094 -0.1389  1.1683 -0.0412
  850MPD2    C312485   3.522   1.447  15.091 -0.4202  0.2544  0.4126
  850MPD2    C412486   3.571   1.390  14.980  0.0332 -0.0542  0.4322
  850MPD2    C512487   3.482   1.361  14.881 -0.1500  0.2499 -0.3810
  850MPD2     H12488   3.338   1.520  15.185 -0.1661 -1.5389  1.0977
  850MPD2    H112489   3.677   1.364  14.979 -0.0886 -0.5198 -0.3067
  850MPD2    H212490   3.288   1.370  14.793 -0.4994  0.6318  0.0097
  850MPD2    H312491   3.532   1.316  14.797 -0.0538  0.9033 -0.6748
  850MPD2     N12492   3.613   1.487  15.194 -0.9433 -0.4400  0.1729
  850MPD2    H512493   3.707   1.451  15.183 -1.2880 -1.3112  0.1228
  850MPD2    N112494   3.161   1.459  15.002  0.2292 -0.4531 -0.5782
  850MPD2    H712495   3.110   1.426  14.920  0.8249 -1.6163 -0.4723
  851MPD2     C12496   3.091   1.063  15.416  0.0444  0.1991  0.5811
  851MPD2    C112497   2.975   1.046  15.344  0.0270 -0.5617 -0.4864
  851MPD2    C212498   2.924   0.922  15.328  0.4900  1.2941  0.7119
  851MPD2    C312499   2.988   0.811  15.377  0.2522  0.5337 -0.3160
  851MPD2    C412500   3.109   0.829  15.447 -1.0008 -0.6812  0.0046
  851MPD2    C512501   3.158   0.950  15.458 -0.5660 -0.0025  0.7551
  851MPD2     H12502   2.835   0.906  15.269  0.3883 -0.2604  1.2798
  851MPD2    H112503   3.174   0.748  15.476 -0.8195 -0.1804  0.9769
  851MPD2    H212504   3.146   1.155  15.423  1.3702 -0.6235  0.9486
  851MPD2    H312505   3.256   0.959  15.504  0.1096  0.7524 -0.8546
  851MPD2     N12506   2.920   0.689  15.374 -0.2746 -0.7543  0.2724
  851MPD2    H512507   2.830   0.692  15.328 -1.0586 -0.9930  1.8221
  851MPD2    N112508   2.926   1.160  15.285  0.4738  0.0607  0.1347
  851MPD2    H712509   2.988   1.239  15.297  0.6897  0.0901 -1.1772
  852MPD2     C12510   2.876   4.348   9.778 -0.1907  0.2305  0.9142
  852MPD2    C112511   2.821   4.348   9.907  0.2606  0.1836  0.0514
  852MPD2    C212512   2.732   4.443   9.945  0.2320  0.3135  0.5450
  852MPD2    C312513   2.683   4.529   9.849 -0.2822 -0.0672 -0.4541
  852MPD2    C412514   2.739   4.532   9.721  0.3601 -0.0710  0.8317
  852MPD2    C512515   2.833   4.435   9.689 -0.6038  0.1549 -0.0414
  852MPD2     H12516   2.708   4.462  10.049 -1.6678 -2.4525  0.6100
  852MPD2    H112517   2.718   4.614   9.653  0.0698  0.9291  2.1278
  852MPD2    H212518   2.952   4.276   9.753  0.0233  0.6632  0.3228
  852MPD2    H312519   2.871   4.433   9.587 -0.0532  1.9131  0.1221
  852MPD2     N12520   2.597   4.633   9.898  0.4033  0.1494 -0.2600
  852MPD2    H512521   2.572   4.628   9.996  0.0999  0.4119 -0.3220
  852MPD2    N112522   2.863   4.260  10.004 -0.1273 -0.1732  0.0201
  852MPD2    H712523   2.820   4.281  10.093  0.8381 -1.1288  0.7113
  853MPD2     C12524   4.659   4.130  12.503  0.7613 -0.2727  0.6487
  853MPD2    C112525   4.692   4.245  12.431  0.3840 -0.2734  0.7736
  853MPD2    C212526   4.711   4.232  12.293 -0.0351 -0.0374  0.4243
  853MPD2    C312527   4.703   4.114  12.229  0.6674 -0.0072  0.1639
  853MPD2    C412528   4.677   4.002  12.301  0.4568  0.0847 -0.0800
  853MPD2    C512529   4.648   4.009  12.437  0.2532 -0.0996 -0.4762
  853MPD2     H12530   0.033   4.316  12.241 -0.9742  2.2482  3.2844
  853MPD2    H112531   4.671   3.902  12.258 -3.5472  0.1875  0.2067
  853MPD2    H212532   4.656   4.128  12.611  2.3252 -3.0632  0.6240
  853MPD2    H312533   4.630   3.917  12.491  0.5179  0.2000  0.1219
  853MPD2     N12534   0.007   4.088  12.092  0.7825 -0.3090  0.5152
  853MPD2    H512535   0.015   3.992  12.062  1.4600  0.1090 -0.6340
  853MPD2    N112536   4.700   4.359  12.511  0.3309  0.5352  0.2816
  853MPD2    H712537   4.686   4.341  12.610 -1.3047 -1.5574 -0.3353
  854MPD2     C12538   1.223   4.307  13.124  0.3217 -0.5222  0.1273
  854MPD2    C112539   1.260   4.304  12.989 -0.3995 -0.0182 -0.5079
  854MPD2    C212540   1.367   4.220  12.953 -0.4169 -0.0323  0.0611
  854MPD2    C312541   1.425   4.143  13.051 -0.2371 -0.4222  0.0115
  854MPD2    C412542   1.380   4.152  13.181  1.1054  0.3168  1.6754
  854MPD2    C512543   1.281   4.235  13.221 -0.4515 -0.5661 -0.0332
  854MPD2     H12544   1.406   4.210  12.853 -2.0728  0.5501 -0.6352
  854MPD2    H112545   1.437   4.095  13.254  0.9384 -0.6353  1.0561
  854MPD2    H212546   1.147   4.382  13.146  0.1268 -1.0842  1.3381
  854MPD2    H312547   1.253   4.241  13.325 -0.1634 -0.9914  0.0696
  854MPD2     N12548   1.530   4.048  13.029 -0.1207  1.0599 -0.4877
  854MPD2    H512549   1.567   4.004  13.113 -1.7521  2.0694  0.7790
  854MPD2    N112550   1.185   4.380  12.897  0.0116  0.6324  0.4836
  854MPD2    H712551   1.128   4.455  12.934  0.4095  1.3071 -0.2626
  855MPD2     C12552   2.081   4.132  13.685  0.4284  0.1622 -0.3929
  855MPD2    C112553   2.102   4.017  13.617 -0.1806  0.4416  0.2047
  855MPD2    C212554   2.072   4.001  13.485  0.3206  0.1283  0.5489
  855MPD2    C312555   1.992   4.089  13.420  0.1026 -0.7091  0.2835
  855MPD2    C412556   1.943   4.197  13.493 -0.7520  0.3274  0.6773
  855MPD2    C512557   2.003   4.225  13.615 -0.0358  0.1372 -0.1468
  855MPD2     H12558   2.118   3.917  13.434 -0.0012 -0.1642  0.7383
  855MPD2    H112559   1.871   4.271  13.460 -1.7634  0.2620  2.7598
  855MPD2    H212560   2.124   4.153  13.782  1.7711 -1.8728 -0.5506
  855MPD2    H312561   1.985   4.323  13.656 -0.2057 -0.1237  0.3985
  855MPD2     N12562   1.954   4.073  13.279  0.0629 -0.0300 -0.2272
  855MPD2    H512563   1.888   4.140  13.242  1.4719  0.4986 -1.7473
  855MPD2    N112564   2.189   3.910  13.669  0.3812  0.2881 -0.1166
  855MPD2    H712565   2.234   3.845  13.605  0.0870 -0.4339  0.4120
  856MPD2     C12566   3.537   4.704  13.997 -0.0881  0.0377  0.3292
  856MPD2    C112567   3.602   0.102  14.004  0.2111 -0.6991  0.3578
  856MPD2    C212568   3.539   0.219  14.006 -0.1586 -0.4497 -0.0285
  856MPD2    C312569   3.402   0.223  14.015 -0.5262 -0.6688  0.0199
  856MPD2    C412570   3.335   0.102  13.988  0.3320  0.2609  0.6249
  856MPD2    C512571   3.401   4.705  13.982 -0.5689 -0.1280 -0.3979
  856MPD2     H12572   3.597   0.308  14.027 -0.6837 -0.5798  2.0263
  856MPD2    H112573   3.227   0.107  13.988  0.2711 -1.2650 -0.0154
  856MPD2    H212574   3.590   4.610  13.998 -2.0080 -1.0172  3.6989
  856MPD2    H312575   3.348   4.612  13.963  0.2932 -1.0204  1.5179
  856MPD2     N12576   3.320   0.338  14.038  0.1047  0.2538 -0.7123
  856MPD2    H512577   3.220   0.328  14.051  0.4388 -1.7647  0.3368
  856MPD2    N112578   3.745   0.108  14.021  0.0092  0.3766  0.5292
  856MPD2    H712579   3.791   0.197  14.006  2.0572 -1.0119 -1.5089
  857MPD2     C12580   0.631   2.093  13.043  0.1358  0.7175  0.0599
  857MPD2    C112581   0.687   2.147  12.929  0.0385  0.6013 -0.1961
  857MPD2    C212582   0.763   2.264  12.946 -0.3875  0.2192 -0.1806
  857MPD2    C312583   0.781   2.324  13.064 -0.4679  0.1314 -0.2573
  857MPD2    C412584   0.721   2.274  13.173 -0.5059  0.8176 -0.4943
  857MPD2    C512585   0.650   2.154  13.165  0.0264 -0.3181 -0.2968
  857MPD2     H12586   0.824   2.297  12.863  1.8362  1.7743  2.0620
  857MPD2    H112587   0.730   2.316  13.273 -0.7275  0.3587 -0.2778
  857MPD2    H212588   0.578   1.998  13.040  1.5312 -0.1237  1.7840
  857MPD2    H312589   0.624   2.108  13.259  1.4459  1.4743  0.9817
  857MPD2     N12590   0.848   2.449  13.069  0.0230  0.5121 -0.5929
  857MPD2    H512591   0.878   2.490  12.981  0.9047  0.6151 -0.2462
  857MPD2    N112592   0.678   2.064  12.815  0.2427  0.3199 -0.2242
  857MPD2    H712593   0.622   1.979  12.810  1.8804 -0.7055 -0.9205
  858MPD2     C12594   0.950   1.339  17.003  0.5899 -0.1922 -0.4676
  858MPD2    C112595   1.069   1.377  16.954 -0.3014 -0.3219 -0.1729
  858MPD2    C212596   1.139   1.483  17.022  0.1464 -0.1045 -0.6141
  858MPD2    C312597   1.073   1.553  17.119 -0.3670  0.0252 -0.4714
  858MPD2    C412598   0.944   1.521  17.159  0.7876  0.4260  0.2094
  858MPD2    C512599   0.888   1.411  17.104 -0.0902 -0.1269 -0.3589
  858MPD2     H12600   1.247   1.495  17.012  0.5489 -2.6854  0.4899
  858MPD2    H112601   0.896   1.567  17.244  1.5465  0.2663  0.7265
  858MPD2    H212602   0.896   1.261  16.952 -1.3350  2.1697 -2.0328
  858MPD2    H312603   0.804   1.363  17.152 -0.2123  0.0685 -0.3806
  858MPD2     N12604   1.149   1.644  17.199 -0.2405  0.0167  0.8782
  858MPD2    H512605   1.105   1.692  17.276 -0.5153  0.9694  0.1321
  858MPD2    N112606   1.134   1.297  16.859  0.4084  0.0071  0.6846
  858MPD2    H712607   1.099   1.209  16.823  1.7585 -0.5461  0.7447
  859MPD2     C12608   4.621   3.387  15.375 -0.6941 -0.2685  0.1990
  859MPD2    C112609   0.026   3.372  15.311  0.1877  0.0463 -0.4230
  859MPD2    C212610   0.089   3.248  15.299  0.4104 -0.7456 -0.6193
  859MPD2    C312611   0.020   3.133  15.340 -0.2198  0.3543 -0.4882
  859MPD2    C412612   4.615   3.150  15.395 -0.2665 -0.0926  0.8611
  859MPD2    C512613   4.555   3.273  15.407 -0.1239  0.5867 -0.0340
  859MPD2     H12614   0.186   3.238  15.251  0.9577  0.7926  0.1547
  859MPD2    H112615   4.565   3.062  15.433 -1.0790  0.1059  0.2441
  859MPD2    H212616   4.576   3.486  15.376 -0.2030 -0.0469  0.5470
  859MPD2    H312617   4.460   3.284  15.458  0.5172 -5.3161  2.4425
  859MPD2     N12618   0.067   3.001  15.328  0.2645 -0.1922  0.4702
  859MPD2    H512619   0.019   2.926  15.376  1.8007 -1.4610  0.0343
  859MPD2    N112620   0.070   3.498  15.273 -0.0549  0.0987 -0.0289
  859MPD2    H712621   4.718   3.567  15.284  0.5679  1.0534 -1.7583
  860MPD2     C12622   2.442   3.588  11.255 -0.7324  0.1209 -0.6242
  860MPD2    C112623   2.488   3.665  11.363 -0.3177 -0.2348 -0.6981
  860MPD2    C212624   2.391   3.702  11.458  0.2982  0.8333 -0.0572
  860MPD2    C312625   2.258   3.681  11.443 -0.5413 -0.1772 -0.1113
  860MPD2    C412626   2.218   3.598  11.341 -0.4460  0.0319  0.0467
  860MPD2    C512627   2.308   3.547  11.253 -0.2784 -0.1378 -0.0629
  860MPD2     H12628   2.425   3.748  11.550  2.2544  0.0726 -0.3901
  860MPD2    H112629   2.113   3.577  11.326 -0.5963 -0.4460  1.7303
  860MPD2    H212630   2.511   3.560  11.176  1.9017  3.9406  0.2820
  860MPD2    H312631   2.280   3.466  11.186  1.6584 -1.9784  1.3377
  860MPD2     N12632   2.163   3.714  11.547 -0.3084  0.2672  0.3608
  860MPD2    H512633   2.180   3.796  11.605  0.1572  1.0663 -0.9019
  860MPD2    N112634   2.621   3.701  11.390  0.1306 -0.0250 -0.1344
  860MPD2    H712635   2.642   3.748  11.478 -0.6591 -1.0488  0.6028
  861MPD2     C12636   0.851   2.232  10.822 -0.3747  0.7073 -0.7216
  861MPD2    C112637   0.743   2.159  10.865 -0.1553 -0.3276 -0.0218
  861MPD2    C212638   0.620   2.197  10.817  0.1088 -0.6114 -0.1452
  861MPD2    C312639   0.607   2.294  10.717  0.2473  0.0446 -0.0916
  861MPD2    C412640   0.725   2.345  10.656  0.1801  0.5092 -0.6132
  861MPD2    C512641   0.845   2.309  10.711  0.2387  0.0106  0.3141
  861MPD2     H12642   0.532   2.159  10.868 -1.1562 -0.2226 -2.0580
  861MPD2    H112643   0.719   2.409  10.569  2.2001  0.6941 -0.5981
  861MPD2    H212644   0.943   2.223  10.879 -1.0536  0.6691  0.3523
  861MPD2    H312645   0.940   2.356  10.686  0.1366  0.1469  0.1782
  861MPD2     N12646   0.492   2.350  10.669 -0.8570 -0.1781  0.3407
  861MPD2    H512647   0.496   2.409  10.587 -3.8834 -0.5785 -0.0722
  861MPD2    N112648   0.757   2.063  10.971 -0.0009  0.3752  0.8497
  861MPD2    H712649   0.673   2.018  11.003 -1.4907  2.0248 -0.7520
  862MPD2     C12650   0.145   2.666  10.196  0.3717  0.0575 -0.0043
  862MPD2    C112651   0.250   2.589  10.222 -0.0292 -0.0468 -0.2310
  862MPD2    C212652   0.269   2.473  10.153  0.4625  0.3809  0.3795
  862MPD2    C312653   0.173   2.428  10.055 -0.1618 -0.2035 -0.0462
  862MPD2    C412654   0.067   2.512  10.019 -0.2671 -0.9087  0.2637
  862MPD2    C512655   0.055   2.632  10.087  0.4507  0.2938  0.1071
  862MPD2     H12656   0.350   2.410  10.188  0.0677 -0.8516 -0.8971
  862MPD2    H112657   4.714   2.487   9.944  0.2290 -1.5705 -0.0031
  862MPD2    H212658   0.135   2.765  10.239  0.8368  1.6927 -3.6048
  862MPD2    H312659   4.701   2.699  10.049  0.6042  0.1362 -0.4883
  862MPD2     N12660   0.179   2.298  10.000 -0.5930  0.8500  0.1826
  862MPD2    H512661   0.100   2.261   9.948  1.1351 -1.0472 -1.1219
  862MPD2    N112662   0.332   2.610  10.333  0.7083  0.0422 -0.0795
  862MPD2    H712663   0.394   2.535  10.363  0.7450 -0.0760 -0.4549
  863MPD2     C12664   4.196   0.343  17.205 -0.2839  0.4434 -0.4244
  863MPD2    C112665   4.302   0.339  17.114 -0.4295 -1.2343 -1.1411
  863MPD2    C212666   4.431   0.312  17.156  0.4922 -0.1322  0.2884
  863MPD2    C312667   4.455   0.278  17.291  0.0225 -1.2829 -0.3680
  863MPD2    C412668   4.348   0.282  17.381  0.7251 -0.6910 -0.6155
  863MPD2    C512669   4.214   0.311  17.336  0.8365 -0.1144 -0.6241
  863MPD2     H12670   4.515   0.313  17.087 -0.7377 -0.8805 -1.2373
  863MPD2    H112671   4.360   0.256  17.486  1.5762 -0.1370 -0.5708
  863MPD2    H212672   4.101   0.374  17.163 -1.1227  1.0624  1.9605
  863MPD2    H312673   4.130   0.324  17.403  2.0142  0.6109  0.6944
  863MPD2     N12674   4.588   0.254  17.343 -0.1649 -0.4594 -0.6359
  863MPD2    H512675   4.599   0.236  17.442  1.7196  0.4462 -0.6685
  863MPD2    N112676   4.272   0.371  16.980 -1.3672  0.4237 -0.1583
  863MPD2    H712677   4.178   0.403  16.961 -1.5891  0.9412  1.8275
  864MPD2     C12678   0.279   1.344  17.392 -0.0703 -0.4970  0.3998
  864MPD2    C112679   0.369   1.313  17.291 -0.8855  0.3603 -0.1529
  864MPD2    C212680   0.414   1.417  17.215 -0.3902 -0.5668 -0.0692
  864MPD2    C312681   0.385   1.548  17.245  0.3591 -0.2176  0.2456
  864MPD2    C412682   0.302   1.575  17.353 -0.4663  0.1489  0.7556
  864MPD2    C512683   0.249   1.473  17.425  0.0862 -0.6854  0.1039
  864MPD2     H12684   0.463   1.395  17.121 -2.0156 -1.4919 -0.6938
  864MPD2    H112685   0.285   1.679  17.381  1.8283  0.4692  0.9796
  864MPD2    H212686   0.246   1.267  17.461  0.7592 -0.0495  1.3117
  864MPD2    H312687   0.184   1.490  17.510 -2.1853 -1.2888 -1.4984
  864MPD2     N12688   0.429   1.656  17.166  0.2097 -0.2955  0.1497
  864MPD2    H512689   0.395   1.750  17.185 -1.7504 -1.3259  1.7603
  864MPD2    N112690   0.397   1.175  17.265  0.0568 -0.2639 -0.3405
  864MPD2    H712691   0.330   1.106  17.298 -0.2213  0.5022  0.6776
  865MPD2     C12692   0.497   2.016  16.246 -1.1951  0.4159 -0.4902
  865MPD2    C112693   0.503   1.897  16.314 -0.3236 -0.0336  0.3718
  865MPD2    C212694   0.478   1.905  16.453 -0.2421  0.0044 -0.4694
  865MPD2    C312695   0.453   2.023  16.514  0.2545 -0.0945 -1.0901
  865MPD2    C412696   0.441   2.141  16.444  0.4007  0.4699 -0.4464
  865MPD2    C512697   0.456   2.132  16.309  0.4309 -0.3251  0.3738
  865MPD2     H12698   0.485   1.809  16.502  0.8540  0.5022  0.3466
  865MPD2    H112699   0.424   2.235  16.495  0.8887 -1.0045  2.4112
  865MPD2    H212700   0.530   2.022  16.143  1.3615 -1.7189  0.2171
  865MPD2    H312701   0.465   2.215  16.241  1.4871 -0.0395  0.8552
  865MPD2     N12702   0.442   2.029  16.656  0.2447  0.4285 -0.0384
  865MPD2    H512703   0.451   2.120  16.698 -2.4804 -1.0709  3.7932
  865MPD2    N112704   0.546   1.780  16.245 -0.3971 -0.1639 -0.2296
  865MPD2    H712705   0.576   1.789  16.149 -0.8792 -0.2149 -0.3867
  866MPD2     C12706   1.339   3.186  11.359 -0.5914  0.5410 -0.6310
  866MPD2    C112707   1.395   3.087  11.276  0.6181 -0.5353 -0.5620
  866MPD2    C212708   1.314   3.009  11.184 -0.2653  0.8773 -0.3400
  866MPD2    C312709   1.177   3.029  11.180 -0.9872 -0.1383  0.3354
  866MPD2    C412710   1.121   3.128  11.266 -0.8377  0.1013 -0.0643
  866MPD2    C512711   1.199   3.194  11.353 -0.3289  0.8648 -0.1636
  866MPD2     H12712   1.355   2.933  11.119  1.0738  1.4096 -0.1197
  866MPD2    H112713   1.013   3.138  11.279 -0.4468  0.0891  3.0530
  866MPD2    H212714   1.379   3.242  11.442  1.0029 -2.1393  0.4014
  866MPD2    H312715   1.153   3.260  11.426 -0.6970  2.8209 -2.1726
  866MPD2     N12716   1.095   2.945  11.104 -0.3300  0.9772 -0.3646
  866MPD2    H512717   0.995   2.942  11.121 -0.3015  1.5377 -0.1115
  866MPD2    N112718   1.531   3.063  11.304  0.0042 -0.0068  0.7775
  866MPD2    H712719   1.571   3.108  11.385  1.8788  0.8473 -0.6186
  867MPD2     C12720   4.352   1.697  16.858 -0.4430 -0.2903 -0.3344
  867MPD2    C112721   4.431   1.712  16.973  0.1744 -0.2904  0.1419
  867MPD2    C212722   4.441   1.839  17.037 -0.4421 -0.2608 -0.2166
  867MPD2    C312723   4.363   1.941  16.993 -0.6348 -0.1641  0.1343
  867MPD2    C412724   4.286   1.929  16.884  0.6140  0.3269  0.3988
  867MPD2    C512725   4.281   1.810  16.814 -0.4532  0.1462  0.8058
  867MPD2     H12726   4.504   1.851  17.124 -1.1764  0.4732  0.2185
  867MPD2    H112727   4.216   2.005  16.852 -0.4104 -0.1960  1.3991
  867MPD2    H212728   4.351   1.603  16.803  0.5602  0.4552 -1.6502
  867MPD2    H312729   4.207   1.803  16.735 -0.4255  3.4099  0.5267
  867MPD2     N12730   4.358   2.067  17.053  0.7102  0.1351  0.2637
  867MPD2    H512731   4.293   2.139  17.022 -1.5854 -0.6510  3.3558
  867MPD2    N112732   4.506   1.601  17.014 -0.2375  0.1760  0.0441
  867MPD2    H712733   4.494   1.518  16.958  0.5713 -0.1908  0.4203
  868MPD2     C12734   0.902   0.823  13.046 -0.1017  0.3124  0.1051
  868MPD2    C112735   0.936   0.730  13.148 -0.3328 -0.0773 -0.0960
  868MPD2    C212736   0.840   0.711  13.248  0.1846  0.1779  0.1483
  868MPD2    C312737   0.728   0.780  13.242  0.1259 -0.2921  0.0503
  868MPD2    C412738   0.702   0.879  13.146  1.0694 -0.0157 -0.0691
  868MPD2    C512739   0.793   0.904  13.056 -0.2296  0.1935  1.2781
  868MPD2     H12740   0.855   0.640  13.329  1.4764 -1.0601 -1.1858
  868MPD2    H112741   0.620   0.948  13.159  2.0122  1.3158 -1.1968
  868MPD2    H212742   0.964   0.835  12.958 -0.8736 -0.2173 -0.5108
  868MPD2    H312743   0.775   0.983  12.984 -1.2001  0.1354  1.4562
  868MPD2     N12744   0.642   0.762  13.353  0.3155 -0.6456  0.6391
  868MPD2    H512745   0.677   0.710  13.433  1.2646  0.2547  0.8052
  868MPD2    N112746   1.058   0.663  13.143  0.2051  0.0952 -0.3041
  868MPD2    H712747   1.109   0.694  13.061  0.7507  0.9788  0.3761
  869MPD2     C12748   2.967   3.569   1.073 -0.6095  0.3552 -0.0104
  869MPD2    C112749   2.972   3.490   0.962 -0.6007  0.6164  0.5053
  869MPD2    C212750   2.874   3.497   0.864 -0.0006 -0.1325  0.2767
  869MPD2    C312751   2.764   3.581   0.872 -0.1029  0.5568  0.2433
  869MPD2    C412752   2.763   3.668   0.984 -0.0666  0.4927 -0.2339
  869MPD2    C512753   2.858   3.654   1.079 -0.5314 -0.4321  0.4027
  869MPD2     H12754   2.872   3.414   0.795 -0.9824  0.2198 -0.1165
  869MPD2    H112755   2.679   3.736   0.998  0.6045  1.5726 -1.4096
  869MPD2    H212756   3.017   3.553   1.167 -1.1258 -1.7585 -0.0975
  869MPD2    H312757   2.866   3.714   1.168 -0.8158  0.6211 -0.2815
  869MPD2     N12758   2.660   3.584   0.776  0.1624 -0.3494 -0.3080
  869MPD2    H512759   2.576   3.640   0.789  1.2350  0.8858  1.2537
  869MPD2    N112760   3.065   3.380   0.963 -0.5281 -0.0352 -0.7235
  869MPD2    H712761   3.120   3.372   1.048 -0.8505 -2.2096 -0.7229
  870MPD2     C12762   2.867   2.286   1.542 -0.3272  0.0924 -0.2045
  870MPD2    C112763   2.734   2.249   1.543 -0.3158  0.7480 -0.0002
  870MPD2    C212764   2.631   2.343   1.547 -0.0377  0.0898 -0.6084
  870MPD2    C312765   2.660   2.481   1.551 -0.4926  0.2451 -0.3548
  870MPD2    C412766   2.793   2.514   1.553 -0.4756  0.0920  0.3503
  870MPD2    C512767   2.900   2.417   1.554 -0.5554 -0.2303 -0.1190
  870MPD2     H12768   2.530   2.313   1.572 -0.4802  0.3363 -2.1395
  870MPD2    H112769   2.828   2.617   1.546  1.2140 -0.4437  1.0422
  870MPD2    H212770   2.951   2.218   1.528 -1.9172 -2.2267  1.5589
  870MPD2    H312771   3.001   2.455   1.546 -0.5529 -0.1531  0.2806
  870MPD2     N12772   2.557   2.570   1.549  0.0786  0.4582  0.8422
  870MPD2    H512773   2.462   2.533   1.543  0.0145  0.5948  1.0336
  870MPD2    N112774   2.712   2.105   1.532  0.4447  0.3495  0.0500
  870MPD2    H712775   2.791   2.043   1.542 -0.7032 -0.8261  1.7920
  871MPD2     C12776   2.811   2.116  16.327  0.4482  0.0968  0.5924
  871MPD2    C112777   2.777   2.032  16.426 -0.0596  0.2942 -0.8372
  871MPD2    C212778   2.786   1.896  16.408  0.5958  0.0601  0.2664
  871MPD2    C312779   2.847   1.854  16.291  0.2885  0.3754 -0.3682
  871MPD2    C412780   2.875   1.942  16.187 -0.3713 -0.7578  0.1788
  871MPD2    C512781   2.855   2.074  16.208 -0.4294 -0.6447 -0.4943
  871MPD2     H12782   2.766   1.825  16.488 -1.2848 -0.2628 -0.4950
  871MPD2    H112783   2.905   1.910  16.088 -0.6110 -1.5794  0.3707
  871MPD2    H212784   2.792   2.222  16.330 -0.1264  0.0342 -1.1312
  871MPD2    H312785   2.878   2.146  16.131  0.5236 -0.0516  0.3451
  871MPD2     N12786   2.872   1.720  16.276 -0.1443 -0.3555 -0.3402
  871MPD2    H512787   2.843   1.655  16.349  1.6456  1.4405  1.9651
  871MPD2    N112788   2.726   2.092  16.546 -0.4709 -0.3246 -0.1324
  871MPD2    H712789   2.723   2.194  16.552  1.1312 -0.3428  0.8834
  872MPD2     C12790   3.347   4.439  13.755  0.0485 -0.0594  0.7297
  872MPD2    C112791   3.427   4.364  13.840  0.1905  0.1169  0.0830
  872MPD2    C212792   3.370   4.306  13.952 -0.4362  0.2078  0.1617
  872MPD2    C312793   3.233   4.309  13.971 -0.9671 -0.1391  0.7350
  872MPD2    C412794   3.156   4.380  13.877  0.5161 -0.1065  0.1014
  872MPD2    C512795   3.212   4.444  13.771  0.6626  0.4188  0.1857
  872MPD2     H12796   3.443   4.259  14.017  1.7586  0.2000 -2.3081
  872MPD2    H112797   3.050   4.395  13.894  1.0491  1.4568  1.9995
  872MPD2    H212798   3.387   4.481  13.663 -0.9412  0.9000  0.7285
  872MPD2    H312799   3.141   4.495  13.708  0.9581 -0.8793 -1.1961
  872MPD2     N12800   3.161   4.256  14.081 -0.1031 -0.0897  0.4708
  872MPD2    H512801   3.062   4.273  14.088 -0.3540 -0.6180 -1.7236
  872MPD2    N112802   3.562   4.348  13.830  0.7107  0.2299  0.1107
  872MPD2    H712803   3.600   4.270  13.883 -1.4114 -0.1615  1.0264
  873MPD2     C12804   0.664   3.906   0.837 -0.6472  0.6952  0.5885
  873MPD2    C112805   0.559   3.910   0.922 -0.1497 -0.3861 -0.4862
  873MPD2    C212806   0.478   3.799   0.942 -0.3051  0.4584 -0.3568
  873MPD2    C312807   0.507   3.677   0.881 -0.3143  0.2201 -0.1442
  873MPD2    C412808   0.604   3.674   0.776 -0.1574 -0.2499 -0.0251
  873MPD2    C512809   0.681   3.789   0.759 -0.8628 -0.7547  0.5491
  873MPD2     H12810   0.413   3.790   1.028  2.4729 -1.4839  1.5771
  873MPD2    H112811   0.631   3.588   0.715  1.4291  2.2458 -2.8752
  873MPD2    H212812   0.731   3.989   0.819 -0.2824 -0.1251 -1.8879
  873MPD2    H312813   0.761   3.782   0.687 -0.1877  2.6653  0.9394
  873MPD2     N12814   0.452   3.565   0.937 -0.4678  0.2627 -0.1222
  873MPD2    H512815   0.378   3.573   1.005 -1.2663  0.0510 -0.9618
  873MPD2    N112816   0.551   4.021   1.014 -0.5119 -0.1201  0.2156
  873MPD2    H712817   0.632   4.080   1.026  1.6360 -2.7196 -1.4547
  874MPD2     C12818   0.083   4.275  16.005 -0.2821  1.0534  0.3054
  874MPD2    C112819   0.122   4.199  16.112  0.1420 -0.5969  0.0731
  874MPD2    C212820   0.250   4.205  16.153  0.0707 -0.1375  0.2285
  874MPD2    C312821   0.346   4.282  16.091 -0.1930  0.0730  0.4114
  874MPD2    C412822   0.305   4.351  15.969  0.0767 -0.0210  0.1079
  874MPD2    C512823   0.175   4.345  15.934  0.1137  0.3598  0.0264
  874MPD2     H12824   0.287   4.155  16.243 -0.3976 -0.1216  0.4281
  874MPD2    H112825   0.379   4.392  15.900  0.1663 -0.3992 -0.0205
  874MPD2    H212826   4.700   4.260  15.982 -0.7403 -0.1144  3.1814
  874MPD2    H312827   0.147   4.397  15.843  1.4036 -0.3254 -0.7710
  874MPD2     N12828   0.470   4.281  16.146  0.0650  0.6016 -0.2931
  874MPD2    H512829   0.481   4.222  16.227 -0.4221  1.5156  0.4400
  874MPD2    N112830   0.028   4.124  16.185 -0.2530  0.3516 -0.6718
  874MPD2    H712831   4.650   4.139  16.172 -0.3359  1.6035  1.4122
  875MPD2     C12832   1.813   2.660  14.497  0.2047 -0.2001  0.5838
  875MPD2    C112833   1.713   2.681  14.588  0.2629 -0.2272 -0.1296
  875MPD2    C212834   1.747   2.702  14.718 -0.2708 -0.3980  0.2317
  875MPD2    C312835   1.873   2.718  14.765 -0.3089  0.7583  0.0178
  875MPD2    C412836   1.976   2.691  14.672 -0.8595 -0.5965 -0.8459
  875MPD2    C512837   1.946   2.663  14.539  0.5862  0.7660 -0.2248
  875MPD2     H12838   1.663   2.718  14.785 -1.0855 -0.6322 -0.7294
  875MPD2    H112839   2.076   2.726  14.694 -0.3400 -2.0950 -0.8312
  875MPD2    H212840   1.803   2.644  14.390 -0.1158 -0.2461  0.6211
  875MPD2    H312841   2.028   2.665  14.468  0.5303 -0.9206 -0.3537
  875MPD2     N12842   1.905   2.763  14.902  0.8015 -0.2856 -0.7736
  875MPD2    H512843   1.995   2.808  14.913  0.4959  0.4638 -1.3370
  875MPD2    N112844   1.570   2.666  14.565 -0.0237 -0.4722 -0.2818
  875MPD2    H712845   1.509   2.667  14.646  0.4568  2.3896  0.0388
  876MPD2     C12846   4.701   3.855  15.929  0.4833 -0.2269  1.0143
  876MPD2    C112847   0.112   3.842  15.898 -0.4317  0.3959 -0.7890
  876MPD2    C212848   0.165   3.710  15.904 -0.6118 -0.7398  1.6121
  876MPD2    C312849   0.092   3.608  15.959 -0.4388 -0.8613  0.2613
  876MPD2    C412850   4.685   3.629  15.997  0.1201 -0.2256 -0.1568
  876MPD2    C512851   4.628   3.751  15.979  0.2051 -0.1491 -0.0811
  876MPD2     H12852   0.271   3.702  15.883 -0.9820 -0.4464 -0.3757
  876MPD2    H112853   4.633   3.550  16.050 -1.1848  0.4609 -0.3979
  876MPD2    H212854   4.638   3.944  15.922  0.0256 -0.6311  0.1028
  876MPD2    H312855   4.520   3.759  15.989  0.1533 -0.8580 -0.1311
  876MPD2     N12856   0.144   3.475  15.985 -0.0744 -0.4379 -0.6173
  876MPD2    H512857   0.080   3.407  16.024  1.1567  0.2415  2.5890
  876MPD2    N112858   0.188   3.952  15.846 -0.2119  0.5924 -0.4199
  876MPD2    H712859   0.140   4.029  15.801  0.1268 -0.0673 -1.9075
  877MPD2     C12860   0.237   4.297  15.190 -0.0311 -0.2413 -0.2029
  877MPD2    C112861   0.367   4.319  15.234 -0.1439 -0.4347  0.1328
  877MPD2    C212862   0.463   4.368  15.148 -0.5947  0.3037  0.6058
  877MPD2    C312863   0.431   4.400  15.017  0.2837  0.9088 -0.2159
  877MPD2    C412864   0.302   4.381  14.980  0.8948  0.6994 -0.6927
  877MPD2    C512865   0.206   4.331  15.060  0.8258 -0.3526  0.6949
  877MPD2     H12866   0.565   4.390  15.176 -0.2858 -1.0165  0.4956
  877MPD2    H112867   0.273   4.414  14.881 -1.9047 -0.6852 -0.3247
  877MPD2    H212868   0.151   4.257  15.244  0.2461 -1.0986 -0.3990
  877MPD2    H312869   0.109   4.314  15.015  0.1655  2.7021  0.9761
  877MPD2     N12870   0.530   4.454  14.928 -0.2052  0.8308 -0.0552
  877MPD2    H512871   0.496   4.491  14.840  0.2946  0.8935 -0.2231
  877MPD2    N112872   0.408   4.278  15.363  0.8162 -0.2658  0.1150
  877MPD2    H712873   0.507   4.291  15.382  1.0665 -1.8109 -0.1760
  878MPD2     C12874   0.613   3.602  12.979 -0.8119 -0.6160  0.1542
  878MPD2    C112875   0.628   3.732  13.028  0.2462 -0.2202 -0.6182
  878MPD2    C212876   0.663   3.747  13.160 -0.6089  0.9455  0.3289
  878MPD2    C312877   0.695   3.636  13.239 -0.7851 -0.1229  0.4173
  878MPD2    C412878   0.672   3.507  13.196  0.1980  0.5844 -0.3608
  878MPD2    C512879   0.635   3.490  13.063  0.7774  0.0200  0.4299
  878MPD2     H12880   0.679   3.849  13.193  0.7887  1.1122 -0.8801
  878MPD2    H112881   0.717   3.425  13.252 -0.5727 -0.2532 -0.9720
  878MPD2    H212882   0.579   3.573  12.880  4.3830 -2.0918 -1.1868
  878MPD2    H312883   0.622   3.395  13.013 -2.6378  0.3209  0.7139
  878MPD2     N12884   0.765   3.652  13.364  0.5271  0.2113 -0.5950
  878MPD2    H512885   0.799   3.570  13.413  2.0770  0.5034 -1.1719
  878MPD2    N112886   0.586   3.830  12.938  0.3364  0.8464  0.1282
  878MPD2    H712887   0.569   3.809  12.840 -0.9814 -0.7713  0.6992
  879MPD2     C12888   0.942   0.326  17.103 -0.1557 -0.7330  0.2740
  879MPD2    C112889   0.873   0.262  17.202  0.2955 -0.1629  0.7127
  879MPD2    C212890   0.769   0.177  17.185  0.4046 -0.0333  0.2224
  879MPD2    C312891   0.716   0.169  17.058 -0.5830 -0.5967  0.5609
  879MPD2    C412892   0.776   0.241  16.962  0.4506  0.1835  0.3135
  879MPD2    C512893   0.891   0.312  16.976  0.1433 -0.7184 -0.2009
  879MPD2     H12894   0.715   0.140  17.272  0.9988  0.4156  0.7874
  879MPD2    H112895   0.742   0.234  16.859  0.7875 -0.0419  0.2197
  879MPD2    H212896   1.033   0.383  17.119 -0.0792 -0.4724 -1.0865
  879MPD2    H312897   0.936   0.357  16.889 -1.4009 -0.8891 -1.0806
  879MPD2     N12898   0.605   0.091  17.023 -0.7712 -0.6141  0.1859
  879MPD2    H512899   0.580   0.093  16.925  0.7200 -0.1977 -0.1843
  879MPD2    N112900   0.935   0.275  17.325 -0.3777 -0.3541  0.3517
  879MPD2    H712901   1.021   0.331  17.327  0.9041 -2.3157 -0.2978
  880MPD2     C12902   1.827   1.950   1.080  0.4003  0.8653 -0.1802
  880MPD2    C112903   1.857   1.960   0.938  0.0511 -0.4989 -0.1916
  880MPD2    C212904   1.909   1.847   0.878  0.0163 -0.5057  0.0544
  880MPD2    C312905   1.913   1.725   0.948  0.6737  0.1063  0.4746
  880MPD2    C412906   1.866   1.724   1.075  0.3702  0.3613  0.7890
  880MPD2    C512907   1.838   1.835   1.151  0.3667  0.4009  0.3297
  880MPD2     H12908   1.959   1.859   0.783 -1.5847  2.9121 -0.3849
  880MPD2    H112909   1.891   1.631   1.125 -0.7267 -0.0181  0.6094
  880MPD2    H212910   1.820   2.045   1.131  2.1299  0.5496  0.6742
  880MPD2    H312911   1.825   1.829   1.258 -3.5607 -3.2246 -0.3300
  880MPD2     N12912   1.988   1.617   0.901  0.6036  0.2642  0.4888
  880MPD2    H512913   2.003   1.536   0.960  3.3581 -1.2325 -2.2574
  880MPD2    N112914   1.850   2.090   0.878 -0.3748 -0.2013 -0.3060
  880MPD2    H712915   1.826   2.165   0.943 -0.0784 -0.0828 -0.3354
  881MPD2     C12916   1.706   2.812   0.076  0.1038 -0.0902 -0.7943
  881MPD2    C112917   1.755   2.679   0.061  0.0525  0.3725 -0.3780
  881MPD2    C212918   1.812   2.615   0.165 -0.6921  0.3747  0.2855
  881MPD2    C312919   1.827   2.674   0.291 -1.5029  0.3479 -0.3306
  881MPD2    C412920   1.790   2.803   0.306 -0.1114  0.4652 -0.0070
  881MPD2    C512921   1.733   2.870   0.200 -0.0253  0.3794  0.0599
  881MPD2     H12922   1.862   2.520   0.150  1.2793  1.0726  2.3225
  881MPD2    H112923   1.799   2.859   0.399 -1.0734  0.4023  0.1222
  881MPD2    H212924   1.672   2.881  17.690  1.5670 -0.6102 -1.9120
  881MPD2    H312925   1.699   2.973   0.205  3.3173  1.5981 -2.2757
  881MPD2     N12926   1.851   2.600   0.406 -0.5790  0.7307  0.0402
  881MPD2    H512927   1.857   2.661   0.487 -0.9178  1.6632 -0.6295
  881MPD2    N112928   1.774   2.651  17.613  0.2562  0.0636  0.2488
  881MPD2    H712929   1.719   2.712  17.553  0.7489 -1.0292 -1.3237
  882MPD2     C12930   0.462   4.386  14.155  0.3733  0.4297  0.1324
  882MPD2    C112931   0.436   4.395  14.294 -0.0318  0.1471 -0.7929
  882MPD2    C212932   0.307   4.384  14.337 -0.0504  0.5835 -0.6110
  882MPD2    C312933   0.208   4.380  14.241  0.0127 -1.0594 -0.6992
  882MPD2    C412934   0.236   4.379  14.102 -0.1353 -0.2180  0.7462
  882MPD2    C512935   0.365   4.368  14.062 -0.6483 -0.4160 -0.5791
  882MPD2     H12936   0.285   4.379  14.443 -0.8925 -1.4642 -0.8822
  882MPD2    H112937   0.160   4.378  14.025  0.1701 -0.2632  0.4467
  882MPD2    H212938   0.565   4.386  14.121  0.2110  2.7364 -0.4030
  882MPD2    H312939   0.387   4.357  13.956 -0.9674 -3.8927 -0.2864
  882MPD2     N12940   0.075   4.393  14.275 -0.1985 -0.5703 -0.1807
  882MPD2    H512941   0.007   4.400  14.200  0.7955 -0.2120 -1.0540
  882MPD2    N112942   0.542   4.426  14.386 -0.0156  0.1587  0.1017
  882MPD2    H712943   0.634   4.430  14.343 -0.1521 -1.1752 -0.3065
  883MPD2     C12944   2.259   4.367  16.199  0.8548  0.5498 -0.2245
  883MPD2    C112945   2.366   4.385  16.114  0.3357 -0.0942 -0.7491
  883MPD2    C212946   2.473   4.461  16.155 -0.0399  0.1653  0.3533
  883MPD2    C312947   2.483   4.485  16.294 -0.1235 -0.0709 -0.6300
  883MPD2    C412948   2.378   4.458  16.374  1.2543  0.5160 -0.0383
  883MPD2    C512949   2.262   4.395  16.330  0.0563  0.8111 -0.4945
  883MPD2     H12950   2.561   4.470  16.092 -0.0117  1.3841  0.5684
  883MPD2    H112951   2.381   4.479  16.480 -2.1377 -3.5244  0.8494
  883MPD2    H212952   2.172   4.311  16.166  0.8353  0.5142 -0.1135
  883MPD2    H312953   2.177   4.376  16.394  0.0354  3.8044  0.3429
  883MPD2     N12954   2.593   4.551  16.340  0.2886  0.1895 -0.3521
  883MPD2    H512955   2.659   4.598  16.278  1.1212 -0.7863 -0.2234
  883MPD2    N112956   2.355   4.346  15.977  0.2280 -0.2036  0.4243
  883MPD2    H712957   2.411   4.389  15.904  1.4766 -2.2912  0.1625
  884MPD2     C12958   3.937   0.069  15.412 -0.0766 -0.4208  0.4033
  884MPD2    C112959   3.934   0.205  15.380 -0.0800  0.1551  0.3418
  884MPD2    C212960   3.820   0.284  15.407  0.4594 -0.7652 -0.0368
  884MPD2    C312961   3.705   0.229  15.453 -0.0368  1.0522  0.4017
  884MPD2    C412962   3.705   0.092  15.475 -0.5472 -0.8301  0.4390
  884MPD2    C512963   3.824   0.019  15.469  0.2265  0.5735  0.6068
  884MPD2     H12964   3.818   0.388  15.374  1.5091 -0.4078  1.0100
  884MPD2    H112965   3.620   0.033  15.509 -0.9291  0.0881  1.0855
  884MPD2    H212966   4.021   0.001  15.408  0.8072  0.7893 -1.6259
  884MPD2    H312967   3.824   4.635  15.489  1.5726  0.3405 -0.6821
  884MPD2     N12968   3.589   0.307  15.458  0.0996 -0.2877  0.0392
  884MPD2    H512969   3.596   0.397  15.412  1.0515  0.2458  1.2371
  884MPD2    N112970   4.041   0.269  15.319 -0.3672 -0.4221 -0.2731
  884MPD2    H712971   4.049   0.370  15.324 -1.4808 -0.4501  2.0363
  885MPD2     C12972   2.288   0.222  17.479  0.2384  0.1146 -0.2022
  885MPD2    C112973   2.379   0.325  17.488  0.3513 -0.2599 -0.3656
  885MPD2    C212974   2.404   0.417  17.389  0.5705 -0.3662  0.2895
  885MPD2    C312975   2.339   0.400  17.266  0.6294  0.2695  0.0052
  885MPD2    C412976   2.243   0.297  17.254  0.1302  0.0957  0.0195
  885MPD2    C512977   2.220   0.212  17.357 -0.0922  0.1645 -0.0681
  885MPD2     H12978   2.478   0.494  17.408  1.1402 -0.9242  0.3594
  885MPD2    H112979   2.183   0.282  17.165 -1.4317  2.9613  0.6158
  885MPD2    H212980   2.272   0.143  17.551 -0.5234 -0.0350 -0.5347
  885MPD2    H312981   2.144   0.137  17.341  0.6783 -0.5950 -0.1746
  885MPD2     N12982   2.362   0.500  17.165  0.0549 -0.2843  0.2301
  885MPD2    H512983   2.431   0.572  17.185 -1.0365  1.0754 -0.8288
  885MPD2    N112984   2.456   0.313  17.604  0.0400 -0.0489 -0.3693
  885MPD2    H712985   2.444   0.230  17.661  0.0307 -0.8469 -1.5396
  886MPD2     C12986   3.578   3.457  15.319 -0.1815  1.0445 -0.3951
  886MPD2    C112987   3.702   3.490  15.367  0.3900  0.4327 -0.3634
  886MPD2    C212988   3.745   3.624  15.369  0.1278 -1.2525 -0.2930
  886MPD2    C312989   3.675   3.719  15.298 -0.8545 -0.3850 -0.8699
  886MPD2    C412990   3.550   3.688  15.256  0.1271  0.1689 -0.5663
  886MPD2    C512991   3.505   3.562  15.272 -0.4181 -0.6943 -0.4387
  886MPD2     H12992   3.838   3.648  15.418 -0.3779 -1.2089  0.6457
  886MPD2    H112993   3.484   3.747  15.194  1.9165  0.4563 -2.2275
  886MPD2    H212994   3.521   3.366  15.332  1.3929  0.0925 -0.1202
  886MPD2    H312995   3.411   3.539  15.225 -1.4365 -1.3205  1.8999
  886MPD2     N12996   3.720   3.848  15.267  0.5196  0.2529 -0.3363
  886MPD2    H512997   3.667   3.901  15.198  1.6608 -1.0094 -2.1921
  886MPD2    N112998   3.795   3.393  15.432 -0.6138 -0.2723 -0.2807
  886MPD2    H712999   3.884   3.432  15.462 -1.5152  1.9309 -0.4315
  887MPD2     C13000   4.265   3.402  16.011 -0.0797 -0.5948 -0.5722
  887MPD2    C113001   4.151   3.439  15.938  0.1019 -0.2887  0.6766
  887MPD2    C213002   4.113   3.563  15.934  0.3066 -0.6107 -0.1051
  887MPD2    C313003   4.177   3.663  16.000 -0.9107 -0.7162 -0.7305
  887MPD2    C413004   4.295   3.633  16.071 -0.2810  0.2187 -0.5008
  887MPD2    C513005   4.334   3.502  16.078 -0.4861  0.1705  0.3446
  887MPD2     H13006   4.028   3.586  15.869  0.1224 -1.4254 -0.1489
  887MPD2    H113007   4.341   3.708  16.135 -0.2490 -1.9801  2.0675
  887MPD2    H213008   4.308   3.302  16.010  0.7246 -0.2628  0.1019
  887MPD2    H313009   4.415   3.480  16.146  0.1269  2.8110  0.4632
  887MPD2     N13010   4.114   3.787  15.993  0.6231  0.1686  0.0980
  887MPD2    H513011   4.020   3.805  15.959  1.0086 -0.1492 -1.1495
  887MPD2    N113012   4.075   3.359  15.850  0.6890  0.3887  0.2994
  887MPD2    H713013   3.995   3.410  15.814  0.7891 -1.4652 -2.5942
  888MPD2     C13014   1.788   3.557  15.354 -0.7155  0.1815 -0.1512
  888MPD2    C113015   1.767   3.629  15.472 -0.4168  0.0344 -0.1786
  888MPD2    C213016   1.792   3.764  15.467 -0.2193 -0.2177  1.0292
  888MPD2    C313017   1.846   3.830  15.354 -0.4927 -0.4881 -0.5182
  888MPD2    C413018   1.873   3.758  15.239  0.2420  0.5710 -0.1663
  888MPD2    C513019   1.836   3.620  15.239  0.3617  0.0251 -0.0299
  888MPD2     H13020   1.764   3.822  15.554  0.0063  2.8627 -0.9481
  888MPD2    H113021   1.906   3.807  15.148  1.7814  0.5791  0.3961
  888MPD2    H213022   1.782   3.449  15.344  1.8319  0.2707 -2.7019
  888MPD2    H313023   1.843   3.577  15.140 -1.2888 -0.9965  0.2795
  888MPD2     N13024   1.876   3.970  15.361 -0.0784  0.2208 -0.3799
  888MPD2    H513025   1.835   4.018  15.440 -1.0089  1.0515 -1.3724
  888MPD2    N113026   1.729   3.570  15.600  0.1546 -1.1693  0.0805
  888MPD2    H713027   1.733   3.620  15.689 -1.2171  1.8799 -1.5853
  889MPD2     C13028   0.828   3.143  12.733 -0.8903  0.3615  0.9812
  889MPD2    C113029   0.901   3.158  12.857 -0.3933  0.2359 -0.5322
  889MPD2    C213030   0.952   3.286  12.890  0.8720 -0.2573  0.1397
  889MPD2    C313031   0.899   3.395  12.829 -0.4170  0.4043  0.2411
  889MPD2    C413032   0.812   3.384  12.725 -0.5858  0.0934  0.2920
  889MPD2    C513033   0.780   3.260  12.678  0.2106 -0.1733  0.0689
  889MPD2     H13034   1.004   3.301  12.983 -1.3261  0.0107  1.3221
  889MPD2    H113035   0.757   3.468  12.685  0.6175  1.4596  1.5365
  889MPD2    H213036   0.784   3.049  12.702 -0.7641  0.5995  0.0704
  889MPD2    H313037   0.698   3.252  12.608 -0.3069  0.9806  0.5375
  889MPD2     N13038   0.944   3.517  12.871  0.6134  0.0097  0.2362
  889MPD2    H513039   1.016   3.506  12.942  2.1172 -1.4497 -1.5286
  889MPD2    N113040   0.951   3.044  12.931  0.1871 -0.3146  0.3279
  889MPD2    H713041   1.008   3.064  13.013  0.9152  0.7376 -0.4470
  890MPD2     C13042   4.693   0.329  14.785  0.8327  0.3064 -0.0081
  890MPD2    C113043   0.091   0.353  14.852 -0.3115  0.4287 -0.4077
  890MPD2    C213044   0.120   0.267  14.956  0.1920  0.5755  0.0643
  890MPD2    C313045   0.040   0.155  14.985 -0.5686 -0.0758  0.1632
  890MPD2    C413046   4.642   0.142  14.922 -0.7743  0.2860  0.2632
  890MPD2    C513047   4.610   0.227  14.820 -0.0205  0.2525 -0.6575
  890MPD2     H13048   0.212   0.282  15.011 -0.8444  0.6513  1.7695
  890MPD2    H113049   4.571   0.061  14.932  2.3453 -2.5323 -0.7072
  890MPD2    H213050   4.667   0.401  14.708 -0.4697 -0.8148 -0.6256
  890MPD2    H313051   4.517   0.222  14.766  0.2410  1.9479 -1.2884
  890MPD2     N13052   0.097   0.071  15.086 -0.3163 -0.1967  0.5393
  890MPD2    H513053   0.176   0.097  15.144  2.0815  3.0219 -4.2036
  890MPD2    N113054   0.180   0.452  14.801 -0.7490 -0.0165  0.2568
  890MPD2    H713055   0.143   0.509  14.725  2.1952  0.9501 -0.4312
  891MPD2     C13056   3.261   3.467  16.774 -0.3490 -0.2763 -0.6674
  891MPD2    C113057   3.152   3.388  16.817  0.1608 -0.2609  0.1567
  891MPD2    C213058   3.176   3.294  16.918 -0.7346 -0.3658 -0.6402
  891MPD2    C313059   3.303   3.273  16.960  0.6111  0.0628 -0.2261
  891MPD2    C413060   3.408   3.348  16.909  1.3037  0.1063 -0.6893
  891MPD2    C513061   3.389   3.442  16.817 -0.0015 -0.0488 -0.4794
  891MPD2     H13062   3.092   3.241  16.962 -0.7437  0.0232 -0.1869
  891MPD2    H113063   3.509   3.341  16.947  0.3867 -0.4401  1.6556
  891MPD2    H213064   3.256   3.544  16.698 -0.0991  0.0867 -0.3170
  891MPD2    H313065   3.474   3.479  16.762  0.4850  1.7085  1.4614
  891MPD2     N13066   3.330   3.157  17.043 -1.1317  1.3049  0.1619
  891MPD2    H513067   3.255   3.122  17.101  0.1371 -0.5094  0.6742
  891MPD2    N113068   3.032   3.422  16.749 -0.7523 -0.7460  0.0874
  891MPD2    H713069   3.029   3.497  16.681 -0.6338  0.8685  1.8738
  892MPD2     C13070   4.170   4.542  15.074 -0.4505 -0.2605 -0.3774
  892MPD2    C113071   4.097   4.567  14.959  0.3832 -0.0445 -0.5299
  892MPD2    C213072   4.164   4.567  14.842 -0.6560 -0.8367  0.1152
  892MPD2    C313073   4.300   4.541  14.828 -0.0799 -0.5539  0.1925
  892MPD2    C413074   4.364   4.516  14.947 -0.4755 -0.8231 -0.4261
  892MPD2    C513075   4.302   4.520  15.069 -0.0551  0.3334 -0.5864
  892MPD2     H13076   4.113   4.585  14.748  0.4791  0.3043 -0.2684
  892MPD2    H113077   4.471   4.500  14.940  0.0836  1.2561  3.8779
  892MPD2    H213078   4.124   4.541  15.172  1.5152 -1.7488  0.5371
  892MPD2    H313079   4.364   4.513  15.157 -0.6737  0.3470 -0.1525
  892MPD2     N13080   4.373   4.524  14.709  0.6046 -0.3331 -0.0198
  892MPD2    H513081   4.473   4.511  14.720  0.4901 -1.7906 -0.6727
  892MPD2    N113082   3.955   4.591  14.964  0.2239  0.1200 -0.3093
  892MPD2    H713083   3.914   4.644  14.889 -0.4446 -1.5523 -1.1341
  893MPD2     C13084   3.508   1.481   1.274 -0.5698  0.6824  0.2537
  893MPD2    C113085   3.504   1.565   1.168 -0.0056 -1.0628 -0.0997
  893MPD2    C213086   3.588   1.533   1.063 -0.8203 -0.0129  0.3940
  893MPD2    C313087   3.680   1.430   1.068  0.1910 -0.3239 -0.0653
  893MPD2    C413088   3.681   1.347   1.176 -0.8439 -0.2956  0.2499
  893MPD2    C513089   3.592   1.373   1.275 -0.2842  0.9248 -0.3325
  893MPD2     H13090   3.593   1.598   0.976  0.4580 -0.1657  0.3524
  893MPD2    H113091   3.748   1.261   1.180 -0.7019 -0.2693 -1.2580
  893MPD2    H213092   3.434   1.474   1.352  0.6689  2.4040  1.5890
  893MPD2    H313093   3.607   1.311   1.363  2.6078 -0.3284 -1.7155
  893MPD2     N13094   3.772   1.411   0.961  1.0541 -0.4662  0.6474
  893MPD2    H513095   3.822   1.323   0.955 -1.1460 -1.6657 -0.1837
  893MPD2    N113096   3.407   1.674   1.168  0.4655  0.0141 -0.8183
  893MPD2    H713097   3.348   1.681   1.251  1.4208  0.6658 -0.1992
  894MPD2     C13098   4.063   0.506   1.174  0.1044 -0.2103  0.6947
  894MPD2    C113099   4.037   0.634   1.121  0.3278 -0.1250 -0.1693
  894MPD2    C213100   4.131   0.735   1.150  0.2893  0.4509 -0.8349
  894MPD2    C313101   4.230   0.714   1.245 -0.3316  0.2456  0.1336
  894MPD2    C413102   4.240   0.595   1.309 -0.4468 -0.7142  0.8280
  894MPD2    C513103   4.164   0.485   1.272  0.5113 -0.6192  0.1554
  894MPD2     H13104   4.124   0.833   1.105 -1.3545  0.2322 -1.0328
  894MPD2    H113105   4.307   0.572   1.391  2.0622 -0.3736 -1.1162
  894MPD2    H213106   4.011   0.414   1.147 -0.9290  0.1184  1.5702
  894MPD2    H313107   4.175   0.394   1.329 -1.8166  0.4634  2.3220
  894MPD2     N13108   4.326   0.822   1.270  0.2509  0.0147 -0.2330
  894MPD2    H513109   4.305   0.901   1.210 -0.1874  0.1723  0.1264
  894MPD2    N113110   3.943   0.660   1.010 -0.2609 -0.0130 -0.5866
  894MPD2    H713111   3.964   0.746   0.960  0.6714  0.7919  1.1938
  895MPD2     C13112   3.473   4.100  13.533  0.5424 -0.2235 -0.0578
  895MPD2    C113113   3.465   4.056  13.404 -0.2946 -0.3882  0.0746
  895MPD2    C213114   3.568   3.973  13.359  0.1627 -0.6135  0.5428
  895MPD2    C313115   3.669   3.928  13.445  0.0741  0.0113 -0.2718
  895MPD2    C413116   3.681   3.980  13.568  0.1368 -0.1768  0.1530
  895MPD2    C513117   3.573   4.051  13.617  0.6073 -0.2383  0.0065
  895MPD2     H13118   3.562   3.932  13.259  0.8028  2.6135 -0.8078
  895MPD2    H113119   3.767   3.965  13.633  0.1915  0.8315  0.3053
  895MPD2    H213120   3.389   4.151  13.579  1.1036 -0.2227  0.9637
  895MPD2    H313121   3.582   4.095  13.715  1.7309 -1.3947  0.4160
  895MPD2     N13122   3.769   3.840  13.393  0.5253 -0.2755  0.3768
  895MPD2    H513123   3.744   3.812  13.299  0.8201 -0.7198  0.4303
  895MPD2    N113124   3.365   4.095  13.312  0.5452  0.6562  0.3672
  895MPD2    H713125   3.370   4.048  13.222  1.0885 -0.9184  1.2126
  896MPD2     C13126   1.328   1.432   1.613  0.2907  0.6722  0.0933
  896MPD2    C113127   1.251   1.506   1.521  0.4006 -0.4556 -0.3756
  896MPD2    C213128   1.145   1.445   1.468  0.1599  1.2352 -1.0217
  896MPD2    C313129   1.099   1.323   1.518  0.5295 -0.2964 -0.4084
  896MPD2    C413130   1.178   1.247   1.605 -0.7883  0.4450  0.0822
  896MPD2    C513131   1.285   1.311   1.662 -0.6275 -0.2742  0.0145
  896MPD2     H13132   1.079   1.504   1.405 -0.6749  0.8583 -0.5046
  896MPD2    H113133   1.141   1.153   1.645  0.6252 -0.1805 -0.1054
  896MPD2    H213134   1.413   1.475   1.665  0.3890 -3.4083  3.3172
  896MPD2    H313135   1.333   1.258   1.743 -2.6682 -2.1080  0.0333
  896MPD2     N13136   0.981   1.268   1.471  0.0546  0.1675 -0.5599
  896MPD2    H513137   0.932   1.333   1.411  1.6940  1.3913 -0.5764
  896MPD2    N113138   1.301   1.632   1.466 -0.2478 -0.1652  0.2869
  896MPD2    H713139   1.264   1.668   1.378 -0.6812 -1.8437 -0.2335
  897MPD2     C13140   1.738   2.716  10.290 -0.2583 -0.5001  0.4310
  897MPD2    C113141   1.752   2.851  10.305  0.4297  0.5075 -0.2194
  897MPD2    C213142   1.676   2.914  10.401 -0.4738 -0.1997 -0.3674
  897MPD2    C313143   1.578   2.845  10.470 -0.6160 -0.1112 -1.1381
  897MPD2    C413144   1.567   2.709  10.459 -0.7558  0.0247 -0.2014
  897MPD2    C513145   1.653   2.648  10.369  0.3546  0.5565 -0.5698
  897MPD2     H13146   1.678   3.022  10.407 -0.3883 -0.2762  0.9136
  897MPD2    H113147   1.498   2.646  10.514  1.3566 -2.2119 -0.0844
  897MPD2    H213148   1.799   2.662  10.218  1.4232  0.6138  1.0276
  897MPD2    H313149   1.642   2.541  10.365  0.3834  0.5215  0.1903
  897MPD2     N13150   1.498   2.925  10.556  0.5384  0.5476  0.3797
  897MPD2    H513151   1.538   3.016  10.578 -2.2191  2.2928 -1.8457
  897MPD2    N113152   1.849   2.926  10.229 -0.2156 -0.2810 -0.1821
  897MPD2    H713153   1.895   2.880  10.151  0.7504 -0.0612  0.2503
  898MPD2     C13154   3.634   4.001   0.049 -0.4372  0.9534  0.2923
  898MPD2    C113155   3.766   4.016   0.041 -0.3877 -0.0321 -0.2027
  898MPD2    C213156   3.815   4.141   0.015 -0.6606  0.0336 -0.1576
  898MPD2    C313157   3.737   4.250  17.680 -0.3863 -0.2760 -0.4148
  898MPD2    C413158   3.602   4.235  17.689  0.3558 -0.1913  0.4381
  898MPD2    C513159   3.555   4.109   0.012 -0.3127  0.1477  0.1486
  898MPD2     H13160   3.919   4.146  17.676  0.0669 -1.6916  2.0768
  898MPD2    H113161   3.528   4.312  17.673 -1.9924 -2.2461  1.5749
  898MPD2    H213162   3.599   3.899   0.064  0.2137  0.7984  0.7515
  898MPD2    H313163   3.447   4.104   0.011 -0.3571  0.8559  1.4800
  898MPD2     N13164   3.794   4.373  17.636 -0.3020 -0.0112  0.1168
  898MPD2    H513165   3.893   4.368  17.614  0.0010  1.7521  1.0594
  898MPD2    N113166   3.864   3.914   0.071  0.0704 -0.4920  0.3181
  898MPD2    H713167   3.965   3.924   0.063  0.0733 -1.4748 -0.9037
  899MPD2     C13168   0.244   4.361   0.068  0.4335 -0.3040 -0.4927
  899MPD2    C113169   0.170   4.481   0.062  0.6394  0.1369  0.7612
  899MPD2    C213170   0.076   4.505   0.157  0.4333  0.2314 -0.3168
  899MPD2    C313171   0.054   4.420   0.264 -0.6246  0.0051  0.0702
  899MPD2    C413172   0.133   4.311   0.277 -0.2655  0.4765 -0.1091
  899MPD2    C513173   0.225   4.280   0.178  0.2655  0.4502  0.2948
  899MPD2     H13174   0.013   4.593   0.148  0.8418  0.6381  0.7187
  899MPD2    H113175   0.128   4.249   0.366 -2.4179 -0.3357 -0.8080
  899MPD2    H213176   0.324   4.340  17.688 -0.3046  2.1526 -2.0768
  899MPD2    H313177   0.299   4.202   0.196 -0.6716 -0.1206  1.6968
  899MPD2     N13178   4.679   4.450   0.369 -0.2145  0.2443  0.8484
  899MPD2    H513179   4.674   4.372   0.433  1.3610 -0.4565  0.1152
  899MPD2    N113180   0.201   4.571  17.650  0.5281 -0.2824  0.4029
  899MPD2    H713181   0.274   4.542  17.586  0.9261  1.0378  0.2616
  900MPD2     C13182   4.377   1.874  12.390  0.2287  0.6902 -0.3716
  900MPD2    C113183   4.377   1.777  12.295 -0.2107  0.8990 -0.6444
  900MPD2    C213184   4.275   1.777  12.200 -0.3585  0.2600  0.3960
  900MPD2    C313185   4.189   1.888  12.188 -0.1780  0.9000 -0.2873
  900MPD2    C413186   4.209   1.993  12.270 -0.4555 -1.2675  0.4285
  900MPD2    C513187   4.299   1.984  12.374 -0.3934  0.0272 -0.3361
  900MPD2     H13188   4.273   1.689  12.136 -0.9011 -0.3008  1.1911
  900MPD2    H113189   4.162   2.087  12.245 -0.2809 -1.8587 -2.0595
  900MPD2    H213190   4.439   1.857  12.477 -0.7739  1.9443  0.5908
  900MPD2    H313191   4.317   2.064  12.445 -1.1679  1.9978 -2.3542
  900MPD2     N13192   4.090   1.880  12.095 -0.5975  0.0291  0.5791
  900MPD2    H513193   4.089   1.795  12.039  0.5956 -0.4929  1.3447
  900MPD2    N113194   4.476   1.675  12.308 -0.2653 -0.0015  0.4089
  900MPD2    H713195   4.536   1.688  12.390  1.2108  1.1196 -0.8464
  901MPD2     C13196   4.701   0.914  12.878  0.0401 -0.2908 -0.8964
  901MPD2    C113197   0.056   0.880  12.761 -0.7198  0.1816  0.0532
  901MPD2    C213198   0.070   0.971  12.663  0.1746 -0.3146  0.6675
  901MPD2    C313199   0.014   1.100  12.678 -0.5432  0.1197 -0.0281
  901MPD2    C413200   4.666   1.136  12.792 -0.3173 -0.0579  0.2255
  901MPD2    C513201   4.657   1.043  12.892 -0.8579  0.1769 -0.4909
  901MPD2     H13202   0.105   0.939  12.566  0.2031 -0.8686  0.8549
  901MPD2    H113203   4.621   1.232  12.815  2.0600  1.3399 -0.9454
  901MPD2    H213204   4.689   0.850  12.965  0.5298  1.7552  0.6795
  901MPD2    H313205   4.607   1.057  12.987 -1.3300  0.0925 -0.7242
  901MPD2     N13206   0.032   1.187  12.565 -0.0376  0.5762 -0.4910
  901MPD2    H513207   0.084   1.154  12.484 -0.6556 -1.1960 -0.1700
  901MPD2    N113208   0.079   0.744  12.743  0.5756  0.7350  0.4392
  901MPD2    H713209   0.061   0.686  12.824  0.7157  0.2880  0.1509
  902MPD2     C13210   2.553   4.130  12.672  0.1421  0.4189  0.1765
  902MPD2    C113211   2.530   4.192  12.552  0.5486  0.8059 -0.6876
  902MPD2    C213212   2.636   4.236  12.477 -0.3380 -0.2258  0.8711
  902MPD2    C313213   2.770   4.228  12.523 -0.3604 -0.2773  0.1365
  902MPD2    C413214   2.791   4.182  12.653  0.6175 -0.0560  0.6755
  902MPD2    C513215   2.686   4.123  12.711 -0.0581 -0.8691 -0.1540
  902MPD2     H13216   2.617   4.278  12.379  0.1335  2.4411  1.9117
  902MPD2    H113217   2.890   4.173  12.698  0.4835 -3.1663  0.3096
  902MPD2    H213218   2.478   4.090  12.739  1.4612  1.3126  2.1959
  902MPD2    H313219   2.706   4.078  12.808  0.0697  0.8849  0.6293
  902MPD2     N13220   2.883   4.286  12.460 -0.2927  0.5098  0.0237
  902MPD2    H513221   2.975   4.274  12.501 -0.1001 -1.0083 -0.8793
  902MPD2    N113222   2.399   4.191  12.507 -0.0428 -0.4380  0.2014
  902MPD2    H713223   2.332   4.124  12.544 -0.3627 -0.9588 -1.3133
  903MPD2     C13224   3.119   4.408  11.650 -0.5945  0.1203  0.9078
  903MPD2    C113225   3.139   4.319  11.748  0.4699 -0.0860  0.6058
  903MPD2    C213226   3.129   4.183  11.720  0.7360  0.7968  0.4571
  903MPD2    C313227   3.124   4.144  11.587  0.3797 -0.6421  0.1031
  903MPD2    C413228   3.137   4.231  11.484  0.4003  0.6420 -0.4739
  903MPD2    C513229   3.131   4.364  11.523  0.2049 -0.2058 -0.4579
  903MPD2     H13230   3.107   4.111  11.798  0.3415  0.3453 -0.0691
  903MPD2    H113231   3.149   4.199  11.381  0.1882  0.2216 -0.3678
  903MPD2    H213232   3.111   4.516  11.659  1.6197  0.2365  1.3017
  903MPD2    H313233   3.144   4.443  11.450 -0.5349 -1.1948 -1.6909
  903MPD2     N13234   3.101   4.003  11.572  0.1967 -0.2750 -0.3337
  903MPD2    H513235   3.094   3.946  11.656  0.6495  0.1092 -0.0419
  903MPD2    N113236   3.140   4.371  11.878  0.1001  0.2706  0.1531
  903MPD2    H713237   3.151   4.472  11.886 -0.8060  0.1111  3.2836
  904MPD2     C13238   3.330   3.545  13.314 -0.7941 -0.0584  0.6417
  904MPD2    C113239   3.286   3.437  13.386 -0.2153 -0.5559 -0.0040
  904MPD2    C213240   3.359   3.396  13.496  0.6058  0.0634  0.2411
  904MPD2    C313241   3.469   3.475  13.545  0.2402  0.4469  0.4756
  904MPD2    C413242   3.485   3.595  13.486 -0.4731  1.0186  0.6084
  904MPD2    C513243   3.424   3.627  13.368 -0.2455  0.8806 -0.1177
  904MPD2     H13244   3.316   3.310  13.544  0.2898  0.0082 -0.1455
  904MPD2    H113245   3.545   3.678  13.521  1.0176 -0.1523  0.7917
  904MPD2    H213246   3.281   3.580  13.224 -1.6519 -0.4567  0.9558
  904MPD2    H313247   3.441   3.718  13.312 -0.3205  0.8057 -0.2632
  904MPD2     N13248   3.542   3.428  13.652 -0.1544  0.4315 -0.3863
  904MPD2    H513249   3.505   3.346  13.699  1.6983 -0.6378 -0.8040
  904MPD2    N113250   3.180   3.360  13.341  0.1371  0.1826  0.6110
  904MPD2    H713251   3.170   3.273  13.392 -3.4132  1.6778  2.5484
  905MPD2     C13252   3.302   3.530  12.752 -0.1503  0.2152 -1.3613
  905MPD2    C113253   3.299   3.605  12.864 -0.2935  0.5015  0.2487
  905MPD2    C213254   3.416   3.614  12.936 -0.6663 -0.7862  0.6100
  905MPD2    C313255   3.536   3.554  12.898  0.5291 -0.3255  0.7094
  905MPD2    C413256   3.536   3.490  12.775 -0.5525 -0.0063  0.1658
  905MPD2    C513257   3.421   3.481  12.698 -0.9010 -0.1750  1.2308
  905MPD2     H13258   3.402   3.662  13.032  0.5264  2.5599 -0.8809
  905MPD2    H113259   3.624   3.439  12.739 -1.6121 -0.4948 -1.7491
  905MPD2    H213260   3.215   3.506  12.692 -1.9995  0.0472  1.4337
  905MPD2    H313261   3.425   3.441  12.598 -0.3247  0.1990  1.1039
  905MPD2     N13262   3.650   3.555  12.982  0.0521  0.3176 -0.1357
  905MPD2    H513263   3.725   3.492  12.953 -1.4404 -0.2875 -2.6082
  905MPD2    N113264   3.173   3.653  12.914 -0.2276 -0.6128 -0.2278
  905MPD2    H713265   3.092   3.616  12.867 -0.4805 -1.3327  0.7628
  906MPD2     C13266   0.314   3.065  11.431 -0.0309  0.2386 -0.7206
  906MPD2    C113267   0.216   3.015  11.346  0.2301 -0.2560  0.4664
  906MPD2    C213268   0.122   2.930  11.401  0.5040 -0.4042  0.0475
  906MPD2    C313269   0.121   2.894  11.540 -0.2698 -0.2104  0.0329
  906MPD2    C413270   0.219   2.954  11.614  0.0170  0.4897  0.2853
  906MPD2    C513271   0.317   3.033  11.566  0.6497  0.3968  0.0304
  906MPD2     H13272   0.047   2.890  11.334  2.8436 -0.9682 -2.2515
  906MPD2    H113273   0.233   2.918  11.716 -2.2368 -0.1610  0.3884
  906MPD2    H213274   0.403   3.111  11.390 -0.3248  0.7993 -0.7223
  906MPD2    H313275   0.400   3.074  11.622  1.6529 -0.9766 -0.4479
  906MPD2     N13276   0.021   2.813  11.606  0.5975 -0.2748  0.0049
  906MPD2    H513277   0.038   2.801  11.705  1.2774 -0.2149 -0.1044
  906MPD2    N113278   0.213   3.018  11.204  0.2696 -0.2834  0.3324
  906MPD2    H713279   0.152   2.953  11.154  0.3668 -0.3374  0.2833
  907MPD2     C13280   0.070   1.721  15.255 -0.0513  0.0803 -1.3533
  907MPD2    C113281   4.670   1.691  15.307 -0.4481  0.6970 -0.0773
  907MPD2    C213282   4.670   1.618  15.425 -1.0132 -0.3444 -0.6500
  907MPD2    C313283   0.066   1.566  15.488  0.1304  0.4567 -0.2133
  907MPD2    C413284   0.188   1.585  15.427 -0.1181 -0.0976  0.6939
  907MPD2    C513285   0.185   1.665  15.318 -0.4388 -0.2746  0.5280
  907MPD2     H13286   4.567   1.602  15.455 -0.6241 -0.0648  0.7928
  907MPD2    H113287   0.281   1.547  15.466 -0.5856 -2.1662 -0.2103
  907MPD2    H213288   0.087   1.781  15.166  3.3004  1.0652 -0.0319
  907MPD2    H313289   0.282   1.668  15.271 -2.3824  4.3471 -3.1521
  907MPD2     N13290   0.054   1.490  15.611 -0.1755 -0.3250  0.1457
  907MPD2    H513291   4.683   1.491  15.651 -0.4891 -0.1504 -0.5857
  907MPD2    N113292   4.544   1.734  15.256  0.2726 -0.1671  0.1126
  907MPD2    H713293   4.460   1.701  15.303  1.0105 -1.2191  0.7122
  908MPD2     C13294   2.241   3.014   9.400 -0.2168 -0.3019 -0.4547
  908MPD2    C113295   2.118   2.961   9.418 -0.3528  0.2529  0.7887
  908MPD2    C213296   2.051   2.989   9.544 -0.0832 -0.3683 -0.5707
  908MPD2    C313297   2.108   3.073   9.636  0.5908 -0.0434 -0.4805
  908MPD2    C413298   2.231   3.131   9.606 -0.4850 -0.5571  0.4999
  908MPD2    C513299   2.294   3.105   9.487 -0.0190 -0.6661  0.2560
  908MPD2     H13300   1.966   2.931   9.576  0.1648  0.8137  2.2657
  908MPD2    H113301   2.292   3.194   9.670  0.3853  2.1603 -3.0181
  908MPD2    H213302   2.289   2.999   9.304 -2.2376 -1.0092 -1.3682
  908MPD2    H313303   2.387   3.157   9.466 -1.0802  1.2556  0.3599
  908MPD2     N13304   2.039   3.098   9.759 -0.6524  0.6579 -0.3339
  908MPD2    H513305   1.966   3.033   9.788 -0.1816 -0.5252 -1.7937
  908MPD2    N113306   2.071   2.887   9.306  0.0052  0.2277 -0.2726
  908MPD2    H713307   2.122   2.870   9.220  0.6241 -1.1844  0.3699
  909MPD2     C13308   2.057   0.982  12.040 -0.7115 -0.1642 -0.6613
  909MPD2    C113309   2.082   1.094  11.963  0.4977 -0.7343 -0.0475
  909MPD2    C213310   2.013   1.213  11.979  0.8255 -0.8283  0.1432
  909MPD2    C313311   1.912   1.214  12.068 -0.1069  0.2119  0.2202
  909MPD2    C413312   1.889   1.113  12.152  0.1459  0.2687  0.5659
  909MPD2    C513313   1.961   0.999  12.138 -0.0544 -0.3451  0.3730
  909MPD2     H13314   2.029   1.300  11.916  0.0124 -1.2666 -0.6675
  909MPD2    H113315   1.803   1.112  12.219 -1.7658  0.5645 -1.8812
  909MPD2    H213316   2.103   0.884  12.031  0.5109  0.2852  0.7299
  909MPD2    H313317   1.947   0.907  12.194  0.6694 -0.7697 -0.1359
  909MPD2     N13318   1.831   1.333  12.063 -0.5759  0.7348 -0.5106
  909MPD2    H513319   1.838   1.392  11.981  1.6988  0.5639 -0.4344
  909MPD2    N113320   2.190   1.101  11.871 -0.1596  0.3489  0.4433
  909MPD2    H713321   2.206   1.191  11.826  0.6931 -1.8095 -3.5848
  910MPD2     C13322   3.330   2.739  15.570  0.2779  0.3126 -0.9347
  910MPD2    C113323   3.437   2.715  15.487  0.2455  0.6622 -0.5709
  910MPD2    C213324   3.436   2.771  15.361  0.1601  0.2300  0.4730
  910MPD2    C313325   3.314   2.811  15.303 -0.5217 -0.2878  0.0870
  910MPD2    C413326   3.199   2.819  15.383  0.1419 -0.4027  0.0589
  910MPD2    C513327   3.217   2.782  15.512 -0.4892 -0.4283 -0.7021
  910MPD2     H13328   3.526   2.779  15.302  0.6087  3.1243  1.5149
  910MPD2    H113329   3.107   2.867  15.353  0.1030 -2.0805 -2.6007
  910MPD2    H213330   3.321   2.707  15.673 -0.7287 -1.0365 -1.4447
  910MPD2    H313331   3.125   2.783  15.570 -1.0110 -0.3698 -1.5292
  910MPD2     N13332   3.298   2.856  15.170  0.1536  0.0783  0.5667
  910MPD2    H513333   3.204   2.888  15.148  0.6141  0.6608 -0.5341
  910MPD2    N113334   3.557   2.649  15.536 -0.2756 -0.0885 -0.3077
  910MPD2    H713335   3.624   2.607  15.472 -0.2923  1.3840 -1.2821
  911MPD2     C13336   1.198   3.019  16.376 -0.7863 -0.1771 -0.2848
  911MPD2    C113337   1.258   3.133  16.415  0.6036 -0.2736  0.0204
  911MPD2    C213338   1.184   3.248  16.431  0.8907 -0.0904  0.6096
  911MPD2    C313339   1.046   3.244  16.421 -0.4980  0.2286 -0.0897
  911MPD2    C413340   0.986   3.130  16.393 -0.3088 -0.3420 -0.2939
  911MPD2    C513341   1.060   3.020  16.363 -0.0285  1.1434 -0.6226
  911MPD2     H13342   1.237   3.341  16.453  0.3910 -0.0150  1.5195
  911MPD2    H113343   0.878   3.126  16.387 -0.1835 -0.3514 -2.5235
  911MPD2    H213344   1.245   2.922  16.368 -1.1719 -0.4418  0.7765
  911MPD2    H313345   1.011   2.926  16.343  2.5518 -0.3147 -0.1663
  911MPD2     N13346   0.962   3.351  16.426  0.1443 -0.0368 -0.6160
  911MPD2    H513347   0.865   3.332  16.402 -0.2848  1.8454 -0.3750
  911MPD2    N113348   1.397   3.115  16.445  0.1969 -0.2901  0.0070
  911MPD2    H713349   1.444   3.046  16.388  0.0341 -1.1328  0.9081
  912MPD2     C13350   0.801   3.305  15.741  0.3136 -0.0029  0.1223
  912MPD2    C113351   0.756   3.317  15.870  0.0144  0.0478 -0.2734
  912MPD2    C213352   0.724   3.201  15.937 -0.3469  0.0502  0.3474
  912MPD2    C313353   0.744   3.078  15.867 -0.0399  0.3065  0.8390
  912MPD2    C413354   0.794   3.075  15.735 -0.0361  0.0454  0.4900
  912MPD2    C513355   0.826   3.187  15.676 -0.2774  0.1014  0.7161
  912MPD2     H13356   0.688   3.201  16.039 -2.2062  0.5408 -0.3088
  912MPD2    H113357   0.803   2.985  15.675  0.6531  0.9112 -0.7134
  912MPD2    H213358   0.828   3.394  15.685  0.9536  1.3107  2.5156
  912MPD2    H313359   0.875   3.191  15.580 -0.3494 -0.3704  0.6609
  912MPD2     N13360   0.696   2.966  15.935  0.1242  0.4511 -0.1381
  912MPD2    H513361   0.670   2.980  16.032 -2.8249  0.0917 -0.8628
  912MPD2    N113362   0.776   3.442  15.937 -0.0554 -0.1491 -0.0410
  912MPD2    H713363   0.831   3.508  15.883  1.6806 -0.5833  1.1787
  913MPD2     C13364   1.622   0.356  10.749 -0.0767 -0.2789  0.2808
  913MPD2    C113365   1.640   0.493  10.777 -0.3144 -0.1929  0.0176
  913MPD2    C213366   1.676   0.580  10.678 -0.3383 -0.0016 -0.3647
  913MPD2    C313367   1.683   0.535  10.545 -0.0097  0.2145  0.0333
  913MPD2    C413368   1.662   0.399  10.519 -0.5138  0.4568 -0.0024
  913MPD2    C513369   1.645   0.312  10.623 -0.2520 -0.8738  0.3601
  913MPD2     H13370   1.706   0.681  10.704 -0.3762  0.2149 -1.1830
  913MPD2    H113371   1.677   0.359  10.420  1.9907 -0.4762  0.7390
  913MPD2    H213372   1.616   0.283  10.829 -3.9740 -0.4391 -0.1830
  913MPD2    H313373   1.643   0.206  10.600 -0.3127 -1.1066  1.4437
  913MPD2     N13374   1.737   0.614  10.438 -0.0161  0.1910 -0.1569
  913MPD2    H513375   1.754   0.565  10.350  0.8743 -1.3403  0.8784
  913MPD2    N113376   1.616   0.535  10.912 -0.5245  0.2645  0.1534
  913MPD2    H713377   1.573   0.463  10.969  0.4508  0.9256  1.7175
  914MPD2     C13378   4.497   0.093  12.028  0.0844 -0.2983  0.7478
  914MPD2    C113379   4.466   0.227  12.050  0.2746  0.7070  0.9303
  914MPD2    C213380   4.535   0.296  12.152 -0.4435 -0.2486  0.5612
  914MPD2    C313381   4.634   0.237  12.223 -0.0751 -0.3487  0.3518
  914MPD2    C413382   4.673   0.109  12.182  0.0673  0.2114 -0.2988
  914MPD2    C513383   4.605   0.039  12.086  0.8718 -0.0170 -0.2619
  914MPD2     H13384   4.516   0.402  12.161  2.5532  0.3878 -0.5855
  914MPD2    H113385   0.037   0.051  12.215 -0.1729 -0.4821 -0.8780
  914MPD2    H213386   4.438   0.036  11.956  1.2757  0.0597 -0.5146
  914MPD2    H313387   4.635   4.660  12.064  0.8586 -0.2586  0.8123
  914MPD2     N13388   4.697   0.310  12.326  0.2091 -0.5361 -0.3851
  914MPD2    H513389   4.663   0.397  12.365  2.1860  0.8092 -1.6095
  914MPD2    N113390   4.360   0.281  11.970  0.0732 -0.4482 -0.2958
  914MPD2    H713391   4.319   0.224  11.897  3.1052 -0.6353 -1.8305
  915MPD2     C13392   2.061   0.088  15.373  0.6189 -0.8037  0.6361
  915MPD2    C113393   1.970   0.186  15.414  0.6941  0.8498 -0.2617
  915MPD2    C213394   2.011   0.284  15.506 -0.4800 -0.2420 -0.5395
  915MPD2    C313395   2.127   0.273  15.578 -0.1597  0.0213  0.6786
  915MPD2    C413396   2.216   0.173  15.539 -0.1528  0.0182  0.4638
  915MPD2    C513397   2.182   0.081  15.441 -0.2128 -0.0659 -0.5565
  915MPD2     H13398   1.939   0.362  15.531  0.2657  0.6487 -1.2075
  915MPD2    H113399   2.303   0.146  15.598 -1.3606  2.3972  3.3055
  915MPD2    H213400   2.048   0.030  15.283  0.1649  0.3131 -0.0165
  915MPD2    H313401   2.257   0.009  15.410 -1.0603 -1.1417 -0.0984
  915MPD2     N13402   2.150   0.365  15.679  0.3645  0.4739  0.1477
  915MPD2    H513403   2.094   0.450  15.682  0.1017  0.2927  0.3296
  915MPD2    N113404   1.846   0.185  15.347 -0.3204 -0.5632  0.0837
  915MPD2    H713405   1.820   0.121  15.274 -1.5612  0.0468 -0.0055
  916MPD2     C13406   0.390   3.078  15.461  0.0734 -0.4675  0.3810
  916MPD2    C113407   0.420   3.014  15.578  0.3787  0.4482 -0.7636
  916MPD2    C213408   0.523   2.921  15.583  0.0634  0.2077 -0.0261
  916MPD2    C313409   0.596   2.900  15.470  0.0444 -0.7008  0.0707
  916MPD2    C413410   0.564   2.963  15.351  0.5313 -0.3730  0.3984
  916MPD2    C513411   0.460   3.045  15.350  0.0900  0.0480 -0.9161
  916MPD2     H13412   0.549   2.870  15.675 -1.3957  1.1549  0.9063
  916MPD2    H113413   0.623   2.963  15.261 -1.6019 -0.0130 -1.0175
  916MPD2    H213414   0.311   3.151  15.470  0.0820 -0.0521 -2.8546
  916MPD2    H313415   0.438   3.091  15.254 -2.2302 -1.6576 -1.1861
  916MPD2     N13416   0.714   2.826  15.474  0.4347 -0.2739 -0.4601
  916MPD2    H513417   0.735   2.784  15.564 -1.7214 -0.7265 -0.1532
  916MPD2    N113418   0.353   3.054  15.695 -0.1908  0.0531  0.7916
  916MPD2    H713419   0.291   3.131  15.674 -1.3382 -0.3639  2.6719
  917MPD2     C13420   0.988   0.882  10.721  0.1976 -0.1302  0.1215
  917MPD2    C113421   1.012   0.980  10.820  0.0740 -0.2975 -0.1229
  917MPD2    C213422   1.054   1.107  10.778  0.3171  0.2568 -1.0082
  917MPD2    C313423   1.085   1.132  10.644  0.1872  0.1826  0.9591
  917MPD2    C413424   1.075   1.029  10.554  0.1297 -1.0839  0.2688
  917MPD2    C513425   1.024   0.905  10.591  0.2845  0.2466 -0.4004
  917MPD2     H13426   1.053   1.181  10.857 -0.2880 -1.0884  0.2389
  917MPD2    H113427   1.113   1.053  10.455 -2.2331  0.4086 -0.2645
  917MPD2    H213428   0.946   0.785  10.744  2.0214 -0.9510 -0.0465
  917MPD2    H313429   1.017   0.829  10.514  0.3780  2.5193 -2.6453
  917MPD2     N13430   1.124   1.262  10.595  0.5294 -0.8916  0.3438
  917MPD2    H513431   1.148   1.268  10.496  0.4600 -0.0553  0.3794
  917MPD2    N113432   0.984   0.943  10.958  0.7624 -0.1900 -0.3895
  917MPD2    H713433   0.955   0.849  10.978  0.1003  0.0336 -0.3035
  918MPD2     C13434   1.174   1.134  12.014 -0.3151  0.6443  0.1130
  918MPD2    C113435   1.241   1.034  11.958 -0.4754  0.6126 -0.4803
  918MPD2    C213436   1.202   0.991  11.834 -0.2321  0.0005  0.3454
  918MPD2    C313437   1.108   1.064  11.759  0.4308  0.4385 -0.2114
  918MPD2    C413438   1.059   1.187  11.808  0.7073 -0.3554 -0.3885
  918MPD2    C513439   1.089   1.218  11.940  0.3662 -0.2377 -0.4597
  918MPD2     H13440   1.240   0.899  11.789 -0.5269 -0.4351  0.9846
  918MPD2    H113441   0.992   1.251  11.753  1.0663  0.9338  0.6886
  918MPD2    H213442   1.188   1.165  12.117 -3.0973 -4.4841  2.0538
  918MPD2    H313443   1.042   1.301  11.991  1.4822 -0.2450  0.5731
  918MPD2     N13444   1.081   1.016  11.624  0.3704 -0.1207  0.1272
  918MPD2    H513445   1.136   0.938  11.590 -1.4720 -0.4450 -2.0890
  918MPD2    N113446   1.341   0.963  12.026 -0.0558 -0.4903  0.2346
  918MPD2    H713447   1.364   0.876  11.979 -1.4911 -0.2416 -0.9055
  919MPD2     C13448   1.658   0.064  11.430 -0.6892  0.3542 -0.0923
  919MPD2    C113449   1.646   4.660  11.392 -0.5346  0.3528 -0.9500
  919MPD2    C213450   1.668   4.621  11.264 -0.3740  0.3133  0.3016
  919MPD2    C313451   1.719   4.704  11.168  0.6079  0.4391  0.5369
  919MPD2    C413452   1.731   0.114  11.211 -0.1144  0.3816 -0.0566
  919MPD2    C513453   1.706   0.160  11.342 -0.3610  0.5064  0.1780
  919MPD2     H13454   1.660   4.512  11.263 -1.7872  0.4027  2.3333
  919MPD2    H113455   1.768   0.191  11.144 -0.1511 -0.3084 -0.8663
  919MPD2    H213456   1.633   0.103  11.528  0.7261  1.2897 -0.1024
  919MPD2    H313457   1.704   0.262  11.376 -1.9874  1.1348 -1.7985
  919MPD2     N13458   1.757   4.659  11.044 -0.1313  0.0771  0.7593
  919MPD2    H513459   1.763   0.015  10.978 -3.0703  1.9310  2.6783
  919MPD2    N113460   1.599   4.561  11.483  0.1980 -0.7468  0.3401
  919MPD2    H713461   1.587   4.472  11.436 -5.6610 -0.1333  0.7206
  920MPD2     C13462   1.542   0.115  10.135  0.2351  0.0198 -0.1650
  920MPD2    C113463   1.524   4.703  10.157 -0.3870  0.1806 -0.1720
  920MPD2    C213464   1.599   4.639  10.253 -0.2304  0.3601 -0.0103
  920MPD2    C313465   1.691   4.703  10.331  0.2310 -0.4832 -0.2567
  920MPD2    C413466   1.705   0.116  10.309 -0.3578  0.1514 -0.1045
  920MPD2    C513467   1.628   0.187  10.213 -0.4836 -0.2271 -0.2383
  920MPD2     H13468   1.585   4.532  10.259  1.6503  0.1969  1.2968
  920MPD2    H113469   1.776   0.180  10.361 -1.5472  1.1523  0.3234
  920MPD2    H213470   1.479   0.161  10.060  0.4150 -0.2057 -0.4589
  920MPD2    H313471   1.634   0.296  10.214 -0.0022 -0.2578  0.5135
  920MPD2     N13472   1.759   4.630  10.431 -0.3654 -0.3341  0.2250
  920MPD2    H513473   1.743   4.530  10.428  1.2412 -0.5511 -1.3355
  920MPD2    N113474   1.436   4.621  10.080  0.7483  0.8773 -0.1447
  920MPD2    H713475   1.429   4.521  10.093 -3.7612  0.7420 -3.5069
  921MPD2     C13476   2.177   3.622  16.779  0.8256  0.3834 -1.1036
  921MPD2    C113477   2.229   3.495  16.749 -0.0253  0.1435 -0.3524
  921MPD2    C213478   2.145   3.385  16.733 -0.3263  0.2549 -0.5382
  921MPD2    C313479   2.008   3.407  16.735  0.5726 -0.0815 -0.0014
  921MPD2    C413480   1.956   3.530  16.762 -0.1906 -0.1515 -0.5711
  921MPD2    C513481   2.041   3.634  16.798  0.0752 -0.0314 -0.9638
  921MPD2     H13482   2.191   3.288  16.715 -1.9921 -0.2761 -1.9224
  921MPD2    H113483   1.849   3.544  16.758  0.0343  1.5430 -0.5104
  921MPD2    H213484   2.239   3.708  16.802 -0.8914  0.4617  3.1950
  921MPD2    H313485   2.005   3.729  16.834  0.5495 -0.7143  1.2962
  921MPD2     N13486   1.913   3.307  16.694 -0.6362 -0.2099  0.3467
  921MPD2    H513487   1.816   3.334  16.699 -0.4170  0.4699  0.9652
  921MPD2    N113488   2.362   3.491  16.712 -0.5153 -0.8067  0.5247
  921MPD2    H713489   2.412   3.578  16.703 -1.8480 -0.4975 -3.7433
  922MPD2     C13490   3.752   1.609  16.855 -0.1941 -0.3832 -0.5665
  922MPD2    C113491   3.736   1.631  16.991 -0.0145  0.7564 -0.4678
  922MPD2    C213492   3.609   1.603  17.047  0.0893 -0.0284  0.5772
  922MPD2    C313493   3.506   1.554  16.969 -0.5017 -0.5064 -0.2861
  922MPD2    C413494   3.524   1.530  16.841  0.4497  0.6397  0.7076
  922MPD2    C513495   3.646   1.556  16.787  0.3068 -0.7196 -0.0993
  922MPD2     H13496   3.592   1.628  17.151  0.7421 -1.3035  0.9882
  922MPD2    H113497   3.452   1.491  16.769  2.7936 -0.9978 -0.7642
  922MPD2    H213498   3.845   1.634  16.805 -0.0319  0.6152  0.2068
  922MPD2    H313499   3.664   1.543  16.681 -1.8641  1.5382 -0.7491
  922MPD2     N13500   3.377   1.530  17.017  0.4215  0.1163  0.9800
  922MPD2    H513501   3.309   1.508  16.945  0.9236  3.0726 -0.3999
  922MPD2    N113502   3.843   1.684  17.074 -0.1652 -0.3865 -0.7544
  922MPD2    H713503   3.809   1.725  17.160  0.3558 -1.9934  0.2082
  923MPD2     C13504   4.177   3.123   9.524  0.3194  0.2837 -0.4733
  923MPD2    C113505   4.047   3.171   9.526 -0.6608 -0.0905 -0.3368
  923MPD2    C213506   3.979   3.177   9.653  0.0227 -0.5092  0.3265
  923MPD2    C313507   4.045   3.150   9.769  0.6186 -0.5506 -0.1809
  923MPD2    C413508   4.167   3.081   9.758  0.0171 -0.0216 -0.2461
  923MPD2    C513509   4.234   3.073   9.638 -0.3675  0.3545  0.5447
  923MPD2     H13510   3.878   3.214   9.666  0.2467 -0.2154  1.2400
  923MPD2    H113511   4.223   3.053   9.846  1.1106 -0.5032 -1.0816
  923MPD2    H213512   4.241   3.119   9.437  0.8074 -0.9449 -0.0607
  923MPD2    H313513   4.329   3.021   9.634 -0.4230  0.3678 -0.8077
  923MPD2     N13514   3.986   3.174   9.900  0.3350 -0.2603  0.4148
  923MPD2    H513515   4.048   3.136   9.970 -0.1142 -1.4741  0.1657
  923MPD2    N113516   3.983   3.204   9.406  0.3421 -0.1333 -0.1469
  923MPD2    H713517   4.047   3.196   9.327  1.1614  1.7547  0.3056
  924MPD2     C13518   4.694   1.118  15.344  0.3226 -0.7325  0.1117
  924MPD2    C113519   4.628   1.130  15.468 -0.3508 -0.1606 -0.2319
  924MPD2    C213520   4.700   1.086  15.575  0.6164 -0.4985 -0.4583
  924MPD2    C313521   0.100   1.018  15.564  0.0327 -0.4624  0.1882
  924MPD2    C413522   0.159   0.994  15.444  0.7620 -0.2530  0.2665
  924MPD2    C513523   0.097   1.051  15.334  0.2251 -0.1063 -0.8751
  924MPD2     H13524   4.648   1.091  15.670  2.0613 -1.2743  0.3851
  924MPD2    H113525   0.249   0.936  15.429  2.1411  1.6904  0.9614
  924MPD2    H213526   4.650   1.163  15.256  0.6308 -1.9451 -0.6640
  924MPD2    H313527   0.149   1.044  15.239 -0.8002 -0.7998 -1.3746
  924MPD2     N13528   0.166   0.966  15.678  0.5140 -0.5051 -0.3310
  924MPD2    H513529   0.240   0.903  15.646  0.2548 -1.1245  0.2869
  924MPD2    N113530   4.509   1.201  15.486  0.1388 -0.3383 -0.0184
  924MPD2    H713531   4.473   1.254  15.407  0.2529  0.1459  0.2548
  925MPD2     C13532   3.252   3.728  14.786 -0.2951 -0.5247 -0.0592
  925MPD2    C113533   3.117   3.735  14.755  0.1470 -0.2002 -0.8462
  925MPD2    C213534   3.030   3.673  14.837 -0.0256  0.0764  0.0289
  925MPD2    C313535   3.070   3.599  14.949 -0.5244  0.5852  0.2129
  925MPD2    C413536   3.201   3.589  14.973  0.2368 -0.0282  0.0333
  925MPD2    C513537   3.290   3.650  14.893 -0.7799 -0.3679 -0.0672
  925MPD2     H13538   2.926   3.682  14.806  0.2469 -1.6689 -1.3590
  925MPD2    H113539   3.223   3.523  15.056 -1.5501  1.4538  1.7070
  925MPD2    H213540   3.341   3.770  14.741  0.5796 -1.0710  1.1495
  925MPD2    H313541   3.391   3.616  14.913 -0.7549 -0.0160  0.4083
  925MPD2     N13542   2.979   3.528  15.032  0.2858 -0.1278  0.3082
  925MPD2    H513543   3.013   3.469  15.108 -0.9422 -0.5955  0.4881
  925MPD2    N113544   3.070   3.812  14.637 -0.5287 -0.2300  0.4308
  925MPD2    H713545   2.969   3.814  14.628 -0.4397  0.1875 -0.5195
  926MPD2     C13546   2.329   2.670  12.841 -0.1101 -0.6502 -0.2593
  926MPD2    C113547   2.247   2.770  12.898 -0.5514 -0.3180 -0.1279
  926MPD2    C213548   2.217   2.879  12.814  0.0378  0.0702 -1.1494
  926MPD2    C313549   2.294   2.914  12.706  0.1379  0.0636  0.2362
  926MPD2    C413550   2.395   2.830  12.674  0.4027  0.1755  0.3612
  926MPD2    C513551   2.398   2.703  12.727 -0.0748  0.1745  0.8238
  926MPD2     H13552   2.140   2.952  12.841 -1.0396 -1.5870  0.2457
  926MPD2    H113553   2.461   2.844  12.589 -0.5034  1.4259 -0.1312
  926MPD2    H213554   2.339   2.572  12.888  1.0244 -0.6020 -0.4116
  926MPD2    H313555   2.463   2.629  12.682  0.6015 -0.6223  3.1144
  926MPD2     N13556   2.266   3.033  12.635 -0.0119  0.0051  0.6008
  926MPD2    H513557   2.173   3.072  12.647 -0.3696 -0.0819 -1.9240
  926MPD2    N113558   2.180   2.756  13.024 -0.0537 -0.7844 -0.4536
  926MPD2    H713559   2.121   2.833  13.053  1.9911 -0.0942  1.8501
  927MPD2     C13560   1.342   0.421   0.130 -0.3478 -0.8030 -0.0262
  927MPD2    C113561   1.351   0.287   0.134 -0.3292 -0.5629  0.5901
  927MPD2    C213562   1.420   0.224   0.029 -0.1589 -0.1077  0.1039
  927MPD2    C313563   1.466   0.299  17.611  0.5314 -0.3382 -0.0777
  927MPD2    C413564   1.430   0.431  17.596  0.1243  0.1517 -0.7498
  927MPD2    C513565   1.370   0.495   0.019  0.0839 -0.1323  0.5643
  927MPD2     H13566   1.447   0.119   0.034 -0.1021 -0.1546 -1.0951
  927MPD2    H113567   1.442   0.487  17.504  1.6201 -0.8252 -1.1384
  927MPD2    H213568   1.304   0.482   0.211  2.9943 -1.3874  1.9493
  927MPD2    H313569   1.343   0.600   0.019 -0.0915 -0.2005 -3.1432
  927MPD2     N13570   1.528   0.220  17.516  0.0248 -0.1340 -0.1397
  927MPD2    H513571   1.530   0.122  17.540 -2.2195  0.1458  1.2175
  927MPD2    N113572   1.311   0.232   0.262  0.5793 -0.6153  0.7858
  927MPD2    H713573   1.280   0.298   0.332  1.0381 -0.7263  1.0923
  928MPD2     C13574   4.017   2.819   1.035  0.3848  0.8550 -0.0259
  928MPD2    C113575   4.056   2.948   1.069  1.6363 -0.0008 -0.2526
  928MPD2    C213576   4.114   3.028   0.967  0.1711  0.4136 -0.3367
  928MPD2    C313577   4.151   2.979   0.843  0.2855 -0.4891  0.7545
  928MPD2    C413578   4.106   2.853   0.815  0.6888  0.4850 -0.3164
  928MPD2    C513579   4.042   2.781   0.905 -0.6691 -0.0285 -0.5977
  928MPD2     H13580   4.152   3.126   0.991 -0.7810  0.6200  0.3240
  928MPD2    H113581   4.120   2.821   0.712  0.8384 -0.5075  0.0092
  928MPD2    H213582   3.980   2.750   1.110 -0.8576  1.1562 -0.3521
  928MPD2    H313583   4.022   2.680   0.871 -0.7212  0.0113 -0.6847
  928MPD2     N13584   4.230   3.052   0.749  0.7992 -0.6529 -0.0320
  928MPD2    H513585   4.232   3.019   0.653 -1.2990 -0.4065 -0.1565
  928MPD2    N113586   4.041   2.990   1.202 -0.4512 -0.3796 -0.0366
  928MPD2    H713587   4.007   2.925   1.271  1.5596 -0.8542  0.4919
  929MPD2     C13588   3.579   2.920  10.158  0.3373 -0.0131  0.0931
  929MPD2    C113589   3.445   2.942  10.143  0.2835 -0.1683  0.1394
  929MPD2    C213590   3.387   2.945  10.013 -0.5750 -0.1447  0.5430
  929MPD2    C313591   3.466   2.954   9.903 -0.5464 -0.1907 -0.1036
  929MPD2    C413592   3.602   2.941   9.922 -0.2344  0.4975  0.8201
  929MPD2    C513593   3.656   2.922  10.045  0.8081  0.1951 -0.2908
  929MPD2     H13594   3.283   2.970   9.999 -0.4137  0.8826  1.1248
  929MPD2    H113595   3.670   2.934   9.839 -1.4548 -1.3198 -0.0271
  929MPD2    H213596   3.630   2.897  10.251 -0.7841  1.5945  1.1047
  929MPD2    H313597   3.762   2.901  10.055  1.5497  1.9749 -4.3000
  929MPD2     N13598   3.424   3.001   9.777  0.5533  0.0119  0.2309
  929MPD2    H513599   3.493   3.052   9.723 -0.5256 -0.6191 -1.7528
  929MPD2    N113600   3.381   2.948  10.262  0.3696 -0.3806 -0.0928
  929MPD2    H713601   3.439   2.916  10.338  0.9540  0.7927 -0.0533
  930MPD2     C13602   1.055   1.056  13.819 -0.0101 -0.5600 -0.3124
  930MPD2    C113603   1.172   0.990  13.853 -0.3184  1.4137 -0.4233
  930MPD2    C213604   1.212   0.887  13.763  0.1087  0.4534 -0.3293
  930MPD2    C313605   1.148   0.872  13.639 -0.0998  0.0067  0.8209
  930MPD2    C413606   1.031   0.935  13.621  0.3574 -0.5192  0.7545
  930MPD2    C513607   0.978   1.024  13.708  0.0821 -0.2419 -0.3433
  930MPD2     H13608   1.297   0.824  13.786  0.4995  1.2392  0.3811
  930MPD2    H113609   0.968   0.919  13.535  1.0653 -0.4924  0.2243
  930MPD2    H213610   1.029   1.141  13.882 -0.3830 -0.9527  0.0645
  930MPD2    H313611   0.884   1.074  13.686  0.1770  0.1832  0.2201
  930MPD2     N13612   1.203   0.800  13.536  0.4963  0.4585 -0.0410
  930MPD2    H513613   1.154   0.810  13.448 -3.6769 -0.0821  2.2516
  930MPD2    N113614   1.248   1.029  13.967  0.5852 -0.2061  0.4005
  930MPD2    H713615   1.211   1.109  14.018  1.7125 -0.1952  1.2083
  931MPD2     C13616   1.333   4.159   0.320 -0.2638  0.3726  0.2297
  931MPD2    C113617   1.304   4.210   0.445  0.5235 -0.1560  0.1953
  931MPD2    C213618   1.304   4.120   0.550  0.0680 -0.0339  0.1144
  931MPD2    C313619   1.349   3.988   0.533  0.5711  0.2812 -0.4223
  931MPD2    C413620   1.382   3.947   0.410 -1.2741 -0.4586 -0.1462
  931MPD2    C513621   1.371   4.029   0.307 -0.0887 -0.0676  0.2569
  931MPD2     H13622   1.293   4.160   0.650  0.5765 -1.2973  0.6853
  931MPD2    H113623   1.415   3.845   0.397  0.2179  0.1635 -1.2855
  931MPD2    H213624   1.330   4.212   0.225  0.4182  0.3066  0.1685
  931MPD2    H313625   1.410   4.003   0.209  1.0014  1.6642  0.2189
  931MPD2     N13626   1.368   3.900   0.638 -0.6065  0.3878 -0.0289
  931MPD2    H513627   1.391   3.804   0.616 -0.0735  1.1684 -2.8407
  931MPD2    N113628   1.277   4.349   0.462 -0.4560  0.2202  0.0679
  931MPD2    H713629   1.290   4.402   0.377 -0.5446 -1.6125 -1.1045
  932MPD2     C13630   3.492   3.511  11.586 -0.6316 -0.0336  0.3806
  932MPD2    C113631   3.491   3.628  11.658 -0.4223 -0.4986 -0.6949
  932MPD2    C213632   3.536   3.631  11.787  0.1541 -0.6078  0.5842
  932MPD2    C313633   3.590   3.518  11.846 -0.3858 -0.0201 -0.5410
  932MPD2    C413634   3.586   3.396  11.778  0.4841  1.2007  1.1307
  932MPD2    C513635   3.535   3.395  11.649 -0.0318  0.8186 -0.1150
  932MPD2     H13636   3.513   3.722  11.841  2.0965  0.6267 -0.6792
  932MPD2    H113637   3.633   3.308  11.820 -2.2743 -1.3095 -1.0031
  932MPD2    H213638   3.455   3.506  11.485  1.7186 -3.4436 -0.3025
  932MPD2    H313639   3.519   3.308  11.585 -2.6666  0.9224  0.3894
  932MPD2     N13640   3.650   3.538  11.976 -0.3847  0.3487 -0.1061
  932MPD2    H513641   3.650   3.633  12.012 -2.2187  0.0268  0.7494
  932MPD2    N113642   3.457   3.747  11.604  0.3943  0.3762 -0.2384
  932MPD2    H713643   3.480   3.828  11.660  2.9204 -0.0407 -0.6683
  933MPD2     C13644   3.797   3.497   1.939  0.8182  0.2922 -0.2786
  933MPD2    C113645   3.866   3.510   1.819 -0.3180 -0.3689  0.0182
  933MPD2    C213646   3.921   3.631   1.795 -0.0654 -0.5631 -0.0214
  933MPD2    C313647   3.908   3.740   1.875 -0.9210 -0.4585  0.1653
  933MPD2    C413648   3.829   3.731   1.993  0.4648  0.0537 -0.5294
  933MPD2    C513649   3.776   3.607   2.015  0.0324 -0.2611  0.1408
  933MPD2     H13650   3.974   3.650   1.702 -0.5357  0.2256 -0.1316
  933MPD2    H113651   3.807   3.814   2.060 -3.0448 -1.7262  0.4868
  933MPD2    H213652   3.758   3.399   1.962  2.8460 -0.1116  1.4172
  933MPD2    H313653   3.710   3.590   2.099 -3.1981  1.6450 -1.9754
  933MPD2     N13654   3.975   3.861   1.842 -0.0305 -0.2903 -0.4240
  933MPD2    H513655   4.043   3.860   1.766  1.1708  0.2262  0.6566
  933MPD2    N113656   3.889   3.392   1.735 -0.0948  0.3163  0.0280
  933MPD2    H713657   3.859   3.299   1.761 -0.8678  0.4580 -0.3464
  934MPD2     C13658   1.083   0.819   2.424  0.1406  0.5704  0.1056
  934MPD2    C113659   1.103   0.691   2.374  0.0406  0.8941 -0.6772
  934MPD2    C213660   1.023   0.651   2.265 -0.6547  0.3828 -0.0464
  934MPD2    C313661   0.926   0.735   2.211 -0.2823  0.3724  0.3148
  934MPD2    C413662   0.911   0.864   2.261  0.1758  0.1086 -0.5102
  934MPD2    C513663   0.991   0.910   2.368  0.4559  0.2725 -0.7147
  934MPD2     H13664   1.032   0.547   2.233  1.4316  0.1659  1.2639
  934MPD2    H113665   0.845   0.937   2.215 -0.7210 -1.6380 -2.0049
  934MPD2    H213666   1.146   0.863   2.500 -0.5747 -0.6175  1.3908
  934MPD2    H313667   0.981   1.013   2.400 -0.1057 -0.0636  0.1651
  934MPD2     N13668   0.851   0.707   2.095  0.8664 -0.1152  0.3559
  934MPD2    H513669   0.796   0.785   2.060  0.2305 -0.6618  0.1386
  934MPD2    N113670   1.194   0.594   2.425 -0.0612 -0.2348 -0.3871
  934MPD2    H713671   1.201   0.509   2.370  0.5364 -0.8046  0.5621
  935MPD2     C13672   0.882   4.587   1.544  0.3379  0.2379 -0.0879
  935MPD2    C113673   0.780   4.657   1.483  0.2500 -0.2203 -0.3215
  935MPD2    C213674   0.726   0.046   1.544  0.1151 -0.2303  0.3958
  935MPD2    C313675   0.786   0.100   1.659  0.0747  0.0317  0.0314
  935MPD2    C413676   0.877   0.021   1.720 -0.1961  0.2472 -0.3969
  935MPD2    C513677   0.932   4.627   1.660  0.6214  0.6654 -0.3705
  935MPD2     H13678   0.647   0.098   1.491  0.3283  1.2214  1.5243
  935MPD2    H113679   0.917   0.057   1.814  1.6098 -2.3447 -0.1623
  935MPD2    H213680   0.918   4.495   1.500  0.7202 -1.4369  3.7545
  935MPD2    H313681   1.015   4.574   1.704  0.5885  0.0930 -1.0043
  935MPD2     N13682   0.770   0.223   1.715  0.4053 -0.6804  0.6755
  935MPD2    H513683   0.842   0.243   1.784  0.8605 -0.4097  0.1172
  935MPD2    N113684   0.727   4.615   1.357  0.4568 -0.0162  0.9396
  935MPD2    H713685   0.646   4.663   1.319  0.3533 -0.1048  1.0464
  936MPD2     C13686   3.917   2.212  12.483 -0.2126 -0.9831 -0.1865
  936MPD2    C113687   3.954   2.156  12.612 -0.2475  0.1781 -0.1786
  936MPD2    C213688   3.962   2.248  12.713 -0.6846  0.0400 -0.7083
  936MPD2    C313689   3.923   2.375  12.704 -0.2230 -0.3673  0.5936
  936MPD2    C413690   3.886   2.431  12.580 -0.2373  0.4411 -0.0708
  936MPD2    C513691   3.893   2.348  12.472 -0.4967  0.3530 -0.9790
  936MPD2     H13692   3.995   2.214  12.810 -2.0770 -1.1970 -0.6678
  936MPD2    H113693   3.860   2.536  12.566 -0.1830  0.7404  2.1671
  936MPD2    H213694   3.909   2.144  12.399  1.2084 -1.6821  0.2473
  936MPD2    H313695   3.872   2.397  12.378  1.1243  0.3209 -1.3550
  936MPD2     N13696   3.926   2.455  12.818  0.1186  0.0687  0.0608
  936MPD2    H513697   3.961   2.417  12.905 -3.4830 -0.9176  1.0965
  936MPD2    N113698   3.993   2.027  12.635  0.4763  0.3649 -0.2073
  936MPD2    H713699   4.038   2.006  12.724 -1.0005  1.3183  0.7560
  937MPD2     C13700   1.650   3.824  11.501  0.4441  0.7180 -0.7331
  937MPD2    C113701   1.716   3.951  11.500 -0.2176  0.1105 -0.2568
  937MPD2    C213702   1.825   3.968  11.421 -0.9284 -0.1050 -0.7847
  937MPD2    C313703   1.865   3.863  11.343  0.7817 -0.2578 -0.4970
  937MPD2    C413704   1.799   3.738  11.341 -0.5431 -0.5376 -0.3827
  937MPD2    C513705   1.685   3.725  11.414  0.2937 -0.3540 -0.0695
  937MPD2     H13706   1.868   4.067  11.413  0.8258 -0.5719  2.5862
  937MPD2    H113707   1.845   3.659  11.284 -0.1260  0.2442 -1.1293
  937MPD2    H213708   1.565   3.807  11.566  2.9749 -0.0547  2.3287
  937MPD2    H313709   1.634   3.630  11.425  0.3090 -0.3229  0.2688
  937MPD2     N13710   1.973   3.894  11.254 -0.5895  0.3428 -0.0199
  937MPD2    H513711   2.035   3.971  11.278 -0.4847  0.5196 -0.8477
  937MPD2    N113712   1.666   4.067  11.555 -0.0461 -0.5052  0.7461
  937MPD2    H713713   1.716   4.151  11.528 -0.1242 -0.3250  1.1456
  938MPD2     C13714   4.271   0.161   1.030 -0.2738  0.4327 -0.2220
  938MPD2    C113715   4.354   0.244   1.103  0.1247  0.1210  0.0288
  938MPD2    C213716   4.402   0.194   1.223 -0.3569 -0.2828  0.0621
  938MPD2    C313717   4.371   0.068   1.270 -0.0017  0.4979  0.3195
  938MPD2    C413718   4.290   4.713   1.194  0.2661 -0.8900  0.2728
  938MPD2    C513719   4.240   0.038   1.071 -0.2322 -0.4129  0.1202
  938MPD2     H13720   4.473   0.255   1.278  2.0956 -4.5870  1.6749
  938MPD2    H113721   4.260   4.620   1.243 -1.7212 -0.6559 -0.5050
  938MPD2    H213722   4.230   0.192   0.935 -1.4392 -1.9187 -0.5029
  938MPD2    H313723   4.171   4.700   1.012 -0.1595 -1.1215  0.7623
  938MPD2     N13724   4.408   0.008   1.394  0.6487 -0.2460  0.0374
  938MPD2    H513725   4.358   4.648   1.426  0.3471  0.3960  1.2298
  938MPD2    N113726   4.405   0.367   1.059  0.0988 -0.2988  0.1859
  938MPD2    H713727   4.465   0.417   1.124 -3.0740  2.3628  1.0506
  939MPD2     C13728   1.204   2.040   1.484  0.5356  0.5345 -0.0311
  939MPD2    C113729   1.116   1.952   1.421  0.5303  0.0719  0.0903
  939MPD2    C213730   1.096   1.969   1.283  0.1339  0.0139  0.7506
  939MPD2    C313731   1.155   2.067   1.204  0.3721 -0.5713  0.0629
  939MPD2    C413732   1.241   2.148   1.271  0.1272  0.1661 -0.3799
  939MPD2    C513733   1.261   2.137   1.409 -0.4756 -0.6817 -0.8694
  939MPD2     H13734   1.027   1.900   1.235  0.9907 -0.9569  0.9343
  939MPD2    H113735   1.295   2.229   1.223 -1.3458  0.0095 -2.3261
  939MPD2    H213736   1.229   2.025   1.588 -0.8690 -0.5953  0.1507
  939MPD2    H313737   1.335   2.201   1.456 -0.8019 -1.0172  0.0852
  939MPD2     N13738   1.136   2.057   1.069 -0.3399  0.6196  0.3663
  939MPD2    H513739   1.103   1.971   1.027  1.9921 -0.8452  1.5306
  939MPD2    N113740   1.045   1.861   1.498  0.1150 -1.2260  0.3774
  939MPD2    H713741   1.059   1.869   1.598  0.9199  2.4471 -0.0082
  940MPD2     C13742   4.438   2.862  13.631 -0.4505  0.9899 -0.2543
  940MPD2    C113743   4.380   2.745  13.567  0.2027  0.2697 -0.1395
  940MPD2    C213744   4.441   2.698  13.456  0.2615  0.0853  1.2520
  940MPD2    C313745   4.552   2.754  13.401 -0.4434  0.1553 -0.2356
  940MPD2    C413746   4.618   2.859  13.472  0.4275 -0.6220  0.0052
  940MPD2    C513747   4.561   2.912  13.582  0.4467  0.0911  0.1954
  940MPD2     H13748   4.401   2.613  13.403  0.9305 -0.0548  0.9721
  940MPD2    H113749   4.717   2.885  13.439 -0.3518  2.7171  0.3221
  940MPD2    H213750   4.397   2.900  13.724  0.0082 -2.7863  1.4809
  940MPD2    H313751   4.619   2.990  13.629  1.8940  0.1290 -1.6450
  940MPD2     N13752   4.622   2.694  13.290  0.9266  0.9043  0.3598
  940MPD2    H513753   4.713   2.725  13.258  0.8267  0.5279 -0.2925
  940MPD2    N113754   4.269   2.671  13.619 -0.8010  0.3339  0.5260
  940MPD2    H713755   4.252   2.578  13.582 -1.2509  0.2027  1.0528
  941MPD2     C13756   3.090   2.016   9.341  0.7184 -0.1136  0.0829
  941MPD2    C113757   3.226   1.996   9.381  0.2388 -0.4902 -0.3499
  941MPD2    C213758   3.243   1.952   9.512  0.1578  0.6217  0.4178
  941MPD2    C313759   3.135   1.943   9.601  0.3569  0.1779  0.4095
  941MPD2    C413760   3.013   1.960   9.552 -0.3342  0.2006 -0.3081
  941MPD2    C513761   2.989   2.000   9.422 -0.2615  0.1690  0.0845
  941MPD2     H13762   3.336   1.930   9.564  0.9092  1.2093 -0.6950
  941MPD2    H113763   2.927   1.953   9.617 -1.1169  2.5154 -1.0981
  941MPD2    H213764   3.055   2.054   9.246 -0.0606  0.2125  0.5015
  941MPD2    H313765   2.885   2.012   9.393 -0.8175  1.4913  2.6557
  941MPD2     N13766   3.153   1.898   9.734  0.0082  0.3317  0.0723
  941MPD2    H513767   3.062   1.884   9.777  0.8214 -1.7416  1.1127
  941MPD2    N113768   3.338   2.022   9.303 -0.3661  0.5263  0.2181
  941MPD2    H713769   3.433   2.011   9.338  0.5007  1.9789 -1.6702
  942MPD2     C13770   1.430   3.058   8.938 -0.5896 -0.0451 -0.1694
  942MPD2    C113771   1.508   3.068   9.051 -0.8369  0.1718  0.9195
  942MPD2    C213772   1.644   3.052   9.036 -0.1357  0.2953  0.1868
  942MPD2    C313773   1.703   3.040   8.907  0.0792  0.2352  0.0609
  942MPD2    C413774   1.615   3.038   8.796  0.7101  0.1072 -0.3431
  942MPD2    C513775   1.483   3.047   8.818  0.0992 -0.2003  0.5629
  942MPD2     H13776   1.699   3.067   9.128  0.8126  0.1121 -0.3569
  942MPD2    H113777   1.646   3.034   8.692 -0.9459 -0.5513 -0.8211
  942MPD2    H213778   1.324   3.078   8.950 -0.6427  0.3867 -1.3949
  942MPD2    H313779   1.414   3.041   8.735 -1.3684 -1.7993  1.8823
  942MPD2     N13780   1.837   3.028   8.885  0.4179 -0.3363 -0.8159
  942MPD2    H513781   1.853   3.003   8.788 -1.2361 -0.2256 -1.1053
  942MPD2    N113782   1.452   3.087   9.182 -0.0155  0.5155  0.2625
  942MPD2    H713783   1.515   3.104   9.259  0.6607 -1.4247  0.1398
  943MPD2     C13784   2.261   2.030   9.495  0.8382 -0.2400  0.4570
  943MPD2    C113785   2.248   1.898   9.522 -0.3018 -0.0232 -0.2236
  943MPD2    C213786   2.158   1.822   9.445  0.5944 -0.1227 -0.1853
  943MPD2    C313787   2.088   1.875   9.338 -0.4301 -0.0665 -0.1269
  943MPD2    C413788   2.099   2.010   9.319  0.1959 -0.0951 -0.1308
  943MPD2    C513789   2.180   2.086   9.400  0.2287 -0.2880 -0.0033
  943MPD2     H13790   2.139   1.718   9.472  2.4984 -0.6814 -0.9826
  943MPD2    H113791   2.040   2.066   9.247  0.4486 -0.5606 -0.7012
  943MPD2    H213792   2.326   2.090   9.557  0.7484 -0.2068  0.5194
  943MPD2    H313793   2.165   2.193   9.394 -0.0180 -0.3609 -0.7043
  943MPD2     N13794   2.013   1.804   9.241  0.4212 -0.2883  0.3957
  943MPD2    H513795   1.968   1.851   9.163  0.0419 -1.0564  0.1549
  943MPD2    N113796   2.331   1.847   9.626  0.1627 -0.0772 -0.2851
  943MPD2    H713797   2.385   1.912   9.682  0.7290 -0.7374 -0.0621
  944MPD2     C13798   2.094   4.717  10.880  0.2177  0.0795 -0.1325
  944MPD2    C113799   2.069   0.124  10.926  0.0312 -0.5261 -0.4578
  944MPD2    C213800   2.064   0.144  11.061 -0.6727  0.5117 -0.4585
  944MPD2    C313801   2.092   0.046  11.153 -0.4495  0.9775 -0.4689
  944MPD2    C413802   2.125   4.646  11.103  0.3771 -0.0869 -0.3668
  944MPD2    C513803   2.129   4.622  10.969  1.0376  0.2074 -0.3755
  944MPD2     H13804   2.023   0.240  11.090  1.2960  0.4340  2.5822
  944MPD2    H113805   2.163   4.564  11.164 -2.3420 -0.9894  0.0916
  944MPD2    H213806   2.080   4.688  10.776 -0.5849 -1.5387  0.4159
  944MPD2    H313807   2.142   4.520  10.934 -1.5861 -0.3162  0.1731
  944MPD2     N13808   2.078   0.077  11.292  0.2304 -0.3570  0.0968
  944MPD2    H513809   2.043   0.172  11.301  1.8747 -0.0520  3.2760
  944MPD2    N113810   2.027   0.221  10.832 -0.5965 -0.0761 -0.0571
  944MPD2    H713811   2.047   0.189  10.737  0.4256 -0.0501  0.1428
    1TCq1    O113812   0.065   1.199  14.308  0.5442  0.0131  0.2055
    1TCq1    C113813   0.055   1.069  14.345  0.0156 -0.1893 -0.4219
    1TCq1    O213814   4.716   0.985  14.281 -0.3652  0.4861  0.0746
    1TCq1    C213815   0.139   1.033  14.464 -0.2131  0.0846 -0.8192
    1TCq1    C313816   0.086   0.955  14.559 -0.5016 -0.3092 -0.0670
    1TCq1    C413817   0.144   0.953  14.686 -0.2091  0.2578  0.6741
    1TCq1    C513818   0.247   1.041  14.719 -0.1184  0.2505  0.5513
    1TCq1    C613819   0.295   1.120  14.618 -0.1283 -0.5994  0.4241
    1TCq1    C713820   0.248   1.113  14.490 -0.3834 -0.0645  0.3330
    1TCq1    C813821   0.404   1.211  14.636 -0.4637  0.4645 -0.2510
    1TCq1    O413822   0.489   1.179  14.721 -0.2685  0.3207 -1.3449
    1TCq1    C913823   0.077   0.876  14.792  0.4519  0.1993  0.2455
    1TCq1    O513824   4.687   0.825  14.772 -0.0592 -0.2707 -0.2959
    1TCq1    O613825   0.148   0.879  14.895  0.4395 -0.4676 -0.1667
    1TCq1    H113826   0.108   1.261  14.371  2.1065 -0.9387  0.0752
    1TCq1    H213827   0.007   0.887  14.529 -1.2290  0.2234  0.6510
    1TCq1    H313828   0.276   1.059  14.822  0.2981  0.2322  0.4357
    1TCq1    H413829   0.290   1.174  14.412  0.7692 -0.2367  0.8222
    2MPD2     C13830   0.697   1.623  14.572 -0.6757 -0.3874 -0.1745
    2MPD2    C113831   0.568   1.656  14.541 -0.3900  0.1600 -0.0233
    2MPD2    C213832   0.474   1.553  14.524  0.5930 -0.5817 -0.1258
    2MPD2    C313833   0.512   1.425  14.566  0.2621 -0.6725  0.0360
    2MPD2    C413834   0.637   1.394  14.607 -0.2245 -0.4880  0.6234
    2MPD2    C513835   0.731   1.494  14.604  0.2347  0.1836  0.3172
    2MPD2     H13836   0.371   1.574  14.495  0.1015  0.7907  2.5871
    2MPD2    H113837   0.671   1.299  14.646  0.5265 -0.9534 -1.1763
    2MPD2    H213838   0.775   1.696  14.590 -2.4992  1.0252  1.9528
    2MPD2    H313839   0.830   1.464  14.635  0.1410 -2.7042 -2.1351
    2MPD2     N13840   0.414   1.322  14.560  0.3118 -0.7034  0.3207
    2MPD2    H513841   0.331   1.334  14.504  0.4223  1.0230  0.5481
    2MPD2    N113842   0.529   1.795  14.536  0.6598  0.4414  0.6712
    2MPD2    H713843   0.432   1.818  14.519  0.1353 -2.4763 -0.3050
    3TMC2    C113844   0.537   2.027  14.515 -0.5645  0.1610  0.1723
    3TMC2    C213845   0.436   2.023  14.421 -0.4755  0.1826 -0.2617
    3TMC2    C313846   0.390   2.142  14.373 -0.7143  0.9896  0.5180
    3TMC2    C413847   0.601   2.142  14.551 -0.0308 -0.4325 -0.5666
    3TMC2    C513848   0.549   2.260  14.496  1.0007  0.9697 -0.1762
    3TMC2    C613849   0.440   2.264  14.413 -1.2470 -0.0224  0.2347
    3TMC2     C13850   0.613   1.903  14.550  0.3582  0.0355  0.6348
    3TMC2     O13851   0.729   1.910  14.584 -0.3553 -0.3614  0.3698
    3TMC2     H13852   0.383   1.935  14.388  0.8685 -0.1332 -1.5736
    3TMC2    H113853   0.679   2.138  14.626 -0.1298 -0.3211 -0.4568
    3TMC2    H213854   0.393   2.355  14.377  0.3460  0.1781 -1.3589
    3TMC2    C713855   0.606   2.385  14.557 -0.9429  0.0777 -0.5087
    3TMC2    C813856   0.266   2.139  14.304 -0.3100  0.0670  0.4226
    3TMC2    O113857   0.640   2.376  14.677 -0.6615 -0.4913  0.6579
    3TMC2    O213858   0.195   2.235  14.305 -0.5024 -0.1020  0.0163
    3TMC2    O513859   0.303   2.068  14.196  0.7667  0.1191  0.0689
    3TMC2    H513860   0.379   2.007  14.208 -1.7597 -2.6286  2.1297
    4MPD2     C13861   4.533   3.256  14.028  0.5410 -0.6029  0.0336
    4MPD2    C113862   4.603   3.255  13.906 -0.8425 -1.2785 -0.1484
    4MPD2    C213863   0.024   3.257  13.919 -0.2490 -0.5281 -0.0283
    4MPD2    C313864   0.088   3.238  14.041  0.0770 -0.1650 -0.3212
    4MPD2    C413865   0.010   3.227  14.156 -0.5031 -0.0349 -0.3379
    4MPD2    C513866   4.594   3.240  14.148 -0.1085 -0.0584 -0.7353
    4MPD2     H13867   0.089   3.274  13.834  0.1896 -0.9654  0.2277
    4MPD2    H113868   0.053   3.212  14.254 -1.1907  0.1993  0.0030
    4MPD2    H213869   4.425   3.266  14.028  0.5899 -0.0827  0.8629
    4MPD2    H313870   4.529   3.246  14.235  0.4105  0.2938 -0.3685
    4MPD2     N13871   0.230   3.228  14.033 -0.2870  0.8830 -0.1372
    4MPD2    H513872   0.268   3.213  13.940 -1.1290 -0.5943 -0.2431
    4MPD2    N113873   4.541   3.263  13.781  0.4363 -0.1182 -0.3771
    4MPD2    H713874   4.440   3.261  13.789  0.3849  0.3589 -0.8541
    5TCq2    C113875   0.311   3.240  14.145  0.0132  0.5892 -0.6245
    5TCq2    O213876   0.272   3.248  14.263  0.5451  0.6431  0.3612
    5TCq2    C213877   0.446   3.202  14.111 -0.3635 -0.4190 -0.3178
    5TCq2    C313878   0.483   3.234  13.979 -0.2264 -0.4238 -0.4481
    5TCq2    C413879   0.587   3.159  13.923  0.3059 -0.1877 -0.7910
    5TCq2    C513880   0.648   3.053  13.994  0.3106  0.0235  0.7179
    5TCq2    C613881   0.604   3.030  14.123  0.0561 -0.4631  0.5518
    5TCq2    C713882   0.504   3.098  14.186 -0.2578  0.9047  0.1994
    5TCq2    C813883   0.646   2.907  14.182 -0.7131  0.2013  0.7233
    5TCq2    O413884   0.674   2.813  14.111  0.0494  0.4148  0.6189
    5TCq2    C913885   0.623   3.184  13.785 -0.4658  0.0308  0.5607
    5TCq2    O513886   0.700   3.107  13.723  0.3992  0.1784 -0.1092
    5TCq2    O613887   0.570   3.280  13.731 -0.6643 -0.4030 -0.3136
    5TCq2    H213888   0.428   3.308  13.922 -1.8863 -2.9165 -2.0464
    5TCq2    H313889   0.725   2.993  13.946  0.4032  2.1117 -1.7472
    5TCq2    H413890   0.464   3.083  14.286  1.8776  0.0725  0.9528
    6MPD1     C13891   4.284   3.290  11.785  0.1995  0.4153 -0.5683
    6MPD1    C113892   4.158   3.239  11.837  0.6110 -0.9175  0.3658
    6MPD1    C213893   4.153   3.249  11.978 -0.3748  0.1594 -0.4490
    6MPD1    C313894   4.263   3.285  12.054 -0.0106  0.0498 -0.7833
    6MPD1    C413895   4.373   3.343  11.997 -0.0173  0.7571 -0.9703
    6MPD1    C513896   4.384   3.343  11.861  0.4990 -0.0143  0.5395
    6MPD1     H13897   4.055   3.242  12.025 -0.7395 -0.5415 -1.3111
    6MPD1    H113898   4.451   3.390  12.056  0.6197 -3.8295  1.8429
    6MPD1    H213899   4.302   3.296  11.678  0.7143 -0.1334 -0.5113
    6MPD1    H313900   4.481   3.367  11.819  0.2091  2.7400  1.4404
    6MPD1     N13901   4.261   3.284  12.197  0.3914 -0.4675  0.5239
    6MPD1    H513902   4.345   3.312  12.247  1.3817 -2.3839 -0.0896
    6MPD1    N113903   4.044   3.216  11.756  0.6212  0.5304  0.2394
    6MPD1    H613904   3.965   3.171  11.802  1.1385 -0.7239 -0.0972
    6MPD1    H713905   4.065   3.157  11.676  0.0259 -0.6519  0.9588
    7MPD2     C13906   4.692   3.413  12.800  0.0349 -0.2770  0.3072
    7MPD2    C113907   4.555   3.383  12.835  0.4253  0.1433 -0.0037
    7MPD2    C213908   4.512   3.414  12.965 -0.2122 -0.2632  0.4501
    7MPD2    C313909   4.592   3.466  13.066  0.3883 -0.3283 -0.5266
    7MPD2    C413910   4.721   3.496  13.027  0.0563 -0.1433  0.1380
    7MPD2    C513911   0.047   3.473  12.897  0.2827 -0.2781  0.5528
    7MPD2     H13912   4.410   3.391  12.995 -0.6762  2.5694  1.0974
    7MPD2    H113913   0.074   3.537  13.094  1.2178 -1.4553 -0.3546
    7MPD2    H213914   0.005   3.389  12.701 -0.9013  1.6352 -0.4828
    7MPD2    H313915   0.152   3.495  12.878  0.6278 -1.0882  1.4930
    7MPD2     N13916   4.560   3.473  13.205 -0.2213  0.3588  0.3016
    7MPD2    H513917   4.636   3.504  13.264 -0.1981  0.7455  0.0667
    7MPD2    N113918   4.472   3.322  12.743 -0.2947  0.1622 -0.3004
    7MPD2    H713919   4.380   3.318  12.786  0.4364 -0.3859  1.2241
    8TMC3    C113920   4.422   3.444  13.391  0.3488 -0.8020 -1.1353
    8TMC3    C213921   4.523   3.403  13.467 -0.1630  0.2199  0.8160
    8TMC3    C313922   4.498   3.307  13.559  0.5384  0.2615 -0.0527
    8TMC3    C413923   4.284   3.402  13.414  0.0789  0.1262  0.6023
    8TMC3    C513924   4.261   3.305  13.507 -0.0163  0.4013  0.9183
    8TMC3    C613925   4.376   3.247  13.569  0.4387 -0.0150  0.5913
    8TMC3     C13926   4.434   3.466  13.250  0.1135  0.7774 -0.7674
    8TMC3     O13927   4.330   3.427  13.194 -0.0584  0.6316  0.2178
    8TMC3     H13928   4.625   3.426  13.442 -0.0768  0.8610  1.7384
    8TMC3    H113929   4.198   3.452  13.370 -0.6154 -0.6998  1.0201
    8TMC3    H213930   4.357   3.156  13.624  2.7661 -2.5797 -2.8206
    8TMC3    C713931   4.168   3.211  13.445 -0.0402 -0.2064 -0.0286
    8TMC3    C813932   4.594   3.304  13.666 -0.3098 -0.1308 -0.4166
    8TMC3    O113933   4.144   3.103  13.500 -0.0231 -0.5958  0.4183
    8TMC3    O213934   4.696   3.366  13.656  0.4116 -0.5210  0.4214
    9TMC3    C113935   4.219   3.193  12.408  0.7576 -0.1821  0.0505
    9TMC3    C213936   4.126   3.151  12.491  0.1263  0.1930  0.3516
    9TMC3    C313937   4.162   3.133  12.624  0.5256  0.9147  0.1116
    9TMC3    C413938   4.348   3.226  12.441  0.4844 -0.2746 -0.5044
    9TMC3    C513939   4.372   3.211  12.574  0.2350  0.4242  0.0954
    9TMC3    C613940   4.286   3.168  12.666  0.6960 -0.5102 -0.2937
    9TMC3     C13941   4.167   3.223  12.277  0.2171 -0.8080  0.0556
    9TMC3     O13942   4.068   3.167  12.236 -0.3882  1.1619  0.1231
    9TMC3     H13943   4.022   3.147  12.462 -0.1426  0.2449  1.3153
    9TMC3    H113944   4.419   3.278  12.377 -1.2219  0.8491 -1.4719
    9TMC3    H213945   4.319   3.129  12.761 -3.6808  0.1860  1.4915
    9TMC3    C713946   4.495   3.272  12.621  0.4854 -0.2221 -0.1134
    9TMC3    C813947   4.061   3.111  12.729  0.5801  0.4024 -0.5059
    9TMC3    O113948   4.602   3.264  12.559 -0.8413 -0.3158 -0.1262
    9TMC3    O213949   3.954   3.054  12.714 -0.3546  0.1587 -0.0444
   10MPD2     C13950   3.969   3.095  13.237  0.1985  0.4114  0.3134
   10MPD2    C113951   4.068   3.184  13.213 -0.0666 -0.0180  0.1350
   10MPD2    C213952   4.095   3.218  13.078 -1.1558 -0.4753  0.4498
   10MPD2    C313953   4.050   3.147  12.973 -0.5514 -0.2450  0.0148
   10MPD2    C413954   3.958   3.044  13.001  0.1415  0.5277  0.0171
   10MPD2    C513955   3.911   3.036  13.134 -0.1512  0.5948  0.5671
   10MPD2     H13956   4.173   3.291  13.059  0.0464 -1.1790  2.6766
   10MPD2    H113957   3.922   2.980  12.921 -1.3432  2.7926 -1.0972
   10MPD2    H213958   3.938   3.063  13.336  0.6862  0.2270  0.4077
   10MPD2    H313959   3.841   2.954  13.150 -0.6674  0.5614 -1.7580
   10MPD2     N13960   4.095   3.176  12.843 -0.1542 -0.3154  0.5470
   10MPD2    H513961   4.173   3.242  12.837 -0.7433  0.4107  0.7934
   10MPD2    N113962   4.149   3.242  13.311 -0.0091  0.3363  0.2647
   10MPD2    H713963   4.205   3.320  13.279  0.6620 -0.5503 -0.7104
   11MPD2     C13964   0.683   2.662  14.616 -0.1535  0.6924 -0.7095
   11MPD2    C113965   0.624   2.627  14.498 -0.3502  1.0698 -0.7712
   11MPD2    C213966   0.614   2.718  14.395  0.4706 -0.5486  0.6152
   11MPD2    C313967   0.673   2.845  14.417 -0.6810  0.3423 -0.6696
   11MPD2    C413968   0.705   2.890  14.545  0.1221  0.4878  0.0898
   11MPD2    C513969   0.718   2.794  14.641  0.1229 -0.0950  0.0289
   11MPD2     H13970   0.561   2.693  14.304  0.9163  0.6954  0.0179
   11MPD2    H113971   0.723   2.994  14.570 -0.6175  0.8490 -0.8295
   11MPD2    H213972   0.692   2.595  14.701 -1.3310  0.5888 -0.6653
   11MPD2    H313973   0.735   2.815  14.746  2.4633  0.0502 -0.3727
   11MPD2     N13974   0.665   2.936  14.314 -0.2859 -0.9821  0.2177
   11MPD2    H513975   0.655   3.035  14.334 -1.2579 -1.4995  2.2353
   11MPD2    N113976   0.589   2.490  14.472 -0.1448  0.4686  0.2346
   11MPD2    H713977   0.575   2.474  14.372 -1.6231 -0.6672  0.6253
    1MPD1     C13978   2.655   3.643  16.937 -0.4893 -0.0489  0.6095
    1MPD1    C113979   2.694   3.598  17.064 -0.0128  0.6490  0.0964
    1MPD1    C213980   2.829   3.604  17.099  0.7941  0.2411 -0.6345
    1MPD1    C313981   2.926   3.662  17.011  0.7867  0.0179  0.5143
    1MPD1    C413982   2.886   3.710  16.888  0.6244  0.3522 -0.2832
    1MPD1    C513983   2.750   3.699  16.854  0.5013 -0.2874 -0.1767
    1MPD1     H13984   2.845   3.550  17.192  0.2250 -0.9719 -1.2589
    1MPD1    H113985   2.957   3.751  16.818  1.5589 -0.4365  0.1936
    1MPD1    H213986   2.549   3.646  16.915 -0.8875  2.1387  2.7574
    1MPD1    H313987   2.714   3.733  16.757 -0.5233  0.4471  0.4692
    1MPD1     N13988   3.064   3.646  17.034  0.5002  0.1387 -0.1912
    1MPD1    H513989   3.126   3.678  16.960  0.4697 -2.7826 -1.4992
    1MPD1    N113990   2.601   3.564  17.159 -0.1158 -0.2946  0.0682
    1MPD1    H613991   2.624   3.489  17.223  0.2299 -1.1551 -1.0558
    1MPD1    H713992   2.525   3.519  17.109 -0.7826 -0.8151  1.5681
    2MPD1     C13993   3.477   3.014  17.678  0.6534 -0.8453 -0.4834
    2MPD1    C113994   3.370   3.099   0.002 -0.2912  0.3564 -0.0838
    2MPD1    C213995   3.369   3.211  17.607  0.1114 -0.3757  0.5019
    2MPD1    C313996   3.458   3.223  17.498 -0.0750 -0.1783  0.0694
    2MPD1    C413997   3.547   3.118  17.471  0.2523  0.2085  0.0901
    2MPD1    C513998   3.562   3.024  17.575  0.2342 -0.3393 -0.1708
    2MPD1     H13999   3.287   3.280  17.625  1.7886  1.8849 -0.5797
    2MPD1    H114000   3.610   3.114  17.383 -0.2036 -1.6587 -0.1637
    2MPD1    H214001   3.479   2.923   0.048  2.3338  0.1207  0.9009
    2MPD1    H314002   3.628   2.943  17.547  0.9762  0.3707 -0.4870
    2MPD1     N14003   3.438   3.338  17.419 -0.4469 -0.2414  0.4484
    2MPD1    H514004   3.368   3.398  17.461  0.7033  0.3086  1.5654
    2MPD1    N114005   3.297   3.095   0.128 -0.1497 -0.4773  0.2980
    2MPD1    H614006   3.201   3.128   0.116  0.0212  0.1106  0.5604
    2MPD1    H714007   3.297   3.000   0.165 -0.9114 -1.2270 -1.6211
    3TMC3    C114008   3.451   3.493  17.244 -0.2229 -0.1641 -0.1458
    3TMC3    C214009   3.527   3.571  17.163  0.2572 -1.1597 -0.4647
    3TMC3    C314010   3.473   3.669  17.086  0.1794  0.1471 -0.4832
    3TMC3    C414011   3.317   3.499  17.233  0.6454 -0.2826 -0.1630
    3TMC3    C514012   3.259   3.597  17.158 -0.1037  0.1692 -0.2876
    3TMC3    C614013   3.339   3.687  17.087 -0.0904 -0.4703  0.1447
    3TMC3     C14014   3.516   3.382  17.317 -0.3423  0.3912 -0.3269
    3TMC3     O14015   3.623   3.336  17.271 -0.0359 -0.0223  0.3169
    3TMC3     H14016   3.628   3.532  17.167 -0.1996 -2.1000  1.8628
    3TMC3    H114017   3.257   3.415  17.267  1.4135 -1.0509 -0.6979
    3TMC3    H214018   3.297   3.780  17.050  0.9521 -0.3458 -0.7383
    3TMC3    C714019   3.118   3.609  17.155 -0.1256 -0.6712 -0.1449
    3TMC3    C814020   3.550   3.765  17.007 -0.8026 -0.0201  0.6820
    3TMC3    O114021   3.061   3.557  17.250  0.1400 -0.4982  0.3488
    3TMC3    O214022   3.489   3.854  16.945 -0.0524 -0.2686  0.0690
    4MPD1     C14023   3.995   3.949  16.808  0.1529  0.1622  0.1365
    4MPD1    C114024   4.008   3.811  16.822  0.3434 -0.2075  0.2813
    4MPD1    C214025   3.909   3.737  16.887 -0.4610 -0.0094 -0.1760
    4MPD1    C314026   3.788   3.800  16.926 -0.0995 -0.2241 -0.3600
    4MPD1    C414027   3.774   3.936  16.911 -0.1591  0.5487 -0.1967
    4MPD1    C514028   3.876   4.005  16.849 -0.1016 -0.4103  0.7946
    4MPD1     H14029   3.929   3.636  16.921 -1.0090  0.0369  0.2822
    4MPD1    H114030   3.694   3.993  16.957  0.8066 -0.9097  3.3526
    4MPD1    H214031   4.080   4.009  16.777  1.9152 -1.1667  2.3043
    4MPD1    H314032   3.872   4.113  16.856 -0.1806 -0.3034 -0.8775
    4MPD1     N14033   3.686   3.721  16.991 -0.4799  0.0494 -0.9459
    4MPD1    H514034   3.716   3.629  17.023 -0.0764 -0.0412 -1.5840
    4MPD1    N114035   4.124   3.749  16.782 -0.6641 -0.2026 -0.1963
    4MPD1    H614036   4.116   3.647  16.779 -1.1395 -0.1934  0.7856
    4MPD1    H714037   4.180   3.803  16.716 -1.0624 -1.2100 -1.3735
    1TCq1    O114038   3.729   4.499  11.454  0.0153  0.2736 -0.5834
    1TCq1    C114039   3.812   4.567  11.535  0.0096  0.3322 -0.5012
    1TCq1    O214040   3.888   4.659  11.501 -0.5863  0.2608 -0.2538
    1TCq1    C214041   3.854   4.484  11.641  0.0842 -0.9350 -0.7003
    1TCq1    C314042   3.904   4.559  11.746  0.0491 -0.3363  0.4758
    1TCq1    C414043   3.929   4.485  11.857 -0.2138 -0.3435  0.4834
    1TCq1    C514044   3.923   4.343  11.863  0.5831 -0.2484  0.0081
    1TCq1    C614045   3.885   4.277  11.745  0.2580 -0.5256 -0.2151
    1TCq1    C714046   3.841   4.347  11.635 -0.3596  0.1143 -0.1282
    1TCq1    C814047   3.859   4.135  11.755  0.2106 -0.4358  0.3179
    1TCq1    O414048   3.792   4.087  11.664  0.5337  0.3390  0.3198
    1TCq1    C914049   3.996   4.550  11.974  0.5195 -0.1917 -0.4967
    1TCq1    O514050   3.989   4.679  11.974  0.1439  0.0749  0.2576
    1TCq1    O614051   4.063   4.481  12.051 -0.0642 -0.8468  0.6338
    1TCq1    H114052   3.686   4.433  11.513 -2.7924  1.4664 -1.2732
    1TCq1    H214053   3.904   4.668  11.751 -2.3096 -0.3124  0.2067
    1TCq1    H314054   3.943   4.289  11.955  2.3180  4.1664  2.2445
    1TCq1    H414055   3.813   4.295  11.544 -1.5936 -0.8257  0.7788
    2MPD1     C14056   3.960   3.640  11.861 -0.0743 -0.4130  0.1375
    2MPD1    C114057   4.028   3.722  11.945 -0.5598  0.6366 -0.2450
    2MPD1    C214058   4.013   3.861  11.942  0.0956 -0.1761  0.3363
    2MPD1    C314059   3.932   3.925  11.851 -0.0198 -0.2237 -0.6828
    2MPD1    C414060   3.868   3.841  11.758  0.6539  0.5303  0.2162
    2MPD1    C514061   3.882   3.703  11.769  0.7309 -0.5201  0.4188
    2MPD1     H14062   4.048   3.929  12.019  1.3113 -0.4350  0.0171
    2MPD1    H114063   3.808   3.862  11.671  0.4819 -0.8358  0.0038
    2MPD1    H214064   3.986   3.535  11.858  2.7876  0.3477 -2.1740
    2MPD1    H314065   3.839   3.639  11.693 -0.2001  0.6165 -0.0142
    2MPD1     N14066   3.925   4.067  11.854 -0.2392 -0.1466  0.7263
    2MPD1    H514067   3.980   4.125  11.917  1.8102  2.4439 -3.4805
    2MPD1    N114068   4.134   3.667  12.026 -0.2453 -0.0609 -0.1827
    2MPD1    H614069   4.144   3.566  12.021  0.9914  0.0796 -0.6061
    2MPD1    H714070   4.127   3.690  12.125  0.7231  2.2475 -0.6491
    1TCq1    O114071   1.627   0.455   9.954 -0.2987  0.7787  0.4554
    1TCq1    C114072   1.733   0.432   9.878 -0.8200 -0.0178 -0.2326
    1TCq1    O214073   1.845   0.410   9.922 -0.0481  0.0780 -0.0125
    1TCq1    C214074   1.671   0.353   9.781  0.0184  0.4111 -0.0570
    1TCq1    C314075   1.585   0.414   9.700  0.7304  0.9779  0.2486
    1TCq1    C414076   1.509   0.325   9.628 -0.7250  0.3564 -0.3399
    1TCq1    C514077   1.521   0.192   9.642 -0.5565  0.2227 -0.0201
    1TCq1    C614078   1.595   0.132   9.752  0.1632  0.4410 -0.3917
    1TCq1    C714079   1.670   0.223   9.824  0.8845 -0.0483 -0.7679
    1TCq1    C814080   1.621   4.712   9.747 -1.1546 -0.3551  0.6392
    1TCq1    O414081   1.591   4.650   9.647 -0.0455 -0.1119  0.2640
    1TCq1    C914082   1.450   0.381   9.510  0.7717 -0.3521 -0.2833
    1TCq1    O514083   1.377   0.309   9.434 -0.0995  0.0635  0.2730
    1TCq1    O614084   1.456   0.506   9.499 -0.7244 -0.8025 -0.2644
    1TCq1    H114085   1.551   0.464   9.892  1.9197 -1.5969 -2.6697
    1TCq1    H214086   1.595   0.520   9.681 -1.5827  0.9188 -1.2379
    1TCq1    H314087   1.473   0.121   9.575  1.1052 -0.4984 -0.4587
    1TCq1    H414088   1.742   0.209   9.903  0.1826 -1.1429 -0.3170
    2MPD1     C14089   1.853   4.316   9.967 -0.3941 -0.2807  0.1810
    2MPD1    C114090   1.889   4.433  10.035 -0.1748 -0.0437 -0.6402
    2MPD1    C214091   1.840   4.557   9.997 -0.7748  0.4784 -0.0011
    2MPD1    C314092   1.755   4.560   9.885  0.3233  0.0288 -0.8569
    2MPD1    C414093   1.739   4.446   9.805 -0.8582 -0.0512  0.6346
    2MPD1    C514094   1.792   4.329   9.844  0.3098  0.5343  0.2909
    2MPD1     H14095   1.855   4.645  10.059 -2.0484  0.8491 -0.2083
    2MPD1    H114096   1.675   4.449   9.718  2.8190 -1.9748 -2.0989
    2MPD1    H214097   1.876   4.216  10.001 -1.2721  0.1396  2.0098
    2MPD1    H314098   1.794   4.236   9.787 -0.1047  1.3545 -1.0654
    2MPD1     N14099   1.703   4.690   9.853 -0.5505 -0.0887 -0.0836
    2MPD1    H514100   1.724   0.041   9.920  0.1283  1.0187 -1.4901
    2MPD1    N114101   1.961   4.420  10.154  0.0185  0.8168 -0.4123
    2MPD1    H614102   2.019   4.500  10.176  1.1525 -0.6226  1.8918
    2MPD1    H714103   2.023   4.339  10.147 -0.4361  0.4680 -0.4414
    1MPD1     C14104   0.568   4.597  10.696  0.1563  0.3503  0.4947
    1MPD1    C114105   0.625   4.721  10.673  0.2560 -0.3187 -0.2467
    1MPD1    C214106   0.725   0.033  10.756  0.0809 -0.0783  0.4790
    1MPD1    C314107   0.755   4.684  10.873 -0.1537  0.8203  0.4310
    1MPD1    C414108   0.683   4.573  10.902 -0.3310 -0.3144 -0.0204
    1MPD1    C514109   0.594   4.531  10.815  0.0090  0.5843  0.5829
    1MPD1     H14110   0.786   0.118  10.727 -0.0254 -0.5406 -1.1099
    1MPD1    H114111   0.696   4.525  10.998 -1.7575  2.1717  1.4310
    1MPD1    H214112   0.509   4.549  10.619 -0.7525 -1.3850  2.2713
    1MPD1    H314113   0.542   4.436  10.826  1.7109 -0.5886 -1.5170
    1MPD1     N14114   0.874   0.005  10.940 -0.5359  0.2117 -0.0769
    1MPD1    H514115   0.921   0.086  10.900  0.7803 -0.6678 -0.3014
    1MPD1    N114116   0.617   0.042  10.536  0.3828 -0.0911  0.5946
    1MPD1    H614117   0.520   0.046  10.505  0.3558  0.0504  0.6988
    1MPD1    H714118   0.651   0.135  10.514 -0.5194 -0.2354 -1.3598
    2MPD1     C14119   0.217   4.489  11.210  0.1051  0.0828  0.0597
    2MPD1    C114120   0.129   4.392  11.204 -0.8615  0.1146  0.7199
    2MPD1    C214121   0.174   4.273  11.154 -1.1809  0.1821 -0.3400
    2MPD1    C314122   0.305   4.234  11.134  0.0154  0.2155 -0.4640
    2MPD1    C414123   0.391   4.342  11.137 -0.0040 -0.8474  0.7216
    2MPD1    C514124   0.351   4.467  11.180  0.0927 -0.5212 -0.2663
    2MPD1     H14125   0.099   4.197  11.138  2.0393 -3.1412  0.4761
    2MPD1    H114126   0.491   4.320  11.100 -0.2066 -1.4527  0.5268
    2MPD1    H214127   0.188   4.592  11.230  1.1442  0.6684 -1.4199
    2MPD1    H314128   0.424   4.548  11.184 -1.4293  0.5972  4.6269
    2MPD1     N14129   0.354   4.108  11.094  0.2994 -0.5119  0.0100
    2MPD1    H514130   0.455   4.098  11.100  0.3373  0.3037  0.6286
    2MPD1    N114131   4.711   4.405  11.232 -0.0378 -0.0828 -0.3046
    2MPD1    H614132   4.706   4.494  11.280  0.8632 -0.2514  0.1124
    2MPD1    H714133   4.669   4.327  11.283 -0.5756  0.4695  0.0911
    3MPD1     C14134   4.547   3.264  10.897  0.1750  0.3568  0.0055
    3MPD1    C114135   4.545   3.348  11.010 -0.5225  0.3951 -0.4596
    3MPD1    C214136   4.651   3.432  11.031  0.4541 -0.1384 -0.2628
    3MPD1    C314137   0.036   3.445  10.946  0.2934  0.7668 -0.1644
    3MPD1    C414138   0.033   3.368  10.830 -0.0770  0.1577 -0.7826
    3MPD1    C514139   4.649   3.280  10.809 -0.2524  0.0838 -0.3689
    3MPD1     H14140   4.651   3.491  11.122  0.8313 -0.7709  0.1435
    3MPD1    H114141   0.121   3.374  10.767  1.3070  0.2844  1.1757
    3MPD1    H214142   4.466   3.195  10.877  0.2535  0.4751 -0.7196
    3MPD1    H314143   4.635   3.245  10.707 -2.5643 -0.0130 -0.0302
    3MPD1     N14144   0.135   3.528  10.996 -0.8250 -0.2580  0.2625
    3MPD1    H514145   0.120   3.567  11.088 -3.7004  0.3780 -0.4925
    3MPD1    N114146   4.425   3.359  11.083 -0.5262  0.2128  0.0446
    3MPD1    H614147   4.440   3.397  11.176 -0.1324 -0.6406  0.3258
    3MPD1    H714148   4.393   3.264  11.103 -2.4773  0.9293  0.2820
    4MPD2     C14149   1.482   4.505  10.677  0.4368  0.1475 -0.3513
    4MPD2    C114150   1.458   4.485  10.811  0.2315  0.6093  0.0650
    4MPD2    C214151   1.480   4.359  10.862 -0.1354  0.0891 -0.0169
    4MPD2    C314152   1.531   4.265  10.773 -0.7500  0.6480 -0.2123
    4MPD2    C414153   1.547   4.289  10.637  0.7883  0.0820 -0.1617
    4MPD2    C514154   1.518   4.413  10.590  0.2118 -0.3026  0.3472
    4MPD2     H14155   1.455   4.335  10.964 -0.4767  0.3370 -0.0409
    4MPD2    H114156   1.583   4.215  10.566  1.4138  0.7953 -0.5842
    4MPD2    H214157   1.471   4.606  10.640 -1.7384  0.2572  0.5408
    4MPD2    H314158   1.536   4.434  10.486 -1.5876 -0.6008 -0.0208
    4MPD2     N14159   1.528   4.130  10.809  0.2769  0.2334 -0.1910
    4MPD2    H514160   1.550   4.057  10.742 -0.1968  0.0922 -0.1932
    4MPD2    N114161   1.409   4.581  10.902 -0.2820 -0.1350 -0.3214
    4MPD2    H714162   1.410   4.552  11.000 -0.7294 -0.4961 -0.4208
    5TMC3    C114163   1.279   0.024  10.992  0.0776  0.4012  0.2365
    5TMC3    C214164   1.143   0.027  10.982 -0.6703 -0.1479 -0.1963
    5TMC3    C314165   1.068   4.700  11.082  0.4766 -0.0013  0.0438
    5TMC3    C414166   1.343   4.688  11.094  0.0160  0.0842  0.2312
    5TMC3    C514167   1.261   4.637  11.196  0.0720 -0.0840  0.4603
    5TMC3    C614168   1.128   4.645  11.192 -0.3345 -0.0976 -0.0194
    5TMC3     C14169   1.341   4.699  10.871  0.2839 -0.7136  0.0625
    5TMC3     O14170   1.321   0.027  10.762 -0.3340 -0.2257  0.2737
    5TMC3     H14171   1.099   0.060  10.889 -1.7601  0.9283  0.7009
    5TMC3    H114172   1.451   4.699  11.101 -0.0893  0.2238  1.8313
    5TMC3    H214173   1.059   4.613  11.269 -0.9942  1.0511 -0.1308
    5TMC3    C714174   1.312   4.506  11.228 -0.2129 -0.0710  0.3933
    5TMC3    C814175   0.929   4.661  11.048 -0.6387 -0.4747  0.1074
    5TMC3    O114176   1.412   4.469  11.167  0.2284  0.4111 -0.6325
    5TMC3    O214177   0.883   4.563  11.111  0.2484  0.4441  0.1721
    6TMC3    C114178   0.347   3.878  11.061  0.1565 -0.2120  0.3994
    6TMC3    C214179   0.270   3.766  11.032  0.4029  0.0349  0.2922
    6TMC3    C314180   0.335   3.651  10.996  0.0663 -0.2202  0.4810
    6TMC3    C414181   0.489   3.865  11.055  0.5321  0.2467 -0.0700
    6TMC3    C514182   0.548   3.755  11.004 -0.0454  0.5830  0.2707
    6TMC3    C614183   0.471   3.647  10.965 -0.4260 -0.9557 -0.1086
    6TMC3     C14184   0.274   4.001  11.080  0.0387 -0.3691  0.0914
    6TMC3     O14185   0.154   3.991  11.062  0.0986  0.4567  0.1161
    6TMC3     H14186   0.162   3.764  11.044  0.4749  0.5589  1.0042
    6TMC3    H114187   0.550   3.948  11.090 -1.1936  1.1036  0.8925
    6TMC3    H214188   0.514   3.559  10.917  0.0249 -1.8644  1.9744
    6TMC3    C714189   0.693   3.728  11.012  0.4159 -0.0725  0.0331
    6TMC3    C814190   0.253   3.552  10.928  0.1657  0.0796  0.2630
    6TMC3    O114191   0.770   3.823  11.020 -0.8103  0.2471  0.6012
    6TMC3    O214192   0.290   3.513  10.819 -0.6191  0.5137 -0.1375
    7MPD2     C14193   1.276   4.056  11.455  1.0420 -0.7782 -0.2184
    7MPD2    C114194   1.361   4.099  11.353  0.2503 -0.6429 -0.3364
    7MPD2    C214195   1.364   4.234  11.313 -0.9782 -0.7771  0.1798
    7MPD2    C314196   1.281   4.321  11.381  0.6494 -0.7821  0.2637
    7MPD2    C414197   1.209   4.284  11.490 -0.7341  0.1147 -0.0076
    7MPD2    C514198   1.208   4.152  11.524 -0.1783 -0.0058  0.4522
    7MPD2     H14199   1.416   4.259  11.221 -1.9236  0.3501 -0.0503
    7MPD2    H114200   1.154   4.359  11.545  0.8760  2.1359 -1.1680
    7MPD2    H214201   1.258   3.951  11.472 -1.9839 -0.4791 -1.4750
    7MPD2    H314202   1.149   4.115  11.608  1.0603  0.8952  1.7283
    7MPD2     N14203   1.257   4.460  11.346 -0.7985  0.5369 -0.1304
    7MPD2    H514204   1.189   4.509  11.404  2.6920  1.0546  3.5051
    7MPD2    N114205   1.429   4.006  11.268 -0.1988 -0.1133 -0.4681
    7MPD2    H714206   1.493   4.054  11.205 -0.6176  1.1303  0.0547
    8TMC3    C114207   1.490   3.812  11.151  0.0088 -0.4099 -0.0349
    8TMC3    C214208   1.403   3.733  11.084  0.1907 -0.2444  0.2972
    8TMC3    C314209   1.368   3.777  10.957 -0.0085  0.1513  0.3549
    8TMC3    C414210   1.562   3.901  11.083 -0.0127 -0.7555  0.1540
    8TMC3    C514211   1.521   3.951  10.963 -0.0712  0.0404  0.2568
    8TMC3    C614212   1.414   3.890  10.896  0.5659 -0.7517 -0.1572
    8TMC3     C14213   1.420   3.870  11.266 -0.0428 -1.0413 -0.5359
    8TMC3     O14214   1.349   3.795  11.337  0.7394 -0.3535 -0.3865
    8TMC3     H14215   1.349   3.660  11.143 -0.6563  1.6694  1.8987
    8TMC3    H114216   1.659   3.938  11.112 -0.6967 -0.0657  1.5696
    8TMC3    H214217   1.384   3.929  10.799  2.1207 -1.2033 -0.8220
    8TMC3    C714218   1.541   4.091  10.939  0.5930  0.4695  0.4596
    8TMC3    C814219   1.234   3.749  10.925 -0.2050  1.2421 -0.5387
    8TMC3    O114220   1.575   4.159  11.033  0.3363  0.6588 -0.4594
    8TMC3    O214221   1.158   3.833  10.876 -0.1541 -0.2536  0.5515
    9MPD2     C14222   1.097   3.426  11.033 -0.5590 -1.4161  0.2943
    9MPD2    C114223   1.086   3.550  10.986 -0.0117  0.1946 -0.0174
    9MPD2    C214224   0.960   3.605  10.979  0.5978 -0.7269 -0.2429
    9MPD2    C314225   0.848   3.535  11.019 -0.3641 -0.0041 -0.4266
    9MPD2    C414226   0.859   3.404  11.060  0.4549  0.1179  0.2111
    9MPD2    C514227   0.986   3.352  11.067 -0.1295  0.9306  0.1154
    9MPD2     H14228   0.950   3.704  10.937  1.3012  0.0249  1.3813
    9MPD2    H114229   0.775   3.340  11.083  0.9135 -0.9610 -1.0782
    9MPD2    H214230   1.194   3.378  11.038  0.7549  1.5038  2.4439
    9MPD2    H314231   0.997   3.245  11.082 -1.2013  0.6736 -0.9359
    9MPD2     N14232   0.719   3.591  11.013  0.1501 -0.1152 -0.4838
    9MPD2    H514233   0.634   3.536  11.022 -1.0533  1.3761 -2.9348
    9MPD2    N114234   1.207   3.620  10.961 -0.3106 -0.1908  0.0657
    9MPD2    H714235   1.289   3.564  10.984 -0.3475  0.0975  0.9021
    1MPD1     C14236   1.177   2.710  16.534 -0.3179 -0.0867 -0.0797
    1MPD1    C114237   1.082   2.653  16.452 -0.1602 -0.2862  0.6160
    1MPD1    C214238   0.953   2.643  16.494  0.3484 -0.1185  0.7200
    1MPD1    C314239   0.916   2.686  16.616  0.6022 -0.0374 -0.4797
    1MPD1    C414240   1.013   2.736  16.699  0.3300 -0.0702 -0.0415
    1MPD1    C514241   1.140   2.754  16.658 -0.2689  0.4798  0.8152
    1MPD1     H14242   0.885   2.591  16.427  0.0640  1.8710 -0.5298
    1MPD1    H114243   0.985   2.770  16.798 -0.3698 -0.1279 -0.2232
    1MPD1    H214244   1.283   2.705  16.512 -0.2063  0.6621  0.3109
    1MPD1    H314245   1.213   2.788  16.729  0.0775 -2.3480  1.8229
    1MPD1     N14246   0.785   2.669  16.673  0.0509  0.1611 -0.3146
    1MPD1    H514247   0.780   2.682  16.773  0.1191  1.8535 -0.5295
    1MPD1    N114248   1.133   2.558  16.358 -0.1522 -0.0035 -0.2599
    1MPD1    H614249   1.064   2.544  16.284 -1.9654 -2.8436  1.9747
    1MPD1    H714250   1.218   2.590  16.312  0.0372  0.4683  0.4163
    2MPD1     C14251   4.619   2.464  16.275  0.1458 -0.2469 -0.0088
    2MPD1    C114252   4.719   2.541  16.228  0.2411  0.2832  0.4480
    2MPD1    C214253   0.089   2.574  16.328  0.2465 -0.2259  0.5302
    2MPD1    C314254   0.071   2.552  16.466 -0.9838  0.9029  0.2733
    2MPD1    C414255   4.684   2.479  16.507 -0.7162  0.0247  0.2315
    2MPD1    C514256   4.598   2.435  16.409  0.1998  0.0482 -0.1312
    2MPD1     H14257   0.171   2.632  16.289 -1.5184 -0.1873 -3.1075
    2MPD1    H114258   4.674   2.463  16.614 -0.6286  1.9860  0.5441
    2MPD1    H214259   4.542   2.428  16.206  0.5015  0.3273 -0.7071
    2MPD1    H314260   4.506   2.385  16.436 -0.7838  1.7229 -0.3475
    2MPD1     N14261   0.178   2.597  16.545  0.1013 -0.2332 -0.1759
    2MPD1    H514262   0.252   2.649  16.500  1.4392 -1.2472  0.8705
    2MPD1    N114263   0.021   2.548  16.092  0.0034  0.2601  0.8132
    2MPD1    H614264   0.095   2.613  16.066  0.7044 -0.4539  1.0234
    2MPD1    H714265   4.657   2.570  16.043 -0.4457 -2.0871  0.5715
    3TCq2    C114266   0.189   2.565  16.680  0.3645  0.1366 -0.1391
    3TCq2    O214267   0.110   2.527  16.764  0.0996  0.3887  0.2174
    3TCq2    C214268   0.320   2.613  16.722 -0.6781  0.3863  0.0197
    3TCq2    C314269   0.325   2.644  16.855 -0.4886  0.1102  0.8846
    3TCq2    C414270   0.451   2.666  16.911  0.3378  0.8921  0.0301
    3TCq2    C514271   0.567   2.673  16.831  0.8156 -0.3200 -0.1414
    3TCq2    C614272   0.553   2.638  16.698  0.0274 -0.7257 -0.0471
    3TCq2    C714273   0.434   2.600  16.645 -0.2843  0.2468 -0.7553
    3TCq2    C814274   0.666   2.628  16.609  0.2349 -0.0566 -0.3632
    3TCq2    O414275   0.652   2.616  16.489  0.1109 -0.1629 -0.1160
    3TCq2    C914276   0.456   2.725  17.049 -0.4124 -0.3578 -0.4656
    3TCq2    O514277   0.346   2.743  17.107 -0.0584 -0.2834 -0.6015
    3TCq2    O614278   0.567   2.741  17.111 -0.9814  0.0974 -0.5980
    3TCq2    H214279   0.237   2.659  16.916 -0.2830 -0.6737  1.3879
    3TCq2    H314280   0.659   2.708  16.877  0.3912  1.1073 -0.3745
    3TCq2    H414281   0.433   2.570  16.540 -0.3963 -2.1121 -0.0878
    1TCq1    O114282   2.971   1.550  12.581 -0.0177 -0.2588  0.5118
    1TCq1    C114283   3.018   1.421  12.565  0.7274  0.0709  0.0440
    1TCq1    O214284   3.080   1.385  12.466 -0.0382 -0.6324  0.2337
    1TCq1    C214285   3.047   1.366  12.689  0.1950  0.2010  0.0793
    1TCq1    C314286   2.951   1.377  12.789  0.3638  0.7352 -0.0845
    1TCq1    C414287   2.979   1.315  12.909  0.2139  0.2158  0.0904
    1TCq1    C514288   3.105   1.284  12.941  0.6892 -0.3578 -0.1266
    1TCq1    C614289   3.204   1.297  12.854 -0.1918 -0.9909  1.0086
    1TCq1    C714290   3.178   1.339  12.732  0.7798 -0.0781 -0.5763
    1TCq1    C814291   3.340   1.262  12.890  0.1609 -0.7423 -0.0145
    1TCq1    O414292   3.415   1.244  12.796 -0.3715  0.1797  0.8020
    1TCq1    C914293   2.868   1.279  12.993  0.1488 -0.5832  0.1756
    1TCq1    O514294   2.754   1.282  12.937  0.0349  0.4657 -0.1787
    1TCq1    O614295   2.888   1.266  13.115  0.7756  0.1272 -0.1820
    1TCq1    H114296   2.920   1.565  12.664 -2.5763 -2.3318 -0.6912
    1TCq1    H214297   2.846   1.395  12.767 -0.3797 -2.0522  1.1367
    1TCq1    H314298   3.115   1.214  13.023  0.4086 -1.2623 -0.8575
    1TCq1    H414299   3.262   1.341  12.664  1.7071 -3.1438  0.4769
    2MPD2     C14300   3.583   1.203  13.043  0.1907  0.0287 -0.3773
    2MPD2    C114301   3.483   1.272  13.091 -0.5891  0.7849  0.5591
    2MPD2    C214302   3.487   1.312  13.222 -0.1157  0.0274 -0.1309
    2MPD2    C314303   3.590   1.282  13.310  0.1865 -0.2995  0.2212
    2MPD2    C414304   3.687   1.203  13.258  0.8179  1.0339 -0.0681
    2MPD2    C514305   3.685   1.171  13.125  0.3748  0.0300  0.7729
    2MPD2     H14306   3.403   1.369  13.260  0.3109 -0.8628  2.1543
    2MPD2    H114307   3.773   1.175  13.318  0.2609  0.6082  0.5286
    2MPD2    H214308   3.607   1.175  12.941 -0.7256  0.9516 -0.8465
    2MPD2    H314309   3.770   1.112  13.091  0.9307  0.1255  1.9931
    2MPD2     N14310   3.590   1.344  13.437  0.2614 -0.2523  0.3258
    2MPD2    H514311   3.509   1.400  13.462 -0.0024 -0.4703 -0.0502
    2MPD2    N114312   3.364   1.305  13.019  0.1614  0.4119 -0.1454
    2MPD2    H714313   3.285   1.342  13.071 -1.2555 -2.5290 -0.2329
    3TCq1    O114314   3.544   1.758  13.746 -0.0010 -0.0898 -0.1275
    3TCq1    C114315   3.443   1.671  13.773  0.3694  0.4946 -0.3195
    3TCq1    O214316   3.336   1.672  13.714 -0.1287 -0.0332 -0.3266
    3TCq1    C214317   3.527   1.558  13.779  0.1601  0.1908 -0.0554
    3TCq1    C314318   3.614   1.538  13.885  0.2026 -0.0074 -0.2674
    3TCq1    C414319   3.726   1.469  13.873  0.3598  0.6764  0.2856
    3TCq1    C514320   3.750   1.403  13.755  0.8683  0.0759 -0.0423
    3TCq1    C614321   3.667   1.425  13.649  0.2849  0.8568 -0.9759
    3TCq1    C714322   3.557   1.507  13.657  0.1776  0.5536  0.1833
    3TCq1    C814323   3.686   1.328  13.538  0.3091  0.0011 -0.0624
    3TCq1    O414324   3.788   1.264  13.545 -0.6707 -0.2879  0.5553
    3TCq1    C914325   3.811   1.444  13.989  0.2469 -0.1063 -0.0620
    3TCq1    O514326   3.781   1.494  14.104  0.4910  0.3159  0.1341
    3TCq1    O614327   3.928   1.414  13.954 -0.0489  0.1208 -0.3338
    3TCq1    H114328   3.622   1.730  13.798 -0.5319 -1.4068 -0.0641
    3TCq1    H214329   3.600   1.575  13.986 -1.3496 -1.2828 -0.0141
    3TCq1    H314330   3.834   1.335  13.753 -0.9707 -2.2072  0.2949
    3TCq1    H414331   3.503   1.546  13.571  0.7668 -1.1800 -0.9737
    1MPD2     C14332   3.327   2.587  14.819 -0.1388  0.2451 -0.1363
    1MPD2    C114333   3.257   2.521  14.920 -0.1213  0.2422 -0.2633
    1MPD2    C214334   3.298   2.394  14.966  0.4169  0.0176 -0.1190
    1MPD2    C314335   3.412   2.341  14.910  0.2024  0.0152 -0.8723
    1MPD2    C414336   3.481   2.408  14.810  0.2784  0.1595  0.0370
    1MPD2    C514337   3.438   2.525  14.764 -1.0643 -0.1140 -0.0642
    1MPD2     H14338   3.251   2.332  15.042 -1.4808  1.1432 -0.3954
    1MPD2    H114339   3.574   2.364  14.777 -1.3353 -1.3386 -2.4913
    1MPD2    H214340   3.301   2.686  14.782  2.2224  0.1006 -2.1771
    1MPD2    H314341   3.511   2.570  14.697  0.8849 -0.3757  1.8830
    1MPD2     N14342   3.463   2.223  14.964 -0.4304 -0.2609  0.1802
    1MPD2    H514343   3.416   2.182  15.045  1.9613  1.1949  2.3011
    1MPD2    N114344   3.139   2.591  14.968  0.5981 -0.0840 -0.0375
    1MPD2    H714345   3.099   2.671  14.919 -0.3990  0.5102  1.7339
    2TMC3    C114346   2.948   2.611  15.100 -0.8117  0.9249  0.3721
    2TMC3    C214347   2.897   2.558  15.214  0.1416 -0.0944  0.4503
    2TMC3    C314348   2.764   2.508  15.217  0.2946 -0.5169  0.5737
    2TMC3    C414349   2.871   2.605  14.982 -0.3833 -0.4378  0.3006
    2TMC3    C514350   2.747   2.559  14.992 -0.5054  0.0946  0.4562
    2TMC3    C614351   2.685   2.516  15.109  0.9701  0.2521  0.1332
    2TMC3     C14352   3.088   2.571  15.091 -0.1534 -0.0734 -1.0857
    2TMC3     O14353   3.128   2.490  15.173  0.1475  0.4824  0.0478
    2TMC3     H14354   2.949   2.550  15.309 -0.3245 -1.1131  0.6176
    2TMC3    H114355   2.923   2.622  14.889 -1.0954  0.2371  0.0216
    2TMC3    H214356   2.587   2.471  15.123  1.9440 -2.1977 -0.8747
    2TMC3    C714357   2.646   2.625  14.908 -1.2127  0.3243 -0.5923
    2TMC3    C814358   2.753   2.381  15.296  0.0919  0.1705  0.2965
    2TMC3    O114359   2.530   2.588  14.926  0.6700  0.0569  0.4482
    2TMC3    O214360   2.640   2.330  15.304  0.3665  0.1070  0.2974
    3TCq1    O114361   2.728   3.375  14.002  0.4373  0.0256 -0.1436
    3TCq1    C114362   2.847   3.312  13.995  0.1494  0.0192 -0.4816
    3TCq1    O214363   2.917   3.308  13.894 -0.0900  0.8937  0.5719
    3TCq1    C214364   2.872   3.242  14.119  0.8211 -0.0510  0.4740
    3TCq1    C314365   2.997   3.259  14.176  0.6351  0.3354 -0.2630
    3TCq1    C414366   3.012   3.227  14.307 -0.4108 -0.1881  0.6863
    3TCq1    C514367   2.906   3.199  14.389 -0.1810  1.2106  0.1259
    3TCq1    C614368   2.782   3.189  14.326 -0.1724 -0.5680 -0.1886
    3TCq1    C714369   2.764   3.209  14.195  0.4427 -0.5115  0.4957
    3TCq1    C814370   2.673   3.138  14.402 -0.0474  0.4894  0.3799
    3TCq1    O414371   2.561   3.190  14.374 -0.5421 -0.2099  0.1872
    3TCq1    C914372   3.139   3.253  14.369  0.0731  0.1552  0.4642
    3TCq1    O514373   3.139   3.306  14.487 -0.0423  0.0771  0.3154
    3TCq1    O614374   3.232   3.276  14.290 -0.1736 -0.1448 -0.0445
    3TCq1    H114375   2.684   3.368  14.090  0.2297  0.5027 -0.2109
    3TCq1    H214376   3.080   3.295  14.116  0.8952  0.2822  0.0625
    3TCq1    H314377   2.927   3.191  14.495 -0.8527  0.8161  0.2311
    3TCq1    H414378   2.669   3.193  14.146  1.8966 -1.0061 -2.1627
    4MPD2     C14379   2.497   3.007  14.600  0.0706  0.3033  0.3163
    4MPD2    C114380   2.636   2.995  14.597  0.1728  0.3226 -0.7167
    4MPD2    C214381   2.695   2.914  14.686 -0.5875  0.4431 -0.6095
    4MPD2    C314382   2.626   2.826  14.765 -0.3245  0.9749 -0.4809
    4MPD2    C414383   2.490   2.833  14.762 -0.0884 -0.0464 -0.1077
    4MPD2    C514384   2.422   2.924  14.683 -0.1674  0.2765 -0.2634
    4MPD2     H14385   2.802   2.925  14.681 -0.8897  3.3757 -0.8089
    4MPD2    H114386   2.431   2.761  14.817 -0.4903  1.8659  2.0031
    4MPD2    H214387   2.434   3.061  14.530  1.0271  0.5903 -0.3137
    4MPD2    H314388   2.314   2.927  14.677 -0.2009 -3.0900 -1.6797
    4MPD2     N14389   2.699   2.731  14.833  0.0948  0.4697 -0.5952
    4MPD2    H514390   2.798   2.750  14.824  0.4971 -0.8768  0.8610
    4MPD2    N114391   2.721   3.070  14.511 -0.8615  0.3631 -0.2888
    4MPD2    H714392   2.818   3.042  14.518 -0.5444  1.5934  0.2589
    5TMC2    C114393   3.404   1.953  15.149 -0.2130  0.2816  0.0172
    5TMC2    C214394   3.355   1.853  15.068  0.1122  0.1588  1.2073
    5TMC2    C314395   3.406   1.836  14.943  0.3733 -0.7500 -0.0183
    5TMC2    C414396   3.512   2.020  15.109 -0.0749  0.3694  0.5505
    5TMC2    C514397   3.558   2.011  14.984 -0.2282 -0.0007  0.0916
    5TMC2    C614398   3.512   1.913  14.898  0.6332 -0.0260 -0.1669
    5TMC2     C14399   3.303   2.027  15.223  0.7917 -0.0661  0.3044
    5TMC2     O14400   3.320   2.145  15.200 -0.6207 -0.0452  0.0798
    5TMC2     H14401   3.269   1.795  15.100 -0.8096 -0.0115 -1.5162
    5TMC2    H114402   3.551   2.103  15.167  1.5632  0.5229 -0.7592
    5TMC2    H214403   3.544   1.916  14.795 -2.8324 -0.7502 -1.2769
    5TMC2    C714404   3.564   2.138  14.920  0.2140  0.1520  0.1657
    5TMC2    C814405   3.348   1.740  14.852  0.6798 -0.1287  0.7635
    5TMC2    O114406   3.619   2.142  14.808 -0.0045  0.1122  0.5130
    5TMC2    O214407   3.402   1.693  14.756  0.6216 -0.3240 -0.2536
    5TMC2    O514408   3.225   1.783  14.854 -0.4408  0.0725 -0.4107
    5TMC2    H514409   3.218   1.867  14.904 -0.9158  0.2662 -0.8033
    6MPD2     C14410   2.816   2.107  15.388  0.0226  0.1528 -0.0731
    6MPD2    C114411   2.907   2.192  15.320 -0.1681 -0.1540  0.6423
    6MPD2    C214412   3.036   2.142  15.284  0.1814  0.1949  0.1486
    6MPD2    C314413   3.072   2.013  15.318  0.8334  0.6648 -0.2886
    6MPD2    C414414   2.987   1.933  15.396  0.3315 -0.2332  0.4526
    6MPD2    C514415   2.860   1.980  15.415 -0.3901  0.3968 -0.4952
    6MPD2     H14416   3.097   2.216  15.233 -0.2697 -0.6628 -1.6393
    6MPD2    H114417   3.016   1.834  15.428  0.1090 -0.6101 -0.4884
    6MPD2    H214418   2.719   2.141  15.421 -0.8972 -0.1978 -2.3997
    6MPD2    H314419   2.795   1.917  15.475 -0.6275  2.8197  1.7410
    6MPD2     N14420   3.200   1.960  15.283  0.3491 -0.3155 -0.2024
    6MPD2    H514421   3.216   1.862  15.302 -1.2016 -0.0066  2.6063
    6MPD2    N114422   2.874   2.321  15.281 -0.5591 -0.8873 -0.5462
    6MPD2    H714423   2.936   2.375  15.222 -0.5695 -1.2402 -0.8796
  945NH4     N114424   2.506   2.765  10.362 -0.6540 -0.7628 -0.4807
  945NH4     H214425   2.450   2.852  10.350  2.2291  1.5612  3.0385
  945NH4     H314426   2.605   2.797  10.362 -0.6537 -0.7346 -1.5968
  945NH4     H414427   2.487   2.708  10.277  0.2514 -1.7225 -0.0399
  945NH4     H514428   2.479   2.710  10.445 -0.6053 -0.1080 -0.0324
  946SOD     NA14429   1.827   1.862   8.401 -0.1110  0.3473  0.1533
  947SOD     NA14430   2.426   4.451   0.582  0.0624  0.3683  0.0537
  948SOD     NA14431   1.682   1.657  10.718 -0.2076  0.3545 -0.0051
  949SOD     NA14432   3.931   4.005   0.986  0.0524 -0.6818 -0.0345
  950SOD     NA14433   1.972   3.964   2.003 -0.5214 -0.3294  0.6480
  951SOD     NA14434   0.759   2.194   1.570 -0.1601  0.2263  0.0567
  952SOD     NA14435   1.425   1.750  10.934  0.3717 -0.0975  0.2193
  953SOD     NA14436   3.531   1.651  11.588  0.4656 -0.1931  0.1826
  954SOD     NA14437   3.700   0.963  12.140  0.0002  0.0812  0.0438
  955SOD     NA14438   1.307   1.692  16.852 -0.5783 -0.2435  0.4364
  956SOD     NA14439   2.901   1.264  13.331  0.4155  0.6199 -0.1675
  957SOD     NA14440   3.701   1.863  12.402 -0.1321 -0.3298 -0.4876
  958SOD     NA14441   2.318   0.529  15.181 -0.1046 -0.1183 -0.3074
  959SOD     NA14442   4.011   2.209  11.739  0.5192  0.3804 -0.0749
  960SOD     NA14443   4.226   1.932  11.659  0.0451 -0.3911 -0.3329
  961SOD     NA14444   2.170   3.490   9.697  0.4943 -0.1108  0.0256
  962SOD     NA14445   0.361   2.742   0.044  0.2448  0.2980 -0.4914
  963SOD     NA14446   1.109   4.546  16.360  0.6125 -0.4056  0.7686
  964SOD     NA14447   2.200   3.606   9.245 -0.3532 -0.2217 -0.2307
  965SOD     NA14448   3.126   1.322  10.376 -0.1192 -0.1294 -0.2559
  966SOD     NA14449   2.699   2.050  10.193 -0.0047  0.0348 -0.1087
  967SOD     NA14450   3.951   0.801  12.605  0.4368 -0.0972 -0.1347
  968SOD     NA14451   4.156   0.923   0.537 -0.2826  0.6851 -0.0670
  969SOD     NA14452   2.649   1.336  13.128 -0.4353 -0.2236  0.1660
  970SOD     NA14453   3.906   1.020   0.314 -0.3226 -0.0769 -0.1588
  971SOD     NA14454   1.796   1.392   4.536 -0.4108 -0.3113  0.0916
  972SOD     NA14455   0.235   4.586  14.589 -0.3579  0.0832  0.0959
  973SOD     NA14456   2.993   3.753  12.069 -0.1537  0.1394 -0.2469
  974SOD     NA14457   3.724   2.595   8.938 -0.1366  0.4392  0.3152
  975SOD     NA14458   2.918   0.560  10.945  0.2084 -0.5849  0.5147
  976SOD     NA14459   0.858   2.447  14.727 -0.4793  0.2496 -0.3531
  977SOD     NA14460   0.869   4.396  11.827 -0.1402 -0.1215  0.0546
  978SOD     NA14461   3.879   0.728  12.932  0.0359  0.0805  0.2620
  979SOD     NA14462   3.047   0.108   8.940 -0.1668  0.0710  0.3288
  980SOD     NA14463   4.578   1.596  14.352  0.1103 -0.2761  0.3840
  981SOD     NA14464   2.704   1.776  10.357  0.1130  0.0473  0.1039
  982SOD     NA14465   3.557   3.725  10.825 -0.8960  0.2262 -0.2382
  983SOD     NA14466   2.341   4.374   1.918 -0.4834 -0.0569  0.2007
  984SOD     NA14467   2.320   1.974   0.480 -0.1906  0.1635  0.3061
  985SOD     NA14468   2.221   0.541   8.436  0.5405 -0.0899  0.0427
  986SOD     NA14469   1.145   2.774  13.799 -0.2693  0.3760 -0.2553
  987SOD     NA14470   2.460   3.907  15.313  0.1097 -0.3628  0.5133
  988SOD     NA14471   4.570   3.107   2.718 -0.1161 -0.2142 -0.0213
  989SOD     NA14472   0.269   0.687   2.220  0.6813  0.2181 -0.2534
  990SOD     NA14473   3.915   2.456   9.188 -0.0073  0.4314  0.0366
  991SOD     NA14474   3.700   2.759  15.120 -0.4267 -0.1576  0.0964
  992SOD     NA14475   1.862   3.500  13.491  0.0381  0.2837  0.1679
  993SOD     NA14476   0.634   2.250  15.293 -0.1185 -0.2909 -0.0083
  994SOD     NA14477   3.410   3.160  14.310  0.6085  0.3640  0.4447
  995SOD     NA14478   1.306   2.772   1.078 -0.3184 -0.1319  0.1837
  996SOD     NA14479   3.920   2.143   9.467 -0.1906  0.3670  0.2895
  997SOD     NA14480   1.141   0.677   0.987 -0.5125 -0.2338 -0.1604
  998SOD     NA14481   3.822   1.706  11.310 -0.1470  0.3597 -0.0185
  999SOD     NA14482   3.763   3.113  12.685 -0.0285 -0.3374  0.0900
 1000SOD     NA14483   1.345   0.493   9.292 -0.0143 -0.2062  0.1552
 1001SOD     NA14484   1.052   2.276  14.958  0.3633  0.2711  0.2149
 1002SOD     NA14485   4.276   3.208   2.514  0.1903  0.8403  0.3477
 1003SOD     NA14486   2.386   1.272   1.987  0.3241 -0.5237 -0.3255
 1004SOD     NA14487   4.303   1.683  14.473 -0.2974  0.2862  0.0558
 1005SOD     NA14488   1.428   0.567  14.291 -0.1577  0.2341 -1.0327
 1006SOD     NA14489   1.721   0.373  14.176  0.3017 -0.3103 -0.0576
 1007SOD     NA14490   2.822   3.028   2.550  0.2559  0.2632  0.0313
 1008SOD     NA14491   0.764   0.193   0.439  0.1611 -0.0298  0.1157
 1009SOD     NA14492   4.589   2.792  11.201  0.1470 -0.0971  0.1607
 1010SOD     NA14493   4.201   4.352  17.339  0.0999 -0.1901  0.2446
 1011SOL     OW14494   4.189   0.660  14.907 -0.2582  0.0591  0.0358
 1011SOL    HW114495   4.260   0.631  14.965 -0.6112  2.7995  1.8232
 1011SOL    HW214496   4.201   0.599  14.834  0.2706  0.4233 -0.1886
 1012SOL     OW14497   2.814   0.211   3.288  0.3976 -0.2590  0.1505
 1012SOL    HW114498   2.777   0.167   3.212  0.6728 -1.1799  0.5341
 1012SOL    HW214499   2.891   0.155   3.299  1.3514  0.6941 -1.8316
 1013SOL     OW14500   1.009   3.730  12.103  0.8067 -0.0327  0.2865
 1013SOL    HW114501   1.013   3.666  12.032 -1.4019 -2.7787  2.6571
 1013SOL    HW214502   0.914   3.732  12.115  0.8219  2.1149  0.0511
 1014SOL     OW14503   0.680   0.404  10.787 -0.3151 -0.0934  0.3764
 1014SOL    HW114504   0.671   0.494  10.819  1.0831  1.0939 -2.5694
 1014SOL    HW214505   0.601   0.361  10.819 -0.8955  2.3135  2.1862
 1015SOL     OW14506   3.426   1.099   6.995 -0.1363 -1.0588  0.4733
 1015SOL    HW114507   3.401   1.161   6.926  3.6549 -0.1081 -0.0554
 1015SOL    HW214508   3.512   1.070   6.965  0.8397 -0.0010  2.1936
 1016SOL     OW14509   2.718   2.997   5.170  0.5092 -0.6670  0.0267
 1016SOL    HW114510   2.771   2.922   5.197  0.2991 -0.9364 -0.3114
 1016SOL    HW214511   2.698   2.977   5.079  2.7240  1.6982 -0.9924
 1017SOL     OW14512   3.621   1.686   5.688 -0.2428 -0.0633 -0.4220
 1017SOL    HW114513   3.653   1.745   5.620 -1.0257 -0.6060 -1.2536
 1017SOL    HW214514   3.685   1.615   5.683  0.3926  0.5832 -1.4520
 1018SOL     OW14515   4.650   3.412  16.316 -0.1157  0.1172  0.2186
 1018SOL    HW114516   4.598   3.357  16.375  1.0817  0.3454  1.4993
 1018SOL    HW214517   0.012   3.372  16.338 -0.5811 -1.0449 -0.1138
 1019SOL     OW14518   1.076   3.464   7.872 -0.2853  0.8604 -0.8512
 1019SOL    HW114519   0.989   3.443   7.839 -0.0052  0.0215 -1.0514
 1019SOL    HW214520   1.095   3.542   7.819  0.3265  1.8509  0.8132
 1020SOL     OW14521   3.918   0.142  15.069  0.1606  0.0302 -0.5328
 1020SOL    HW114522   3.984   0.090  15.023  0.9704  0.2269  0.4165
 1020SOL    HW214523   3.947   0.144  15.160 -1.8177 -1.5620  0.1240
 1021SOL     OW14524   3.608   0.359   6.831  0.5335  0.1357 -0.3227
 1021SOL    HW114525   3.614   0.263   6.831 -3.1943 -0.0925 -0.0783
 1021SOL    HW214526   3.514   0.376   6.834  0.9547  2.1434  0.8390
 1022SOL     OW14527   1.056   4.529   6.371 -0.4134 -0.1117  0.1360
 1022SOL    HW114528   0.983   4.498   6.424 -0.5581 -1.6434 -0.9635
 1022SOL    HW214529   1.113   4.456   6.394  0.6868  0.7414  0.1425
 1023SOL     OW14530   2.804   3.065   8.102  0.1619  0.3973 -0.3364
 1023SOL    HW114531   2.881   3.095   8.053 -0.4339  0.1078 -1.4550
 1023SOL    HW214532   2.852   3.033   8.179  0.6349  3.4512  0.6452
 1024SOL     OW14533   0.052   1.595  16.709 -0.5936 -0.6309 -0.2112
 1024SOL    HW114534   0.137   1.590  16.665 -1.3686 -4.4061 -1.2938
 1024SOL    HW214535   0.014   1.669  16.661  1.5445  0.3916 -0.3636
 1025SOL     OW14536   4.674   2.638  13.765 -0.4838 -0.4283  0.1901
 1025SOL    HW114537   0.041   2.618  13.795 -0.7134  0.0941  1.1987
 1025SOL    HW214538   4.691   2.725  13.728 -0.2811 -0.5870 -0.0962
 1026SOL     OW14539   2.372   1.896   8.718  0.1049 -0.3784  0.7807
 1026SOL    HW114540   2.393   1.988   8.735  0.5626 -0.5174  0.9379
 1026SOL    HW214541   2.451   1.852   8.746  1.0983 -1.1987 -3.3260
 1027SOL     OW14542   1.990   1.597   5.315 -0.0335  0.3967 -0.2355
 1027SOL    HW114543   2.037   1.578   5.234  0.3517 -0.5543  0.2116
 1027SOL    HW214544   1.905   1.631   5.286 -0.7566  1.2371  2.9491
 1028SOL     OW14545   1.242   0.746  12.388  0.1031 -0.1416 -0.1807
 1028SOL    HW114546   1.256   0.718  12.479 -1.0909  1.6634  0.5698
 1028SOL    HW214547   1.175   0.813  12.402 -0.9634 -1.2140 -0.2089
 1029SOL     OW14548   3.749   4.588   9.773 -0.0627 -0.3265  0.3264
 1029SOL    HW114549   3.719   4.598   9.683 -2.4696  1.7556  1.3549
 1029SOL    HW214550   3.832   4.633   9.765  0.6503 -1.4391  1.3655
 1030SOL     OW14551   0.055   3.814  12.045  0.5704 -0.0757  0.5053
 1030SOL    HW114552   0.079   3.804  11.953 -1.7759 -0.0154 -0.1363
 1030SOL    HW214553   0.069   3.724  12.073  0.3240 -0.7985 -1.6731
 1031SOL     OW14554   1.867   0.507   6.889  0.4099 -0.2121 -0.2566
 1031SOL    HW114555   1.790   0.503   6.832  1.2798 -0.6162 -1.4125
 1031SOL    HW214556   1.893   0.415   6.891 -1.2150 -0.6425  0.6646
 1032SOL     OW14557   0.189   2.534  13.874 -0.0069 -0.8137 -0.1184
 1032SOL    HW114558   0.270   2.486  13.856  0.6405  0.1872  0.1160
 1032SOL    HW214559   0.186   2.538  13.970  1.6568 -1.4739 -0.0439
 1033SOL     OW14560   4.627   3.359  15.793  0.0788  0.2678  0.1685
 1033SOL    HW114561   4.547   3.325  15.752  1.6212  0.8188 -3.2722
 1033SOL    HW214562   4.634   3.322  15.881  1.4816  1.4257  0.5365
 1034SOL     OW14563   4.426   0.274   3.622  0.4764 -0.3345 -0.0355
 1034SOL    HW114564   4.336   0.295   3.595  0.5027 -1.3747 -0.9040
 1034SOL    HW214565   4.452   0.221   3.547  0.1883 -1.2860  0.5379
 1035SOL     OW14566   2.170   1.558   8.241  0.1621  0.2789 -0.1309
 1035SOL    HW114567   2.224   1.479   8.247 -0.8532 -0.4774 -1.0894
 1035SOL    HW214568   2.240   1.612   8.205 -0.9277  0.4902 -1.9201
 1036SOL     OW14569   4.017   4.027  13.293  0.0706 -0.0534  0.6690
 1036SOL    HW114570   4.048   4.008  13.205 -0.6567 -0.5471  0.5165
 1036SOL    HW214571   3.935   4.076  13.279 -1.0593 -2.2917 -0.4792
 1037SOL     OW14572   3.986   3.488   4.172 -0.6404 -0.2411 -0.2002
 1037SOL    HW114573   3.942   3.564   4.135 -0.0744  0.3127  0.2702
 1037SOL    HW214574   4.075   3.522   4.182 -0.5096 -1.3465  2.2364
 1038SOL     OW14575   4.562   0.051   6.921 -0.1170 -0.4333 -0.0490
 1038SOL    HW114576   4.578   0.119   6.856 -1.2725  0.5934  0.7476
 1038SOL    HW214577   4.611   4.699   6.885 -1.0039 -1.6441  1.2586
 1039SOL     OW14578   2.409   0.074  16.986  0.5299 -0.3026  0.5715
 1039SOL    HW114579   2.452   0.157  17.008 -1.3049  0.6424  0.6240
 1039SOL    HW214580   2.407   0.074  16.890 -1.1357 -1.2809  0.6159
 1040SOL     OW14581   2.355   2.389  13.563  0.0359  0.3149  0.1817
 1040SOL    HW114582   2.326   2.464  13.615  1.9078  1.6284 -0.6679
 1040SOL    HW214583   2.439   2.417  13.526 -0.4226  0.9826 -0.3549
 1041SOL     OW14584   4.567   1.419  11.708  0.4714  0.0795 -0.6478
 1041SOL    HW114585   4.488   1.468  11.728 -0.0890 -2.0481  2.3769
 1041SOL    HW214586   4.631   1.485  11.735  0.4304  0.5606 -1.7315
 1042SOL     OW14587   2.466   4.494   3.144 -0.0409  0.2967  0.0754
 1042SOL    HW114588   2.404   4.541   3.088 -1.6559 -1.4733  0.3824
 1042SOL    HW214589   2.539   4.497   3.083  2.5816 -1.1387  3.1616
 1043SOL     OW14590   0.445   0.535  15.857 -0.2122 -0.1636 -0.3967
 1043SOL    HW114591   0.483   0.592  15.923 -0.8275 -0.7531  0.4679
 1043SOL    HW214592   0.438   0.453  15.905 -0.2692  0.2797  0.3498
 1044SOL     OW14593   1.778   0.457   5.130 -0.1120 -0.0372  0.1655
 1044SOL    HW114594   1.724   0.395   5.081  2.4601 -1.2415 -1.1275
 1044SOL    HW214595   1.856   0.406   5.150  0.6477  1.1294  0.1579
 1045SOL     OW14596   0.318   2.075   6.181 -0.4655 -0.4899 -0.0891
 1045SOL    HW114597   0.255   2.113   6.120  0.0974  0.5661 -0.0071
 1045SOL    HW214598   0.343   2.153   6.231 -0.5285 -0.0461 -0.7497
 1046SOL     OW14599   4.562   0.683  10.559 -0.3636 -0.0052 -0.0001
 1046SOL    HW114600   4.558   0.729  10.475 -0.8118  0.5670  0.3315
 1046SOL    HW214601   4.649   0.707  10.589 -0.9457  0.1479  1.5909
 1047SOL     OW14602   1.963   3.284   4.913  0.4641 -0.7087  0.8513
 1047SOL    HW114603   1.926   3.207   4.869  1.9708 -0.0092 -1.6075
 1047SOL    HW214604   2.018   3.248   4.982  0.6592  0.9503  1.5371
 1048SOL     OW14605   0.836   2.720   8.593  0.2160 -0.2856 -0.2197
 1048SOL    HW114606   0.865   2.778   8.522  2.7144 -1.2822  0.0018
 1048SOL    HW214607   0.870   2.635   8.568 -0.1679  0.1555 -2.2713
 1049SOL     OW14608   2.231   1.542   3.899  0.0112  0.3801  0.4215
 1049SOL    HW114609   2.184   1.500   3.970 -0.1331  0.1253  0.1776
 1049SOL    HW214610   2.294   1.592   3.951  2.1605  1.3069 -3.0593
 1050SOL     OW14611   1.233   0.084   8.877 -0.6586 -0.0612 -0.4271
 1050SOL    HW114612   1.293   0.073   8.803 -0.6256  1.7012 -0.6538
 1050SOL    HW214613   1.236   0.179   8.887 -0.1777  0.3143 -4.2075
 1051SOL     OW14614   3.244   1.953   5.160  0.0550  1.0818  0.0406
 1051SOL    HW114615   3.298   1.898   5.103  0.3660  1.3434  0.0823
 1051SOL    HW214616   3.162   1.903   5.163 -0.5791  2.1112  0.0048
 1052SOL     OW14617   4.000   2.216  15.026  0.0199  0.4901  0.0857
 1052SOL    HW114618   3.952   2.137  15.054  1.6275 -0.1902  0.8894
 1052SOL    HW214619   3.930   2.272  14.991 -0.6199  0.2229  0.9317
 1053SOL     OW14620   3.493   0.492  16.183 -0.2168  0.3203 -0.0688
 1053SOL    HW114621   3.398   0.492  16.187 -0.2628 -0.2408 -0.9619
 1053SOL    HW214622   3.514   0.406  16.219  1.4950  1.3627  1.4405
 1054SOL     OW14623   0.668   1.246   2.205  0.0470 -0.0285  0.2087
 1054SOL    HW114624   0.736   1.307   2.177 -1.9533  2.2680  0.3423
 1054SOL    HW214625   0.703   1.229   2.293  1.9594  0.5039 -0.4637
 1055SOL     OW14626   2.997   1.268   8.208  0.1213  0.2069  0.2519
 1055SOL    HW114627   3.087   1.238   8.213 -0.7033 -2.2921  0.3562
 1055SOL    HW214628   3.003   1.363   8.218 -0.6052  0.4439 -1.5470
 1056SOL     OW14629   3.116   1.001   2.823  0.7579 -0.2915  0.2680
 1056SOL    HW114630   3.176   0.965   2.889  0.2091 -1.7407 -0.0310
 1056SOL    HW214631   3.131   1.095   2.833  1.6363 -0.3559 -0.4674
 1057SOL     OW14632   0.125   3.137   2.292  0.3301 -0.3699  0.0659
 1057SOL    HW114633   0.072   3.216   2.288  0.3969 -0.4295 -1.7395
 1057SOL    HW214634   0.204   3.176   2.256  0.2885 -1.4407 -1.1833
 1058SOL     OW14635   3.456   3.056  12.805 -0.1919  0.1177 -0.5793
 1058SOL    HW114636   3.493   3.086  12.721 -0.8714 -1.0739 -1.2945
 1058SOL    HW214637   3.535   3.006  12.823  0.3988  1.3950  0.4130
 1059SOL     OW14638   2.759   3.715   2.250 -0.3120 -0.0883  0.0654
 1059SOL    HW114639   2.822   3.658   2.206 -1.0593 -0.6016 -0.3453
 1059SOL    HW214640   2.792   3.736   2.337 -0.9953  0.1880  0.2570
 1060SOL     OW14641   4.551   1.934   6.518  0.2516  0.2035 -0.2308
 1060SOL    HW114642   4.555   1.932   6.614 -1.1053  1.4837 -0.1461
 1060SOL    HW214643   4.608   2.010   6.504  0.8671 -0.1406  0.3460
 1061SOL     OW14644   0.535   1.129   6.179  0.1172  0.7237 -0.5207
 1061SOL    HW114645   0.629   1.119   6.167  0.0058 -1.7587  0.7493
 1061SOL    HW214646   0.536   1.180   6.261 -0.2017 -1.3125  0.7542
 1062SOL     OW14647   0.794   0.537   2.924 -0.3860 -0.0993 -0.5007
 1062SOL    HW114648   0.828   0.556   2.836 -2.1816  0.2604 -1.1258
 1062SOL    HW214649   0.841   0.460   2.955 -2.9796 -1.1980  0.6357
 1063SOL     OW14650   3.741   0.935   9.220  0.0438  0.6305  0.0654
 1063SOL    HW114651   3.753   0.842   9.202  1.8508  1.1636 -1.6369
 1063SOL    HW214652   3.751   0.971   9.131  2.0345  0.0095  0.0346
 1064SOL     OW14653   3.312   2.538   2.361  0.5048 -0.2696  0.5300
 1064SOL    HW114654   3.374   2.579   2.301  0.1775  0.3554  0.6235
 1064SOL    HW214655   3.238   2.580   2.318  1.4789  1.0878  0.1803
 1065SOL     OW14656   4.378   2.893   6.757  0.0015 -0.6961  0.3159
 1065SOL    HW114657   4.422   2.870   6.838  2.6722 -2.1973 -1.5363
 1065SOL    HW214658   4.300   2.842   6.778 -0.7092 -0.0099 -0.6364
 1066SOL     OW14659   2.978   1.696   3.808 -0.4825 -0.2118 -0.3046
 1066SOL    HW114660   2.952   1.628   3.869  0.4699 -0.7901 -0.5375
 1066SOL    HW214661   2.938   1.675   3.723  0.5270 -0.9443 -0.6079
 1067SOL     OW14662   3.957   0.026   9.168  0.4813  0.5850  0.0760
 1067SOL    HW114663   3.887   4.715   9.111  1.4178  0.3043 -0.9113
 1067SOL    HW214664   4.031   0.032   9.108  2.5414  1.2111  2.7010
 1068SOL     OW14665   1.627   1.801   6.126 -0.2352  0.2390 -0.4843
 1068SOL    HW114666   1.700   1.856   6.153 -0.0484  0.3122 -1.1432
 1068SOL    HW214667   1.549   1.856   6.134 -0.0306  0.3768  0.4985
 1069SOL     OW14668   4.173   1.552   7.488  0.0603 -0.3606 -0.3070
 1069SOL    HW114669   4.225   1.528   7.566 -1.0320  2.3309  1.2582
 1069SOL    HW214670   4.153   1.639   7.524  0.8263  0.0604 -0.8990
 1070SOL     OW14671   2.302   3.608   1.222  0.6184  0.5181 -0.3749
 1070SOL    HW114672   2.336   3.688   1.182 -0.8773  2.2877  1.8992
 1070SOL    HW214673   2.209   3.598   1.203  0.1720  2.7986  0.5987
 1071SOL     OW14674   4.109   4.080   1.106  0.3076 -0.1685  0.4378
 1071SOL    HW114675   4.146   4.014   1.164 -0.7344 -1.9914 -0.9761
 1071SOL    HW214676   4.161   4.159   1.120 -2.2614  1.4466  0.9415
 1072SOL     OW14677   4.506   1.867   4.808  0.4193  0.1619 -0.0968
 1072SOL    HW114678   4.484   1.931   4.875 -3.2263 -1.6014  0.3908
 1072SOL    HW214679   4.507   1.932   4.738 -0.7172  0.2154 -0.0700
 1073SOL     OW14680   2.393   4.374  10.039  0.4059 -0.4161  0.0229
 1073SOL    HW114681   2.323   4.314  10.066  0.1089  0.5774  1.3986
 1073SOL    HW214682   2.390   4.366   9.943  1.6553 -1.1788  0.0446
 1074SOL     OW14683   0.369   2.553  15.787  0.2220  0.1665 -0.2654
 1074SOL    HW114684   0.316   2.540  15.709 -1.0974  3.2824  0.1471
 1074SOL    HW214685   0.431   2.623  15.768  1.6412 -1.4972 -1.8082
 1075SOL     OW14686   2.064   4.320   3.038  0.0507 -0.2508 -0.4215
 1075SOL    HW114687   2.153   4.287   3.024  0.8287  1.5064  0.4306
 1075SOL    HW214688   2.087   4.413   3.036  0.5660 -0.3464  1.3769
 1076SOL     OW14689   2.491   0.135   6.187 -0.1099 -0.4088  0.0827
 1076SOL    HW114690   2.492   0.227   6.214 -1.7123 -0.1917 -0.6198
 1076SOL    HW214691   2.585   0.120   6.173 -0.1259 -0.7015  0.2972
 1077SOL     OW14692   0.010   0.337   1.739  0.1901 -0.5333  0.3962
 1077SOL    HW114693   4.692   0.301   1.818  0.2320  0.2587  0.7691
 1077SOL    HW214694   0.081   0.389   1.776 -0.2090 -1.8480  2.9850
 1078SOL     OW14695   3.939   1.444   2.711  0.1691  0.2458 -0.0483
 1078SOL    HW114696   3.994   1.385   2.763  1.0817  0.2618 -1.0014
 1078SOL    HW214697   3.912   1.502   2.782  0.1727 -1.0788  1.0347
 1079SOL     OW14698   3.349   4.631   6.440 -0.3862  0.4583  0.0132
 1079SOL    HW114699   3.357   4.719   6.474  1.2934  0.9135 -1.5440
 1079SOL    HW214700   3.411   4.618   6.368 -0.2339 -0.6496  0.3396
 1080SOL     OW14701   0.767   3.464  14.899  0.2407 -0.7193 -0.3901
 1080SOL    HW114702   0.807   3.447  14.984  0.2681  1.3105  0.0059
 1080SOL    HW214703   0.693   3.408  14.879 -0.2119  0.9841 -3.4899
 1081SOL     OW14704   1.823   4.668  12.603 -0.0255 -0.2941 -0.7979
 1081SOL    HW114705   1.846   0.038  12.618  0.4001 -0.6555  0.7436
 1081SOL    HW214706   1.762   4.672  12.529 -1.3788 -1.2038  0.2676
 1082SOL     OW14707   3.385   4.295   6.510 -0.0340  0.0059  0.0525
 1082SOL    HW114708   3.428   4.248   6.439  0.0133 -0.6188  0.4939
 1082SOL    HW214709   3.391   4.221   6.571  0.7908 -0.1543 -0.2210
 1083SOL     OW14710   2.786   1.344   6.917 -0.4277  0.0905 -0.3005
 1083SOL    HW114711   2.692   1.364   6.912 -0.7389 -2.0274 -2.9980
 1083SOL    HW214712   2.795   1.258   6.875 -0.1222  0.1779 -0.4090
 1084SOL     OW14713   3.984   1.287  13.046 -0.3685 -0.3301  0.0750
 1084SOL    HW114714   4.033   1.339  12.982 -2.7861  1.4916 -0.2916
 1084SOL    HW214715   4.012   1.196  13.034  0.2290  0.1862 -2.4547
 1085SOL     OW14716   0.953   3.824  10.211  0.5904  0.2251  0.0944
 1085SOL    HW114717   0.888   3.827  10.141 -1.2044 -1.8620  1.6599
 1085SOL    HW214718   0.925   3.744  10.256  2.6807  0.0048  0.9951
 1086SOL     OW14719   1.030   2.319   6.793 -0.6357  0.1906  0.6935
 1086SOL    HW114720   1.041   2.367   6.711 -0.3433 -1.7157 -0.3879
 1086SOL    HW214721   1.115   2.276   6.802 -0.0678  0.9795 -0.8074
 1087SOL     OW14722   3.736   1.385   9.132  0.3979  0.6091  0.3879
 1087SOL    HW114723   3.671   1.434   9.083  0.4674  1.1025  0.7889
 1087SOL    HW214724   3.776   1.455   9.184 -2.0669  1.7561  0.7165
 1088SOL     OW14725   0.308   0.747  17.669  0.0859 -0.2050  0.2743
 1088SOL    HW114726   0.312   0.741  17.573  1.2097 -0.3404  0.3218
 1088SOL    HW214727   0.339   0.665   0.016 -0.6617 -0.1835  0.9482
 1089SOL     OW14728   4.086   4.624   8.767  0.4886  0.6327  1.0837
 1089SOL    HW114729   4.101   4.701   8.822 -1.5028  1.1114  0.9380
 1089SOL    HW214730   4.154   4.631   8.700 -0.4445 -0.5857  0.0287
 1090SOL     OW14731   0.828   4.072   8.102  0.0601 -0.1422 -0.2608
 1090SOL    HW114732   0.831   3.978   8.118  2.0890  0.3292  2.0519
 1090SOL    HW214733   0.734   4.089   8.097  0.3370  1.5438  0.2871
 1091SOL     OW14734   2.765   3.960  17.483  0.0109  0.2058  0.2518
 1091SOL    HW114735   2.687   3.979  17.431 -0.1175  0.9677  0.7116
 1091SOL    HW214736   2.786   3.872  17.451 -0.4701  0.9454 -2.0904
 1092SOL     OW14737   0.418   3.200   5.557  0.3294 -0.3210  0.3679
 1092SOL    HW114738   0.428   3.118   5.604 -2.9585  0.1623  1.9329
 1092SOL    HW214739   0.338   3.183   5.507 -0.2235  0.7511  0.8792
 1093SOL     OW14740   0.382   0.545  13.546  0.1756 -0.2493 -0.3011
 1093SOL    HW114741   0.408   0.480  13.611  1.6215 -2.1718 -2.7924
 1093SOL    HW214742   0.292   0.519  13.525 -0.5825 -0.6453  3.4755
 1094SOL     OW14743   2.258   1.448   9.265  0.6874 -0.2594  0.8252
 1094SOL    HW114744   2.174   1.493   9.277  0.2409 -1.7373  3.1883
 1094SOL    HW214745   2.324   1.517   9.265  1.5026 -1.0439 -0.4464
 1095SOL     OW14746   0.089   0.883   7.622 -0.1344 -0.0527  0.0947
 1095SOL    HW114747   0.059   0.900   7.711 -1.6360  0.5467 -0.5222
 1095SOL    HW214748   0.048   0.960   7.582  2.2267  1.4262  0.5651
 1096SOL     OW14749   0.402   4.011   9.911 -0.1853 -0.4958 -0.3800
 1096SOL    HW114750   0.455   3.969   9.978  0.9504 -0.3187 -1.1680
 1096SOL    HW214751   0.468   4.004   9.842 -0.0057 -2.2753 -0.0329
 1097SOL     OW14752   3.993   2.974  14.198 -0.6913  0.3428 -0.4628
 1097SOL    HW114753   4.071   2.919  14.198 -1.6519 -1.0407  0.4176
 1097SOL    HW214754   4.039   3.050  14.234 -1.3615 -0.2016  1.5630
 1098SOL     OW14755   4.142   2.289  16.923  0.4581  0.2755 -0.3744
 1098SOL    HW114756   4.121   2.382  16.921 -0.5091  0.0041 -2.6749
 1098SOL    HW214757   4.159   2.281  16.829 -1.8759  1.4065 -0.8918
 1099SOL     OW14758   3.171   4.083   3.284 -0.1667 -0.6375  0.6291
 1099SOL    HW114759   3.162   4.073   3.378 -1.6247  0.5094  0.6005
 1099SOL    HW214760   3.115   4.009   3.261  0.3167 -0.7387 -0.2272
 1100SOL     OW14761   0.655   3.315  11.769  0.3038  0.8131 -0.1721
 1100SOL    HW114762   0.729   3.295  11.712  1.3011  0.5724  1.2106
 1100SOL    HW214763   0.694   3.364  11.841 -1.5878  2.3310 -0.1732
 1101SOL     OW14764   4.023   3.557  10.788  0.3445  0.1725  0.1488
 1101SOL    HW114765   4.112   3.593  10.794  1.7149 -3.3438  0.9652
 1101SOL    HW214766   3.970   3.634  10.768  0.1765  0.1268  0.4160
 1102SOL     OW14767   4.180   1.823  16.363 -0.9926 -0.3996  0.7164
 1102SOL    HW114768   4.150   1.747  16.412  0.9268  0.4186  3.1726
 1102SOL    HW214769   4.157   1.899  16.417  0.6557 -0.4027  1.4429
 1103SOL     OW14770   3.786   0.318   3.724  0.2231  0.1155  0.1695
 1103SOL    HW114771   3.843   0.392   3.706  1.4086 -0.9801 -0.5182
 1103SOL    HW214772   3.723   0.362   3.781  0.1335 -0.2447  0.3515
 1104SOL     OW14773   1.509   0.901   6.677  0.1675 -0.3133 -0.4648
 1104SOL    HW114774   1.538   0.853   6.598  0.2287  1.6050 -1.6025
 1104SOL    HW214775   1.591   0.910   6.726  0.0254 -1.1461 -0.0842
 1105SOL     OW14776   3.523   1.373  16.064  0.2200 -0.0093  0.3046
 1105SOL    HW114777   3.524   1.394  16.158  0.0921 -1.2792  0.5782
 1105SOL    HW214778   3.431   1.359  16.041  0.5180  0.6990 -1.3035
 1106SOL     OW14779   2.013   1.095  17.673  0.2453  0.6311 -0.1273
 1106SOL    HW114780   2.049   1.171   0.027 -2.4043  1.2054  1.0366
 1106SOL    HW214781   1.938   1.075   0.039 -0.5451 -0.6490 -1.6050
 1107SOL     OW14782   3.981   0.286   6.627  0.1504  0.2579 -0.3042
 1107SOL    HW114783   3.944   0.334   6.553 -2.8023 -1.3180  0.1533
 1107SOL    HW214784   3.942   0.326   6.704  0.1207 -0.9872  0.3348
 1108SOL     OW14785   0.241   3.801   6.614  0.1705  0.4816  0.3653
 1108SOL    HW114786   0.309   3.860   6.647 -0.1948  0.1953  1.6245
 1108SOL    HW214787   0.273   3.711   6.627 -1.6784 -0.1470  0.4961
 1109SOL     OW14788   2.776   1.530  10.159 -0.5319  0.6134  0.1601
 1109SOL    HW114789   2.805   1.621  10.167  0.8438  0.0158  1.8667
 1109SOL    HW214790   2.716   1.534  10.234 -0.4430  4.2013  0.0369
 1110SOL     OW14791   1.562   3.800  10.280 -0.5582  0.2656 -0.1644
 1110SOL    HW114792   1.629   3.849  10.232 -0.6489 -1.2791 -1.8598
 1110SOL    HW214793   1.610   3.729  10.322 -2.0381  1.2658  3.1738
 1111SOL     OW14794   1.811   1.078   0.604  0.1368 -0.0415 -0.3043
 1111SOL    HW114795   1.840   1.163   0.636  0.2254  0.2845 -1.2353
 1111SOL    HW214796   1.880   1.070   0.537 -0.1952  0.3365 -0.6862
 1112SOL     OW14797   3.988   2.853   9.910  0.3449  0.4130  0.1150
 1112SOL    HW114798   3.972   2.816   9.997 -1.8023 -0.5321 -0.7038
 1112SOL    HW214799   4.037   2.926   9.949 -0.4051  0.7818  0.3866
 1113SOL     OW14800   1.582   2.115   4.975  0.1528  0.3832  0.0272
 1113SOL    HW114801   1.632   2.042   5.013 -0.8978  0.0634  0.8030
 1113SOL    HW214802   1.615   2.195   5.015  0.9230  1.1376 -2.0852
 1114SOL     OW14803   1.411   4.447   7.720  0.8443 -0.4237 -0.4472
 1114SOL    HW114804   1.354   4.504   7.667  0.0708 -1.4164 -0.6759
 1114SOL    HW214805   1.360   4.420   7.797 -1.5042  3.9633 -0.4225
 1115SOL     OW14806   1.570   2.001   3.359 -0.1457  0.9493  0.0543
 1115SOL    HW114807   1.493   1.963   3.400 -0.3357  0.2765 -0.9522
 1115SOL    HW214808   1.613   2.042   3.435  0.1913  0.1647  0.2821
 1116SOL     OW14809   0.617   1.260   2.960 -0.3002  0.2967 -0.0557
 1116SOL    HW114810   0.539   1.256   3.014  0.7385  4.3626  1.7478
 1116SOL    HW214811   0.671   1.183   2.979  1.6551  1.9762  1.2707
 1117SOL     OW14812   2.554   1.316  16.237 -0.7401 -0.0311 -0.3878
 1117SOL    HW114813   2.496   1.381  16.276 -0.0056  0.5081 -0.1901
 1117SOL    HW214814   2.544   1.341  16.145 -0.7949  2.3121  0.2366
 1118SOL     OW14815   0.362   4.438   2.542  0.9841  0.3962  0.4601
 1118SOL    HW114816   0.419   4.480   2.478  0.9744  1.2302  0.9942
 1118SOL    HW214817   0.295   4.405   2.482  0.9556 -0.9263  1.2189
 1119SOL     OW14818   0.770   1.143  13.479  0.3229 -0.0595  0.9411
 1119SOL    HW114819   0.733   1.095  13.405  0.1761 -1.1956  1.7353
 1119SOL    HW214820   0.851   1.187  13.455 -1.5650  4.0109  2.1048
 1120SOL     OW14821   4.026   0.026   7.059  0.1831  0.1285 -0.6676
 1120SOL    HW114822   4.103   0.079   7.081  0.6468 -0.7526 -0.1713
 1120SOL    HW214823   3.967   0.100   7.044 -0.0340 -0.0592 -0.7469
 1121SOL     OW14824   3.552   1.153   8.820  0.0763 -0.0461  0.3165
 1121SOL    HW114825   3.606   1.186   8.748  2.4594  0.1998  2.2040
 1121SOL    HW214826   3.536   1.066   8.783 -0.9794  0.0323  0.5983
 1122SOL     OW14827   0.410   1.334  10.689  0.3817  0.8583 -0.6158
 1122SOL    HW114828   0.498   1.349  10.724  0.3849  0.7969 -0.5983
 1122SOL    HW214829   0.365   1.417  10.704 -0.1581  1.0994 -3.5591
 1123SOL     OW14830   2.555   4.471  15.025 -0.2470 -0.1142  0.1472
 1123SOL    HW114831   2.465   4.490  14.997  0.0877  2.7970  1.0050
 1123SOL    HW214832   2.608   4.487  14.948 -0.7840  0.4363 -0.1116
 1124SOL     OW14833   0.316   2.721   6.282  0.2043 -0.1541 -0.1541
 1124SOL    HW114834   0.363   2.803   6.296  0.2870 -0.0251 -1.1794
 1124SOL    HW214835   0.391   2.666   6.262  0.0592 -0.5237  0.3020
 1125SOL     OW14836   4.409   0.721  11.879 -0.0239  0.0864  0.1014
 1125SOL    HW114837   4.363   0.793  11.835  0.2132  0.0373 -0.2267
 1125SOL    HW214838   4.393   0.746  11.970  0.4772  0.3268  0.1238
 1126SOL     OW14839   1.797   1.280   5.128 -0.3671  0.5445 -0.4771
 1126SOL    HW114840   1.725   1.270   5.066 -0.8954  0.0588  0.2113
 1126SOL    HW214841   1.851   1.208   5.097 -0.3889 -0.0170  0.7768
 1127SOL     OW14842   0.815   0.821  10.252 -0.3222  0.1298  0.1629
 1127SOL    HW114843   0.911   0.824  10.248 -0.2759 -0.6770  0.6036
 1127SOL    HW214844   0.809   0.760  10.326 -0.5478 -1.2285 -0.9879
 1128SOL     OW14845   2.101   3.538  10.945  0.8136 -0.5045  0.4212
 1128SOL    HW114846   2.059   3.561  11.028 -0.1765  0.9973 -0.4939
 1128SOL    HW214847   2.028   3.502  10.895  2.9786 -3.0203 -0.9415
 1129SOL     OW14848   3.016   0.791   8.955  0.6549 -0.6228  0.9426
 1129SOL    HW114849   2.997   0.879   8.988 -0.2667 -0.8991  1.1566
 1129SOL    HW214850   2.972   0.733   9.017 -2.4817  0.0312 -0.7187
 1130SOL     OW14851   1.365   0.217   5.550  0.8428  0.6159 -0.2683
 1130SOL    HW114852   1.351   0.217   5.645  2.5909 -2.1462 -0.0152
 1130SOL    HW214853   1.343   0.306   5.523 -0.7354  0.7448  1.3732
 1131SOL     OW14854   2.433   2.110   5.318  0.3937  0.3483 -0.3710
 1131SOL    HW114855   2.504   2.051   5.292  1.7073  1.2090  1.2476
 1131SOL    HW214856   2.481   2.182   5.358  1.5840  0.7924 -2.5693
 1132SOL     OW14857   4.135   3.732   9.374 -0.0881  0.3701 -0.5199
 1132SOL    HW114858   4.070   3.802   9.368 -0.2393  0.2255 -0.5510
 1132SOL    HW214859   4.097   3.676   9.442 -1.3110  1.0345 -0.6580
 1133SOL     OW14860   3.866   2.932   5.719  0.4924  0.5486  0.0799
 1133SOL    HW114861   3.804   3.005   5.721 -2.1707 -1.7086 -0.4248
 1133SOL    HW214862   3.900   2.936   5.630 -0.2154  0.6935 -0.1804
 1134SOL     OW14863   0.507   1.449  13.327  0.2404 -0.3880 -0.1179
 1134SOL    HW114864   0.473   1.393  13.397  0.8707  1.9508  2.0797
 1134SOL    HW214865   0.591   1.473  13.365 -0.0980  1.1744 -0.3306
 1135SOL     OW14866   4.460   4.038   6.733  0.5926  0.5101  0.1845
 1135SOL    HW114867   4.507   4.016   6.814 -0.3093  2.2063  1.1620
 1135SOL    HW214868   4.501   3.988   6.662  1.0668  2.2706 -0.7729
 1136SOL     OW14869   1.253   3.492   4.017  0.0816 -0.2164 -0.5238
 1136SOL    HW114870   1.320   3.433   3.981 -1.0252 -1.1652 -1.0356
 1136SOL    HW214871   1.291   3.573   3.983 -3.5398  0.8467 -1.9406
 1137SOL     OW14872   4.615   1.981  17.549  0.8289  0.2166 -0.5727
 1137SOL    HW114873   4.560   1.906  17.576 -2.9597  2.6774 -1.4032
 1137SOL    HW214874   4.567   2.007  17.470 -0.2495 -0.6610 -0.2104
 1138SOL     OW14875   0.140   2.408   3.971  0.0342 -0.1691 -0.1313
 1138SOL    HW114876   0.069   2.471   3.958  0.8995  0.3983 -2.1506
 1138SOL    HW214877   0.216   2.465   3.976 -0.3488  0.3314 -0.0103
 1139SOL     OW14878   3.778   2.138   4.194  0.1331 -0.3533  0.2584
 1139SOL    HW114879   3.697   2.180   4.164  1.1074  1.7422  0.5802
 1139SOL    HW214880   3.834   2.215   4.187 -0.9747  0.4127 -0.2160
 1140SOL     OW14881   2.258   3.314   7.395 -0.4274 -0.3717  0.2500
 1140SOL    HW114882   2.312   3.352   7.326 -1.4363  2.8732  1.2254
 1140SOL    HW214883   2.293   3.365   7.469  1.6750 -0.1202 -0.9188
 1141SOL     OW14884   3.514   3.761   5.164 -0.5203 -0.1242  0.2525
 1141SOL    HW114885   3.544   3.851   5.174 -1.8073  0.1228  1.9015
 1141SOL    HW214886   3.423   3.791   5.170  1.2467  5.0544  1.0447
 1142SOL     OW14887   0.446   1.751   1.052  0.5797  0.4576  0.1623
 1142SOL    HW114888   0.361   1.722   1.019  1.3176 -1.6171  0.1472
 1142SOL    HW214889   0.441   1.717   1.141  1.5397 -1.5762 -0.5728
 1143SOL     OW14890   4.009   2.071  17.033  0.7853  0.5144 -0.2945
 1143SOL    HW114891   4.057   2.149  17.006  2.3566 -1.9498 -4.5471
 1143SOL    HW214892   3.967   2.054  16.948  0.4301  0.1263 -0.0417
 1144SOL     OW14893   0.496   0.673   7.382  0.2416  0.3460  0.2533
 1144SOL    HW114894   0.489   0.651   7.289  2.5605 -0.1047  0.1671
 1144SOL    HW214895   0.403   0.680   7.404 -0.1248  0.4395 -1.3680
 1145SOL     OW14896   3.519   4.043  14.735 -0.5853 -0.1696  0.0622
 1145SOL    HW114897   3.598   4.029  14.682 -0.3340  1.7021 -0.0261
 1145SOL    HW214898   3.450   4.003  14.682 -1.8616  3.0172 -0.6843
 1146SOL     OW14899   1.825   3.502   1.867 -0.1751  0.3711  0.6975
 1146SOL    HW114900   1.833   3.446   1.790 -1.0298  0.5735  0.4653
 1146SOL    HW214901   1.829   3.593   1.838  1.8667  0.1636  0.3200
 1147SOL     OW14902   4.627   3.997  11.167 -0.4142 -0.2562 -0.1591
 1147SOL    HW114903   4.621   4.071  11.227  0.0395  0.0191 -0.4507
 1147SOL    HW214904   4.718   4.002  11.137 -0.2570  0.1911  0.4023
 1148SOL     OW14905   4.069   3.081   7.973  0.3185 -0.4288 -0.6226
 1148SOL    HW114906   4.018   3.154   8.009 -0.0672 -0.9266 -0.1633
 1148SOL    HW214907   3.997   3.037   7.929 -1.5167  0.7223  1.2642
 1149SOL     OW14908   3.298   1.050   6.639 -0.4490  0.3257 -0.1122
 1149SOL    HW114909   3.246   1.080   6.565  0.6548  2.5293  0.0234
 1149SOL    HW214910   3.381   1.073   6.597 -1.0269  3.4560  0.4843
 1150SOL     OW14911   1.786   2.127   4.338 -0.1633 -0.0981  0.1670
 1150SOL    HW114912   1.719   2.060   4.323  1.0754 -1.4448  0.6703
 1150SOL    HW214913   1.855   2.096   4.279  0.5535  0.5309  0.6689
 1151SOL     OW14914   4.192   1.756  13.553 -0.3821  0.1231 -0.1545
 1151SOL    HW114915   4.271   1.809  13.547  0.1793 -0.8826 -1.4879
 1151SOL    HW214916   4.128   1.826  13.538 -3.0330 -2.5150 -1.1201
 1152SOL     OW14917   0.936   1.065   6.721 -0.4503 -0.1310  0.0709
 1152SOL    HW114918   0.926   1.001   6.650 -0.4958 -0.4185  0.3351
 1152SOL    HW214919   1.005   1.128   6.698  0.5741 -1.3053 -0.0934
 1153SOL     OW14920   0.963   3.947  11.717 -0.0882  0.4092  0.7764
 1153SOL    HW114921   0.968   3.862  11.674 -4.4794 -0.9429  2.9272
 1153SOL    HW214922   1.028   3.942  11.788  1.5916 -2.0281 -0.9560
 1154SOL     OW14923   0.905   1.898   3.522 -0.0306 -0.3551  0.2264
 1154SOL    HW114924   0.950   1.822   3.558  1.7395  1.1140  1.1396
 1154SOL    HW214925   0.925   1.966   3.587 -1.2407  0.4554 -0.2523
 1155SOL     OW14926   0.324   0.639   8.847 -0.0338  0.5345 -0.0358
 1155SOL    HW114927   0.383   0.683   8.785  0.0667 -0.9491 -0.9828
 1155SOL    HW214928   0.358   0.669   8.931  2.6701 -2.7080  0.0334
 1156SOL     OW14929   2.028   3.465  17.554 -0.2596 -0.1414 -0.0370
 1156SOL    HW114930   2.104   3.523  17.555  0.6973 -1.3498 -1.6108
 1156SOL    HW214931   1.971   3.498  17.623  0.2840  2.8486 -1.0330
 1157SOL     OW14932   1.405   1.783   8.095  0.1682  0.8376 -0.7111
 1157SOL    HW114933   1.478   1.742   8.050 -0.6177 -0.7682 -0.5212
 1157SOL    HW214934   1.408   1.726   8.171 -0.3411 -0.0133 -1.3305
 1158SOL     OW14935   1.592   1.134  12.658  0.0736 -0.1113 -0.2861
 1158SOL    HW114936   1.587   1.200  12.589 -0.6541  3.4703  3.1541
 1158SOL    HW214937   1.682   1.102  12.645  0.2955 -0.2535  1.5874
 1159SOL     OW14938   0.473   3.489   3.601 -0.3361 -0.2634  0.4469
 1159SOL    HW114939   0.405   3.438   3.558  1.7227 -1.1526 -1.7506
 1159SOL    HW214940   0.446   3.483   3.692 -1.6998 -0.1729  0.0394
 1160SOL     OW14941   3.957   3.502   3.561 -0.0200 -0.1014  0.4847
 1160SOL    HW114942   3.943   3.441   3.488 -0.1709  2.4628 -1.6449
 1160SOL    HW214943   4.025   3.556   3.521  0.1857 -0.6104  0.1415
 1161SOL     OW14944   1.417   3.394  16.208  0.2748  0.1101 -0.1377
 1161SOL    HW114945   1.389   3.309  16.175 -1.3185  0.7285 -0.3932
 1161SOL    HW214946   1.334   3.442  16.198  0.3250  0.2584  0.1577
 1162SOL     OW14947   1.578   3.821  11.914 -0.5625 -0.0550  0.1487
 1162SOL    HW114948   1.592   3.732  11.881 -0.4590  0.7183 -1.9169
 1162SOL    HW214949   1.537   3.859  11.837 -3.4603 -0.3582  1.5365
 1163SOL     OW14950   3.532   2.466   3.388 -0.5695  0.4624 -0.0719
 1163SOL    HW114951   3.447   2.422   3.386 -0.4041  0.1796 -0.8558
 1163SOL    HW214952   3.559   2.462   3.480  1.1749 -0.6441 -0.6293
 1164SOL     OW14953   3.896   4.523   4.544 -0.4425  0.1537 -0.0298
 1164SOL    HW114954   3.814   4.474   4.545  1.2011 -2.5568 -0.0576
 1164SOL    HW214955   3.908   4.523   4.639  0.7534  2.0666 -0.1657
 1165SOL     OW14956   4.555   4.700   8.445  0.3049  0.7876  0.1238
 1165SOL    HW114957   4.641   4.704   8.403 -0.3512 -0.9443 -1.4264
 1165SOL    HW214958   4.566   0.058   8.497  2.7668 -0.5214  1.5882
 1166SOL     OW14959   3.779   3.555   6.452  0.4816  0.1372  0.0524
 1166SOL    HW114960   3.706   3.617   6.445  0.8341  0.6500  1.1354
 1166SOL    HW214961   3.746   3.472   6.487  0.0840  0.8083  1.2680
 1167SOL     OW14962   2.624   3.697   6.562  0.0137  0.2081  0.1074
 1167SOL    HW114963   2.649   3.787   6.581  1.4997 -0.2810  0.4102
 1167SOL    HW214964   2.543   3.695   6.613  0.9088 -0.6448  1.4873
 1168SOL     OW14965   0.382   1.979  10.748  0.1344 -0.3279 -0.1633
 1168SOL    HW114966   0.294   1.968  10.712  1.2831  0.8059 -3.3315
 1168SOL    HW214967   0.428   1.955  10.668  0.7632 -0.2486  0.1729
 1169SOL     OW14968   1.055   1.194   0.444 -0.1716  0.6019  0.0094
 1169SOL    HW114969   1.045   1.289   0.457  0.4959  0.7096 -0.2435
 1169SOL    HW214970   1.101   1.190   0.360 -0.6692  0.6021 -0.2592
 1170SOL     OW14971   1.161   2.666   2.798 -0.5517  0.3574 -0.3864
 1170SOL    HW114972   1.167   2.570   2.792  0.8821  0.3748  0.8243
 1170SOL    HW214973   1.066   2.678   2.808 -0.4061  0.9898  0.1686
 1171SOL     OW14974   2.338   1.356   8.755  0.3466 -0.1693  0.1539
 1171SOL    HW114975   2.318   1.433   8.808 -0.0752 -2.1364  2.8649
 1171SOL    HW214976   2.294   1.285   8.802 -1.7709  1.9432  1.3495
 1172SOL     OW14977   1.050   3.021   6.952  0.0819  0.8918  0.0886
 1172SOL    HW114978   0.958   3.000   6.969  0.3631  0.3499  0.9702
 1172SOL    HW214979   1.091   3.046   7.035 -0.4017 -2.0365  1.2045
 1173SOL     OW14980   2.979   3.490   2.577  0.3091  0.4482 -0.2033
 1173SOL    HW114981   3.010   3.438   2.652 -1.0367  0.6409  0.4890
 1173SOL    HW214982   3.053   3.476   2.518 -0.6270 -0.3027 -1.1841
 1174SOL     OW14983   1.516   0.730   3.128 -0.2461  0.0103  0.2344
 1174SOL    HW114984   1.556   0.721   3.041  1.2768  0.2163  0.9195
 1174SOL    HW214985   1.447   0.791   3.103 -1.9396 -2.8883 -2.0596
 1175SOL     OW14986   4.452   2.526   6.775  0.4068  0.5180  0.2736
 1175SOL    HW114987   4.458   2.551   6.867 -1.0996 -1.8244  1.0073
 1175SOL    HW214988   4.442   2.431   6.781 -0.0129  0.5391 -0.0801
 1176SOL     OW14989   1.612   0.923   7.275 -0.2569 -0.5083  0.1520
 1176SOL    HW114990   1.689   0.951   7.224  1.1389  0.7403  2.9302
 1176SOL    HW214991   1.635   0.967   7.357  1.6458 -0.6967 -0.2642
 1177SOL     OW14992   2.279   1.175   4.001  0.4583 -0.0096  0.1720
 1177SOL    HW114993   2.356   1.149   3.951  1.2156  0.7058  0.9587
 1177SOL    HW214994   2.300   1.131   4.083 -0.6945 -1.2607 -0.2117
 1178SOL     OW14995   3.153   1.100   0.475 -0.7126 -0.7598 -0.1697
 1178SOL    HW114996   3.239   1.140   0.458 -1.4313  0.7022 -0.4173
 1178SOL    HW214997   3.173   1.007   0.473 -2.2533 -1.1278  1.4769
 1179SOL     OW14998   4.222   2.745   7.779 -0.5157  0.1264  0.1501
 1179SOL    HW114999   4.180   2.821   7.737  0.3880  0.6499  0.1970
 1179SOL    HW215000   4.186   2.757   7.867  0.1932  2.1722  0.1761
 1180SOL     OW15001   3.541   4.008   8.146  0.2557  0.0210  0.2010
 1180SOL    HW115002   3.474   3.941   8.156  2.7496 -2.9540 -2.8208
 1180SOL    HW215003   3.607   3.971   8.088 -0.9960  0.0577 -1.2290
 1181SOL     OW15004   0.115   2.122  13.471 -0.1924 -0.2127 -0.0049
 1181SOL    HW115005   0.189   2.073  13.436 -0.4458  0.3920 -1.4018
 1181SOL    HW215006   0.037   2.066  13.460  2.4416 -4.2210  1.5499
 1182SOL     OW15007   0.545   3.651   3.410 -0.0685 -0.3959 -0.2256
 1182SOL    HW115008   0.612   3.709   3.447 -0.1697  0.2490 -1.0582
 1182SOL    HW215009   0.537   3.588   3.481 -0.2309 -0.5135 -0.3463
 1183SOL     OW15010   0.817   1.768   8.481  0.4997  0.0206 -0.6846
 1183SOL    HW115011   0.824   1.851   8.434 -0.6907  0.1449 -0.6530
 1183SOL    HW215012   0.827   1.790   8.574  6.5881 -1.4829 -1.0158
 1184SOL     OW15013   1.145   4.082   7.905  0.3503  0.1037 -0.4254
 1184SOL    HW115014   1.161   4.035   7.987  0.6607  1.0142  0.0296
 1184SOL    HW215015   1.086   4.024   7.857  0.3960 -0.9563  0.7884
 1185SOL     OW15016   3.197   4.635   2.380  0.1614  0.2148  1.0316
 1185SOL    HW115017   3.263   4.640   2.311 -1.7232 -0.2851 -0.7934
 1185SOL    HW215018   3.251   4.625   2.458  0.7906 -0.0458  0.5632
 1186SOL     OW15019   1.576   0.127  13.854  0.4794 -0.5059 -0.3928
 1186SOL    HW115020   1.632   0.092  13.784  0.7405  2.9794 -1.9694
 1186SOL    HW215021   1.597   0.064  13.923 -0.0689 -0.5876 -0.3062
 1187SOL     OW15022   1.070   1.666   4.884 -0.4928 -0.3499  0.0612
 1187SOL    HW115023   1.038   1.614   4.811 -1.0070  0.6299 -0.4150
 1187SOL    HW215024   1.008   1.739   4.891 -2.3510 -1.7941 -1.5569
 1188SOL     OW15025   2.119   4.343   2.426 -0.5696 -0.5233 -0.2422
 1188SOL    HW115026   2.070   4.377   2.351  0.5500 -2.5927 -1.9276
 1188SOL    HW215027   2.046   4.325   2.485 -0.7038  1.3973  0.1639
 1189SOL     OW15028   2.605   0.300  11.916 -0.4477  0.4941  0.1009
 1189SOL    HW115029   2.594   0.311  11.822  2.5510 -0.4768 -0.3685
 1189SOL    HW215030   2.521   0.336  11.946  0.2780  2.6512 -0.4925
 1190SOL     OW15031   3.961   2.175   3.786  0.5565  0.4662  0.5067
 1190SOL    HW115032   3.888   2.113   3.795  0.1025  0.8611 -0.4247
 1190SOL    HW215033   3.923   2.251   3.743 -1.0635 -0.0097  1.0942
 1191SOL     OW15034   0.221   1.669   5.957  0.0528  0.4883 -0.1535
 1191SOL    HW115035   0.178   1.754   5.962 -1.5005 -0.3544  0.5577
 1191SOL    HW215036   0.155   1.608   5.990  2.1048 -0.3785  2.3886
 1192SOL     OW15037   2.447   2.139   8.847 -0.2173 -0.0523 -0.2949
 1192SOL    HW115038   2.536   2.174   8.853 -0.6432  0.7505  1.4187
 1192SOL    HW215039   2.424   2.144   8.940 -1.5021 -1.0611 -0.5666
 1193SOL     OW15040   2.261   2.247   9.751  0.2357 -0.4040 -0.2509
 1193SOL    HW115041   2.314   2.327   9.753  1.5473 -1.2647 -0.9325
 1193SOL    HW215042   2.327   2.194   9.797 -0.3372  0.1096  1.1806
 1194SOL     OW15043   4.626   0.768  15.417 -0.4859  0.4803  0.5943
 1194SOL    HW115044   4.704   0.821  15.434  0.0868 -0.6324  1.4405
 1194SOL    HW215045   4.628   0.776  15.322 -1.5322 -1.2668  0.4158
 1195SOL     OW15046   1.992   2.344   4.674 -0.0511  0.4209  0.2598
 1195SOL    HW115047   2.016   2.264   4.627 -0.9217 -0.3535  1.1350
 1195SOL    HW215048   2.007   2.416   4.613 -2.6716  2.3111  1.8541
 1196SOL     OW15049   4.133   0.378   4.321  0.2508  0.2779  0.3908
 1196SOL    HW115050   4.144   0.473   4.331 -0.0688  0.4952 -1.4346
 1196SOL    HW215051   4.168   0.348   4.405 -0.8601  0.9770  1.1016
 1197SOL     OW15052   2.766   4.563   8.252  0.0528 -0.2201 -0.2972
 1197SOL    HW115053   2.803   4.570   8.341  0.9556 -0.5417 -0.6459
 1197SOL    HW215054   2.673   4.581   8.261  0.6668  3.1473 -0.8409
 1198SOL     OW15055   4.469   3.718   3.818 -0.1913 -0.3921 -0.7495
 1198SOL    HW115056   4.563   3.732   3.830 -0.5159  0.9597  0.2475
 1198SOL    HW215057   4.466   3.739   3.725 -0.1859  0.5439 -0.5341
 1199SOL     OW15058   4.376   1.622   8.398 -0.4195 -0.2244 -0.0509
 1199SOL    HW115059   4.346   1.713   8.385  1.1051 -0.1983 -3.3306
 1199SOL    HW215060   4.417   1.633   8.484 -0.9522 -0.8116  0.2800
 1200SOL     OW15061   1.573   3.023   6.167 -0.2861  0.5868  0.1452
 1200SOL    HW115062   1.629   3.021   6.089  0.6504 -0.1253  0.8284
 1200SOL    HW215063   1.488   3.046   6.129  0.4004 -0.5769 -2.0912
 1201SOL     OW15064   4.213   0.647   3.910 -0.0209  0.3353  0.0047
 1201SOL    HW115065   4.277   0.582   3.879  1.0194  0.3535  2.0896
 1201SOL    HW215066   4.266   0.725   3.923 -0.6360  0.5575  1.2002
 1202SOL     OW15067   3.382   4.396  15.830  0.3716  0.3126 -0.1376
 1202SOL    HW115068   3.446   4.398  15.900 -0.2066  1.9233  0.3508
 1202SOL    HW215069   3.400   4.475  15.779  0.7517  1.1589  1.3373
 1203SOL     OW15070   3.971   0.063   6.310  0.2376 -0.1851  0.3853
 1203SOL    HW115071   3.998   0.023   6.228  0.9452  0.1027  0.4826
 1203SOL    HW215072   3.948   4.702   6.352 -1.2343  0.1786  0.3162
 1204SOL     OW15073   2.299   2.656  14.502 -0.0744 -1.0082  0.4688
 1204SOL    HW115074   2.296   2.577  14.556 -0.1944 -2.2561 -1.3759
 1204SOL    HW215075   2.286   2.629  14.411  0.4571 -2.1874  0.7431
 1205SOL     OW15076   2.606   1.426   1.246  0.0864  0.0867  0.4316
 1205SOL    HW115077   2.637   1.433   1.156 -0.7206  2.5149  0.3329
 1205SOL    HW215078   2.681   1.383   1.287  1.2892  1.2768 -0.5416
 1206SOL     OW15079   4.533   3.882   2.737  0.0126 -0.0061 -0.0669
 1206SOL    HW115080   4.467   3.948   2.717 -2.8497 -2.7623  0.2787
 1206SOL    HW215081   4.575   3.862   2.653 -1.7314 -0.5663 -0.8094
 1207SOL     OW15082   4.601   4.397  14.046 -0.2360  0.4952 -0.2688
 1207SOL    HW115083   4.583   4.377  13.954  0.2064  0.4731 -0.3510
 1207SOL    HW215084   4.540   4.329  14.073 -1.1792  1.5040  0.1006
 1208SOL     OW15085   1.678   3.573  10.409 -0.6878  0.3399  0.0817
 1208SOL    HW115086   1.670   3.568  10.504 -1.3182 -1.0312 -0.0503
 1208SOL    HW215087   1.665   3.480  10.391 -0.8753  0.2923  0.4534
 1209SOL     OW15088   0.831   4.587   3.623 -0.0098 -0.3481 -0.1237
 1209SOL    HW115089   0.872   4.661   3.578 -0.8932 -0.5336 -1.2235
 1209SOL    HW215090   0.859   4.513   3.570 -0.0549 -0.2649 -0.2640
 1210SOL     OW15091   1.980   0.890   8.167  0.0880  0.2874 -0.0117
 1210SOL    HW115092   2.069   0.925   8.171 -0.3359  1.5215 -1.7292
 1210SOL    HW215093   1.994   0.799   8.140 -1.1216 -0.4540  1.8041
 1211SOL     OW15094   3.764   2.369   4.359 -0.1203  0.5429 -0.4518
 1211SOL    HW115095   3.844   2.361   4.308  1.0044 -3.8300  1.9882
 1211SOL    HW215096   3.773   2.459   4.390  2.7368  0.4339 -0.9832
 1212SOL     OW15097   0.174   1.315   7.637  0.0318  0.3889 -0.1104
 1212SOL    HW115098   0.185   1.246   7.703 -0.8825  0.2176 -0.1337
 1212SOL    HW215099   0.186   1.277   7.550  0.6377  1.5027 -0.5138
 1213SOL     OW15100   4.365   4.652   7.778 -0.6894 -0.3414  0.4227
 1213SOL    HW115101   4.306   4.597   7.725 -1.2702 -0.8108  1.5593
 1213SOL    HW215102   4.448   4.608   7.764 -0.2688  0.5618  0.0605
 1214SOL     OW15103   1.003   3.729   7.032  0.3801 -0.1256  0.7428
 1214SOL    HW115104   1.056   3.650   7.044  0.2448 -0.2454  0.5434
 1214SOL    HW215105   0.926   3.695   6.987 -0.4222 -1.7077  3.2752
 1215SOL     OW15106   2.006   4.679   7.981  0.3975  0.0144 -0.6014
 1215SOL    HW115107   2.081   4.620   7.973  0.3953 -0.0222 -0.3722
 1215SOL    HW215108   2.036   0.024   7.920  2.0222  0.6995  0.9272
 1216SOL     OW15109   3.862   0.395   6.412 -0.3436 -0.2386  0.0607
 1216SOL    HW115110   3.831   0.353   6.332  0.7652  0.3651 -0.6910
 1216SOL    HW215111   3.894   0.473   6.367  0.4446 -0.0643  0.9174
 1217SOL     OW15112   0.317   4.621   9.536 -0.0932 -0.7729 -0.4417
 1217SOL    HW115113   0.367   4.673   9.600  0.0375 -0.7445 -0.5664
 1217SOL    HW215114   0.226   4.628   9.562 -0.3112 -1.8784 -0.9044
 1218SOL     OW15115   0.603   3.964   9.463  0.1658 -0.3574 -0.6659
 1218SOL    HW115116   0.648   3.991   9.383 -0.3318  0.8550 -0.5346
 1218SOL    HW215117   0.576   4.049   9.498  1.3833  0.0062 -0.5805
 1219SOL     OW15118   4.059   0.412   3.872  0.5279  0.0495  0.3963
 1219SOL    HW115119   4.012   0.451   3.798  0.4239 -1.4792 -0.3554
 1219SOL    HW215120   4.084   0.489   3.923  2.8840  0.0754 -0.8123
 1220SOL     OW15121   1.447   3.764   9.504  0.3282  0.0319  0.3004
 1220SOL    HW115122   1.409   3.740   9.589 -3.4965  1.6335 -0.9565
 1220SOL    HW215123   1.521   3.705   9.492 -1.2016 -1.9901  0.7964
 1221SOL     OW15124   0.680   0.717   0.943 -0.6882 -0.5941  0.2425
 1221SOL    HW115125   0.720   0.782   0.885 -0.0911 -0.8098  0.4110
 1221SOL    HW215126   0.630   0.673   0.875 -0.7410 -0.3077  0.0972
 1222SOL     OW15127   2.638   2.512  11.769 -0.1823  0.1085  0.8017
 1222SOL    HW115128   2.633   2.417  11.760 -1.8804  0.0570  2.3503
 1222SOL    HW215129   2.699   2.534  11.698  1.0429  0.3593  1.9414
 1223SOL     OW15130   1.716   3.938   7.784  0.3528  0.2890 -0.6660
 1223SOL    HW115131   1.766   4.004   7.735  3.0719 -0.5574  0.9584
 1223SOL    HW215132   1.647   3.985   7.830  1.1694  1.8273 -0.9985
 1224SOL     OW15133   1.315   1.274   5.135  0.1748  0.8276  0.5037
 1224SOL    HW115134   1.228   1.281   5.095  0.4362 -1.0101 -0.4398
 1224SOL    HW215135   1.287   1.289   5.225 -0.5770 -0.8432  0.5521
 1225SOL     OW15136   0.790   1.225   0.917  0.5753 -0.9175  0.1259
 1225SOL    HW115137   0.810   1.170   0.993 -0.8038 -2.2984 -0.4926
 1225SOL    HW215138   0.696   1.233   0.934  0.6376  0.0372  0.0088
 1226SOL     OW15139   4.276   3.529   4.198  0.3579 -0.7964 -0.3836
 1226SOL    HW115140   4.311   3.617   4.212 -0.0766 -0.6002 -0.5311
 1226SOL    HW215141   4.268   3.524   4.103  2.0373 -2.7297 -0.4227
 1227SOL     OW15142   4.642   2.732   3.193 -0.0200  0.0834  0.1103
 1227SOL    HW115143   4.664   2.649   3.152 -2.9289 -0.8338  0.4029
 1227SOL    HW215144   4.669   2.722   3.285  0.4733 -0.2918 -0.0776
 1228SOL     OW15145   4.552   2.455   7.959 -0.4600 -0.2978  0.6179
 1228SOL    HW115146   4.539   2.511   8.035  0.4118 -0.7232  1.0813
 1228SOL    HW215147   4.636   2.483   7.923 -0.5530  0.6243  1.1280
 1229SOL     OW15148   0.543   4.604   8.418 -0.1465 -0.4416  0.1754
 1229SOL    HW115149   0.527   4.674   8.354  0.1941  1.5376  2.2200
 1229SOL    HW215150   0.493   4.640   8.492  0.0350  0.5943 -0.1979
 1230SOL     OW15151   4.468   4.358  11.086  0.1489  0.2848  0.2564
 1230SOL    HW115152   4.487   4.285  11.027  0.1754  0.3334  0.2046
 1230SOL    HW215153   4.553   4.382  11.124  1.5994 -1.7355 -1.7376
 1231SOL     OW15154   2.160   1.818   7.387 -0.4077  0.1330  0.7554
 1231SOL    HW115155   2.162   1.724   7.407  0.4371  0.1753  0.8792
 1231SOL    HW215156   2.221   1.864   7.445  1.3817 -3.0519  1.3783
 1232SOL     OW15157   2.998   0.547   7.391  0.6458  0.1057  0.3965
 1232SOL    HW115158   2.983   0.582   7.479  0.0689  0.3803  0.1867
 1232SOL    HW215159   3.044   0.467   7.416 -1.5403 -0.8850  1.2881
 1233SOL     OW15160   3.781   0.243  10.743  0.0690  0.2296  0.1692
 1233SOL    HW115161   3.849   0.191  10.785  0.8901  1.4689  0.4049
 1233SOL    HW215162   3.700   0.202  10.772 -1.6254  3.9096  0.7285
 1234SOL     OW15163   0.330   3.116  11.986 -0.7536  0.0620  0.2642
 1234SOL    HW115164   0.287   3.045  12.033  0.9503 -1.6107 -0.6856
 1234SOL    HW215165   0.422   3.090  11.984 -0.4155  1.2436  0.5160
 1235SOL     OW15166   3.887   1.881   7.513  0.1578  0.0101 -0.2097
 1235SOL    HW115167   3.981   1.865   7.505  0.1657  0.7392 -1.5660
 1235SOL    HW215168   3.863   1.838   7.432  0.9960 -0.8019 -0.0252
 1236SOL     OW15169   4.631   0.554  16.154 -0.0453  0.6081 -0.9036
 1236SOL    HW115170   4.614   0.468  16.116 -1.4005  0.2064  0.5755
 1236SOL    HW215171   0.004   0.541  16.155  0.2338  2.6380 -1.0816
 1237SOL     OW15172   0.281   3.043  13.219 -0.1308  0.4381 -0.4496
 1237SOL    HW115173   0.246   3.120  13.264 -0.5038  0.1339 -0.2209
 1237SOL    HW215174   0.268   3.065  13.127  0.1568 -1.3529 -0.9037
 1238SOL     OW15175   1.326   1.699   7.528 -0.0676  0.8146 -0.4037
 1238SOL    HW115176   1.414   1.673   7.554  0.9772  2.8039 -1.9905
 1238SOL    HW215177   1.287   1.705   7.615 -0.2567 -0.6937 -0.3807
 1239SOL     OW15178   3.270   1.674   8.504 -0.0587  0.3600 -0.2136
 1239SOL    HW115179   3.190   1.724   8.523 -0.2385 -0.4921  1.3318
 1239SOL    HW215180   3.335   1.741   8.486  0.5553  0.3188  1.8240
 1240SOL     OW15181   3.834   3.532   1.090  0.5115 -0.0578  0.0594
 1240SOL    HW115182   3.832   3.450   1.138 -1.7364 -0.5272 -0.8473
 1240SOL    HW215183   3.899   3.521   1.020 -0.9520  1.1315 -1.4746
 1241SOL     OW15184   2.665   4.434   3.926  0.0167 -0.1287 -0.2355
 1241SOL    HW115185   2.649   4.406   4.016 -1.2488  0.6181 -0.2336
 1241SOL    HW215186   2.648   4.355   3.875 -1.4495  0.2430 -0.3147
 1242SOL     OW15187   2.627   2.413  11.216  0.0746 -0.3065 -0.0729
 1242SOL    HW115188   2.538   2.427  11.184 -0.3311  2.1140  2.1213
 1242SOL    HW215189   2.662   2.347  11.156  0.5458 -1.9620  2.0408
 1243SOL     OW15190   0.389   3.589   4.246  0.8985  0.0823  0.3831
 1243SOL    HW115191   0.404   3.559   4.336  1.6743 -0.9042 -0.0882
 1243SOL    HW215192   0.472   3.565   4.204  0.6857 -1.0251  0.5968
 1244SOL     OW15193   2.561   4.035   0.798  0.6249 -0.3161  0.8208
 1244SOL    HW115194   2.655   4.017   0.796  0.5706 -0.4273 -0.3841
 1244SOL    HW215195   2.532   4.019   0.709 -0.5033  0.7015  1.0039
 1245SOL     OW15196   2.566   3.822   2.495  0.2010 -0.1504  0.1833
 1245SOL    HW115197   2.652   3.804   2.458  0.6508  2.0053  0.2024
 1245SOL    HW215198   2.561   3.918   2.493  1.4551 -0.0686  1.1136
 1246SOL     OW15199   0.954   4.370   3.974  0.2423  0.2447 -0.0267
 1246SOL    HW115200   0.877   4.394   3.922 -1.1091 -1.8429  1.0148
 1246SOL    HW215201   0.962   4.279   3.946  1.0722 -0.2060  1.6736
 1247SOL     OW15202   2.941   0.092   5.389  0.2093 -0.0063  0.2879
 1247SOL    HW115203   2.928   4.719   5.397 -1.0775  0.1250 -0.1456
 1247SOL    HW215204   3.033   0.094   5.364 -0.1063 -0.8284 -0.9561
 1248SOL     OW15205   3.674   3.683   8.060 -0.2092  0.0917  0.1828
 1248SOL    HW115206   3.709   3.759   8.014  1.4606 -0.7914 -0.0076
 1248SOL    HW215207   3.606   3.646   8.003 -0.3523  0.1003  0.3495
 1249SOL     OW15208   0.714   2.110   7.964 -0.7017 -0.3466 -0.3105
 1249SOL    HW115209   0.692   2.047   7.896 -1.5438 -0.9855  0.5616
 1249SOL    HW215210   0.659   2.187   7.950 -0.8089 -0.0276  1.8504
 1250SOL     OW15211   4.128   0.742  11.283  0.1386 -0.6138 -0.1260
 1250SOL    HW115212   4.168   0.668  11.329 -1.7301 -0.6691  1.4434
 1250SOL    HW215213   4.199   0.775  11.229  1.1313 -2.8346 -0.1732
 1251SOL     OW15214   0.751   0.795   8.562 -0.2565  0.5942  0.4434
 1251SOL    HW115215   0.671   0.834   8.527 -0.6250 -0.1255  0.4830
 1251SOL    HW215216   0.715   0.706   8.566 -2.5466  1.4621 -0.5285
 1252SOL     OW15217   1.562   1.007   1.159  0.4123 -0.1364  0.4732
 1252SOL    HW115218   1.496   1.016   1.229 -2.3564  1.7266 -2.3714
 1252SOL    HW215219   1.515   0.939   1.111 -0.0618  1.4190 -1.2819
 1253SOL     OW15220   0.364   2.499   8.570 -0.4279 -0.2510 -0.2245
 1253SOL    HW115221   0.451   2.462   8.561  0.2677  1.0995  0.8467
 1253SOL    HW215222   0.308   2.422   8.560 -2.4126  0.8738  2.0727
 1254SOL     OW15223   1.232   0.784  12.912 -0.3956 -0.1798 -0.2553
 1254SOL    HW115224   1.311   0.833  12.891 -1.2856 -0.3063 -3.8239
 1254SOL    HW215225   1.235   0.725  12.837  2.0141  0.5507 -0.7150
 1255SOL     OW15226   4.695   2.782   5.487 -0.0384 -0.9932 -0.1313
 1255SOL    HW115227   4.716   2.768   5.579  2.0818  0.0529 -0.4452
 1255SOL    HW215228   4.657   2.699   5.459 -1.6879 -0.2143 -0.2105
 1256SOL     OW15229   1.559   4.233  14.120 -0.5060 -0.3488  0.9405
 1256SOL    HW115230   1.520   4.320  14.133  0.4738  0.1559  0.4853
 1256SOL    HW215231   1.647   4.263  14.098 -0.5241 -1.4810 -0.6521
 1257SOL     OW15232   3.646   3.195   3.196  0.4440 -0.7900  0.1330
 1257SOL    HW115233   3.717   3.133   3.212  1.6719  1.1919  2.3530
 1257SOL    HW215234   3.670   3.222   3.108 -0.0051 -1.1586 -0.1025
 1258SOL     OW15235   1.502   2.337   3.596  0.2342  0.2808  0.4846
 1258SOL    HW115236   1.443   2.286   3.653 -0.0401 -0.1477 -0.1813
 1258SOL    HW215237   1.526   2.415   3.647  0.4161  0.1108  0.6593
 1259SOL     OW15238   3.643   0.949   6.891  0.4418 -0.5351  0.1692
 1259SOL    HW115239   3.719   0.972   6.838  0.6073  1.4331  1.2834
 1259SOL    HW215240   3.575   0.920   6.830 -0.1281 -0.6298  0.8532
 1260SOL     OW15241   0.210   1.371  16.406 -0.5343  0.2871  0.0188
 1260SOL    HW115242   0.207   1.450  16.460 -2.7875  1.1270 -1.3408
 1260SOL    HW215243   0.116   1.362  16.386 -0.7352  2.4599  0.0061
 1261SOL     OW15244   1.490   4.024   4.022  0.0927  0.0263  0.3971
 1261SOL    HW115245   1.574   4.055   4.056 -0.0481  0.9207 -0.0660
 1261SOL    HW215246   1.518   3.934   4.010 -1.3147 -0.5463  1.3011
 1262SOL     OW15247   3.728   1.491   2.051  0.0826  0.4521 -0.3206
 1262SOL    HW115248   3.758   1.524   1.966  1.5344 -1.2650 -0.4831
 1262SOL    HW215249   3.645   1.465   2.012  0.6684  0.4303 -1.5612
 1263SOL     OW15250   2.580   1.710   4.196  0.2984  0.3411  0.0307
 1263SOL    HW115251   2.593   1.623   4.159  0.8353 -0.8448  3.0018
 1263SOL    HW215252   2.630   1.760   4.131  0.1919 -0.3028 -0.5455
 1264SOL     OW15253   0.000   0.589   8.644  0.5180 -0.1179 -0.3177
 1264SOL    HW115254   4.659   0.559   8.708  1.0783 -1.3635 -0.3450
 1264SOL    HW215255   4.677   0.659   8.596  1.1792 -0.5641 -1.6031
 1265SOL     OW15256   1.282   2.237   4.112 -0.1516 -0.3806  0.0545
 1265SOL    HW115257   1.279   2.157   4.058  2.7690  0.9805 -2.1461
 1265SOL    HW215258   1.372   2.268   4.103  0.0579 -0.9218  0.2547
 1266SOL     OW15259   0.394   3.677   7.081  0.6895  0.0064 -0.6182
 1266SOL    HW115260   0.345   3.645   7.156 -1.3896 -0.2814 -2.0977
 1266SOL    HW215261   0.397   3.606   7.016 -0.4883  0.4840 -1.1843
 1267SOL     OW15262   1.860   1.803   3.433  0.4162 -0.7691 -0.1941
 1267SOL    HW115263   1.956   1.805   3.437  0.3385  3.2843  0.0918
 1267SOL    HW215264   1.846   1.832   3.523  1.5595 -1.4079  0.1933
 1268SOL     OW15265   4.283   1.261   4.570 -0.0318  0.0633 -0.3965
 1268SOL    HW115266   4.372   1.293   4.586  0.4701 -0.2433 -2.6140
 1268SOL    HW215267   4.238   1.320   4.630 -2.7134 -2.5438  0.1262
 1269SOL     OW15268   4.157   4.200   8.425 -0.0641 -0.0650 -0.0456
 1269SOL    HW115269   4.218   4.273   8.427 -0.8223  0.6132 -1.5980
 1269SOL    HW215270   4.195   4.147   8.495 -0.7054 -0.4880 -0.0132
 1270SOL     OW15271   0.061   2.138   7.873  0.2913  0.2610 -0.0950
 1270SOL    HW115272   0.048   2.069   7.938 -0.9588  2.5237  2.1175
 1270SOL    HW215273   0.083   2.217   7.923  2.1977 -1.4716  1.8278
 1271SOL     OW15274   0.797   3.090   9.500 -0.3207  0.1294  0.6396
 1271SOL    HW115275   0.859   3.095   9.574 -0.5807 -0.1191  0.8745
 1271SOL    HW215276   0.810   2.996   9.483  2.6079  0.3875  1.3938
 1272SOL     OW15277   1.285   1.879   1.831  0.3755  0.1677  0.9750
 1272SOL    HW115278   1.375   1.847   1.842  0.2800 -0.3279  0.3298
 1272SOL    HW215279   1.233   1.807   1.869  0.3126 -1.1124 -1.5217
 1273SOL     OW15280   1.607   3.252   5.904 -0.0362  0.0246 -0.1669
 1273SOL    HW115281   1.677   3.202   5.944  1.8790  2.3095 -0.7023
 1273SOL    HW215282   1.590   3.325   5.963 -0.3980  0.7624 -1.1860
 1274SOL     OW15283   4.239   1.234   5.182  0.0985 -0.2480  0.5630
 1274SOL    HW115284   4.268   1.150   5.145 -1.0315 -0.9836  1.3569
 1274SOL    HW215285   4.271   1.231   5.272  0.3755  0.9446  0.5088
 1275SOL     OW15286   2.975   0.683   2.044 -0.5936  0.2447 -0.0600
 1275SOL    HW115287   2.989   0.589   2.060  1.1168  0.4851 -0.1731
 1275SOL    HW215288   2.889   0.684   2.003 -0.8327  0.3354  0.4411
 1276SOL     OW15289   0.066   1.293   3.711 -0.8862  0.4878 -0.5595
 1276SOL    HW115290   0.104   1.223   3.659 -2.0278  1.0194 -2.1131
 1276SOL    HW215291   0.124   1.367   3.694 -0.6867  0.3523 -0.4554
 1277SOL     OW15292   1.167   4.128   4.943 -0.3201 -0.3216 -0.3711
 1277SOL    HW115293   1.151   4.039   4.974  0.3970 -1.1730 -2.4211
 1277SOL    HW215294   1.210   4.177   5.013  1.0840 -2.1493  0.0532
 1278SOL     OW15295   3.118   2.746   1.327  0.6857 -0.0963 -0.1440
 1278SOL    HW115296   3.182   2.815   1.312  0.8495 -0.2860 -0.3056
 1278SOL    HW215297   3.106   2.699   1.244 -1.7473  1.7939 -0.8674
 1279SOL     OW15298   2.572   4.204   3.814  0.4185  0.0722 -0.1777
 1279SOL    HW115299   2.483   4.183   3.784  0.6554 -0.0111 -0.8134
 1279SOL    HW215300   2.619   4.175   3.736  0.7272  0.2429 -0.0555
 1280SOL     OW15301   3.803   1.179   8.362  0.4415 -0.1434  0.2092
 1280SOL    HW115302   3.735   1.228   8.407  0.7716 -0.5301  1.1372
 1280SOL    HW215303   3.807   1.102   8.419  3.7491  1.1453  1.7630
 1281SOL     OW15304   4.082   2.106   0.913  0.2088  0.0263  0.1767
 1281SOL    HW115305   4.006   2.047   0.912  0.0307  0.2476  0.5515
 1281SOL    HW215306   4.153   2.059   0.956  1.6172  0.2126 -1.9597
 1282SOL     OW15307   2.180   2.766   6.321 -0.5976 -0.0483 -0.0001
 1282SOL    HW115308   2.258   2.774   6.376 -0.7946  1.3587  0.0755
 1282SOL    HW215309   2.208   2.809   6.240 -1.7819 -0.9210 -0.8734
 1283SOL     OW15310   0.650   4.155  11.137 -0.3970 -0.2343 -0.7598
 1283SOL    HW115311   0.712   4.184  11.070  3.1627  0.0542  2.6818
 1283SOL    HW215312   0.708   4.105  11.195  1.4243  1.1829 -1.3702
 1284SOL     OW15313   3.512   0.890   0.513 -0.1055  0.4884  0.4576
 1284SOL    HW115314   3.486   0.945   0.440 -0.9884  0.6446  0.8932
 1284SOL    HW215315   3.525   0.964   0.572  1.6198 -0.9636  1.9283
 1285SOL     OW15316   0.974   3.311  13.406 -0.0960 -0.0600  0.0080
 1285SOL    HW115317   0.984   3.277  13.495 -1.1460  1.5494  0.7241
 1285SOL    HW215318   0.880   3.330  13.412 -0.4313 -1.7132 -0.0368
 1286SOL     OW15319   3.171   2.959   6.390 -0.3913  0.7401 -0.2948
 1286SOL    HW115320   3.155   3.016   6.465  0.4412 -0.4906  0.8162
 1286SOL    HW215321   3.093   2.961   6.334 -1.6404  0.9012  1.4651
 1287SOL     OW15322   0.226   3.778   4.349  0.0900  0.3074 -0.1405
 1287SOL    HW115323   0.223   3.731   4.432  0.0318  0.2846 -0.1554
 1287SOL    HW215324   0.302   3.741   4.303 -1.9776 -2.7473 -1.0734
 1288SOL     OW15325   0.421   4.709   9.244 -0.2720  0.4973  0.0375
 1288SOL    HW115326   0.447   0.077   9.266 -2.1737  0.7159  1.4765
 1288SOL    HW215327   0.373   4.695   9.326 -1.9110  0.4648 -0.9287
 1289SOL     OW15328   2.440   3.808  14.988  0.4412  0.2005 -0.4653
 1289SOL    HW115329   2.379   3.795  15.061  1.9009  0.1214  0.7427
 1289SOL    HW215330   2.518   3.828  15.039  1.4784  0.3874 -2.1417
 1290SOL     OW15331   4.684   2.965   6.633 -0.0681 -0.3937  0.2822
 1290SOL    HW115332   0.024   2.969   6.560  0.9021  0.5886  1.1689
 1290SOL    HW215333   4.603   2.936   6.590  0.3254 -0.7572 -0.2076
 1291SOL     OW15334   1.979   2.173   6.446 -0.1966 -0.3177  0.2277
 1291SOL    HW115335   2.063   2.214   6.426  0.2146 -0.2488  2.1209
 1291SOL    HW215336   2.006   2.107   6.510  1.2501  1.1314  1.1028
 1292SOL     OW15337   3.091   2.258   7.877 -0.0360 -0.3516 -0.4092
 1292SOL    HW115338   3.163   2.255   7.814  0.4095 -0.5956  0.1132
 1292SOL    HW215339   3.009   2.258   7.828  1.1674  0.3848 -2.4005
 1293SOL     OW15340   2.403   0.063   2.411 -0.0981  0.4785  0.0802
 1293SOL    HW115341   2.432   0.151   2.435 -0.8804  0.3998  1.3527
 1293SOL    HW215342   2.396   0.011   2.491 -0.9047 -0.1230 -0.3773
 1294SOL     OW15343   3.459   2.703   1.697  0.3563  0.7509 -0.1242
 1294SOL    HW115344   3.387   2.698   1.635  1.6865 -0.5357 -1.5667
 1294SOL    HW215345   3.536   2.698   1.641 -1.0787  0.9882 -2.1116
 1295SOL     OW15346   4.040   0.011   8.390  0.3929  0.1591 -0.0830
 1295SOL    HW115347   4.075   0.064   8.318  0.4904  2.1682  1.4407
 1295SOL    HW215348   4.114   0.003   8.450 -0.4494 -0.9109  0.8126
 1296SOL     OW15349   1.160   2.646   5.635  0.4448  0.5562 -0.0092
 1296SOL    HW115350   1.126   2.589   5.704  2.1482 -0.5548 -0.1008
 1296SOL    HW215351   1.084   2.705   5.629 -0.4598 -0.4523  1.6820
 1297SOL     OW15352   4.045   3.650   7.481 -1.1724  0.3089  0.0579
 1297SOL    HW115353   4.116   3.648   7.545 -3.7889  1.7174  2.9776
 1297SOL    HW215354   3.976   3.696   7.528 -0.7095  0.1405  0.9095
 1298SOL     OW15355   4.444   3.900   9.749  0.1352 -0.0845 -0.1966
 1298SOL    HW115356   4.416   3.809   9.745  1.3558 -0.4567 -0.0963
 1298SOL    HW215357   4.536   3.895   9.775 -0.4417 -1.2132  1.5846
 1299SOL     OW15358   2.032   4.580  13.909 -0.4225  0.5201 -0.2693
 1299SOL    HW115359   2.076   4.626  13.837 -0.1456 -0.9819 -1.0503
 1299SOL    HW215360   2.071   4.494  13.897  0.7777  1.0375 -0.1045
 1300SOL     OW15361   2.131   0.170   4.772  0.5619 -0.2502  0.1150
 1300SOL    HW115362   2.180   0.092   4.797 -0.1113 -0.0568  2.0736
 1300SOL    HW215363   2.064   0.135   4.713 -0.6984 -0.7657  1.8601
 1301SOL     OW15364   2.717   4.252   2.082  0.6572  0.1075  0.4653
 1301SOL    HW115365   2.701   4.262   1.988  0.2799 -3.2522  0.1698
 1301SOL    HW215366   2.810   4.232   2.075  0.6770 -0.1962  1.7340
 1302SOL     OW15367   1.891   4.389   1.741 -0.5024 -0.1861  0.3425
 1302SOL    HW115368   1.843   4.433   1.672  2.5905  0.5407 -1.3429
 1302SOL    HW215369   1.827   4.371   1.810 -2.6750 -2.8443 -2.3809
 1303SOL     OW15370   0.832   0.239  15.899  0.3266  0.2047  0.1431
 1303SOL    HW115371   0.887   0.247  15.821 -0.8952  0.8170 -0.6440
 1303SOL    HW215372   0.812   0.331  15.917  1.7750  0.2554  1.4908
 1304SOL     OW15373   1.752   1.401   4.287  0.3425  0.2180  0.2416
 1304SOL    HW115374   1.716   1.326   4.241  2.2331 -1.6958  1.8666
 1304SOL    HW215375   1.718   1.479   4.243 -1.9622  1.3867  4.0732
 1305SOL     OW15376   4.293   0.203  14.508  0.7900 -0.4025  0.1295
 1305SOL    HW115377   4.321   0.268  14.443 -1.1954 -0.2756 -0.6050
 1305SOL    HW215378   4.362   0.137  14.511  0.2883 -0.9908 -1.0169
 1306SOL     OW15379   1.127   0.391   5.285  0.2115  0.2955 -0.1412
 1306SOL    HW115380   1.098   0.442   5.210  0.3390  1.1628  0.3951
 1306SOL    HW215381   1.179   0.456   5.332  1.5910 -1.2765  0.5071
 1307SOL     OW15382   2.578   3.289   3.152  0.4169 -0.2954  0.5508
 1307SOL    HW115383   2.646   3.348   3.184  0.1990  0.1097  0.2678
 1307SOL    HW215384   2.544   3.335   3.075 -1.0383 -0.3163  1.1760
 1308SOL     OW15385   3.461   2.604   2.151 -0.2045 -0.5539 -0.0246
 1308SOL    HW115386   3.408   2.582   2.074  0.4267 -2.2981  0.0391
 1308SOL    HW215387   3.546   2.564   2.129  1.6627  1.1003  4.3330
 1309SOL     OW15388   2.189   2.442  12.601 -0.4438  0.2008  0.3388
 1309SOL    HW115389   2.175   2.529  12.563  0.7334  1.1638  2.0770
 1309SOL    HW215390   2.223   2.412  12.516 -0.5215  1.1694 -0.0355
 1310SOL     OW15391   3.774   4.208   7.847 -0.1692  0.3429  0.4952
 1310SOL    HW115392   3.747   4.219   7.756  0.5903 -3.9144 -0.2288
 1310SOL    HW215393   3.868   4.229   7.843 -0.8581  2.6992 -3.7985
 1311SOL     OW15394   1.254   2.384  16.865 -0.3392  0.3305  0.0687
 1311SOL    HW115395   1.193   2.400  16.792 -1.7013 -3.0806  0.4583
 1311SOL    HW215396   1.288   2.474  16.863 -2.1278  1.0397  0.9804
 1312SOL     OW15397   3.002   1.254   7.057  0.1395  0.0957  0.3111
 1312SOL    HW115398   2.917   1.296   7.042 -1.0757 -1.7339  2.0957
 1312SOL    HW215399   3.045   1.337   7.078 -0.7643  0.5039  0.5340
 1313SOL     OW15400   3.686   0.281   0.582 -0.4253  0.2869 -0.1290
 1313SOL    HW115401   3.730   0.269   0.665  0.3931 -0.4104 -0.6658
 1313SOL    HW215402   3.694   0.197   0.537  0.4489 -0.4200  1.3610
 1314SOL     OW15403   1.694   1.840  17.167  0.0413 -0.2913  0.2149
 1314SOL    HW115404   1.688   1.905  17.097 -0.5326 -1.2410 -0.6063
 1314SOL    HW215405   1.701   1.893  17.246  1.9963  2.2216 -1.6525
 1315SOL     OW15406   4.446   2.212  15.169 -0.1492  0.3319  0.3877
 1315SOL    HW115407   4.481   2.296  15.197  1.4802 -0.5689  1.0638
 1315SOL    HW215408   4.518   2.158  15.200 -1.0573  0.0175  1.9280
 1316SOL     OW15409   0.306   1.935  15.913 -0.1429 -0.2707 -0.1308
 1316SOL    HW115410   0.273   1.903  15.829  0.0072  0.3453 -0.4257
 1316SOL    HW215411   0.325   2.029  15.916  0.5712 -0.3858 -0.8078
 1317SOL     OW15412   4.482   2.175   4.032  0.2190  0.0954  0.1483
 1317SOL    HW115413   4.544   2.113   4.072  0.4832  0.2417 -0.0334
 1317SOL    HW215414   4.398   2.133   4.050  0.5366  0.2629  2.0348
 1318SOL     OW15415   4.242   1.712  10.945 -0.5696 -0.6430  0.2504
 1318SOL    HW115416   4.315   1.759  10.987 -1.6274  3.4660 -2.5029
 1318SOL    HW215417   4.253   1.619  10.965  0.7880 -0.7755 -1.1651
 1319SOL     OW15418   3.108   2.114   1.845  0.1923  0.6103  0.4708
 1319SOL    HW115419   3.152   2.050   1.901  0.1540 -0.8216 -1.1362
 1319SOL    HW215420   3.018   2.094   1.871  0.5486 -0.4487  0.8666
 1320SOL     OW15421   2.717   2.763   6.560  0.3965 -0.1097 -0.2596
 1320SOL    HW115422   2.796   2.802   6.598  2.4841 -1.0449 -3.6230
 1320SOL    HW215423   2.724   2.678   6.604 -3.1384  0.0428  0.5839
 1321SOL     OW15424   2.030   4.675  17.222 -0.0566 -0.7574  0.0781
 1321SOL    HW115425   2.002   4.663  17.312 -1.0127  0.0460 -0.1181
 1321SOL    HW215426   1.970   4.617  17.174  1.0786 -2.2060  0.3911
 1322SOL     OW15427   3.074   0.856  10.482  0.4289 -0.5446  0.3885
 1322SOL    HW115428   3.089   0.836  10.574  1.0591 -0.3090  0.3373
 1322SOL    HW215429   2.980   0.872  10.472  0.3119 -1.0595  0.6686
 1323SOL     OW15430   1.353   2.985   6.026  0.2343  0.5125 -0.3412
 1323SOL    HW115431   1.343   2.930   5.948  4.3089 -1.9209  0.8059
 1323SOL    HW215432   1.285   2.950   6.083  0.3283  0.0723 -0.4913
 1324SOL     OW15433   1.253   2.302   5.825  0.1820 -0.2675 -0.0699
 1324SOL    HW115434   1.202   2.328   5.901  1.6427  0.9169  0.4986
 1324SOL    HW215435   1.219   2.212   5.823  0.7902 -0.5090  0.8592
 1325SOL     OW15436   3.340   4.629   4.133 -0.2065 -0.4082 -0.1320
 1325SOL    HW115437   3.295   4.711   4.154  0.1066 -0.0835 -0.7536
 1325SOL    HW215438   3.316   4.577   4.211 -1.5509  1.6778  0.8310
 1326SOL     OW15439   0.648   4.622   6.255  0.1123  0.2879  0.3662
 1326SOL    HW115440   0.568   4.654   6.297 -0.9663 -2.6397  0.5112
 1326SOL    HW215441   0.707   4.696   6.238  0.3646  0.3379  1.4183
 1327SOL     OW15442   2.589   1.471  12.843 -0.1559 -0.4152  0.1556
 1327SOL    HW115443   2.513   1.475  12.901 -0.0991 -0.3999  0.2283
 1327SOL    HW215444   2.653   1.409  12.878 -1.3167 -2.1836 -0.7931
 1328SOL     OW15445   2.528   3.940   5.131 -0.2260  0.4567  0.0346
 1328SOL    HW115446   2.552   4.028   5.101  3.0290 -0.4898 -0.0926
 1328SOL    HW215447   2.433   3.946   5.118 -0.7490 -3.5423  2.1814
 1329SOL     OW15448   4.148   0.254  14.707 -0.1228  0.1828  0.4202
 1329SOL    HW115449   4.220   0.299  14.751 -0.9792  2.8852 -0.9957
 1329SOL    HW215450   4.198   0.226  14.630  0.0199  2.1068 -0.1774
 1330SOL     OW15451   1.092   1.869   2.836 -0.0810 -0.0452  0.9143
 1330SOL    HW115452   1.035   1.824   2.899  2.5608 -0.0936  3.2735
 1330SOL    HW215453   1.070   1.959   2.858  1.2502  0.9022 -1.6220
 1331SOL     OW15454   2.365   0.319   1.838  0.1741 -0.6381  0.3209
 1331SOL    HW115455   2.312   0.399   1.832  0.1607 -0.7289 -0.8263
 1331SOL    HW215456   2.379   0.280   1.752  1.2228  0.9978 -0.2541
 1332SOL     OW15457   0.087   4.073  14.260 -0.4313  0.5037  0.1233
 1332SOL    HW115458   0.132   4.087  14.343 -2.8397  0.5918  1.4219
 1332SOL    HW215459   0.015   4.013  14.279  1.4819 -0.5086  4.0352
 1333SOL     OW15460   2.930   0.641   0.925 -0.4206  0.2139  0.7585
 1333SOL    HW115461   2.838   0.636   0.899 -0.2645  1.6450 -0.0408
 1333SOL    HW215462   2.954   0.548   0.926 -0.6331  0.1570  0.5516
 1334SOL     OW15463   4.031   2.516   5.219 -0.2078 -0.5384  0.3171
 1334SOL    HW115464   4.061   2.434   5.260 -0.8704 -0.3066  1.2542
 1334SOL    HW215465   3.942   2.499   5.189 -0.3867  0.9366  0.0096
 1335SOL     OW15466   4.266   2.082   4.769  0.2437 -0.6650 -0.2747
 1335SOL    HW115467   4.184   2.120   4.738  0.2459 -0.5638 -0.1547
 1335SOL    HW215468   4.278   2.019   4.698 -0.8573 -2.3765  1.0571
 1336SOL     OW15469   4.200   0.210   6.402 -0.8182  0.2533 -0.0354
 1336SOL    HW115470   4.131   0.165   6.354 -0.3549  0.0630 -0.5187
 1336SOL    HW215471   4.150   0.266   6.462 -2.0234  1.0802 -1.8361
 1337SOL     OW15472   1.389   3.808   4.927 -0.0707 -0.4536 -0.1923
 1337SOL    HW115473   1.467   3.805   4.982  0.3870  0.3355 -0.7816
 1337SOL    HW215474   1.396   3.897   4.894  1.0290  0.1407  1.6388
 1338SOL     OW15475   3.598   0.916   5.143 -1.0909  0.1403 -0.0567
 1338SOL    HW115476   3.532   0.849   5.155  0.9202 -1.9487 -0.6544
 1338SOL    HW215477   3.553   1.000   5.154 -0.5495  0.4337 -0.0475
 1339SOL     OW15478   4.350   3.690  15.435 -0.8257  0.1469 -0.0373
 1339SOL    HW115479   4.279   3.755  15.439 -0.7272  0.0088  3.3677
 1339SOL    HW215480   4.344   3.638  15.515  0.9834  1.5321  0.9822
 1340SOL     OW15481   2.667   4.048   6.316  0.0275  0.4526 -0.0226
 1340SOL    HW115482   2.605   3.979   6.294 -1.3508  1.4336  0.7883
 1340SOL    HW215483   2.712   4.055   6.232  1.4193  0.3650  0.6996
 1341SOL     OW15484   1.704   1.293   5.806  0.1557 -0.2385  0.1894
 1341SOL    HW115485   1.633   1.350   5.835  0.1289 -0.5375  0.7097
 1341SOL    HW215486   1.742   1.344   5.734 -0.7050  0.0675 -0.0496
 1342SOL     OW15487   2.493   0.657   6.274  0.2135  0.3136 -0.1020
 1342SOL    HW115488   2.566   0.709   6.308  1.4799 -1.2353 -0.4617
 1342SOL    HW215489   2.435   0.731   6.260  0.9954  0.2663 -3.5488
 1343SOL     OW15490   0.074   2.797   5.144 -0.6189  0.5581  0.0877
 1343SOL    HW115491   0.054   2.704   5.159 -1.4163  0.5987 -0.7327
 1343SOL    HW215492   4.722   2.844   5.181 -0.2694  0.9637  0.2712
 1344SOL     OW15493   4.076   1.127   9.075  0.1167 -0.1567  0.6570
 1344SOL    HW115494   4.078   1.220   9.051 -2.8588 -0.3612 -0.3017
 1344SOL    HW215495   4.000   1.131   9.132 -0.0197  0.4501  0.4264
 1345SOL     OW15496   4.669   3.158   6.870  0.0172 -0.1193 -0.1696
 1345SOL    HW115497   4.643   3.111   6.791  0.1717 -2.4415  1.1476
 1345SOL    HW215498   4.692   3.086   6.929  0.3539 -0.3062 -0.5367
 1346SOL     OW15499   3.257   1.615   9.521  0.1241 -0.7467  0.2927
 1346SOL    HW115500   3.265   1.523   9.495  0.0079 -0.5748 -0.3416
 1346SOL    HW215501   3.279   1.600   9.613 -0.9639  0.4773  0.7595
 1347SOL     OW15502   1.503   0.761  17.481 -0.4090  0.5302 -0.0515
 1347SOL    HW115503   1.425   0.815  17.470 -1.9171 -1.8930 -1.2567
 1347SOL    HW215504   1.521   0.774  17.574  0.4541 -0.5783 -0.0681
 1348SOL     OW15505   1.150   4.089   6.756 -0.2471 -0.0591 -0.5527
 1348SOL    HW115506   1.214   4.018   6.764 -0.6604 -0.2100  1.4567
 1348SOL    HW215507   1.147   4.117   6.848 -1.7777  0.4300 -0.7512
 1349SOL     OW15508   3.565   2.121   7.739  0.8372  0.2512 -0.8187
 1349SOL    HW115509   3.562   2.125   7.644 -2.3494 -1.8500 -0.7918
 1349SOL    HW215510   3.570   2.026   7.743  3.3144  0.4930  2.0652
 1350SOL     OW15511   2.229   3.846   8.990  0.2531 -0.0698 -0.1287
 1350SOL    HW115512   2.216   3.755   8.965 -0.7109 -0.3795  1.4890
 1350SOL    HW215513   2.146   3.892   8.977 -0.3200 -0.8938  0.6623
 1351SOL     OW15514   0.494   2.266  14.040  0.5481  0.0644  0.5130
 1351SOL    HW115515   0.494   2.210  13.962  2.9253 -1.4368  1.5944
 1351SOL    HW215516   0.464   2.349  14.004 -1.4240  0.3304  2.8061
 1352SOL     OW15517   2.696   3.711  15.997 -0.0137 -0.2623 -0.3903
 1352SOL    HW115518   2.631   3.700  15.928  2.1908  0.6705 -2.6102
 1352SOL    HW215519   2.641   3.737  16.071 -0.4805 -1.5945 -0.2601
 1353SOL     OW15520   2.727   2.484  13.239 -0.4171 -0.2101  0.2270
 1353SOL    HW115521   2.818   2.457  13.254 -0.0530  0.6839 -0.3636
 1353SOL    HW215522   2.747   2.568  13.198 -0.4534 -0.5297 -0.4457
 1354SOL     OW15523   4.249   4.090   7.924 -0.0110  0.0995  0.1444
 1354SOL    HW115524   4.313   4.077   7.994  0.9910  1.2539 -0.5695
 1354SOL    HW215525   4.303   4.131   7.857  1.3179 -1.2442  0.4059
 1355SOL     OW15526   0.711   2.757  17.529 -0.0876  0.0331 -0.2378
 1355SOL    HW115527   0.782   2.793  17.475 -0.6787  3.1625  1.0813
 1355SOL    HW215528   0.661   2.711  17.461 -1.8308 -1.3367  1.9446
 1356SOL     OW15529   1.049   3.685   3.282  0.0171 -0.2221 -0.0289
 1356SOL    HW115530   1.062   3.779   3.273  0.8835 -0.0244  3.4929
 1356SOL    HW215531   0.955   3.674   3.296  0.0390 -0.9611 -0.4443
 1357SOL     OW15532   3.420   3.069   6.442 -0.2492 -0.5593 -0.2910
 1357SOL    HW115533   3.364   3.013   6.496  0.3929  0.9588  1.9555
 1357SOL    HW215534   3.496   3.016   6.419 -0.3476  0.8585 -3.8769
 1358SOL     OW15535   0.569   2.376   5.133  0.0723  0.2486  0.1783
 1358SOL    HW115536   0.592   2.397   5.224  0.8258 -1.2298  0.3241
 1358SOL    HW215537   0.637   2.423   5.086  2.5459  0.4241  3.8820
 1359SOL     OW15538   1.055   1.052   7.107  0.5035 -0.3055  0.5935
 1359SOL    HW115539   1.005   1.126   7.072  0.2693 -1.4708 -1.5383
 1359SOL    HW215540   1.054   1.066   7.201  0.3256 -0.8558  0.6713
 1360SOL     OW15541   2.311   3.026   3.199 -0.1790  0.3645  0.3147
 1360SOL    HW115542   2.283   3.117   3.200  3.1339  1.3505  1.6265
 1360SOL    HW215543   2.337   3.009   3.289  2.2405  1.4631 -0.1671
 1361SOL     OW15544   4.701   2.108   8.580 -0.1233 -0.3163 -0.3227
 1361SOL    HW115545   4.718   2.127   8.487  1.2924 -1.2701 -0.2561
 1361SOL    HW215546   0.050   2.052   8.610  1.4004  3.6242  3.4247
 1362SOL     OW15547   0.710   1.567  10.544 -0.0476 -0.4469  0.4579
 1362SOL    HW115548   0.701   1.474  10.524  2.1144 -0.2286 -1.4478
 1362SOL    HW215549   0.749   1.609  10.467 -0.2404 -1.5524 -0.2329
 1363SOL     OW15550   2.193   0.448  11.402 -0.3542 -0.3800 -0.2522
 1363SOL    HW115551   2.184   0.481  11.313 -1.1469 -1.7172 -0.6719
 1363SOL    HW215552   2.250   0.515  11.439 -1.2527 -0.5686  1.4499
 1364SOL     OW15553   4.590   0.782  10.278  0.1411 -0.0282 -0.5572
 1364SOL    HW115554   4.556   0.716  10.218  1.7405 -0.4634 -0.9864
 1364SOL    HW215555   4.629   0.844  10.217 -2.6247  1.5498 -0.7218
 1365SOL     OW15556   2.778   0.123   6.152  0.1017 -0.5064 -0.3981
 1365SOL    HW115557   2.824   0.130   6.236 -2.0186  2.7461  0.4872
 1365SOL    HW215558   2.829   0.190   6.107 -0.0700  0.3931  0.7611
 1366SOL     OW15559   0.328   0.322   9.130  0.5561  0.0514 -0.1412
 1366SOL    HW115560   0.409   0.321   9.079 -0.3055  3.4512 -1.5952
 1366SOL    HW215561   0.290   0.409   9.118  0.3350  0.1236  1.1306
 1367SOL     OW15562   4.062   4.177   1.401  0.8833  0.2032  0.0247
 1367SOL    HW115563   4.148   4.178   1.442  0.0258 -0.6996  1.8736
 1367SOL    HW215564   4.079   4.232   1.325  1.3002 -4.0274 -2.9505
 1368SOL     OW15565   2.960   3.075   1.427  0.0549  0.0699  0.0466
 1368SOL    HW115566   2.902   3.054   1.500 -0.7160 -2.9139 -1.4304
 1368SOL    HW215567   3.037   3.045   1.474  1.2500  4.4426  0.9327
 1369SOL     OW15568   2.156   0.887   1.809  0.4245 -0.6627  0.1541
 1369SOL    HW115569   2.070   0.848   1.792 -0.7479  1.2213  1.8553
 1369SOL    HW215570   2.167   0.877   1.903  1.9479 -0.3198  0.0177
 1370SOL     OW15571   0.662   1.488   2.813 -0.5196 -0.1768 -0.2343
 1370SOL    HW115572   0.671   1.521   2.902 -1.0065  1.9167 -0.9504
 1370SOL    HW215573   0.621   1.402   2.820  0.2977 -0.6358 -0.9481
 1371SOL     OW15574   3.249   1.168   7.720  0.1559 -0.0097 -0.1341
 1371SOL    HW115575   3.303   1.203   7.790 -0.6861  0.7995  0.1173
 1371SOL    HW215576   3.191   1.242   7.700  2.4245  1.8224  0.0701
 1372SOL     OW15577   3.380   1.395   9.417 -0.1709 -0.3073  0.4873
 1372SOL    HW115578   3.402   1.332   9.348 -0.2558 -0.0605  0.2336
 1372SOL    HW215579   3.466   1.412   9.454  0.2334  2.2557 -1.6227
 1373SOL     OW15580   1.423   0.952   1.640  0.0084  0.3225  0.2127
 1373SOL    HW115581   1.491   0.914   1.696 -0.8497 -1.3468  0.1024
 1373SOL    HW215582   1.416   0.888   1.569  3.3301  1.2100 -0.9361
 1374SOL     OW15583   0.618   2.988  10.232  0.5402  0.5788 -0.3648
 1374SOL    HW115584   0.699   3.038  10.222 -0.1809  1.9784  0.8645
 1374SOL    HW215585   0.607   2.991  10.327  0.8022  2.9978 -0.4166
 1375SOL     OW15586   4.371   0.411  15.549 -0.2211  0.0383  0.6858
 1375SOL    HW115587   4.446   0.470  15.547  0.5414 -0.9010  1.2808
 1375SOL    HW215588   4.403   0.340  15.606  1.2110  1.2687  1.3955
 1376SOL     OW15589   2.891   1.124   6.039  0.2247 -0.2087 -0.1801
 1376SOL    HW115590   2.861   1.067   6.110 -0.9429 -0.6867 -1.0424
 1376SOL    HW215591   2.954   1.067   5.994  0.6368 -1.6698  2.2145
 1377SOL     OW15592   3.612   1.447  15.699 -0.1793 -0.5247 -0.0751
 1377SOL    HW115593   3.707   1.436  15.703  0.1099  2.6394  1.8446
 1377SOL    HW215594   3.599   1.539  15.725  2.5691 -1.0667  3.3188
 1378SOL     OW15595   1.344   2.156   3.767 -0.3876  0.2951  0.6103
 1378SOL    HW115596   1.326   2.084   3.706 -0.8390  1.4757 -0.6663
 1378SOL    HW215597   1.385   2.116   3.843 -0.2036  0.3898  0.5622
 1379SOL     OW15598   0.497   0.715   7.862 -0.5677  0.0893 -0.1627
 1379SOL    HW115599   0.458   0.787   7.813  0.6566 -0.7008 -2.2682
 1379SOL    HW215600   0.454   0.640   7.821  0.1204 -0.2508 -0.2624
 1380SOL     OW15601   0.009   0.055   9.526  0.2499 -0.1084  0.0090
 1380SOL    HW115602   0.061   0.077   9.449  0.2258  2.2801  0.6597
 1380SOL    HW215603   4.659   0.012   9.480 -1.1526  3.3279 -1.0874
 1381SOL     OW15604   4.334   2.767   7.295 -0.2208  0.1770 -0.5559
 1381SOL    HW115605   4.254   2.795   7.340 -0.0425 -0.2583  0.0352
 1381SOL    HW215606   4.374   2.851   7.271 -2.1354  1.0127 -0.8468
 1382SOL     OW15607   2.474   0.118   0.361 -0.4465  0.3474  0.5035
 1382SOL    HW115608   2.405   0.092   0.421  0.1603 -0.4186  0.8768
 1382SOL    HW215609   2.423   0.180   0.309 -1.1038 -0.2490  0.4434
 1383SOL     OW15610   0.607   3.651   8.400  0.0069  0.1985  0.1931
 1383SOL    HW115611   0.579   3.691   8.318  1.4811 -0.0249 -0.4187
 1383SOL    HW215612   0.646   3.728   8.443  2.1036 -0.7813  0.0769
 1384SOL     OW15613   4.653   2.616  16.952 -0.0169 -0.0663  0.3732
 1384SOL    HW115614   4.711   2.586  16.882 -0.6164  0.2708 -0.2687
 1384SOL    HW215615   4.695   2.696  16.986 -0.4152 -0.3718  1.5754
 1385SOL     OW15616   1.119   4.344  11.016 -0.4323 -0.2528 -0.2446
 1385SOL    HW115617   1.134   4.337  11.111 -0.7481  2.6030  0.0326
 1385SOL    HW215618   1.026   4.370  11.023 -0.1921  0.7073 -0.5786
 1386SOL     OW15619   2.735   2.363   4.441 -0.2200  0.0121  0.9484
 1386SOL    HW115620   2.750   2.292   4.503  0.7366 -1.9193 -1.4905
 1386SOL    HW215621   2.825   2.396   4.438 -0.0772 -0.6705 -2.3577
 1387SOL     OW15622   3.533   3.557   5.412  0.4021  0.2009 -0.0017
 1387SOL    HW115623   3.546   3.626   5.347  0.3660 -0.1751 -0.4108
 1387SOL    HW215624   3.458   3.514   5.370 -0.8487  1.9233  0.4676
 1388SOL     OW15625   4.036   1.934   8.583 -0.3853 -0.0704  0.9261
 1388SOL    HW115626   4.116   1.900   8.543  0.2734  0.2688  1.9426
 1388SOL    HW215627   4.004   2.006   8.529  1.4074  1.3527  1.7788
 1389SOL     OW15628   3.693   3.102   4.484 -0.1074 -0.8334 -0.2397
 1389SOL    HW115629   3.700   3.181   4.431 -1.6298 -0.0009  0.8065
 1389SOL    HW215630   3.766   3.112   4.545 -1.1675 -1.2669  1.1288
 1390SOL     OW15631   1.699   3.563   2.933 -0.2010 -0.4812 -0.2940
 1390SOL    HW115632   1.755   3.506   2.986  0.0845 -0.6978 -0.8284
 1390SOL    HW215633   1.755   3.639   2.915 -1.5256  0.4336 -0.5414
 1391SOL     OW15634   0.190   4.064   7.918 -0.1082  0.0527  0.1656
 1391SOL    HW115635   0.119   4.122   7.890 -0.8808 -0.5808  0.8021
 1391SOL    HW215636   0.173   4.036   8.008  2.0821  3.1877  1.5545
 1392SOL     OW15637   2.068   0.682  10.098 -0.2541 -0.1945 -0.3348
 1392SOL    HW115638   2.039   0.617  10.161 -3.0286 -0.2468 -1.6373
 1392SOL    HW215639   2.125   0.741  10.147  0.3457 -0.0627 -1.1826
 1393SOL     OW15640   3.208   0.828  17.525 -0.0207  0.2934 -0.2919
 1393SOL    HW115641   3.113   0.826  17.517 -0.0851  0.3277  0.4643
 1393SOL    HW215642   3.206   0.791  17.614 -0.4966 -1.3730 -1.0029
 1394SOL     OW15643   4.491   2.933   2.860  0.2737 -0.1096 -0.2654
 1394SOL    HW115644   4.541   2.911   2.939 -0.1983  1.0103  0.3454
 1394SOL    HW215645   4.436   2.858   2.840 -0.4393  0.4045 -0.2317
 1395SOL     OW15646   2.437   3.868  13.480 -0.6281 -0.3724 -0.0176
 1395SOL    HW115647   2.367   3.815  13.443 -0.5521  0.5133 -1.4195
 1395SOL    HW215648   2.423   3.953  13.440  0.0857  0.7800  2.2100
 1396SOL     OW15649   3.737   4.576   1.931  0.1835  0.1023  0.2958
 1396SOL    HW115650   3.806   4.530   1.882  0.1230 -1.4405  1.6839
 1396SOL    HW215651   3.691   4.627   1.865  1.6889  0.4777 -0.4781
 1397SOL     OW15652   3.574   1.475   2.640  0.2026  0.2837 -0.1863
 1397SOL    HW115653   3.512   1.427   2.694 -0.8379 -0.3981 -2.0262
 1397SOL    HW215654   3.519   1.502   2.567 -0.5970 -0.7798  0.0334
 1398SOL     OW15655   3.733   2.002   3.797 -0.0283  0.2691  0.4854
 1398SOL    HW115656   3.770   1.926   3.841 -1.0740 -0.6074 -0.1537
 1398SOL    HW215657   3.725   1.974   3.706  0.8260  0.4668  0.3429
 1399SOL     OW15658   3.497   0.583   5.267  0.0180  0.0504 -0.0456
 1399SOL    HW115659   3.483   0.500   5.314 -0.3753  1.3995  2.2354
 1399SOL    HW215660   3.558   0.558   5.198  0.7907 -1.3136  1.1208
 1400SOL     OW15661   4.708   3.537   7.139  0.1052 -0.3152  0.0226
 1400SOL    HW115662   0.006   3.482   7.063  1.0608  0.7584 -0.5052
 1400SOL    HW215663   4.633   3.591   7.114 -0.1459 -0.4602  0.4803
 1401SOL     OW15664   2.416   0.631   4.494 -0.0149  0.8762  0.1606
 1401SOL    HW115665   2.413   0.671   4.407 -0.9675  0.0340 -0.1995
 1401SOL    HW215666   2.325   0.605   4.507 -0.3466  0.6787 -2.4627
 1402SOL     OW15667   0.948   2.386   9.884 -0.0554 -0.3759 -0.1590
 1402SOL    HW115668   0.987   2.299   9.874 -0.5378 -0.6271  0.1763
 1402SOL    HW215669   0.860   2.355   9.865 -0.8864  1.0546  1.4566
 1403SOL     OW15670   3.092   3.054  15.142  0.1827 -0.1615  0.0394
 1403SOL    HW115671   3.074   3.124  15.206 -0.7684 -0.0264 -0.3689
 1403SOL    HW215672   3.082   3.113  15.067  0.4343 -0.2305 -0.0459
 1404SOL     OW15673   3.904   0.457  15.146 -0.2027  0.6563  0.4637
 1404SOL    HW115674   3.892   0.488  15.057  0.8758 -1.7593 -0.5136
 1404SOL    HW215675   3.901   0.362  15.131  0.5642  0.7767 -0.4607
 1405SOL     OW15676   0.795   2.370   5.328  0.3782 -0.0663 -0.2431
 1405SOL    HW115677   0.808   2.428   5.403  2.6441  0.1600 -0.8142
 1405SOL    HW215678   0.818   2.286   5.368  0.1027 -0.1345 -0.2238
 1406SOL     OW15679   3.989   1.795   6.761  0.2988 -0.3545 -0.0172
 1406SOL    HW115680   3.932   1.817   6.836  1.3336 -1.4618  1.0970
 1406SOL    HW215681   3.987   1.700   6.764  0.5254 -0.4639 -3.6311
 1407SOL     OW15682   4.245   0.793   1.643 -0.2294 -0.3273 -0.4217
 1407SOL    HW115683   4.334   0.805   1.676 -0.5075  1.0164 -0.1740
 1407SOL    HW215684   4.233   0.698   1.641 -0.4432 -0.2788 -2.0685
 1408SOL     OW15685   1.645   4.211   7.484 -0.5095 -0.5303  0.5620
 1408SOL    HW115686   1.730   4.171   7.500  0.4815  2.2921  2.4336
 1408SOL    HW215687   1.647   4.302   7.512 -0.6817 -0.0648 -0.9422
 1409SOL     OW15688   0.901   1.639   3.387 -0.4731  0.3521  0.3638
 1409SOL    HW115689   0.860   1.726   3.386 -1.1380  0.0292 -2.3248
 1409SOL    HW215690   0.991   1.663   3.409 -0.4768  1.2358 -0.5521
 1410SOL     OW15691   1.783   1.976   5.524 -0.0121  0.3888 -0.1465
 1410SOL    HW115692   1.860   2.022   5.491  0.5761 -0.2324  0.3752
 1410SOL    HW215693   1.769   1.921   5.448  0.0422 -0.5350  0.5153
 1411SOL     OW15694   2.333   4.350   9.779 -0.3855 -0.4558  0.0944
 1411SOL    HW115695   2.401   4.292   9.745 -0.2407 -0.0274 -0.3540
 1411SOL    HW215696   2.326   4.407   9.702  1.0089 -0.0856  0.2393
 1412SOL     OW15697   3.366   4.212   3.077 -0.3100  0.2832 -0.2851
 1412SOL    HW115698   3.335   4.184   3.163 -1.8666 -0.1427 -0.9825
 1412SOL    HW215699   3.429   4.279   3.103 -0.5711  0.1980  0.5867
 1413SOL     OW15700   2.998   1.880   5.308 -0.0520 -0.0063 -0.0024
 1413SOL    HW115701   3.018   1.920   5.393 -1.9468  2.0308 -0.5009
 1413SOL    HW215702   3.032   1.791   5.319 -1.9611 -0.7108  0.3257
 1414SOL     OW15703   3.567   2.206   9.520  0.0189  0.3849  0.5996
 1414SOL    HW115704   3.630   2.195   9.591  1.5585  1.0000 -0.6787
 1414SOL    HW215705   3.620   2.205   9.441  1.0385  3.2073  1.2594
 1415SOL     OW15706   2.535   4.685   9.046  0.3984 -0.5249 -0.0537
 1415SOL    HW115707   2.519   4.613   8.985  0.8064 -1.0194  0.4250
 1415SOL    HW215708   2.605   4.644   9.097 -0.7971 -0.6990  1.4674
 1416SOL     OW15709   2.789   2.232  11.620 -0.5336  0.0228 -0.1798
 1416SOL    HW115710   2.857   2.271  11.565  0.3789  1.7315  2.1442
 1416SOL    HW215711   2.711   2.275  11.584 -0.3233  0.3686 -0.2298
 1417SOL     OW15712   4.632   1.280   9.932 -0.7885 -0.1438  0.0340
 1417SOL    HW115713   4.645   1.275  10.027  1.1851 -2.3306 -0.3625
 1417SOL    HW215714   4.537   1.292   9.933 -0.7583  0.1806 -1.9324
 1418SOL     OW15715   1.516   1.101   8.502  0.1170 -0.4634  0.2942
 1418SOL    HW115716   1.570   1.062   8.570 -1.5591 -0.9214  1.3652
 1418SOL    HW215717   1.551   1.059   8.423  0.3468 -0.9582  0.6557
 1419SOL     OW15718   0.730   2.950   7.623  0.2210  0.8671  0.1933
 1419SOL    HW115719   0.662   3.014   7.603 -1.5282 -0.9977  0.1452
 1419SOL    HW215720   0.783   2.948   7.544  0.4787 -2.2810  0.4283
 1420SOL     OW15721   1.519   1.038   8.208  0.2277  0.3905 -0.2823
 1420SOL    HW115722   1.477   1.027   8.123 -2.2351  0.8323  0.8620
 1420SOL    HW215723   1.611   1.014   8.203  0.0694 -0.2861  0.0960
 1421SOL     OW15724   2.567   4.158   6.677  0.4941 -0.1500 -0.2921
 1421SOL    HW115725   2.492   4.102   6.698 -1.3865  3.2861  2.0104
 1421SOL    HW215726   2.638   4.103   6.642 -0.6632  0.3580 -3.4838
 1422SOL     OW15727   2.783   1.929   4.521  0.3022 -0.1280  0.1014
 1422SOL    HW115728   2.804   2.021   4.537 -2.5094  0.3197  1.3155
 1422SOL    HW215729   2.705   1.924   4.576 -2.1009 -0.0090 -3.2937
 1423SOL     OW15730   0.387   3.463   3.844 -0.2908 -0.5687  0.1856
 1423SOL    HW115731   0.318   3.461   3.911  0.7816  0.3283  1.3217
 1423SOL    HW215732   0.422   3.374   3.855 -0.6542 -1.0750 -2.8114
 1424SOL     OW15733   3.218   2.677  12.821 -0.1959  0.5351 -0.2717
 1424SOL    HW115734   3.193   2.688  12.912  2.4878 -1.3633  0.7067
 1424SOL    HW215735   3.237   2.766  12.790 -2.6120  1.2880  0.3907
 1425SOL     OW15736   1.621   4.345   3.845  0.1062 -0.2943  0.2844
 1425SOL    HW115737   1.678   4.377   3.915 -2.9929  2.1782  1.6729
 1425SOL    HW215738   1.543   4.336   3.899 -1.2407  1.4858 -1.3392
 1426SOL     OW15739   4.005   1.447  16.743 -0.2172  0.1213  0.0798
 1426SOL    HW115740   4.001   1.488  16.829 -1.3575 -1.9562  1.0228
 1426SOL    HW215741   4.059   1.371  16.764  1.6382  1.2113 -0.6732
 1427SOL     OW15742   3.479   4.122   6.307  0.1236 -0.2379  0.3516
 1427SOL    HW115743   3.472   4.110   6.213  2.3277 -1.1537  0.3005
 1427SOL    HW215744   3.531   4.046   6.336 -4.3332 -2.2036  3.3035
 1428SOL     OW15745   0.551   3.921   5.085  0.0221 -0.0288 -0.3323
 1428SOL    HW115746   0.587   4.003   5.116  1.2475 -0.7606  0.1640
 1428SOL    HW215747   0.620   3.857   5.100  0.3532  0.2742 -0.5885
 1429SOL     OW15748   3.314   0.597   6.140 -0.6255 -0.1716 -0.2639
 1429SOL    HW115749   3.357   0.674   6.179 -1.2642  0.4596 -0.7945
 1429SOL    HW215750   3.309   0.625   6.049  2.8492 -2.9382 -1.2890
 1430SOL     OW15751   0.179   0.551   7.867  0.3354  0.6230  0.6672
 1430SOL    HW115752   0.090   0.538   7.835  1.3076 -2.0674 -0.9478
 1430SOL    HW215753   0.231   0.526   7.790  0.9482  2.3251  0.5220
 1431SOL     OW15754   4.054   0.263   2.868 -0.4582 -0.0456  0.5863
 1431SOL    HW115755   4.061   0.171   2.895 -2.8686  0.0042  1.3378
 1431SOL    HW215756   4.004   0.264   2.786  1.8623 -0.5915 -0.8339
 1432SOL     OW15757   4.284   2.714   2.159 -0.5368 -0.3937  0.1404
 1432SOL    HW115758   4.379   2.724   2.172 -0.4432 -1.9094  0.6910
 1432SOL    HW215759   4.282   2.619   2.147 -3.0483 -0.6144  2.3987
 1433SOL     OW15760   2.868   3.231  17.130  0.0217  0.4803 -0.5239
 1433SOL    HW115761   2.848   3.232  17.036  1.4913  0.8286 -0.8357
 1433SOL    HW215762   2.784   3.211  17.170  1.6204 -2.0077  1.5479
 1434SOL     OW15763   3.693   2.761   3.711 -0.9983 -0.0101  0.1679
 1434SOL    HW115764   3.677   2.751   3.805 -0.8419  0.5196  0.2474
 1434SOL    HW215765   3.649   2.683   3.676 -1.3875 -1.0516  2.9717
 1435SOL     OW15766   0.133   1.919   8.730  0.1312  0.1011  0.5768
 1435SOL    HW115767   0.127   1.834   8.687 -0.1894  0.2991  0.2251
 1435SOL    HW215768   0.201   1.907   8.797  1.6994  2.0470 -0.6745
 1436SOL     OW15769   1.299   1.064   6.744  0.2230 -0.7578 -0.7797
 1436SOL    HW115770   1.310   1.068   6.839  1.0246  2.3223 -1.0289
 1436SOL    HW215771   1.362   0.996   6.721 -1.2185 -2.5320  0.4518
 1437SOL     OW15772   0.987   4.227   3.040  0.3484 -0.5268 -0.0005
 1437SOL    HW115773   1.054   4.161   3.026 -0.1354 -1.1106  0.4035
 1437SOL    HW215774   0.942   4.228   2.955  0.5664  1.5929 -0.0879
 1438SOL     OW15775   4.613   2.124   4.352 -0.6792  1.0319  0.0119
 1438SOL    HW115776   4.701   2.159   4.345 -0.1921  0.2062  1.9706
 1438SOL    HW215777   4.612   2.071   4.272  0.1182 -2.4674  2.2885
 1439SOL     OW15778   1.497   4.035   3.097 -0.4757  0.3522  0.0805
 1439SOL    HW115779   1.590   4.022   3.117 -1.2158 -2.9496  1.4767
 1439SOL    HW215780   1.491   4.120   3.053 -2.3667 -1.1772 -2.6027
 1440SOL     OW15781   4.313   3.858   7.449 -0.2447  0.1202  0.3268
 1440SOL    HW115782   4.403   3.892   7.454 -0.0088 -0.3897 -0.4778
 1440SOL    HW215783   4.302   3.820   7.536  0.0379  0.0576  0.3352
 1441SOL     OW15784   2.886   3.616   6.496  0.4514  0.1752 -0.4116
 1441SOL    HW115785   2.794   3.637   6.513  0.4123 -0.8148  0.5371
 1441SOL    HW215786   2.925   3.699   6.523 -1.2707  0.1769  2.0749
 1442SOL     OW15787   4.202   0.694  16.006  0.4947 -0.1689 -0.0325
 1442SOL    HW115788   4.294   0.697  15.979  0.2153 -0.2757 -0.9919
 1442SOL    HW215789   4.215   0.638  16.082 -0.7136 -2.1433 -1.2917
 1443SOL     OW15790   2.069   3.717   4.752  0.3308 -0.1033 -0.5298
 1443SOL    HW115791   2.116   3.670   4.821  1.3376 -0.2962 -1.3402
 1443SOL    HW215792   2.112   3.679   4.675 -1.1787  0.2760 -1.5521
 1444SOL     OW15793   4.532   0.393  13.300  0.2348  0.3227 -0.1062
 1444SOL    HW115794   4.458   0.332  13.299  0.5717 -0.0992  0.9142
 1444SOL    HW215795   4.605   0.332  13.313 -0.1260  0.2878  1.7613
 1445SOL     OW15796   0.946   3.763   9.617  0.4629 -0.3030  0.5412
 1445SOL    HW115797   0.973   3.829   9.554 -1.6096 -0.0083 -0.0378
 1445SOL    HW215798   1.026   3.755   9.670 -0.7420  0.0383  2.4341
 1446SOL     OW15799   2.866   1.669   0.535 -0.9833  0.1793  0.3471
 1446SOL    HW115800   2.840   1.627   0.453 -2.7372 -0.4764  1.2270
 1446SOL    HW215801   2.840   1.761   0.525 -0.3191  0.2286 -0.8175
 1447SOL     OW15802   4.169   3.408   5.753 -0.1783 -0.0687  0.1394
 1447SOL    HW115803   4.177   3.448   5.840  1.0655 -2.1968  0.9973
 1447SOL    HW215804   4.105   3.468   5.715 -0.1161 -1.2548 -1.8135
 1448SOL     OW15805   0.201   3.218   7.345 -0.0432 -0.3824 -0.1913
 1448SOL    HW115806   0.113   3.212   7.381 -0.4121  1.4598 -0.7662
 1448SOL    HW215807   0.172   3.242   7.257 -1.3146  1.0899  0.6327
 1449SOL     OW15808   4.154   1.846   9.049  0.2353 -0.7154  0.7762
 1449SOL    HW115809   4.083   1.809   8.996  0.2518  0.0599  0.2169
 1449SOL    HW215810   4.205   1.880   8.976 -1.1025  0.8712  0.5724
 1450SOL     OW15811   3.374   2.025   5.403 -0.0962  0.1317 -0.4385
 1450SOL    HW115812   3.330   2.016   5.318 -0.0531 -0.6478 -0.3838
 1450SOL    HW215813   3.298   2.048   5.457 -1.3635 -2.6323 -1.0202
 1451SOL     OW15814   4.645   1.366   0.715 -0.2773 -0.6269 -0.3175
 1451SOL    HW115815   4.647   1.310   0.638  0.1931 -0.0360 -0.7422
 1451SOL    HW215816   4.612   1.309   0.784 -0.3976 -0.1667  0.0047
 1452SOL     OW15817   1.127   3.736   5.359 -0.0830  0.2891 -0.6870
 1452SOL    HW115818   1.058   3.676   5.388  1.2317 -0.1494  1.4951
 1452SOL    HW215819   1.190   3.691   5.303  0.7000  0.8843 -0.2860
 1453SOL     OW15820   0.853   2.256  11.272  0.4378 -0.0381  0.5373
 1453SOL    HW115821   0.800   2.336  11.273  0.1733 -0.2114  0.2930
 1453SOL    HW215822   0.912   2.279  11.200 -1.6960  0.4349 -1.0513
 1454SOL     OW15823   0.476   0.999   5.326  0.1905 -0.6868  0.2801
 1454SOL    HW115824   0.392   0.976   5.366  0.1881  0.1842  0.7925
 1454SOL    HW215825   0.501   1.078   5.375  0.4463 -0.2599 -0.5279
 1455SOL     OW15826   4.204   2.644   3.282  0.5643  0.5267  0.2736
 1455SOL    HW115827   4.263   2.719   3.270  1.0389  0.3249  1.3172
 1455SOL    HW215828   4.149   2.669   3.357 -1.0864  3.2699 -1.8576
 1456SOL     OW15829   2.417   3.849   3.680  0.1907  0.1161  0.9017
 1456SOL    HW115830   2.392   3.843   3.588 -2.5682 -0.3941  1.6959
 1456SOL    HW215831   2.504   3.889   3.674  0.6627 -0.9644  0.6801
 1457SOL     OW15832   3.442   2.143  16.769  0.4127  0.0269 -0.0936
 1457SOL    HW115833   3.400   2.197  16.702  1.4821 -1.8127 -2.2679
 1457SOL    HW215834   3.392   2.168  16.846 -1.2739 -2.2379 -0.4385
 1458SOL     OW15835   2.405   4.565   9.572 -0.0309  0.2333 -0.0313
 1458SOL    HW115836   2.471   4.522   9.517 -0.1334 -1.4335  1.1588
 1458SOL    HW215837   2.454   4.631   9.622 -1.3875 -0.8738  2.7709
 1459SOL     OW15838   2.932   1.945   6.780  0.0946 -0.0712 -0.4842
 1459SOL    HW115839   2.962   2.035   6.766 -0.7269  0.4770  1.2530
 1459SOL    HW215840   2.838   1.961   6.785  0.2650  0.9050 -0.3265
 1460SOL     OW15841   3.733   0.736  12.507 -0.3281  0.0651  1.1305
 1460SOL    HW115842   3.729   0.748  12.412  1.6552  1.7377  1.2535
 1460SOL    HW215843   3.711   0.643  12.511 -1.3548  0.2563 -0.2765
 1461SOL     OW15844   1.987   2.046  14.620  0.0384 -0.4466 -0.4924
 1461SOL    HW115845   2.082   2.037  14.621  0.2016  1.5647  1.5224
 1461SOL    HW215846   1.963   2.080  14.706  1.5944 -2.8666  0.8794
 1462SOL     OW15847   3.351   0.485   8.536  0.2079  0.1039  0.0085
 1462SOL    HW115848   3.431   0.538   8.542  0.1189  0.0532  1.5372
 1462SOL    HW215849   3.332   0.494   8.443 -0.3661 -2.6255 -0.1330
 1463SOL     OW15850   1.314   4.272   5.119 -0.1716  0.0254 -0.5765
 1463SOL    HW115851   1.329   4.333   5.191 -0.7119 -0.0104 -0.4347
 1463SOL    HW215852   1.322   4.188   5.164  1.8309 -0.0268 -1.0320
 1464SOL     OW15853   0.158   2.074   4.684  0.0091 -0.6798  0.2781
 1464SOL    HW115854   0.169   2.035   4.597  3.7770 -0.2428  0.5623
 1464SOL    HW215855   0.248   2.069   4.716  0.0936 -0.6785  0.0415
 1465SOL     OW15856   3.840   3.238   6.225  0.5059 -0.1874  0.0298
 1465SOL    HW115857   3.844   3.188   6.143 -1.7729 -1.5591  0.7469
 1465SOL    HW215858   3.747   3.245   6.246  1.0377 -0.6824  2.5717
 1466SOL     OW15859   2.897   4.317  15.780  0.2210 -0.2425 -1.0469
 1466SOL    HW115860   2.885   4.412  15.779  1.8315 -0.0406 -0.3577
 1466SOL    HW215861   2.990   4.306  15.798  0.4122 -0.8286 -2.4550
 1467SOL     OW15862   0.756   3.339  11.485  0.6597  0.4159  0.3655
 1467SOL    HW115863   0.758   3.250  11.452 -0.1676  1.4432 -2.4742
 1467SOL    HW215864   0.706   3.394  11.424 -0.4383 -1.1369 -0.1230
 1468SOL     OW15865   4.685   4.310   6.771 -0.2599  0.0125  0.1177
 1468SOL    HW115866   0.049   4.332   6.807 -1.0923 -1.6288  3.1116
 1468SOL    HW215867   4.704   4.248   6.701 -1.9070  0.8495 -1.0855
 1469SOL     OW15868   1.436   0.971  12.845  0.2941  0.0915  0.1662
 1469SOL    HW115869   1.400   1.050  12.885 -2.4379 -1.8602  1.5658
 1469SOL    HW215870   1.501   1.014  12.790 -1.6995  1.9676 -0.7348
 1470SOL     OW15871   1.442   0.750   1.449 -0.3821 -0.5698 -0.4815
 1470SOL    HW115872   1.506   0.681   1.433 -1.2540 -1.6636  0.8439
 1470SOL    HW215873   1.386   0.712   1.516  0.9357 -2.2767 -0.3656
 1471SOL     OW15874   2.244   2.137  11.408 -0.0814 -0.5965  0.3255
 1471SOL    HW115875   2.284   2.220  11.437  0.1621 -0.3455 -0.7402
 1471SOL    HW215876   2.308   2.118  11.340  1.6952 -1.8598  2.3375
 1472SOL     OW15877   2.982   2.481   2.197 -0.4694 -0.2846 -0.1025
 1472SOL    HW115878   3.034   2.403   2.182  1.7917  1.2463 -0.2624
 1472SOL    HW215879   3.053   2.543   2.210  1.3992 -1.7405 -3.6150
 1473SOL     OW15880   4.413   2.695   6.203 -0.0909 -0.3867 -0.4745
 1473SOL    HW115881   4.349   2.646   6.256 -0.8563  2.9360  1.6730
 1473SOL    HW215882   4.495   2.650   6.222  0.9680  0.9964 -1.7625
 1474SOL     OW15883   4.373   4.456  12.658  0.3768 -0.3048 -0.1780
 1474SOL    HW115884   4.356   4.516  12.730  0.3849 -0.1297 -0.3225
 1474SOL    HW215885   4.417   4.388  12.709 -0.2985 -1.5674 -1.2788
 1475SOL     OW15886   1.212   2.348  13.082 -0.7024  0.0856 -0.3518
 1475SOL    HW115887   1.251   2.423  13.125 -0.2172  0.5909 -1.6731
 1475SOL    HW215888   1.228   2.372  12.991  0.9507  0.7769  0.1302
 1476SOL     OW15889   0.691   0.139  13.664  0.0233 -0.3396 -0.3888
 1476SOL    HW115890   0.688   0.084  13.743 -1.0146  1.0443  0.5327
 1476SOL    HW215891   0.643   0.083  13.602 -0.1761  0.5267 -1.0130
 1477SOL     OW15892   4.122   1.103  12.535 -0.1795 -0.0847 -0.0789
 1477SOL    HW115893   4.198   1.157  12.559 -0.3111  1.3873 -3.0786
 1477SOL    HW215894   4.107   1.133  12.446 -0.3382  2.0524  0.6719
 1478SOL     OW15895   1.164   4.542   3.572 -0.1215 -0.2043  0.3400
 1478SOL    HW115896   1.157   4.556   3.667  1.5953  0.2898  0.3856
 1478SOL    HW215897   1.078   4.503   3.554  0.1487 -0.9049  0.5918
 1479SOL     OW15898   4.374   0.315   5.367 -0.3837 -0.2605  0.1781
 1479SOL    HW115899   4.469   0.323   5.376 -0.4738 -0.3572  1.2171
 1479SOL    HW215900   4.347   0.398   5.406  0.5448  0.4244 -0.6529
 1480SOL     OW15901   3.272   1.912   4.687 -0.2993  0.4771  0.2010
 1480SOL    HW115902   3.286   1.819   4.705 -1.5260  0.1790 -0.3683
 1480SOL    HW215903   3.334   1.919   4.615 -0.5894 -1.4838 -0.2410
 1481SOL     OW15904   4.411   2.882   5.981 -0.2969 -0.4440 -0.1653
 1481SOL    HW115905   4.432   2.959   6.033  1.5697 -0.3765 -1.0296
 1481SOL    HW215906   4.439   2.808   6.035  0.2384 -0.8442 -0.9896
 1482SOL     OW15907   1.224   0.826   2.037  0.2235 -0.6141  0.0571
 1482SOL    HW115908   1.238   0.906   1.985  0.4747 -0.3021  0.5966
 1482SOL    HW215909   1.130   0.820   2.022  0.4636 -2.1156 -0.8183
 1483SOL     OW15910   2.342   1.207   2.400 -0.1824  0.0738 -0.3685
 1483SOL    HW115911   2.403   1.135   2.415 -0.3900 -0.3756 -1.6922
 1483SOL    HW215912   2.309   1.194   2.311  0.4125  0.9244 -0.7127
 1484SOL     OW15913   0.094   1.614   9.065  0.1512  0.4751  0.0143
 1484SOL    HW115914   0.171   1.558   9.069  0.0204  0.4698  2.3816
 1484SOL    HW215915   0.084   1.625   8.970 -1.1724 -0.8858  0.0012
 1485SOL     OW15916   1.947   0.032   5.837 -0.2381 -0.1653  0.8255
 1485SOL    HW115917   1.953   0.082   5.756  0.9307 -1.8475 -0.1202
 1485SOL    HW215918   2.037   0.012   5.860 -0.1391  0.3352  0.8737
 1486SOL     OW15919   4.525   0.736   4.173  0.1077 -0.2764 -0.5488
 1486SOL    HW115920   4.552   0.725   4.264  0.5001 -0.5000 -0.6875
 1486SOL    HW215921   4.615   0.743   4.140 -0.2723  2.3330 -1.0286
 1487SOL     OW15922   1.956   3.686   3.319 -0.1042  0.2547 -0.2638
 1487SOL    HW115923   1.974   3.770   3.363 -0.4217 -0.1658  0.6641
 1487SOL    HW215924   2.021   3.632   3.363  0.9890  0.8855 -1.1101
 1488SOL     OW15925   4.366   3.133   6.631  0.4577 -0.0777  0.2279
 1488SOL    HW115926   4.359   3.051   6.681  0.9186 -0.2384  0.0371
 1488SOL    HW215927   4.370   3.099   6.541 -1.8472  1.4656 -0.4460
 1489SOL     OW15928   3.950   3.352   3.861 -0.3835  0.1075  0.1927
 1489SOL    HW115929   3.996   3.435   3.844 -0.9258  0.0262 -1.6472
 1489SOL    HW215930   3.868   3.380   3.902  0.4166 -0.0852  1.9430
 1490SOL     OW15931   0.611   4.188   5.438  0.2501  0.8170  0.2641
 1490SOL    HW115932   0.670   4.235   5.496 -0.3055  2.0938 -0.1945
 1490SOL    HW215933   0.637   4.216   5.350 -1.5867  0.2432 -0.4602
 1491SOL     OW15934   0.978   1.555   8.379  0.4077  0.1604 -0.5790
 1491SOL    HW115935   0.917   1.614   8.422 -0.8254 -1.5437  0.0084
 1491SOL    HW215936   0.936   1.522   8.300  2.5592  0.4408 -1.8480
 1492SOL     OW15937   4.488   4.198   3.864  0.0009 -0.0594 -0.1249
 1492SOL    HW115938   4.520   4.151   3.787  0.1074  1.0652 -0.7670
 1492SOL    HW215939   4.522   4.287   3.848  1.1158 -0.3066  0.8943
 1493SOL     OW15940   3.737   3.789   3.566  0.4082  0.0496 -0.4778
 1493SOL    HW115941   3.698   3.729   3.502 -3.0990  0.3292  1.4024
 1493SOL    HW215942   3.746   3.748   3.652  3.2917  1.6587 -0.0037
 1494SOL     OW15943   0.780   4.363   5.874  0.4277  0.0332  0.1813
 1494SOL    HW115944   0.744   4.386   5.960 -1.3501  0.8756 -0.8047
 1494SOL    HW215945   0.844   4.435   5.869  2.3613 -1.6899  0.0598
 1495SOL     OW15946   4.325   1.953   9.231 -0.0530  0.1671  0.5678
 1495SOL    HW115947   4.265   1.893   9.185 -0.2248  0.5500  0.2891
 1495SOL    HW215948   4.411   1.926   9.200  0.6621  2.2283  0.7826
 1496SOL     OW15949   3.651   0.209   8.964 -0.4717  0.1556 -0.3276
 1496SOL    HW115950   3.682   0.283   8.913 -0.3249 -0.3884 -1.0234
 1496SOL    HW215951   3.605   0.255   9.035  0.6068  0.5303  0.1269
 1497SOL     OW15952   4.009   0.678   9.070  0.4367 -0.1620  0.1805
 1497SOL    HW115953   3.932   0.632   9.036  0.8008  0.2544 -1.2118
 1497SOL    HW215954   3.993   0.694   9.163  0.5029  1.6029 -0.1042
 1498SOL     OW15955   4.684   1.292  16.342 -0.3499 -0.5048  0.2621
 1498SOL    HW115956   4.638   1.211  16.320 -0.8749 -0.6974  2.1007
 1498SOL    HW215957   4.627   1.331  16.407  0.3038 -2.2230  1.8877
 1499SOL     OW15958   3.837   1.024   1.065 -0.0740  0.3566  0.5493
 1499SOL    HW115959   3.878   0.973   0.995 -2.0154  2.8022 -2.3423
 1499SOL    HW215960   3.895   1.100   1.071  0.0592  0.3627 -1.0270
 1500SOL     OW15961   3.403   1.565   2.396 -0.4608 -0.7763  0.3671
 1500SOL    HW115962   3.433   1.650   2.362 -0.3797  0.3616  3.2989
 1500SOL    HW215963   3.348   1.598   2.467 -2.1560 -0.9261 -0.8809
 1501SOL     OW15964   0.436   1.261   5.669  0.2445  0.1533 -0.8965
 1501SOL    HW115965   0.446   1.325   5.599 -1.5845  2.5978  1.0574
 1501SOL    HW215966   0.477   1.304   5.745 -0.3547 -1.2125  0.1915
 1502SOL     OW15967   0.001   4.383   8.403  0.4904  0.2377  0.2498
 1502SOL    HW115968   0.087   4.425   8.397 -0.3331  2.1614  1.8006
 1502SOL    HW215969   0.010   4.359   8.495 -1.0581 -0.0567  0.3238
 1503SOL     OW15970   4.522   0.457   3.778 -0.1797 -0.5568 -0.2166
 1503SOL    HW115971   4.476   0.384   3.737 -0.6310  0.5439 -1.6801
 1503SOL    HW215972   4.503   0.455   3.872  1.9623  0.6331  0.2473
 1504SOL     OW15973   2.231   0.918  12.810 -0.1001  0.3206  0.0312
 1504SOL    HW115974   2.305   0.911  12.750 -2.0940 -0.2786 -2.3189
 1504SOL    HW215975   2.263   0.997  12.854  1.1345  0.2150 -0.6743
 1505SOL     OW15976   4.320   3.347  17.098  0.1372 -0.2049  0.2939
 1505SOL    HW115977   4.355   3.336  17.009 -0.8441  1.7003 -0.3282
 1505SOL    HW215978   4.397   3.337  17.153  0.3404 -0.7968 -0.0977
 1506SOL     OW15979   2.020   0.955   8.818 -0.3084 -0.2051 -0.3120
 1506SOL    HW115980   2.044   0.913   8.900  3.7501  0.9487 -0.9043
 1506SOL    HW215981   1.970   1.033   8.840  0.2454 -0.0282  0.3054
 1507SOL     OW15982   1.813   2.660   2.654 -0.2248 -0.1799 -0.4871
 1507SOL    HW115983   1.768   2.745   2.645  1.2778  0.4817 -1.5873
 1507SOL    HW215984   1.903   2.687   2.671 -0.5500 -0.9581  2.4444
 1508SOL     OW15985   2.516   0.687  17.291  0.2448  0.1970 -0.5016
 1508SOL    HW115986   2.583   0.711  17.355 -0.3379  3.3782 -1.1009
 1508SOL    HW215987   2.450   0.755  17.303 -0.1317  0.0640 -1.8359
 1509SOL     OW15988   4.353   4.404   3.293  0.0819 -0.3502  0.6652
 1509SOL    HW115989   4.345   4.433   3.202 -0.1961 -0.7848  0.5474
 1509SOL    HW215990   4.395   4.475   3.342 -1.3263 -1.2213  3.1522
 1510SOL     OW15991   4.053   3.420  16.982  0.5386  0.4971 -0.9172
 1510SOL    HW115992   4.143   3.396  17.002  0.9447  2.6859 -0.1155
 1510SOL    HW215993   4.064   3.454  16.894 -1.3414 -1.1365 -1.7876
 1511SOL     OW15994   3.763   3.147  17.118  0.6918 -0.4967  0.3528
 1511SOL    HW115995   3.692   3.148  17.054  1.3638 -1.4680 -0.4180
 1511SOL    HW215996   3.750   3.228  17.167  1.5640 -0.0045 -0.2436
 1512SOL     OW15997   2.574   0.375   2.029  0.2919  0.3936  0.1243
 1512SOL    HW115998   2.622   0.321   1.966  0.4949 -0.2637  0.8279
 1512SOL    HW215999   2.494   0.380   1.977  0.6387 -2.1775 -0.6416
 1513SOL     OW16000   1.063   2.606  11.675 -0.0706 -0.0029  0.2230
 1513SOL    HW116001   1.018   2.574  11.597  2.0511 -0.2127 -0.9137
 1513SOL    HW216002   1.150   2.569  11.658  0.1591 -0.6605  2.8343
 1514SOL     OW16003   1.749   1.802   5.310  0.1740  0.0353 -0.0394
 1514SOL    HW116004   1.671   1.844   5.272  0.1678  0.4275  0.3881
 1514SOL    HW216005   1.721   1.711   5.303  2.2354 -0.8050  2.8107
 1515SOL     OW16006   4.058   0.875   8.330  0.1489 -0.2654 -0.1421
 1515SOL    HW116007   4.055   0.784   8.356 -1.1898 -0.4568 -0.9561
 1515SOL    HW216008   4.065   0.857   8.236 -2.1239 -1.9619  0.0058
 1516SOL     OW16009   3.073   1.439  15.430 -0.1090  0.1622 -0.1727
 1516SOL    HW116010   3.014   1.463  15.501 -0.2091 -1.3915  0.2689
 1516SOL    HW216011   3.163   1.444  15.463 -0.9573  2.8372  1.7296
 1517SOL     OW16012   2.121   3.304  11.393 -0.7731  0.3764 -0.5766
 1517SOL    HW116013   2.111   3.388  11.437 -0.5524 -0.6688  1.4667
 1517SOL    HW216014   2.167   3.251  11.458  0.0312  1.0109 -0.6370
 1518SOL     OW16015   1.967   1.794   3.928  0.1182  0.0617 -0.6479
 1518SOL    HW116016   2.051   1.750   3.944 -0.3621 -0.4306  0.5229
 1518SOL    HW216017   1.999   1.884   3.932  3.1920 -0.9784 -1.5740
 1519SOL     OW16018   3.202   2.424  12.686  0.2764  0.3534 -0.0898
 1519SOL    HW116019   3.287   2.399  12.650  0.1931  0.2736 -0.2300
 1519SOL    HW216020   3.221   2.509  12.726  1.2229 -0.5668  1.3640
 1520SOL     OW16021   2.809   3.562   8.624 -0.2322  0.2454  0.2347
 1520SOL    HW116022   2.862   3.642   8.627  1.2567 -0.7336 -0.0510
 1520SOL    HW216023   2.793   3.548   8.717 -0.9168 -0.7506 -0.0303
 1521SOL     OW16024   0.838   2.728  17.154  0.3614 -0.9676  0.6194
 1521SOL    HW116025   0.867   2.769  17.235 -1.2747 -1.8442  1.6496
 1521SOL    HW216026   0.745   2.752  17.148  0.8557  0.7332 -0.1123
 1522SOL     OW16027   2.619   2.683  16.720 -0.1398  0.1776  0.7269
 1522SOL    HW116028   2.561   2.757  16.701  1.1306  1.3064  1.2538
 1522SOL    HW216029   2.559   2.611  16.700 -1.3400  1.1517  0.7946
 1523SOL     OW16030   2.264   2.218   5.541 -0.2442 -0.2768 -0.3525
 1523SOL    HW116031   2.341   2.182   5.583 -1.6804 -1.7962  0.9800
 1523SOL    HW216032   2.300   2.223   5.453  0.3433 -0.8086 -0.1340
 1524SOL     OW16033   2.540   4.562  10.181 -0.0318 -0.3835 -0.8380
 1524SOL    HW116034   2.494   4.614  10.247  1.5447 -1.8853  1.4598
 1524SOL    HW216035   2.476   4.493  10.162 -0.6802 -0.1931  0.6589
 1525SOL     OW16036   1.098   0.210   8.388 -0.4276  0.0436  0.2010
 1525SOL    HW116037   1.034   0.193   8.456  1.4661 -0.5190  1.8412
 1525SOL    HW216038   1.047   0.260   8.324 -2.1399 -0.0511  1.4867
 1526SOL     OW16039   4.360   1.972   5.030  0.3838  0.7349 -0.2832
 1526SOL    HW116040   4.302   2.018   4.969  0.2708 -0.5828 -1.1616
 1526SOL    HW216041   4.298   1.903   5.054  0.1866  1.1022  0.2844
 1527SOL     OW16042   3.609   1.426   4.913 -0.7873  0.0870  0.0754
 1527SOL    HW116043   3.566   1.478   4.981 -2.4715 -1.3075  0.0998
 1527SOL    HW216044   3.541   1.361   4.894  0.8121 -0.6971 -2.9100
 1528SOL     OW16045   3.663   0.758  16.310  0.4974  0.0399  0.0776
 1528SOL    HW116046   3.753   0.789  16.318  0.6938  0.0538 -2.2900
 1528SOL    HW216047   3.661   0.712  16.226 -0.8354  3.0088 -1.4945
 1529SOL     OW16048   1.784   3.376  12.645  0.4647 -0.4473  0.0342
 1529SOL    HW116049   1.748   3.443  12.587  1.3096  1.1309  1.3136
 1529SOL    HW216050   1.829   3.329  12.576  1.1704 -0.7718  0.7138
 1530SOL     OW16051   1.117   2.896  17.143  0.1221 -0.3332 -0.5651
 1530SOL    HW116052   1.124   2.812  17.097  2.0801 -0.2760 -0.3731
 1530SOL    HW216053   1.056   2.938  17.083 -1.0332  1.5168  1.8800
 1531SOL     OW16054   4.531   3.250  16.538  0.0216 -0.2285 -0.7476
 1531SOL    HW116055   4.585   3.285  16.608 -0.6372 -1.5119  0.4014
 1531SOL    HW216056   4.503   3.169  16.580  1.2126 -0.5181 -0.5158
 1532SOL     OW16057   1.105   2.472   5.349 -0.6366 -0.0442 -0.0611
 1532SOL    HW116058   1.075   2.562   5.362 -1.2731 -0.1713 -0.6849
 1532SOL    HW216059   1.166   2.455   5.421  1.8213 -1.2863 -2.4517
 1533SOL     OW16060   2.417   0.199   9.353 -0.3557  0.2939 -0.0796
 1533SOL    HW116061   2.412   0.276   9.411 -0.2613 -2.2547  3.2880
 1533SOL    HW216062   2.503   0.165   9.376 -0.7886 -1.5781 -1.2632
 1534SOL     OW16063   1.391   3.108   1.609  0.3906 -0.1756 -0.0371
 1534SOL    HW116064   1.380   3.188   1.661 -0.8611 -0.1880 -0.2858
 1534SOL    HW216065   1.483   3.101   1.585  0.2378  0.9453 -0.9875
 1535SOL     OW16066   4.312   1.849   7.106 -0.0615 -0.2909  0.6152
 1535SOL    HW116067   4.238   1.801   7.144 -0.7499  1.2631  1.2152
 1535SOL    HW216068   4.368   1.844   7.183  2.6870 -0.0856 -1.3632
 1536SOL     OW16069   1.709   1.810  13.286 -0.1331 -0.9625 -0.8573
 1536SOL    HW116070   1.751   1.893  13.263 -1.4124  0.0101  0.3122
 1536SOL    HW216071   1.740   1.739  13.230  1.0597 -1.1457  0.0490
 1537SOL     OW16072   2.029   2.909   2.341 -0.0968 -0.2914  0.0163
 1537SOL    HW116073   1.944   2.876   2.310 -1.3921  3.0532  0.0253
 1537SOL    HW216074   2.079   2.910   2.259 -0.3694  1.0745 -0.1349
 1538SOL     OW16075   3.789   0.879   0.151  0.1817  0.6229  0.5541
 1538SOL    HW116076   3.704   0.915   0.124  0.2506  0.8408  0.6260
 1538SOL    HW216077   3.775   0.789   0.180 -0.9773  0.6933  0.2166
 1539SOL     OW16078   0.906   2.916   6.596 -0.5995  0.1793 -0.0647
 1539SOL    HW116079   0.880   2.850   6.661  3.3441  0.2103  1.5415
 1539SOL    HW216080   0.848   2.990   6.613  3.5127  2.9488  1.8134
 1540SOL     OW16081   0.725   0.569  13.563 -0.4770  0.1089  0.0650
 1540SOL    HW116082   0.818   0.562  13.584 -1.1441 -3.0118  1.9448
 1540SOL    HW216083   0.694   0.546  13.650 -0.5682  0.4167  0.1139
 1541SOL     OW16084   2.029   1.805  16.766 -0.0380  0.6387 -0.2109
 1541SOL    HW116085   2.012   1.766  16.680  1.2115 -1.3226  0.4327
 1541SOL    HW216086   2.122   1.783  16.769  0.3987  2.6532  0.3384
 1542SOL     OW16087   0.481   2.007   8.164 -0.5026  0.1474 -0.4756
 1542SOL    HW116088   0.561   2.019   8.112 -0.2586 -2.1304 -0.6247
 1542SOL    HW216089   0.473   1.913   8.148 -0.8910 -0.3105  2.4621
 1543SOL     OW16090   1.774   3.178   2.614 -0.2086 -0.3298 -0.6944
 1543SOL    HW116091   1.742   3.230   2.689  3.3168  1.9856 -0.7812
 1543SOL    HW216092   1.865   3.207   2.613  0.4820 -2.4801  1.5266
 1544SOL     OW16093   3.859   1.886   7.787 -0.2783 -0.0504  0.0591
 1544SOL    HW116094   3.954   1.896   7.799 -0.7853  2.2205  2.0496
 1544SOL    HW216095   3.849   1.879   7.692  3.0834  3.2121 -0.5321
 1545SOL     OW16096   1.627   2.309   6.844  0.2534 -0.0758 -0.2823
 1545SOL    HW116097   1.588   2.309   6.757 -0.1541  0.2783 -0.0984
 1545SOL    HW216098   1.565   2.354   6.901  0.3740 -0.4663  0.1643
 1546SOL     OW16099   1.416   4.338   8.918  0.1527 -0.3027  0.0602
 1546SOL    HW116100   1.466   4.333   8.837 -0.1226 -1.1092 -0.0611
 1546SOL    HW216101   1.491   4.360   8.974  0.5398 -0.4828 -0.3865
 1547SOL     OW16102   0.453   4.512   2.966 -0.5207  0.3991 -0.6188
 1547SOL    HW116103   0.407   4.459   3.031 -0.7293  0.9282 -0.3342
 1547SOL    HW216104   0.381   4.552   2.917 -1.9625 -3.6563 -1.7876
 1548SOL     OW16105   4.039   0.879   5.162 -0.3316  0.0271  0.2222
 1548SOL    HW116106   3.946   0.858   5.169 -0.2462 -0.8300 -1.1384
 1548SOL    HW216107   4.067   0.821   5.091 -0.1024 -0.8534  1.0275
 1549SOL     OW16108   1.719   2.969   9.831 -0.1539  0.1355  1.1670
 1549SOL    HW116109   1.705   2.875   9.827 -1.1605  0.2996  0.8014
 1549SOL    HW216110   1.631   3.005   9.843 -0.7133 -0.7956 -0.1908
 1550SOL     OW16111   4.519   1.385   9.169 -0.1139 -0.3823 -0.2560
 1550SOL    HW116112   4.462   1.315   9.199  1.2901 -1.7927 -0.8673
 1550SOL    HW216113   4.525   1.449   9.240 -2.0570  0.1012 -0.5197
 1551SOL     OW16114   3.142   4.048  16.050 -0.3463  0.0052 -0.1713
 1551SOL    HW116115   3.225   4.001  16.057 -0.9297 -0.6582  2.4212
 1551SOL    HW216116   3.090   3.989  15.995 -0.5594 -0.4270  0.4949
 1552SOL     OW16117   3.941   2.031  16.142 -0.2634  0.1295  0.4573
 1552SOL    HW116118   3.926   2.102  16.080 -0.0420 -0.5878 -0.4129
 1552SOL    HW216119   3.927   1.959  16.080  0.1333  0.6993 -0.2952
 1553SOL     OW16120   3.866   0.585   4.884 -0.2484  0.3806  0.4224
 1553SOL    HW116121   3.836   0.675   4.871  0.5456  0.2864 -2.2069
 1553SOL    HW216122   3.961   0.585   4.876 -0.0047 -1.4545  3.2546
 1554SOL     OW16123   0.896   2.847   1.049  0.3482  0.3327 -0.2433
 1554SOL    HW116124   0.961   2.828   1.116  1.0476  2.9641 -0.1965
 1554SOL    HW216125   0.850   2.765   1.031  1.0065 -0.2243  0.6650
 1555SOL     OW16126   2.110   1.191   6.717  0.0272  0.5082  0.1086
 1555SOL    HW116127   2.107   1.151   6.630 -0.7706  0.8098 -0.0033
 1555SOL    HW216128   2.117   1.110   6.767 -0.2510  0.4957  0.1294
 1556SOL     OW16129   0.979   0.784   1.148 -0.0622  0.8960  0.3991
 1556SOL    HW116130   1.013   0.781   1.237  1.6867 -1.3105 -0.3486
 1556SOL    HW216131   0.884   0.780   1.153 -0.1583 -1.2972 -3.1680
 1557SOL     OW16132   0.172   0.042   9.746 -0.5029  0.0044  0.4206
 1557SOL    HW116133   0.113   0.050   9.671  2.0284 -0.7857 -1.6385
 1557SOL    HW216134   0.139   0.109   9.806 -1.0053  1.0117 -0.9765
 1558SOL     OW16135   0.399   1.546  10.372  0.6838 -0.5729 -0.0477
 1558SOL    HW116136   0.382   1.550  10.467 -1.2252  1.1545 -0.4438
 1558SOL    HW216137   0.410   1.637  10.345 -1.1465 -0.5365 -0.6985
 1559SOL     OW16138   2.138   0.957   6.866 -0.0296 -0.2055 -0.1589
 1559SOL    HW116139   2.149   0.864   6.847  0.0261 -0.3788  0.7299
 1559SOL    HW216140   2.150   0.957   6.961  1.3267 -3.2712 -0.3374
 1560SOL     OW16141   0.416   3.097   6.929 -0.7142  1.0150  0.1589
 1560SOL    HW116142   0.452   3.043   6.999  1.5173  0.4009 -1.4736
 1560SOL    HW216143   0.343   3.039   6.907  2.1362 -1.8160 -1.8517
 1561SOL     OW16144   1.469   1.925   8.682 -0.4043  0.2330  0.0178
 1561SOL    HW116145   1.520   1.861   8.732 -1.0981 -0.6032 -0.3234
 1561SOL    HW216146   1.489   1.899   8.591  1.0414  1.7579 -0.0826
 1562SOL     OW16147   4.137   2.834  11.198 -0.4654  0.1540  0.2891
 1562SOL    HW116148   4.183   2.865  11.276  2.6034  0.0934 -1.4940
 1562SOL    HW216149   4.058   2.798  11.237 -0.9008  0.1652 -0.5977
 1563SOL     OW16150   1.468   3.572  17.109  0.4621  0.3106 -0.5112
 1563SOL    HW116151   1.398   3.561  17.044 -1.1301  0.4586  1.1598
 1563SOL    HW216152   1.421   3.617  17.180 -2.7814 -0.5821 -2.0566
 1564SOL     OW16153   2.858   3.098   3.815  0.3678  0.7547 -0.3071
 1564SOL    HW116154   2.924   3.058   3.873  0.6484 -1.3052 -2.0652
 1564SOL    HW216155   2.915   3.123   3.743 -1.8315 -0.6157 -2.5005
 1565SOL     OW16156   2.875   3.375  11.113  0.2059  0.2242 -0.5000
 1565SOL    HW116157   2.794   3.366  11.064  1.0107  2.1710 -2.1979
 1565SOL    HW216158   2.875   3.468  11.136  0.0876  0.1099 -0.0336
 1566SOL     OW16159   4.655   1.263   3.069 -0.8355 -0.0061  0.1693
 1566SOL    HW116160   4.608   1.229   2.993  1.7038  1.6350 -2.1392
 1566SOL    HW216161   4.679   1.180   3.110  0.1395 -0.0096 -0.4176
 1567SOL     OW16162   2.058   1.957   6.065 -0.3052 -0.3466  0.0753
 1567SOL    HW116163   2.111   1.937   6.142 -0.2372  0.7941  0.3185
 1567SOL    HW216164   2.048   1.869   6.028 -2.5202 -0.7799  1.6784
 1568SOL     OW16165   3.655   1.307   8.044  0.5400 -0.0262 -0.1338
 1568SOL    HW116166   3.714   1.381   8.033 -0.3205  0.6179 -0.3939
 1568SOL    HW216167   3.724   1.240   8.050  1.3734  0.8666  0.1676
 1569SOL     OW16168   2.083   1.856   4.385 -0.4380  0.5331 -0.5598
 1569SOL    HW116169   2.169   1.817   4.364  0.4118  1.2615  1.5761
 1569SOL    HW216170   2.032   1.808   4.320 -1.6949  0.2875  0.6066
 1570SOL     OW16171   2.653   1.854   2.765 -0.1655  0.1198  0.2485
 1570SOL    HW116172   2.590   1.916   2.729 -0.4655  0.7289  1.8023
 1570SOL    HW216173   2.626   1.848   2.856 -0.2091  4.3647  0.5518
 1571SOL     OW16174   3.657   4.480   4.746  0.8769  0.4819  0.4676
 1571SOL    HW116175   3.568   4.510   4.765  0.6983  1.1519 -1.4067
 1571SOL    HW216176   3.646   4.385   4.746 -0.3957  0.6355 -2.6405
 1572SOL     OW16177   1.473   1.449   5.893 -0.1465  0.0838  0.0884
 1572SOL    HW116178   1.391   1.399   5.895  0.3788 -0.7940 -0.7107
 1572SOL    HW216179   1.477   1.499   5.812  1.1444  0.2839  0.2766
 1573SOL     OW16180   0.476   2.658   7.562  0.0753  0.0751 -0.2034
 1573SOL    HW116181   0.530   2.686   7.489  2.3067  1.8232  2.1439
 1573SOL    HW216182   0.408   2.610   7.515  0.8957 -2.6906  1.3800
 1574SOL     OW16183   1.946   2.311  10.558 -0.1024  0.4456 -0.2411
 1574SOL    HW116184   1.904   2.383  10.604  0.2481 -0.5896  1.6720
 1574SOL    HW216185   1.953   2.347  10.469 -0.6952  0.1379 -0.4079
 1575SOL     OW16186   3.056   4.634   9.084  0.4617  0.2538 -0.0920
 1575SOL    HW116187   3.142   4.621   9.124  0.1574 -2.5966 -0.3286
 1575SOL    HW216188   3.003   4.576   9.139  2.5522 -1.4707  0.1339
 1576SOL     OW16189   3.827   0.892   6.566 -0.1150  0.1196  0.4582
 1576SOL    HW116190   3.877   0.811   6.575  0.9569  0.5740 -1.4255
 1576SOL    HW216191   3.849   0.920   6.478  1.9066 -0.3870  0.8008
 1577SOL     OW16192   2.419   4.062   8.005 -0.1087 -0.1535  0.0979
 1577SOL    HW116193   2.402   4.031   7.916 -0.6906 -0.3119  0.2687
 1577SOL    HW216194   2.389   3.985   8.051  1.8117 -0.0787  1.4597
 1578SOL     OW16195   2.237   2.046   3.891  0.2571 -0.5527 -0.3162
 1578SOL    HW116196   2.229   2.134   3.927  0.9753  0.0858 -1.7130
 1578SOL    HW216197   2.255   2.061   3.798 -0.8240 -1.4539 -0.6646
 1579SOL     OW16198   2.807   0.647   3.982  0.8181 -0.3900  0.6252
 1579SOL    HW116199   2.765   0.567   3.950 -1.5826  1.4603 -0.9475
 1579SOL    HW216200   2.776   0.717   3.924  0.5154 -1.1406 -0.1160
 1580SOL     OW16201   1.878   3.520   0.329  0.5184 -0.1216 -0.4924
 1580SOL    HW116202   1.948   3.548   0.269 -0.8741 -0.5475 -2.3227
 1580SOL    HW216203   1.875   3.598   0.384  1.1938  0.4516 -1.2549
 1581SOL     OW16204   0.545   0.910   8.429 -0.2667 -0.1882  0.1285
 1581SOL    HW116205   0.479   0.856   8.385 -0.4356  2.0090 -2.2830
 1581SOL    HW216206   0.498   0.993   8.426 -2.0000 -1.1911  0.1409
 1582SOL     OW16207   4.125   3.519   7.836 -0.1796 -0.4306 -0.0507
 1582SOL    HW116208   4.113   3.602   7.883 -1.2877 -0.5773 -0.0562
 1582SOL    HW216209   4.042   3.495   7.795  1.5581 -2.0247 -2.6277
 1583SOL     OW16210   0.513   3.471  10.086 -0.1367 -0.2823 -0.2023
 1583SOL    HW116211   0.602   3.444  10.110 -0.2695 -0.5892 -0.0473
 1583SOL    HW216212   0.487   3.406  10.021  0.8198 -0.4718 -0.3865
 1584SOL     OW16213   4.637   2.403   4.572  0.0902  0.2922  0.3177
 1584SOL    HW116214   0.007   2.402   4.600  0.4701 -1.8928 -1.0147
 1584SOL    HW216215   4.608   2.314   4.591 -0.0937  0.1205 -0.7593
 1585SOL     OW16216   3.688   2.524   6.697  0.1394  0.4799  1.0800
 1585SOL    HW116217   3.675   2.597   6.637 -0.4373  0.6660  1.4382
 1585SOL    HW216218   3.783   2.513   6.699  0.3132  1.5282 -1.2675
 1586SOL     OW16219   2.863   2.025   6.362  0.0966 -0.4695  0.0269
 1586SOL    HW116220   2.912   1.946   6.342  0.0453 -0.2922 -0.7856
 1586SOL    HW216221   2.932   2.090   6.350 -0.7681  0.3122 -0.7486
 1587SOL     OW16222   3.355   3.421   6.029 -1.0831  0.7330 -0.0365
 1587SOL    HW116223   3.378   3.454   6.116 -0.8996  3.9139 -1.3253
 1587SOL    HW216224   3.358   3.326   6.043  0.4374  0.7266 -0.3339
 1588SOL     OW16225   2.211   1.468   1.966  0.5431 -0.1921  0.0347
 1588SOL    HW116226   2.200   1.487   1.873 -0.5721 -0.0738  0.1845
 1588SOL    HW216227   2.119   1.461   1.992  0.9138 -0.5707  1.2654
 1589SOL     OW16228   0.958   3.141  12.008  0.7329 -0.7212  0.2459
 1589SOL    HW116229   0.957   3.133  11.913 -0.3210 -1.6428  0.3329
 1589SOL    HW216230   1.020   3.071  12.028  0.7881 -0.4573  0.9939
 1590SOL     OW16231   1.437   1.614   1.876  0.8392  0.2752  0.3146
 1590SOL    HW116232   1.350   1.575   1.891  0.3250  0.1473 -3.0190
 1590SOL    HW216233   1.443   1.628   1.782 -0.4164 -1.0196  0.0333
 1591SOL     OW16234   0.081   4.017   6.367 -0.3725  0.2514 -0.8299
 1591SOL    HW116235   0.041   3.935   6.396  1.1685 -0.8333 -1.7458
 1591SOL    HW216236   0.103   3.994   6.277  2.8806 -1.2069  0.3485
 1592SOL     OW16237   4.159   1.938  15.837 -0.4160  0.4019  0.1207
 1592SOL    HW116238   4.210   2.011  15.801 -0.4717  1.1330  1.5473
 1592SOL    HW216239   4.194   1.940  15.926  0.8026  0.6337 -0.3661
 1593SOL     OW16240   1.902   1.683  12.136 -0.0062 -0.1738 -0.0031
 1593SOL    HW116241   1.945   1.768  12.122 -0.2211 -0.1546 -0.5687
 1593SOL    HW216242   1.894   1.673  12.230 -0.1176 -1.2281 -0.1220
 1594SOL     OW16243   1.475   3.249   4.946 -0.1096 -0.3607 -0.4977
 1594SOL    HW116244   1.547   3.272   4.888  0.6046  1.9491  1.2747
 1594SOL    HW216245   1.423   3.329   4.948  0.0903 -0.2646  1.1780
 1595SOL     OW16246   1.350   1.410   4.754 -0.3237  0.6894  0.5697
 1595SOL    HW116247   1.258   1.385   4.766 -0.8191  2.0940 -0.3780
 1595SOL    HW216248   1.342   1.502   4.731  1.5417  0.7443  0.1762
 1596SOL     OW16249   0.303   1.171   4.204  0.2036 -0.2519  0.3620
 1596SOL    HW116250   0.353   1.229   4.261 -2.0868  1.0628  1.0672
 1596SOL    HW216251   0.239   1.131   4.263  1.5962 -1.9806  0.7004
 1597SOL     OW16252   1.614   2.670   2.201 -0.1549  0.0169  0.2254
 1597SOL    HW116253   1.633   2.608   2.131 -0.0652  0.1350  0.1447
 1597SOL    HW216254   1.637   2.614   2.274  0.6999 -0.0049 -0.0588
 1598SOL     OW16255   0.701   2.326   0.308  0.0820 -0.3120  0.4276
 1598SOL    HW116256   0.775   2.327   0.247 -0.3797 -0.6028 -0.1360
 1598SOL    HW216257   0.760   2.304   0.380 -1.4411  0.6696  1.9523
 1599SOL     OW16258   2.366   4.126   0.182  0.1171  0.4532 -0.5153
 1599SOL    HW116259   2.312   4.071   0.239 -1.7358  3.2363  0.3952
 1599SOL    HW216260   2.399   4.071   0.111 -0.9825 -2.1119  0.9461
 1600SOL     OW16261   2.367   3.569  14.356  0.0499  0.0927  0.4333
 1600SOL    HW116262   2.454   3.569  14.396  0.3716  0.1364 -0.2755
 1600SOL    HW216263   2.347   3.661  14.337  0.9332  0.5202  1.5244
 1601SOL     OW16264   3.820   2.913  16.947  0.5877 -0.1560  0.1312
 1601SOL    HW116265   3.900   2.884  16.990  2.1318  0.0408 -2.5808
 1601SOL    HW216266   3.849   2.986  16.892 -1.1962  1.0576  0.7867
 1602SOL     OW16267   4.436   2.629   3.831  0.0928 -0.1975 -0.0767
 1602SOL    HW116268   4.348   2.591   3.827  0.2276 -0.5054 -0.1554
 1602SOL    HW216269   4.472   2.594   3.750 -0.2500 -2.7556  0.8709
 1603SOL     OW16270   1.585   0.532  13.712 -0.0225 -0.3699 -0.1195
 1603SOL    HW116271   1.619   0.586  13.783  1.6488 -1.3945 -0.1445
 1603SOL    HW216272   1.503   0.580  13.701 -0.9951 -1.9647  0.2177
 1604SOL     OW16273   2.290   3.081   4.465  0.3009  0.5044 -0.3191
 1604SOL    HW116274   2.226   3.105   4.532  0.0777  0.3915 -0.4923
 1604SOL    HW216275   2.368   3.086   4.520 -0.6268 -1.1010  1.1494
 1605SOL     OW16276   4.362   4.094   7.183 -0.7482 -0.3509  0.0592
 1605SOL    HW116277   4.367   4.189   7.172  0.3372 -0.4278 -0.1128
 1605SOL    HW216278   4.402   4.085   7.269 -0.7160  1.1646  0.1976
 1606SOL     OW16279   0.760   3.878  15.981  0.1297  0.2873  0.2007
 1606SOL    HW116280   0.689   3.821  16.009  1.1643 -1.0633  0.0865
 1606SOL    HW216281   0.771   3.863  15.887 -1.9879 -2.6688  0.4139
 1607SOL     OW16282   4.046   0.614   5.327  0.2535  0.2322  0.2163
 1607SOL    HW116283   4.069   0.676   5.396  0.7900  1.1240 -0.7712
 1607SOL    HW216284   3.969   0.650   5.283  0.0278 -1.2014 -0.5553
 1608SOL     OW16285   4.430   4.035   4.276 -0.3221 -0.1603 -0.2709
 1608SOL    HW116286   4.439   4.130   4.266 -0.1372  0.1200  2.7306
 1608SOL    HW216287   4.402   4.027   4.367  1.2671 -0.9966  0.1302
 1609SOL     OW16288   3.899   3.229   4.137 -0.3631  0.0463 -0.2605
 1609SOL    HW116289   3.944   3.309   4.163  0.8353 -1.5646  2.6745
 1609SOL    HW216290   3.851   3.260   4.060 -2.6855  1.8647  1.9244
 1610SOL     OW16291   0.659   2.462   4.737 -0.2067 -0.4129 -0.3506
 1610SOL    HW116292   0.731   2.428   4.683  2.2646  3.1441  0.6638
 1610SOL    HW216293   0.706   2.464   4.820 -0.2350  0.3795 -0.3541
 1611SOL     OW16294   2.253   4.533   5.504 -0.5886 -0.0336 -0.5821
 1611SOL    HW116295   2.219   4.468   5.442 -0.0129  0.0536 -0.9871
 1611SOL    HW216296   2.328   4.489   5.545 -0.4875  0.6611 -0.0285
 1612SOL     OW16297   2.804   1.887   3.124 -0.3985  0.7670  0.3768
 1612SOL    HW116298   2.865   1.859   3.192 -1.6921 -2.4307  0.2310
 1612SOL    HW216299   2.862   1.932   3.064 -0.5513 -1.3259 -1.3442
 1613SOL     OW16300   0.495   1.533  11.300  0.3023  0.3429 -0.2832
 1613SOL    HW116301   0.524   1.555  11.389  0.9349 -2.2050  0.1542
 1613SOL    HW216302   0.482   1.622  11.269 -2.1266  0.4061  0.8979
 1614SOL     OW16303   4.017   2.686   3.488  0.4959 -0.3700 -0.1814
 1614SOL    HW116304   3.963   2.637   3.426  0.0318  0.3259 -0.3349
 1614SOL    HW216305   3.960   2.761   3.508  0.5238 -0.4032  0.0176
 1615SOL     OW16306   3.027   0.397   4.160 -0.1594 -0.3162  0.0717
 1615SOL    HW116307   2.944   0.405   4.208  0.0955  0.2900  0.4122
 1615SOL    HW216308   3.070   0.479   4.183  0.2650 -0.5987  0.2693
 1616SOL     OW16309   1.011   0.619   7.672 -0.1145 -0.1165 -0.0045
 1616SOL    HW116310   0.958   0.657   7.602 -0.1250 -1.4821 -0.7511
 1616SOL    HW216311   1.085   0.592   7.618 -0.6733  1.1034 -1.3665
 1617SOL     OW16312   1.627   4.172   2.337 -0.1363  0.2361  0.5107
 1617SOL    HW116313   1.607   4.100   2.277  0.4414 -0.9310  1.7062
 1617SOL    HW216314   1.645   4.117   2.414  3.2045 -1.1159 -1.2175
 1618SOL     OW16315   4.626   0.170   0.271  0.0166  0.4012  0.0635
 1618SOL    HW116316   4.625   0.074   0.264 -0.4109  0.5568 -1.8234
 1618SOL    HW216317   4.561   0.190   0.204  2.4592 -0.9998 -2.7029
 1619SOL     OW16318   3.856   4.357   5.023  0.4512 -0.8178  0.3972
 1619SOL    HW116319   3.951   4.358   5.009  0.2493 -0.0128 -0.9486
 1619SOL    HW216320   3.849   4.373   5.117  0.1165  1.8549 -0.0744
 1620SOL     OW16321   3.194   1.602   6.854  0.4992 -0.2916 -0.3921
 1620SOL    HW116322   3.160   1.530   6.801 -1.3912  0.5581 -0.3365
 1620SOL    HW216323   3.185   1.578   6.946 -0.8041  0.6028 -0.2813
 1621SOL     OW16324   3.107   2.794   5.123 -0.0081 -0.3477  0.0890
 1621SOL    HW116325   3.142   2.712   5.160 -0.7148 -0.0676  1.3434
 1621SOL    HW216326   3.015   2.795   5.146  0.3285  0.9421  1.3662
 1622SOL     OW16327   3.060   1.351   4.663 -0.0828  0.2309 -1.0339
 1622SOL    HW116328   3.049   1.340   4.568 -0.5594 -1.9298 -0.7314
 1622SOL    HW216329   3.009   1.429   4.685  1.5704  0.8658  0.5342
 1623SOL     OW16330   2.213   3.688   9.605 -0.2424 -0.0260 -0.0359
 1623SOL    HW116331   2.269   3.698   9.528 -0.9776  1.3233 -0.3949
 1623SOL    HW216332   2.150   3.760   9.596  3.3919  3.0237 -1.1035
 1624SOL     OW16333   0.871   2.024   6.797 -0.1240 -0.2090  0.3071
 1624SOL    HW116334   0.793   2.020   6.852  0.0085 -0.0607  0.5066
 1624SOL    HW216335   0.937   2.029   6.867 -0.4581 -0.3769  0.6307
 1625SOL     OW16336   3.570   2.605   7.298  0.3700  0.8789  0.3233
 1625SOL    HW116337   3.576   2.687   7.347  0.0047  0.0673  1.7334
 1625SOL    HW216338   3.624   2.559   7.362  0.2765  1.4626  0.8222
 1626SOL     OW16339   1.008   3.634   3.907 -0.3349  0.4511 -0.0541
 1626SOL    HW116340   1.059   3.558   3.877 -2.0071 -1.1369  1.1281
 1626SOL    HW216341   0.924   3.592   3.926  0.1584 -0.8961 -0.8090
 1627SOL     OW16342   0.989   3.589   0.842  0.0723 -0.1067  0.0606
 1627SOL    HW116343   0.950   3.504   0.864  0.9773 -0.3816  0.6283
 1627SOL    HW216344   0.994   3.580   0.746 -3.2576  3.3490 -0.4133
 1628SOL     OW16345   0.906   1.271  15.169 -0.3677  0.2355 -0.7966
 1628SOL    HW116346   0.920   1.365  15.176  0.0588  0.2512 -1.8572
 1628SOL    HW216347   0.887   1.260  15.076 -1.4802 -0.6617 -0.4587
 1629SOL     OW16348   1.327   2.413   4.974  0.1205  0.2565  0.6103
 1629SOL    HW116349   1.381   2.370   4.908 -0.6266 -1.0434  0.8521
 1629SOL    HW216350   1.240   2.399   4.936 -0.6288  1.9084  1.7364
 1630SOL     OW16351   2.722   1.279   3.238 -0.3559 -0.0431  0.3018
 1630SOL    HW116352   2.685   1.201   3.279  1.3915 -1.1322 -0.1831
 1630SOL    HW216353   2.652   1.345   3.242 -0.1547  0.2449 -0.8171
 1631SOL     OW16354   4.087   3.184   6.280  0.2231 -0.3216 -0.2095
 1631SOL    HW116355   3.997   3.210   6.260  0.3288 -0.8139 -1.2979
 1631SOL    HW216356   4.142   3.235   6.220 -0.0368 -0.0194 -0.1910
 1632SOL     OW16357   2.007   3.368   4.295  0.4127  0.6621 -0.1670
 1632SOL    HW116358   1.933   3.385   4.354  1.1103  1.3882  0.4877
 1632SOL    HW216359   1.994   3.420   4.216 -0.5584  1.1759  0.3228
 1633SOL     OW16360   3.176   2.049  14.907  0.1888 -0.1392 -0.0251
 1633SOL    HW116361   3.097   2.089  14.943  0.9380  0.2166  1.2002
 1633SOL    HW216362   3.179   2.086  14.819  0.5859 -0.1236 -0.0067
 1634SOL     OW16363   3.249   4.249   9.227 -0.0427  0.9365 -0.2809
 1634SOL    HW116364   3.340   4.252   9.257  0.1971 -1.4734 -0.7525
 1634SOL    HW216365   3.236   4.155   9.232  0.9186  0.7985 -0.3147
 1635SOL     OW16366   0.847   2.308   1.939  0.4437  0.4896 -0.7276
 1635SOL    HW116367   0.760   2.321   1.978  0.3669  0.1800 -0.7992
 1635SOL    HW216368   0.841   2.213   1.946 -3.1804  0.6503 -1.5569
 1636SOL     OW16369   4.001   0.987   3.711 -0.3425  0.0642  0.5883
 1636SOL    HW116370   3.947   1.001   3.633 -0.6812 -1.0704  0.6144
 1636SOL    HW216371   3.949   1.041   3.770 -0.4713  1.7867 -1.0916
 1637SOL     OW16372   2.653   1.714  12.351  0.2191  0.1796  0.8802
 1637SOL    HW116373   2.591   1.782  12.323  1.0636 -0.3219 -2.1995
 1637SOL    HW216374   2.738   1.757  12.353  0.5308 -0.5011  2.2050
 1638SOL     OW16375   0.450   0.058   7.502 -0.5133 -0.1099 -0.0842
 1638SOL    HW116376   0.538   0.022   7.489  0.1685  1.7552 -0.6536
 1638SOL    HW216377   0.475   0.143   7.467  0.0900 -0.9861 -1.8285
 1639SOL     OW16378   1.421   0.990   2.410 -0.5930  0.0969 -0.0345
 1639SOL    HW116379   1.454   0.932   2.342 -2.4615 -0.1283 -0.7574
 1639SOL    HW216380   1.357   1.040   2.359 -0.8494 -0.9046 -0.6990
 1640SOL     OW16381   2.664   0.132  12.123  0.6078  0.0961  0.0872
 1640SOL    HW116382   2.647   0.193  12.051  1.9044 -0.6938 -0.9046
 1640SOL    HW216383   2.714   0.196  12.174 -0.8001  1.6863 -0.5409
 1641SOL     OW16384   2.025   1.580   7.970 -1.1541  0.0093  0.2633
 1641SOL    HW116385   2.014   1.489   7.999  2.1860 -0.7520 -0.8163
 1641SOL    HW216386   2.032   1.637   8.046  2.7632 -0.0800 -0.0335
 1642SOL     OW16387   0.781   4.462   7.227 -0.1836  0.5114  0.5980
 1642SOL    HW116388   0.761   4.544   7.273 -0.6344 -0.1552  1.5665
 1642SOL    HW216389   0.771   4.389   7.288  0.8725 -0.0982  0.0344
 1643SOL     OW16390   3.950   3.998  13.006  0.4129  0.5318  0.4110
 1643SOL    HW116391   3.954   4.006  12.911  1.3539  0.4396  0.4447
 1643SOL    HW216392   3.871   4.050  13.020  0.5715  1.0933 -0.8307
 1644SOL     OW16393   0.872   4.351  13.507  0.1782  0.2380  0.1090
 1644SOL    HW116394   0.847   4.434  13.547  4.1628  1.2580  0.4989
 1644SOL    HW216395   0.916   4.314  13.584  1.1900 -1.0109 -1.0770
 1645SOL     OW16396   0.860   4.325   6.863 -0.7501 -0.1448 -0.3334
 1645SOL    HW116397   0.910   4.395   6.821 -2.1436  1.0884  0.0621
 1645SOL    HW216398   0.927   4.270   6.902  1.9280  2.1571 -1.6435
 1646SOL     OW16399   1.638   2.529   5.867 -0.0658  0.4557 -0.0428
 1646SOL    HW116400   1.566   2.481   5.825  0.6829  1.5042 -2.5324
 1646SOL    HW216401   1.656   2.601   5.807  0.2300 -0.8400 -1.4995
 1647SOL     OW16402   3.575   2.886  16.726 -0.2337  0.1136  0.5656
 1647SOL    HW116403   3.656   2.868  16.772  2.5109  2.3717 -3.3963
 1647SOL    HW216404   3.526   2.948  16.780  1.7044 -0.1008  2.5689
 1648SOL     OW16405   0.638   4.076   7.449 -0.4211 -0.4736 -0.2801
 1648SOL    HW116406   0.689   4.113   7.377 -0.4776  0.9362  0.4133
 1648SOL    HW216407   0.562   4.131   7.434 -0.3199  0.1131  1.3030
 1649SOL     OW16408   3.716   2.651   5.443  0.0648  0.2349 -0.0500
 1649SOL    HW116409   3.761   2.572   5.475 -2.1156 -0.7974  0.4393
 1649SOL    HW216410   3.695   2.616   5.357  1.1476 -1.5775  0.4130
 1650SOL     OW16411   3.063   4.114   6.659  0.1100  0.7094  0.3024
 1650SOL    HW116412   2.978   4.153   6.636 -0.2319  0.7470  1.6060
 1650SOL    HW216413   3.079   4.151   6.746 -0.0409  1.2259  0.1095
 1651SOL     OW16414   4.397   2.136   9.939  0.1812 -0.0427 -1.1503
 1651SOL    HW116415   4.319   2.080   9.948  0.3951 -0.0065  0.8222
 1651SOL    HW216416   4.458   2.062   9.930  1.1739  0.8596 -1.7386
 1652SOL     OW16417   1.127   2.176  12.233  0.1092 -0.2741  0.7752
 1652SOL    HW116418   1.050   2.121  12.245 -0.2419 -0.2086 -1.1976
 1652SOL    HW216419   1.179   2.115  12.180 -0.0565  1.6076 -1.5749
 1653SOL     OW16420   0.638   2.214   2.389 -0.2349 -0.2413  0.1279
 1653SOL    HW116421   0.560   2.216   2.334 -0.9470 -1.1919  1.0924
 1653SOL    HW216422   0.596   2.209   2.475 -0.5593  0.4502  0.0129
 1654SOL     OW16423   3.014   4.078   5.670 -0.1851  0.3797  0.5163
 1654SOL    HW116424   2.972   3.992   5.670  0.2857  0.1576 -1.3753
 1654SOL    HW216425   2.970   4.106   5.590 -0.7157  3.1527  1.8038
 1655SOL     OW16426   3.863   0.961   7.487  0.7884  0.5509  0.4411
 1655SOL    HW116427   3.849   0.993   7.399 -1.2908  0.4839  0.7531
 1655SOL    HW216428   3.774   0.970   7.520  0.7615  1.1937  0.1891
 1656SOL     OW16429   2.474   0.440   2.300 -0.4999  0.2513  0.2630
 1656SOL    HW116430   2.453   0.405   2.214 -0.2710  1.7596 -0.4042
 1656SOL    HW216431   2.569   0.439   2.299 -0.5292  0.8099 -1.8813
 1657SOL     OW16432   1.885   0.654   1.687  0.2076  1.2591 -0.0516
 1657SOL    HW116433   1.907   0.708   1.611 -0.6963 -0.7259 -1.7283
 1657SOL    HW216434   1.816   0.713   1.719 -0.2840 -1.4015  3.7026
 1658SOL     OW16435   4.407   2.587  15.162 -0.8131 -0.9702  0.3042
 1658SOL    HW116436   4.466   2.522  15.199 -0.5051 -0.8201  0.0785
 1658SOL    HW216437   4.354   2.547  15.093  0.5830 -1.9219 -0.2082
 1659SOL     OW16438   0.444   0.470   5.568 -0.0786 -0.1964 -0.1047
 1659SOL    HW116439   0.368   0.510   5.611  0.3613  1.5470 -0.9427
 1659SOL    HW216440   0.431   0.516   5.485 -0.1572 -1.4463 -0.7821
 1660SOL     OW16441   1.073   4.472  17.389  0.3907  0.3881  0.8688
 1660SOL    HW116442   1.074   4.427  17.474 -1.2586 -1.7665 -0.2661
 1660SOL    HW216443   0.995   4.526  17.406 -0.7071 -1.2103  0.8759
 1661SOL     OW16444   2.852   3.995  13.875 -0.5335  0.0730  0.0601
 1661SOL    HW116445   2.855   4.037  13.789 -0.3036 -0.9500 -0.4233
 1661SOL    HW216446   2.857   3.905  13.844  1.2846 -0.0470  0.7200
 1662SOL     OW16447   2.349   2.044   3.295 -0.3916 -0.5837 -0.3408
 1662SOL    HW116448   2.336   2.138   3.311  1.2229 -0.4123 -0.0461
 1662SOL    HW216449   2.333   2.038   3.201  3.1697  0.3203 -0.9862
 1663SOL     OW16450   4.383   2.782   2.525 -0.1257 -0.7568 -0.0178
 1663SOL    HW116451   4.315   2.761   2.461 -0.4738 -2.6286  0.9565
 1663SOL    HW216452   4.334   2.772   2.607  0.6894 -3.0475  0.1833
 1664SOL     OW16453   3.430   4.219  15.149 -0.4265 -0.5806 -0.0258
 1664SOL    HW116454   3.499   4.241  15.087 -1.0107 -1.5925 -1.0319
 1664SOL    HW216455   3.357   4.266  15.109 -1.3694  0.6307  3.1295
 1665SOL     OW16456   1.654   1.541   0.987 -0.3686 -0.0376 -0.8434
 1665SOL    HW116457   1.577   1.598   0.990 -0.3091  0.0593 -1.1003
 1665SOL    HW216458   1.667   1.526   1.080  2.9377  1.9819 -0.9676
 1666SOL     OW16459   4.092   1.177  12.292  0.3490 -0.0282  0.3718
 1666SOL    HW116460   4.138   1.239  12.235 -0.9145  0.7498  0.1849
 1666SOL    HW216461   4.113   1.097  12.245 -0.8301  0.1671 -0.4782
 1667SOL     OW16462   3.245   3.012   5.043  0.3094 -0.2430  0.1289
 1667SOL    HW116463   3.203   2.937   5.084  0.1331 -0.4383 -0.4133
 1667SOL    HW216464   3.338   3.000   5.058  0.6171  2.8039  0.7350
 1668SOL     OW16465   3.537   0.706  13.862  0.8720 -0.0879 -0.1354
 1668SOL    HW116466   3.448   0.737  13.848  0.9347  1.0817  1.9538
 1668SOL    HW216467   3.520   0.612  13.872 -2.0702  0.4613  0.0626
 1669SOL     OW16468   3.277   2.023   6.055  0.0294 -0.5731  0.4149
 1669SOL    HW116469   3.344   1.994   5.992  0.4427  1.7272 -0.2027
 1669SOL    HW216470   3.258   2.102   6.005  0.9701 -2.2606 -2.6392
 1670SOL     OW16471   0.809   3.070   2.815 -0.0843  0.2148  0.2077
 1670SOL    HW116472   0.814   3.004   2.746 -2.3082  1.1908 -0.8988
 1670SOL    HW216473   0.878   3.120   2.772 -1.1758  1.5552  0.0251
 1671SOL     OW16474   3.609   0.016  15.935  0.1242 -0.6880  0.2598
 1671SOL    HW116475   3.560   4.713  16.014  0.7687 -0.4207  0.7406
 1671SOL    HW216476   3.694   4.696  15.947 -0.4523 -1.3914  1.8514
 1672SOL     OW16477   3.153   4.408   6.412  0.6366 -0.5345 -0.4829
 1672SOL    HW116478   3.171   4.495   6.375  1.1540 -0.3155  0.2905
 1672SOL    HW216479   3.238   4.379   6.444  1.2605  0.4493 -1.2454
 1673SOL     OW16480   3.397   2.166   0.385  0.1834  0.6371 -0.0146
 1673SOL    HW116481   3.448   2.131   0.312  0.9039 -2.0424  1.7774
 1673SOL    HW216482   3.407   2.089   0.442 -2.4042 -1.5217 -2.5080
 1674SOL     OW16483   2.521   1.521  17.315 -0.0506 -0.1404 -0.1980
 1674SOL    HW116484   2.511   1.615  17.327 -2.0878 -0.4776  0.8642
 1674SOL    HW216485   2.552   1.525  17.224 -0.7805 -0.8107 -0.4810
 1675SOL     OW16486   1.125   1.242   6.617 -0.2636  0.2485  0.3150
 1675SOL    HW116487   1.145   1.320   6.667 -1.3760  0.7522 -0.0172
 1675SOL    HW216488   1.187   1.179   6.652 -0.3173 -0.1283 -0.2641
 1676SOL     OW16489   1.571   0.145   8.262 -0.0601 -0.4344 -0.3201
 1676SOL    HW116490   1.616   0.212   8.313 -0.5576  0.2301 -0.7590
 1676SOL    HW216491   1.646   0.092   8.234 -0.4052  0.7720 -3.4711
 1677SOL     OW16492   2.469   1.823   7.138  0.8458 -0.1533 -0.1621
 1677SOL    HW116493   2.436   1.734   7.148 -1.1458  0.6197  0.1649
 1677SOL    HW216494   2.513   1.830   7.053 -0.0497 -0.1472 -0.6206
 1678SOL     OW16495   3.531   1.863   2.588  0.2153  0.2472  0.1946
 1678SOL    HW116496   3.459   1.866   2.525  2.0353  1.0251 -1.8619
 1678SOL    HW216497   3.589   1.931   2.553  0.3360 -0.8875 -1.8390
 1679SOL     OW16498   3.639   0.753   4.460 -0.3386 -0.2755 -0.1998
 1679SOL    HW116499   3.588   0.776   4.382  0.4931  1.2349 -0.3020
 1679SOL    HW216500   3.605   0.813   4.527 -0.3022 -0.1138 -0.3259
 1680SOL     OW16501   1.858   3.566   0.041  0.2312  0.4829 -0.2441
 1680SOL    HW116502   1.798   3.571   0.116 -0.5058  0.6985 -0.8416
 1680SOL    HW216503   1.791   3.558  17.662 -2.0214  1.7296  1.7904
 1681SOL     OW16504   1.970   3.710   7.093 -0.0500  0.8200  0.0256
 1681SOL    HW116505   1.925   3.650   7.033 -0.3296  1.2126 -0.1628
 1681SOL    HW216506   1.952   3.668   7.177  1.1870 -0.5652 -0.4070
 1682SOL     OW16507   4.662   3.226   6.013 -0.1955  0.0684  0.3246
 1682SOL    HW116508   4.612   3.219   6.094  0.1437  0.1861  0.5412
 1682SOL    HW216509   4.718   3.148   6.014 -0.1131  0.1378  1.0351
 1683SOL     OW16510   4.049   3.852  12.608 -0.4496  0.0736  0.0823
 1683SOL    HW116511   4.021   3.790  12.675  1.6899  0.3523  1.2605
 1683SOL    HW216512   4.041   3.937  12.652  2.4939  0.7471 -0.6549
 1684SOL     OW16513   3.494   3.177   2.504  0.1679  0.1905  0.3453
 1684SOL    HW116514   3.449   3.110   2.555  2.1638 -1.6570 -0.3137
 1684SOL    HW216515   3.447   3.171   2.420  1.2804  0.9182 -0.3330
 1685SOL     OW16516   0.905   1.015   5.764 -0.1525  0.3178 -0.0661
 1685SOL    HW116517   0.814   1.032   5.789  0.6020  1.5347  1.7933
 1685SOL    HW216518   0.933   0.975   5.846  1.9901  1.4423 -0.2744
 1686SOL     OW16519   0.461   0.562   5.312 -0.4452 -0.1698 -0.8127
 1686SOL    HW116520   0.521   0.636   5.306 -0.5521  0.0368  0.6331
 1686SOL    HW216521   0.439   0.543   5.221 -1.7936 -0.1311 -0.4975
 1687SOL     OW16522   2.532   3.434   6.502  0.1161  0.5134 -0.3036
 1687SOL    HW116523   2.559   3.519   6.468  4.3732 -0.2183  1.2646
 1687SOL    HW216524   2.474   3.465   6.572 -0.3634 -0.8615 -0.0949
 1688SOL     OW16525   0.896   1.114   8.187 -0.1444 -0.2032  0.7039
 1688SOL    HW116526   0.894   1.084   8.277  1.2686 -0.9378  0.4789
 1688SOL    HW216527   0.803   1.127   8.168  0.6618  1.2273 -2.3328
 1689SOL     OW16528   0.678   0.630   9.060  0.0373 -0.0878 -0.6225
 1689SOL    HW116529   0.674   0.725   9.063  1.0155 -0.0515 -0.3466
 1689SOL    HW216530   0.767   0.619   9.095  0.6002  2.7892 -1.1916
 1690SOL     OW16531   2.982   0.790   4.739 -0.0424 -0.3393  0.4437
 1690SOL    HW116532   2.922   0.719   4.759  0.9343 -1.3547 -0.2264
 1690SOL    HW216533   2.921   0.863   4.729 -0.5219 -0.7901  0.1273
 1691SOL     OW16534   2.360   2.325  10.800  0.2836  0.3073 -0.0344
 1691SOL    HW116535   2.392   2.326  10.710  3.4994 -3.4575  1.0905
 1691SOL    HW216536   2.271   2.293  10.790  0.6080 -0.0258 -1.8424
 1692SOL     OW16537   3.838   0.842   9.789  0.9970  0.1341 -0.2666
 1692SOL    HW116538   3.909   0.797   9.745  1.1924 -0.6327  0.8438
 1692SOL    HW216539   3.777   0.837   9.715 -0.2159 -0.0881  0.7498
 1693SOL     OW16540   3.707   2.306  17.642 -0.2899 -0.2471  0.1768
 1693SOL    HW116541   3.707   2.397  17.674  0.4781  0.4119 -1.6590
 1693SOL    HW216542   3.705   2.324  17.548 -1.1261  1.3087  0.4883
 1694SOL     OW16543   2.229   3.303   2.660  0.3368 -0.2295  0.6607
 1694SOL    HW116544   2.310   3.351   2.680 -0.4118  1.5452 -0.6081
 1694SOL    HW216545   2.155   3.359   2.682  0.0250 -0.7564  0.9438
 1695SOL     OW16546   3.598   3.289   1.568 -0.2818 -0.4387 -0.9242
 1695SOL    HW116547   3.637   3.206   1.593  0.1962 -0.2174 -0.9512
 1695SOL    HW216548   3.532   3.292   1.638  1.4522  0.8476  0.6397
 1696SOL     OW16549   2.368   3.350   4.956  0.4280  0.7155 -0.1411
 1696SOL    HW116550   2.420   3.277   4.922 -0.0172  0.8419 -1.0674
 1696SOL    HW216551   2.419   3.383   5.030  1.6036 -1.3205 -0.0328
 1697SOL     OW16552   0.856   3.948   5.381 -0.0385  0.2376  0.5269
 1697SOL    HW116553   0.847   4.022   5.441  3.7789 -0.3776  1.8672
 1697SOL    HW216554   0.806   3.876   5.419  0.5179 -1.0849 -1.2615
 1698SOL     OW16555   3.379   2.286   7.301 -0.0094  0.3329 -0.2909
 1698SOL    HW116556   3.383   2.357   7.237 -0.6234  0.3916 -0.2646
 1698SOL    HW216557   3.312   2.227   7.266  0.1019  0.7150 -1.1393
 1699SOL     OW16558   3.945   3.882   3.348  0.6651 -0.2561  1.1299
 1699SOL    HW116559   3.881   3.837   3.403 -1.9347  0.6804 -1.1115
 1699SOL    HW216560   3.903   3.968   3.354 -0.3893 -0.5887 -1.8286
 1700SOL     OW16561   4.635   0.368   1.496 -0.0917  0.2389  0.6119
 1700SOL    HW116562   4.664   0.341   1.583  1.6857 -1.9148 -0.6631
 1700SOL    HW216563   4.664   0.289   1.451  2.0413  1.3479  0.0491
 1701SOL     OW16564   2.344   1.229   9.412  0.3433 -0.2255  0.5256
 1701SOL    HW116565   2.291   1.301   9.378 -0.4323 -0.5255  1.1099
 1701SOL    HW216566   2.332   1.242   9.506  2.2100  1.3346  0.5625
 1702SOL     OW16567   4.216   4.426   5.320  0.2524  0.2282  0.0265
 1702SOL    HW116568   4.201   4.334   5.344 -1.2380  0.5073  0.2116
 1702SOL    HW216569   4.142   4.450   5.264 -0.8509  3.8457  3.0073
 1703SOL     OW16570   4.506   0.216   0.660  0.1837 -0.3096  0.0260
 1703SOL    HW116571   4.486   0.151   0.728  2.5730 -1.3516 -0.2530
 1703SOL    HW216572   4.453   0.290   0.689  0.7783  0.1444 -0.0565
 1704SOL     OW16573   0.285   2.344   7.775 -0.1133 -0.2643 -0.4842
 1704SOL    HW116574   0.241   2.285   7.837 -2.0975  1.8701  0.1641
 1704SOL    HW216575   0.334   2.406   7.830  0.0162 -1.6086  0.9234
 1705SOL     OW16576   2.095   1.751   8.789  0.3011  0.5596 -0.5337
 1705SOL    HW116577   2.149   1.829   8.777  1.6606 -0.6685 -2.4499
 1705SOL    HW216578   2.006   1.783   8.805 -0.4913 -3.0727  2.2294
 1706SOL     OW16579   2.659   4.717   6.638 -0.4835  0.0102 -0.4325
 1706SOL    HW116580   2.752   4.692   6.638 -0.8685 -1.4626 -3.0132
 1706SOL    HW216581   2.624   4.628   6.640  1.7339 -0.8718 -0.9205
 1707SOL     OW16582   0.069   2.056   3.248  0.2525  0.3914 -0.3561
 1707SOL    HW116583   0.020   2.090   3.174  1.1341 -1.0870 -1.6274
 1707SOL    HW216584   0.018   1.979   3.275 -1.6058  1.3828 -1.0550
 1708SOL     OW16585   2.825   1.522   5.198  0.1905 -0.1252  0.0854
 1708SOL    HW116586   2.759   1.459   5.166 -0.3715 -0.0079  1.0033
 1708SOL    HW216587   2.802   1.607   5.161  0.5387 -0.4997 -0.9998
 1709SOL     OW16588   4.516   2.194   4.764  0.1147  0.0625 -0.0883
 1709SOL    HW116589   4.426   2.176   4.794 -0.1406 -0.1472 -0.9858
 1709SOL    HW216590   4.518   2.128   4.695 -1.3453  1.0376 -1.0657
 1710SOL     OW16591   1.186   1.850   3.806  0.7758  0.3256 -0.4038
 1710SOL    HW116592   1.198   1.772   3.752  2.1369 -1.9566  3.1861
 1710SOL    HW216593   1.126   1.815   3.872  1.3129  0.1350 -0.0073
 1711SOL     OW16594   0.980   3.137   5.249  0.0742 -0.0040  0.2518
 1711SOL    HW116595   1.074   3.120   5.241 -0.0510 -0.5133 -0.1553
 1711SOL    HW216596   0.952   3.073   5.315  2.5728 -1.5207 -0.1450
 1712SOL     OW16597   4.386   3.448  14.272 -0.2232  0.1098 -0.2768
 1712SOL    HW116598   4.387   3.423  14.365 -2.5469  1.0759  0.0074
 1712SOL    HW216599   4.326   3.521  14.264  0.9543  1.0253 -0.6824
 1713SOL     OW16600   3.028   0.116  12.068  0.0972 -0.0045 -0.5404
 1713SOL    HW116601   3.103   0.150  12.117 -0.4216  0.6948 -0.2226
 1713SOL    HW216602   2.979   0.082  12.142 -0.8622  0.9390 -0.7465
 1714SOL     OW16603   3.047   4.270   4.349 -0.1905 -0.0299  0.3045
 1714SOL    HW116604   3.118   4.294   4.290  0.6711 -1.5966  0.7134
 1714SOL    HW216605   3.051   4.330   4.423  2.9773 -0.3929  0.4305
 1715SOL     OW16606   0.859   2.321   8.161  0.1945  0.2295 -0.4313
 1715SOL    HW116607   0.816   2.244   8.197  1.5772 -0.4012 -0.1294
 1715SOL    HW216608   0.810   2.390   8.207 -1.7736 -0.3892 -1.5978
 1716SOL     OW16609   3.830   3.580   8.486 -0.2196  0.1251 -0.2022
 1716SOL    HW116610   3.925   3.591   8.486  0.1356 -2.7774  0.2570
 1716SOL    HW216611   3.816   3.672   8.466 -3.2033 -0.8586 -2.5156
 1717SOL     OW16612   2.314   0.515   7.407 -0.5019 -0.3399  0.3078
 1717SOL    HW116613   2.324   0.587   7.345  1.8463 -0.2994  0.7562
 1717SOL    HW216614   2.228   0.478   7.383 -1.2215  0.9610  0.8735
 1718SOL     OW16615   3.091   3.301  16.182 -0.2552  0.9136 -0.0534
 1718SOL    HW116616   3.124   3.314  16.093 -2.2498 -1.0490 -1.0857
 1718SOL    HW216617   3.057   3.390  16.194  1.2871  1.4452  0.4015
 1719SOL     OW16618   1.202   2.789   0.328 -0.0987 -0.2869 -0.4995
 1719SOL    HW116619   1.117   2.825   0.305 -1.3930 -1.4585  2.4539
 1719SOL    HW216620   1.179   2.739   0.407  0.4980  1.3197  0.6888
 1720SOL     OW16621   1.013   3.443   9.680  0.1464  0.0052  0.1935
 1720SOL    HW116622   0.971   3.520   9.640  0.2639 -1.0198 -1.9106
 1720SOL    HW216623   1.041   3.490   9.759 -1.5546  3.0224 -0.9797
 1721SOL     OW16624   1.192   3.008   9.948 -0.5811  0.2185 -0.1966
 1721SOL    HW116625   1.136   3.079   9.916  1.3394  1.1200 -1.5319
 1721SOL    HW216626   1.131   2.934   9.945  0.6885 -0.6796 -3.3538
 1722SOL     OW16627   1.070   1.240   1.921 -0.0728 -0.0843  0.0098
 1722SOL    HW116628   1.007   1.171   1.902 -2.3328  2.3639 -1.3809
 1722SOL    HW216629   1.154   1.198   1.902  0.0210  0.2886 -0.4064
 1723SOL     OW16630   3.160   0.414  11.256  0.7535 -0.1274 -0.6224
 1723SOL    HW116631   3.074   0.429  11.216  1.0532 -0.7230 -1.5029
 1723SOL    HW216632   3.165   0.322  11.282 -0.7090 -0.7799 -2.5831
 1724SOL     OW16633   0.440   4.415  13.429  0.1253  0.7384  0.2548
 1724SOL    HW116634   0.452   4.454  13.516  1.5985 -2.5187  1.5392
 1724SOL    HW216635   0.346   4.411  13.413  0.3475 -0.9617 -0.7140
 1725SOL     OW16636   1.486   3.819   4.608 -0.1533  0.1976 -0.5174
 1725SOL    HW116637   1.512   3.909   4.624 -0.2153  0.1227  0.0102
 1725SOL    HW216638   1.498   3.824   4.513 -0.3206  0.8883 -0.5008
 1726SOL     OW16639   4.269   1.334   3.269  0.0964  0.1066 -1.1465
 1726SOL    HW116640   4.304   1.274   3.334  1.8625  1.5545 -0.7634
 1726SOL    HW216641   4.346   1.388   3.251  2.1971 -2.3999  0.5468
 1727SOL     OW16642   0.108   1.006  12.306 -0.6176 -0.5278 -0.4641
 1727SOL    HW116643   0.080   1.043  12.222 -3.2212  1.8781  1.4611
 1727SOL    HW216644   0.191   0.969  12.277  0.4184 -0.2554  2.1632
 1728SOL     OW16645   0.528   2.926   8.052 -0.1394  0.5849 -0.2968
 1728SOL    HW116646   0.434   2.942   8.060 -0.0904 -0.0804  1.4320
 1728SOL    HW216647   0.553   3.012   8.017 -1.9939  0.8421 -0.9828
 1729SOL     OW16648   0.440   1.894   5.959  0.1344 -0.1286 -0.2627
 1729SOL    HW116649   0.398   1.951   6.024  1.5309  0.5751  0.0203
 1729SOL    HW216650   0.385   1.816   5.966 -2.3994  1.5863 -0.9429
 1730SOL     OW16651   2.030   1.205   7.687 -0.0372 -0.3428 -1.1848
 1730SOL    HW116652   2.095   1.138   7.665  2.0812  0.6861  2.0918
 1730SOL    HW216653   1.998   1.225   7.599 -3.3834 -0.4921 -0.0102
 1731SOL     OW16654   0.811   3.850   9.032 -0.0540  0.2850  0.1927
 1731SOL    HW116655   0.846   3.767   9.063 -0.2128  1.0213  2.3846
 1731SOL    HW216656   0.729   3.851   9.082  0.0603  0.2493  0.3803
 1732SOL     OW16657   3.552   1.442   4.033  0.1867  0.1932 -0.0564
 1732SOL    HW116658   3.532   1.526   4.073 -1.4989 -1.1734  1.9951
 1732SOL    HW216659   3.648   1.443   4.037  0.1777  2.2666 -0.7112
 1733SOL     OW16660   2.239   0.850   2.439  0.6282  0.3137  0.5129
 1733SOL    HW116661   2.322   0.830   2.397  0.2783  0.5620 -0.2993
 1733SOL    HW216662   2.192   0.767   2.445 -1.9633  1.9033  2.2177
 1734SOL     OW16663   2.491   0.760   3.128 -0.6353 -0.1305 -0.7509
 1734SOL    HW116664   2.491   0.852   3.155 -2.4268  0.4116 -2.5815
 1734SOL    HW216665   2.399   0.746   3.104 -1.1160  0.0833  0.9508
 1735SOL     OW16666   1.834   3.298  14.071 -0.1273 -0.0604  0.2614
 1735SOL    HW116667   1.744   3.276  14.049  0.2923 -1.3020 -0.2649
 1735SOL    HW216668   1.823   3.378  14.122  2.2188  1.0947 -1.0479
 1736SOL     OW16669   1.645   0.510   1.054  0.5269  0.3274 -0.1429
 1736SOL    HW116670   1.647   0.598   1.017  0.8937 -0.0158 -0.9367
 1736SOL    HW216671   1.628   0.456   0.977 -0.5407 -0.4187  0.6155
 1737SOL     OW16672   1.245   2.260  13.816 -0.3121  0.6015  0.5610
 1737SOL    HW116673   1.303   2.206  13.762  0.5927  1.7154  0.4215
 1737SOL    HW216674   1.317   2.284  13.874  0.2540  0.1337  0.0597
 1738SOL     OW16675   0.601   0.308   1.324 -0.4653 -0.1978  0.1207
 1738SOL    HW116676   0.570   0.394   1.299  0.1552  0.2979  1.0465
 1738SOL    HW216677   0.614   0.304   1.419 -1.4998  0.2072  0.2695
 1739SOL     OW16678   2.871   3.247  15.908  0.1732 -0.1491  0.0560
 1739SOL    HW116679   2.904   3.195  15.834 -1.7106  0.9593 -1.5620
 1739SOL    HW216680   2.949   3.302  15.921 -2.6457  4.1019 -1.0768
 1740SOL     OW16681   2.758   3.611   7.037 -0.4192  0.0289  0.8468
 1740SOL    HW116682   2.852   3.591   7.034 -0.8324 -2.0761  1.8619
 1740SOL    HW216683   2.715   3.559   6.969  0.2851  3.0360 -1.9007
 1741SOL     OW16684   0.432   1.532   9.824 -0.0722 -0.6129 -0.0935
 1741SOL    HW116685   0.490   1.476   9.877 -0.5597 -0.4329  0.6385
 1741SOL    HW216686   0.489   1.609   9.824 -1.2938  0.2903  1.8147
 1742SOL     OW16687   3.291   4.532   8.569  0.1238  0.1278 -0.0953
 1742SOL    HW116688   3.305   4.509   8.661 -0.8493 -0.0862 -0.0070
 1742SOL    HW216689   3.209   4.487   8.551  1.1054 -0.9396 -1.9738
 1743SOL     OW16690   0.757   0.149  16.222  0.0486 -0.0450  0.3150
 1743SOL    HW116691   0.715   0.121  16.141 -1.6530 -0.1362  1.2205
 1743SOL    HW216692   0.681   0.182  16.271 -2.7209 -2.4297 -2.4024
 1744SOL     OW16693   4.266   2.507   8.381 -0.0311 -0.5980 -0.0310
 1744SOL    HW116694   4.312   2.425   8.401 -2.2041 -1.4695  1.3049
 1744SOL    HW216695   4.213   2.525   8.458 -2.5563 -0.2647 -1.8749
 1745SOL     OW16696   2.134   0.378   7.242  0.1121  0.3313  0.8549
 1745SOL    HW116697   2.039   0.370   7.246  0.1807 -1.8564 -1.8557
 1745SOL    HW216698   2.146   0.405   7.151 -2.0073  2.7750  1.2879
 1746SOL     OW16699   3.849   4.411   2.509  0.1334 -0.2713 -0.7290
 1746SOL    HW116700   3.788   4.344   2.478 -0.9857  0.4070 -0.0128
 1746SOL    HW216701   3.784   4.474   2.542 -0.9166 -1.6490 -0.1378
 1747SOL     OW16702   0.419   2.365   6.988 -0.1510 -0.1181  0.6640
 1747SOL    HW116703   0.498   2.413   7.012  0.2632 -0.0911 -0.7661
 1747SOL    HW216704   0.427   2.287   7.044  2.0814  0.1991  0.7987
 1748SOL     OW16705   4.127   2.829  10.345 -0.3262 -0.1432 -0.0381
 1748SOL    HW116706   4.085   2.872  10.419 -1.4428 -2.8091  0.8947
 1748SOL    HW216707   4.200   2.889  10.333 -0.3014 -0.1428  0.1179
 1749SOL     OW16708   2.157   1.565  16.648 -0.0932 -0.1275 -0.0203
 1749SOL    HW116709   2.196   1.484  16.616 -0.1565 -1.4116  3.1283
 1749SOL    HW216710   2.128   1.607  16.567  1.0468 -1.1266 -0.9485
 1750SOL     OW16711   2.923   0.860   1.075 -0.8172  0.2520  0.1581
 1750SOL    HW116712   2.943   0.791   1.012  0.5037  2.0885 -1.4495
 1750SOL    HW216713   2.841   0.820   1.105 -0.8702 -0.0889 -0.4507
 1751SOL     OW16714   0.621   0.122   0.274 -0.1302  0.5323  0.1751
 1751SOL    HW116715   0.641   0.146   0.183  0.3945 -1.1660 -0.1509
 1751SOL    HW216716   0.541   0.073   0.258  0.4610 -1.3063  2.8596
 1752SOL     OW16717   2.612   3.759   7.219 -0.0250 -0.5151  0.7880
 1752SOL    HW116718   2.575   3.838   7.180  0.6385 -0.4750  0.2516
 1752SOL    HW216719   2.675   3.722   7.157  1.0099  0.0430  1.5012
 1753SOL     OW16720   2.688   3.667   6.125  0.3239 -0.4135 -0.1528
 1753SOL    HW116721   2.673   3.693   6.034 -1.1635  0.0894  0.2309
 1753SOL    HW216722   2.648   3.580   6.130 -2.1328  0.7871  1.1817
 1754SOL     OW16723   1.798   0.278   7.935 -0.1577 -0.0042 -0.4302
 1754SOL    HW116724   1.752   0.361   7.922  0.9358  0.4794 -1.2198
 1754SOL    HW216725   1.776   0.251   8.024 -2.7969  0.0859 -1.0481
 1755SOL     OW16726   1.805   2.091  14.284  0.1251  0.3549  0.5342
 1755SOL    HW116727   1.777   2.158  14.348  0.2246  1.2430 -0.3586
 1755SOL    HW216728   1.805   2.017  14.346  1.4616  0.4643  0.6644
 1756SOL     OW16729   2.130   1.202   3.114 -0.3032 -0.2570 -0.2171
 1756SOL    HW116730   2.048   1.182   3.160 -0.9816 -1.6514 -2.0656
 1756SOL    HW216731   2.109   1.212   3.022 -1.7431 -0.7189  0.0553
 1757SOL     OW16732   2.397   0.466   7.025 -0.5591  0.2235  0.0192
 1757SOL    HW116733   2.399   0.400   6.956  1.5595  0.0153  0.2882
 1757SOL    HW216734   2.441   0.419   7.095  1.5528 -0.2815 -1.6350
 1758SOL     OW16735   2.821   1.206   4.630 -0.2022 -0.3548 -0.5797
 1758SOL    HW116736   2.849   1.246   4.712  1.2655 -0.5125 -1.0101
 1758SOL    HW216737   2.898   1.156   4.604 -0.9967 -2.7934  1.7033
 1759SOL     OW16738   1.760   2.757  16.549  0.2668  0.4984 -0.3944
 1759SOL    HW116739   1.703   2.682  16.566 -0.2949  1.3257  1.3614
 1759SOL    HW216740   1.722   2.827  16.601  0.6456 -0.1082  0.6825
 1760SOL     OW16741   1.227   1.035   4.615 -0.4155  0.0291  0.0729
 1760SOL    HW116742   1.173   1.110   4.591 -2.1625 -0.4626  2.4411
 1760SOL    HW216743   1.155   0.975   4.636  1.6695 -2.3299  0.4909
 1761SOL     OW16744   2.781   4.169   2.515  0.2414 -0.2230 -0.0545
 1761SOL    HW116745   2.802   4.099   2.578 -0.0255  1.3595  1.7888
 1761SOL    HW216746   2.692   4.144   2.491  1.2435 -2.3145 -1.5921
 1762SOL     OW16747   1.970   0.638   7.862  0.1009  0.3823  0.9722
 1762SOL    HW116748   1.878   0.623   7.883 -0.1581 -0.6658 -0.8408
 1762SOL    HW216749   2.001   0.636   7.952 -0.8155 -1.3325  1.2414
 1763SOL     OW16750   4.005   1.017  12.977  0.3058  0.3437 -0.2651
 1763SOL    HW116751   4.086   1.044  12.933 -0.5575  1.3704 -1.2402
 1763SOL    HW216752   3.957   0.974  12.906  0.2416  1.8732 -1.1575
 1764SOL     OW16753   3.905   3.846   4.670  0.5049  0.6472  0.2684
 1764SOL    HW116754   3.878   3.914   4.732  0.2646  1.0736 -0.3064
 1764SOL    HW216755   3.824   3.801   4.643  1.3116 -0.3646 -0.4362
 1765SOL     OW16756   1.335   3.065  13.290  1.1603  0.5033 -0.1009
 1765SOL    HW116757   1.260   3.116  13.262  1.1097  1.2824  1.4485
 1765SOL    HW216758   1.334   3.080  13.384  0.4630  0.7183 -0.1479
 1766SOL     OW16759   3.064   4.714   9.509 -0.1927 -0.2304  0.2664
 1766SOL    HW116760   3.078   4.631   9.463 -2.2719  0.2907 -1.3357
 1766SOL    HW216761   3.080   4.689   9.600 -2.9568  1.8679  1.3623
 1767SOL     OW16762   2.026   2.471   4.056 -0.9314  0.7536  0.2620
 1767SOL    HW116763   2.012   2.520   3.975 -1.1994 -0.8282 -0.6548
 1767SOL    HW216764   2.002   2.533   4.125 -1.3589  2.5075 -1.4639
 1768SOL     OW16765   3.205   0.546   3.822 -0.2910 -0.7963 -0.0266
 1768SOL    HW116766   3.154   0.466   3.832 -2.5980  0.7220  0.3857
 1768SOL    HW216767   3.294   0.516   3.839 -0.0549 -0.3121 -0.4001
 1769SOL     OW16768   3.798   3.215   5.756 -0.4457  0.3610  0.0728
 1769SOL    HW116769   3.889   3.194   5.775 -0.1264  2.4013  0.8443
 1769SOL    HW216770   3.780   3.295   5.806 -0.4930  1.1659 -1.2487
 1770SOL     OW16771   1.817   2.367  13.954 -0.5581 -0.4405 -0.0433
 1770SOL    HW116772   1.784   2.279  13.973 -0.5348 -0.9282 -2.2097
 1770SOL    HW216773   1.759   2.426  14.001 -0.3681  0.6236 -1.1378
 1771SOL     OW16774   1.474   3.387  13.527  0.1431 -0.8045  0.4019
 1771SOL    HW116775   1.552   3.351  13.570  1.2946  4.2707  2.6072
 1771SOL    HW216776   1.426   3.402  13.608  0.2052  1.8510 -0.0446
 1772SOL     OW16777   4.000   1.438   5.549  0.1655  0.0898  0.0581
 1772SOL    HW116778   4.091   1.467   5.546 -0.2616  1.3708 -0.2973
 1772SOL    HW216779   4.001   1.403   5.459 -0.6027  0.2039  0.0057
 1773SOL     OW16780   3.284   3.367   5.581  0.6667  0.1046  0.0829
 1773SOL    HW116781   3.265   3.436   5.645  0.3701  2.2478 -2.3000
 1773SOL    HW216782   3.314   3.294   5.635 -1.9573 -1.8871 -1.1784
 1774SOL     OW16783   3.149   0.027   4.774 -0.5231  0.4741 -0.2858
 1774SOL    HW116784   3.057   0.013   4.754  0.1768 -1.1406 -2.3019
 1774SOL    HW216785   3.170   0.084   4.700 -0.4011 -1.5017 -1.7644
 1775SOL     OW16786   0.028   1.959   2.856  0.0501 -0.0964 -0.5961
 1775SOL    HW116787   4.710   2.024   2.913  3.2677 -0.5910  2.2222
 1775SOL    HW216788   4.709   1.882   2.896  2.1946  0.0726  1.8898
 1776SOL     OW16789   1.548   4.637  15.005 -0.8153  0.3939  0.5617
 1776SOL    HW116790   1.600   4.645  15.084 -1.7763 -2.2546  1.4562
 1776SOL    HW216791   1.613   4.586  14.957 -0.7341  2.3651 -1.4491
 1777SOL     OW16792   0.498   3.875  12.317 -0.2220  0.0334  0.0831
 1777SOL    HW116793   0.440   3.951  12.327  0.7956  0.5490  2.0634
 1777SOL    HW216794   0.444   3.817  12.263 -0.0437  0.1563 -0.2305
 1778SOL     OW16795   0.894   2.068   1.708 -0.0408  0.0508 -0.1260
 1778SOL    HW116796   0.966   2.059   1.771  1.6932  0.3708 -2.0531
 1778SOL    HW216797   0.824   2.040   1.767  0.2851  0.3504  0.3958
 1779SOL     OW16798   4.041   2.384   8.304  0.1896  0.1818 -0.5994
 1779SOL    HW116799   3.978   2.422   8.243 -1.0904 -1.8162 -0.5395
 1779SOL    HW216800   4.113   2.444   8.320  1.7331 -1.4018 -1.6144
 1780SOL     OW16801   0.204   1.415  14.399 -0.7621  0.2674 -0.2284
 1780SOL    HW116802   0.235   1.401  14.309 -1.2632 -2.3184  0.0155
 1780SOL    HW216803   0.148   1.492  14.393  0.6401  1.4067  1.3785
 1781SOL     OW16804   1.376   2.855   0.595 -0.2899  0.4408 -0.3696
 1781SOL    HW116805   1.333   2.904   0.665  3.6867  0.8054  1.8497
 1781SOL    HW216806   1.422   2.933   0.565  1.1600 -0.7156 -1.1524
 1782SOL     OW16807   2.446   1.821   8.464  0.0829 -0.0457 -0.2496
 1782SOL    HW116808   2.415   1.822   8.555 -0.5730 -0.6772 -0.4700
 1782SOL    HW216809   2.472   1.729   8.456  0.7051  0.1187 -0.1198
 1783SOL     OW16810   3.511   3.027   3.728 -0.3236 -0.4943 -0.0461
 1783SOL    HW116811   3.471   3.087   3.790  0.3542  0.0641 -0.1459
 1783SOL    HW216812   3.587   2.995   3.777 -1.4046  0.5749  2.2835
 1784SOL     OW16813   1.717   0.531   4.473 -0.1988  0.1713  0.1599
 1784SOL    HW116814   1.641   0.555   4.420  0.3732  0.0322 -0.7127
 1784SOL    HW216815   1.701   0.586   4.550 -3.4436 -0.8897  0.2579
 1785SOL     OW16816   1.770   2.631  10.926  0.4631 -0.0648  0.1413
 1785SOL    HW116817   1.835   2.661  10.989 -0.3971  0.8392  0.6142
 1785SOL    HW216818   1.736   2.551  10.967 -0.6559 -0.0325 -0.7083
 1786SOL     OW16819   2.621   4.684   2.960  0.6059 -0.2190  0.2615
 1786SOL    HW116820   2.635   4.655   2.870 -2.2810 -1.2128  0.1234
 1786SOL    HW216821   2.701   4.712   3.005 -0.0959  0.8336  0.8655
 1787SOL     OW16822   0.581   1.701   8.363  0.2997  0.0061  0.3962
 1787SOL    HW116823   0.652   1.725   8.422 -0.7115  3.2085  0.2902
 1787SOL    HW216824   0.504   1.736   8.407 -0.2650  1.5402 -1.8412
 1788SOL     OW16825   1.260   1.243  10.314 -0.3016 -0.6060  0.1552
 1788SOL    HW116826   1.275   1.329  10.275 -2.4353 -0.8624 -1.2064
 1788SOL    HW216827   1.302   1.184  10.251 -0.4420  1.7368 -2.1354
 1789SOL     OW16828   2.232   4.612   5.881  0.0376 -0.1572  0.2222
 1789SOL    HW116829   2.245   4.703   5.906  1.2382 -0.2493 -0.0473
 1789SOL    HW216830   2.313   4.608   5.829  1.7903  1.0741  2.8290
 1790SOL     OW16831   2.579   1.644   6.362  0.5761 -0.4575 -0.0662
 1790SOL    HW116832   2.639   1.645   6.288  0.2211 -0.5415 -0.3561
 1790SOL    HW216833   2.589   1.556   6.398  2.2114 -0.2640 -0.0549
 1791SOL     OW16834   0.794   1.742   5.748  1.0575 -0.1134 -0.0657
 1791SOL    HW116835   0.852   1.740   5.824  0.6996  2.2485  0.2488
 1791SOL    HW216836   0.829   1.668   5.699  0.6447  1.0358 -2.0977
 1792SOL     OW16837   3.715   3.208  12.885 -0.2826  0.0952 -0.1885
 1792SOL    HW116838   3.669   3.235  12.965 -2.3749  0.3330 -1.4698
 1792SOL    HW216839   3.796   3.257  12.872  1.1445 -2.0134  0.6694
 1793SOL     OW16840   3.564   3.198  12.598 -0.0697 -0.2201 -0.3116
 1793SOL    HW116841   3.644   3.232  12.558  0.0460 -1.2969 -0.9999
 1793SOL    HW216842   3.500   3.239  12.539 -0.8794 -0.2051  0.5792
 1794SOL     OW16843   2.858   4.378   6.420  0.0017 -0.1746  0.1010
 1794SOL    HW116844   2.953   4.388   6.407 -0.2311  0.7550 -0.8654
 1794SOL    HW216845   2.862   4.339   6.507 -3.9256  0.2892  0.4528
 1795SOL     OW16846   0.116   4.220   5.448  0.3100  0.4043 -0.6280
 1795SOL    HW116847   0.163   4.241   5.529  2.5516  2.9456 -2.5933
 1795SOL    HW216848   0.051   4.157   5.481 -2.4609  3.0342 -1.0782
 1796SOL     OW16849   4.666   4.433   3.865  0.1881  0.0152  0.1735
 1796SOL    HW116850   4.696   4.513   3.822  0.0046  0.0596  0.1269
 1796SOL    HW216851   0.002   4.422   3.940  2.2157  2.8998 -0.9594
 1797SOL     OW16852   2.730   4.247   0.693 -0.5282  0.3127  0.1731
 1797SOL    HW116853   2.753   4.163   0.653 -1.7464  1.1016 -2.1497
 1797SOL    HW216854   2.635   4.241   0.684 -0.2097 -1.9326 -1.6137
 1798SOL     OW16855   3.325   1.082   5.644 -0.1118  0.0133  0.3404
 1798SOL    HW116856   3.330   1.174   5.618 -1.7342 -0.0047 -0.0427
 1798SOL    HW216857   3.414   1.057   5.620 -0.0968  0.2384  0.1585
 1799SOL     OW16858   2.572   2.973  10.534  0.3517 -0.3160  0.0912
 1799SOL    HW116859   2.575   2.995  10.627 -0.7314 -1.7679  0.4608
 1799SOL    HW216860   2.626   3.042  10.495  0.4731 -0.2949  0.2915
 1800SOL     OW16861   3.370   0.032   9.706 -0.4018 -0.1520  0.4588
 1800SOL    HW116862   3.409   4.669   9.722 -1.8087 -0.5955  1.4348
 1800SOL    HW216863   3.283   0.022   9.743  0.3251  0.2051  2.2602
 1801SOL     OW16864   3.800   1.799  16.080  0.2879 -0.2378  0.1215
 1801SOL    HW116865   3.747   1.727  16.046  2.5306 -0.9365 -1.9309
 1801SOL    HW216866   3.883   1.756  16.100  0.7243  0.9132  0.7881
 1802SOL     OW16867   0.895   2.172  15.305 -0.4632 -0.2678  0.3629
 1802SOL    HW116868   0.952   2.097  15.291  0.1508 -0.0726  1.8338
 1802SOL    HW216869   0.953   2.227  15.252  0.0180 -1.6364 -0.5251
 1803SOL     OW16870   3.653   4.624   0.491 -0.1872  0.4595  0.4427
 1803SOL    HW116871   3.644   4.529   0.505 -0.3995  0.6176  1.3376
 1803SOL    HW216872   3.708   4.646   0.566 -0.9338  2.8396  0.2864
 1804SOL     OW16873   0.516   1.055  15.391 -0.2095  0.2317  0.0149
 1804SOL    HW116874   0.445   1.117  15.372 -1.4341 -0.2879  2.9683
 1804SOL    HW216875   0.551   1.042  15.303  3.0913 -0.5143  1.4538
 1805SOL     OW16876   4.102   1.554   6.334  0.7200 -0.1789 -0.0252
 1805SOL    HW116877   4.191   1.582   6.356  0.6066 -0.9448  1.4187
 1805SOL    HW216878   4.097   1.577   6.241  0.2635  0.3871  0.1358
 1806SOL     OW16879   1.790   4.683   2.512 -0.3893  0.2573 -0.0351
 1806SOL    HW116880   1.770   0.005   2.595  0.7133 -2.7101  1.7761
 1806SOL    HW216881   1.748   0.021   2.450  2.6576 -1.4165 -3.7100
 1807SOL     OW16882   0.842   4.157  14.048 -0.4040  0.3574 -0.0552
 1807SOL    HW116883   0.766   4.151  14.106 -0.8394  0.7192 -0.5908
 1807SOL    HW216884   0.811   4.149  13.957  0.0857  1.6948 -0.3339
 1808SOL     OW16885   0.296   1.900   7.695 -0.3812  0.1719 -0.2596
 1808SOL    HW116886   0.254   1.819   7.723 -2.3743  0.4006 -2.5824
 1808SOL    HW216887   0.279   1.958   7.769  0.7495  2.3725 -1.7206
 1809SOL     OW16888   3.080   3.131   3.260  0.3702  0.5492  0.4774
 1809SOL    HW116889   3.173   3.107   3.264 -0.1685 -1.5164  0.3126
 1809SOL    HW216890   3.048   3.140   3.349  0.7819 -2.3123  0.9100
 1810SOL     OW16891   2.518   4.550   0.411  0.1693  0.0964  0.0457
 1810SOL    HW116892   2.509   4.633   0.364  1.0023 -0.5435 -1.2570
 1810SOL    HW216893   2.593   4.511   0.365 -0.2277 -1.4819  0.7408
 1811SOL     OW16894   2.565   4.119  15.639  0.0249 -0.7071 -0.2220
 1811SOL    HW116895   2.571   4.042  15.582 -1.0164 -1.0874  0.1715
 1811SOL    HW216896   2.531   4.087  15.723  0.2864  1.5227  0.7312
 1812SOL     OW16897   2.602   0.601   5.511  0.2059 -0.1419  0.2301
 1812SOL    HW116898   2.625   0.661   5.440  0.6982 -0.6488 -0.0296
 1812SOL    HW216899   2.656   0.523   5.501 -0.3039 -0.3601 -0.8515
 1813SOL     OW16900   0.843   3.647  15.245 -0.1591  0.6678 -0.3477
 1813SOL    HW116901   0.765   3.680  15.199 -0.8385 -2.4693 -1.4039
 1813SOL    HW216902   0.878   3.575  15.193  0.7560  0.1589  0.9844
 1814SOL     OW16903   0.099   0.681   1.601 -0.5023 -0.1322 -0.6725
 1814SOL    HW116904   0.181   0.635   1.621  0.7825  1.6269 -1.8800
 1814SOL    HW216905   0.053   0.608   1.560 -0.0273 -0.3389 -0.8307
 1815SOL     OW16906   0.449   3.031   2.838  0.2106 -0.3821 -0.8099
 1815SOL    HW116907   0.401   3.026   2.755  0.2604  1.3632 -0.9570
 1815SOL    HW216908   0.476   3.123   2.835 -0.5135 -0.1074  1.2088
 1816SOL     OW16909   3.724   0.715   8.901  0.7552 -0.0356  0.1057
 1816SOL    HW116910   3.727   0.809   8.883  0.9269  0.0570  0.6287
 1816SOL    HW216911   3.629   0.709   8.906  0.7348 -0.9652 -1.3709
 1817SOL     OW16912   3.241   2.786  16.183  0.0916 -0.3587  0.0081
 1817SOL    HW116913   3.310   2.767  16.119  1.1328  1.2212  0.6400
 1817SOL    HW216914   3.196   2.855  16.134 -1.8431 -0.1228  2.1574
 1818SOL     OW16915   0.054   3.938  13.702 -0.5760 -0.3819 -0.0250
 1818SOL    HW116916   0.089   3.854  13.670 -3.1295 -1.1078 -0.9506
 1818SOL    HW216917   0.063   3.929  13.797 -0.1152  0.5605  0.0156
 1819SOL     OW16918   2.522   3.159   2.889  0.0091  0.0015  0.7965
 1819SOL    HW116919   2.504   3.067   2.872 -0.8218  0.4791 -0.9597
 1819SOL    HW216920   2.458   3.184   2.956 -0.5728  0.2005  0.1594
 1820SOL     OW16921   2.433   4.376   5.656  0.0974  0.0158 -0.7523
 1820SOL    HW116922   2.476   4.433   5.719  0.9588 -1.3189 -0.1318
 1820SOL    HW216923   2.435   4.297   5.711 -3.1424  1.5220  1.5441
 1821SOL     OW16924   4.337   2.476  10.969  0.5318 -0.9753  0.7626
 1821SOL    HW116925   4.402   2.445  11.032 -0.4088  1.7787  3.0858
 1821SOL    HW216926   4.382   2.472  10.885  0.4625 -0.5315  0.7060
 1822SOL     OW16927   1.018   0.455   8.981  0.7278  0.4656 -0.3621
 1822SOL    HW116928   1.072   0.530   9.007  0.1157  0.9325 -0.4372
 1822SOL    HW216929   1.023   0.458   8.885 -0.0368  1.9532 -0.3575
 1823SOL     OW16930   2.896   4.604   7.236 -0.0404  0.1123 -0.0063
 1823SOL    HW116931   2.852   4.590   7.152 -1.5841 -0.2735  0.8620
 1823SOL    HW216932   2.825   4.587   7.298 -1.6507 -1.5444 -2.3335
 1824SOL     OW16933   0.771   1.708  17.496  0.4894 -0.2757 -0.0463
 1824SOL    HW116934   0.696   1.757  17.530  0.8176 -0.1124  0.4487
 1824SOL    HW216935   0.808   1.676  17.579  2.9507  1.4705 -0.4409
 1825SOL     OW16936   4.322   0.881   8.663  0.2242  0.1982  0.1763
 1825SOL    HW116937   4.275   0.799   8.677  2.3058 -0.7326  1.6898
 1825SOL    HW216938   4.340   0.912   8.752 -1.1027  3.0040 -0.5201
 1826SOL     OW16939   0.138   0.130   6.990 -0.4947  0.3824  0.0361
 1826SOL    HW116940   0.087   0.157   6.913 -0.2161 -1.5026 -0.8148
 1826SOL    HW216941   0.231   0.145   6.971 -0.5976  0.5245 -0.3639
 1827SOL     OW16942   2.462   4.153  15.277 -0.0263 -0.3570  0.3047
 1827SOL    HW116943   2.540   4.172  15.224 -1.1784  0.4060 -1.0964
 1827SOL    HW216944   2.416   4.237  15.278  1.7009  0.6124 -1.3677
 1828SOL     OW16945   3.701   1.065  11.939 -0.4692  0.5314 -0.4231
 1828SOL    HW116946   3.629   1.120  11.908 -2.2418 -1.5172  0.0922
 1828SOL    HW216947   3.772   1.129  11.928 -0.4558  0.3448 -1.4391
 1829SOL     OW16948   2.831   0.945   2.870  0.4889  0.5785  0.0401
 1829SOL    HW116949   2.848   0.861   2.826 -1.5809 -0.6531  1.6291
 1829SOL    HW216950   2.915   0.991   2.864  0.1560  1.0808 -0.9406
 1830SOL     OW16951   1.803   2.136   5.789  0.2999 -0.1015 -0.7799
 1830SOL    HW116952   1.887   2.170   5.821 -0.6957  0.7931  0.9006
 1830SOL    HW216953   1.820   2.045   5.812  0.0113  0.0158 -0.0936
 1831SOL     OW16954   3.275   3.680   4.086 -0.5710  0.3319  0.4660
 1831SOL    HW116955   3.332   3.678   4.009  3.3130 -0.6446  3.3567
 1831SOL    HW216956   3.340   3.699   4.154  1.3752 -0.4014 -1.1867
 1832SOL     OW16957   0.081   3.059   7.580 -0.1821  0.4671 -0.1987
 1832SOL    HW116958   0.104   3.126   7.645  0.3489 -0.4072  0.5151
 1832SOL    HW216959   0.019   3.111   7.528 -2.1221 -1.3362  0.3370
 1833SOL     OW16960   4.368   0.838   0.092  0.2253 -0.0071  0.4561
 1833SOL    HW116961   4.458   0.841   0.125 -0.0182 -1.8837  1.2774
 1833SOL    HW216962   4.383   0.866   0.002  1.5993  2.6149  1.5166
 1834SOL     OW16963   3.648   4.188   4.995  0.0500  0.4813  0.6945
 1834SOL    HW116964   3.571   4.244   4.998  0.0036  0.5157 -1.1518
 1834SOL    HW216965   3.715   4.255   4.982 -0.1731  0.5621 -0.0472
 1835SOL     OW16966   3.011   4.345   7.869  0.2336  0.0980  0.2733
 1835SOL    HW116967   3.106   4.354   7.871  0.0656  2.4346 -1.8905
 1835SOL    HW216968   3.005   4.312   7.780 -0.1270 -1.7859  0.9941
 1836SOL     OW16969   3.679   3.620   3.352 -0.5550  0.6740  0.2239
 1836SOL    HW116970   3.709   3.536   3.386  0.2559  0.7800 -0.2350
 1836SOL    HW216971   3.699   3.615   3.259 -1.4901 -1.5829  0.1455
 1837SOL     OW16972   4.201   0.445   9.337  0.3380 -0.2583  1.0204
 1837SOL    HW116973   4.150   0.448   9.418 -0.2842 -1.3889  0.6646
 1837SOL    HW216974   4.283   0.408   9.369  1.4569  0.9846 -0.4378
 1838SOL     OW16975   1.653   0.203   5.854  0.1731  0.5435 -0.6242
 1838SOL    HW116976   1.584   0.164   5.908 -0.8907  0.7837 -1.7835
 1838SOL    HW216977   1.730   0.210   5.909 -0.3460  1.2269  0.0110
 1839SOL     OW16978   0.461   1.805  11.241  0.4158  0.1910 -0.4951
 1839SOL    HW116979   0.401   1.878  11.253  2.0233  0.9889  2.5452
 1839SOL    HW216980   0.490   1.821  11.151 -1.7382  0.5184 -1.1427
 1840SOL     OW16981   0.060   0.510   3.828  0.0424  0.6863  0.4745
 1840SOL    HW116982   4.686   0.510   3.834  0.0395  0.9154  0.4341
 1840SOL    HW216983   0.085   0.419   3.818  2.1752  1.5242 -1.9046
 1841SOL     OW16984   3.491   0.895   8.668 -0.4150 -0.0919 -0.5860
 1841SOL    HW116985   3.407   0.940   8.650 -1.0221 -0.9968  0.0341
 1841SOL    HW216986   3.496   0.836   8.593 -1.5776  1.3277 -1.8050
 1842SOL     OW16987   4.655   4.141   1.988 -0.1129  0.7552  0.0002
 1842SOL    HW116988   4.576   4.091   2.010  1.8743 -0.7549  3.8083
 1842SOL    HW216989   4.718   4.079   2.025  1.6852  1.7775 -1.4179
 1843SOL     OW16990   2.002   2.002   2.709 -0.2432  0.0005  0.1672
 1843SOL    HW116991   2.081   1.964   2.747 -0.0016 -0.2476 -0.5766
 1843SOL    HW216992   1.986   2.081   2.762 -0.5538 -0.3089  0.5291
 1844SOL     OW16993   2.275   1.811  12.039  0.2162 -0.0150 -0.1764
 1844SOL    HW116994   2.294   1.718  12.049 -0.6071 -0.1443  0.1880
 1844SOL    HW216995   2.180   1.816  12.027  0.2146  1.9960  0.5657
 1845SOL     OW16996   2.594   2.095   4.219  0.5383 -0.2122  0.4484
 1845SOL    HW116997   2.589   2.030   4.289 -0.8687 -1.1368 -0.5210
 1845SOL    HW216998   2.667   2.057   4.169  0.4201 -0.1267  0.2077
 1846SOL     OW16999   0.231   2.717  15.983  0.4743  0.5526 -0.0949
 1846SOL    HW117000   0.178   2.744  15.908  0.6894  1.4347  0.0737
 1846SOL    HW217001   0.303   2.676  15.936 -0.1229 -0.1291 -0.4135
 1847SOL     OW17002   2.926   2.104   7.522  0.1142  0.1241 -0.0639
 1847SOL    HW117003   2.842   2.128   7.561 -0.4026 -1.0027 -0.4791
 1847SOL    HW217004   2.977   2.183   7.505  0.6042 -0.2787 -0.5084
 1848SOL     OW17005   2.653   4.390  15.257  0.2474 -0.4131  0.1476
 1848SOL    HW117006   2.621   4.459  15.316 -0.7233  0.1341 -1.0296
 1848SOL    HW217007   2.623   4.428  15.174  0.1681 -0.5463  0.1160
 1849SOL     OW17008   0.991   0.047   2.491  0.3025 -0.2229  0.3644
 1849SOL    HW117009   0.946   0.016   2.570 -0.1254  0.4456  0.3788
 1849SOL    HW217010   0.925   0.089   2.435  0.8095 -0.7304 -0.6222
 1850SOL     OW17011   2.637   4.036   8.734 -0.1292  0.6922  0.0399
 1850SOL    HW117012   2.608   3.950   8.701  1.6859 -0.9503  2.7583
 1850SOL    HW217013   2.558   4.083   8.707  0.3741  0.4485 -1.8900
 1851SOL     OW17014   3.364   4.547  17.648 -0.1407 -0.1037 -0.1662
 1851SOL    HW117015   3.456   4.521  17.638  0.2049 -0.0106  2.6258
 1851SOL    HW217016   3.368   4.628   0.009 -0.2666 -0.2753  0.1181
 1852SOL     OW17017   2.463   1.805   0.788  0.1840  0.0524 -0.0101
 1852SOL    HW117018   2.438   1.888   0.748 -1.3852 -0.2972  0.2611
 1852SOL    HW217019   2.550   1.832   0.818  0.6046 -1.6945  0.3648
 1853SOL     OW17020   2.230   3.291  10.601  0.6527 -0.0896 -0.3907
 1853SOL    HW117021   2.266   3.353  10.665  2.2062 -0.1677 -1.1961
 1853SOL    HW217022   2.158   3.251  10.649  1.1041  1.1987  1.4079
 1854SOL     OW17023   4.120   4.482   7.094  0.4018 -0.0231 -0.4024
 1854SOL    HW117024   4.206   4.476   7.053  1.1895  1.6605  1.0128
 1854SOL    HW217025   4.079   4.566   7.073 -0.4475 -0.0025  1.3094
 1855SOL     OW17026   2.551   1.046  16.308 -0.3374  0.2092 -0.1385
 1855SOL    HW117027   2.573   1.133  16.276 -2.7205  0.1273 -2.0173
 1855SOL    HW217028   2.622   1.013  16.364 -0.0996  0.8347 -0.0722
 1856SOL     OW17029   0.198   0.049   4.033  0.3845 -0.0821 -0.2183
 1856SOL    HW117030   0.122   0.021   4.086  0.4856 -1.1548 -0.6309
 1856SOL    HW217031   0.206   0.142   4.051 -1.9627  0.1244 -0.2138
 1857SOL     OW17032   3.348   2.780   3.783  0.2749  0.2332  0.3742
 1857SOL    HW117033   3.315   2.742   3.864 -1.7178  0.5597 -0.2870
 1857SOL    HW217034   3.344   2.700   3.730 -1.6291  0.9631 -0.5703
 1858SOL     OW17035   2.082   3.440  13.482  0.1162  0.5890 -0.6168
 1858SOL    HW117036   2.164   3.427  13.530  0.5847  1.0332 -1.2836
 1858SOL    HW217037   2.117   3.478  13.401 -0.1740  0.4603 -0.8052
 1859SOL     OW17038   2.396   1.925   6.185 -0.5957  0.4190 -0.2997
 1859SOL    HW117039   2.373   1.958   6.098  0.8376  0.9529 -0.4641
 1859SOL    HW217040   2.487   1.948   6.199 -0.4540  0.2883 -0.9747
 1860SOL     OW17041   2.806   2.229  10.086  0.3169  0.5441 -0.6181
 1860SOL    HW117042   2.883   2.287  10.087 -1.2990  2.6506  0.7063
 1860SOL    HW217043   2.848   2.146  10.065  0.5463  0.8769 -1.5133
 1861SOL     OW17044   1.486   0.340  14.196  0.1756  0.0877  0.6606
 1861SOL    HW117045   1.408   0.329  14.141 -0.2163  2.0313  0.8353
 1861SOL    HW217046   1.460   0.294  14.276  0.3657 -2.1717 -0.5832
 1862SOL     OW17047   2.333   4.677   9.230  0.1500 -0.2885  0.4156
 1862SOL    HW117048   2.385   0.020   9.277  1.1244 -0.7621 -0.0052
 1862SOL    HW217049   2.367   4.695   9.143 -4.6062  0.2895 -1.3478
 1863SOL     OW17050   0.773   4.472   4.277 -0.2783 -0.4497  0.1724
 1863SOL    HW117051   0.836   4.519   4.331 -0.2010 -0.0736 -0.2411
 1863SOL    HW217052   0.818   4.389   4.259 -1.5468 -0.9700 -0.5849
 1864SOL     OW17053   2.014   1.744   1.991  0.4009  0.1883  0.1169
 1864SOL    HW117054   1.958   1.667   2.007 -0.6703  1.2379  1.3779
 1864SOL    HW217055   1.947   1.812   1.990 -1.1768 -1.2988  1.7536
 1865SOL     OW17056   0.461   0.545   5.027 -0.0681 -0.0099 -0.5200
 1865SOL    HW117057   0.454   0.638   5.050 -1.5156 -0.2916  0.1425
 1865SOL    HW217058   0.523   0.554   4.954 -0.7186 -2.4855 -1.3858
 1866SOL     OW17059   0.906   1.442   6.799 -0.2802  0.0419 -0.4876
 1866SOL    HW117060   0.989   1.465   6.758 -0.1645  1.1845  0.4046
 1866SOL    HW217061   0.897   1.525   6.845  0.5104  0.2048 -0.6315
 1867SOL     OW17062   1.454   0.112   6.005  0.2482  0.1946 -0.5365
 1867SOL    HW117063   1.447   0.164   6.085  1.8791 -0.9005  0.2962
 1867SOL    HW217064   1.364   0.128   5.975  0.2549  0.1472 -0.5821
 1868SOL     OW17065   0.008   1.481   4.344 -0.1149 -0.1958  0.4913
 1868SOL    HW117066   4.714   1.422   4.270  1.6420  1.4917 -1.2480
 1868SOL    HW217067   0.035   1.427   4.418  0.4567 -1.3536 -0.5501
 1869SOL     OW17068   4.024   2.847   2.699  0.1080 -0.1805  0.1962
 1869SOL    HW117069   3.975   2.901   2.761 -0.7060  0.0277 -0.6200
 1869SOL    HW217070   4.058   2.775   2.752  0.5525  0.8489  1.3058
 1870SOL     OW17071   0.198   3.720   8.340  0.3425 -0.6057 -0.0971
 1870SOL    HW117072   0.217   3.695   8.431 -0.1004  1.9158  0.6947
 1870SOL    HW217073   0.128   3.659   8.318  0.7665 -1.2832  0.4434
 1871SOL     OW17074   3.465   1.515  12.732  0.3276 -0.6270 -0.2197
 1871SOL    HW117075   3.552   1.548  12.758 -0.7061  1.1794  0.9406
 1871SOL    HW217076   3.484   1.421  12.728 -1.4408 -1.0291  0.8671
 1872SOL     OW17077   1.970   2.511  12.888 -0.6144  0.1149  0.0838
 1872SOL    HW117078   2.046   2.455  12.877 -1.1821 -0.9231  1.5401
 1872SOL    HW217079   1.931   2.456  12.955  2.6114  0.0901  1.9483
 1873SOL     OW17080   4.567   4.674   6.498 -0.3047  0.1996 -0.3569
 1873SOL    HW117081   4.491   4.631   6.535 -0.5004  1.2177  0.4062
 1873SOL    HW217082   4.638   4.636   6.550 -0.6119 -1.3345 -1.0632
 1874SOL     OW17083   3.205   3.774   1.120 -0.1225 -0.0860 -0.9410
 1874SOL    HW117084   3.201   3.723   1.201  2.0984  1.2422 -0.0276
 1874SOL    HW217085   3.229   3.706   1.057  2.8429 -0.4926  0.6383
 1875SOL     OW17086   2.007   1.522   6.247 -0.2367 -0.0717  0.3124
 1875SOL    HW117087   2.065   1.593   6.218  0.4855 -1.0800 -0.7371
 1875SOL    HW217088   2.067   1.488   6.313 -0.5670  1.3003  1.3175
 1876SOL     OW17089   3.145   0.369   7.516  0.3288  0.3743  0.0545
 1876SOL    HW117090   3.213   0.420   7.559 -2.1823  3.4436  0.4052
 1876SOL    HW217091   3.180   0.280   7.522 -0.0180  0.2547  0.3193
 1877SOL     OW17092   3.477   2.445   6.432 -0.0550  0.5759  0.0738
 1877SOL    HW117093   3.473   2.408   6.521 -1.4121  2.6705  0.8952
 1877SOL    HW217094   3.554   2.396   6.404 -0.8673 -0.4754 -0.3230
 1878SOL     OW17095   4.615   1.945   9.911 -0.3235  0.0154  0.3243
 1878SOL    HW117096   4.624   1.965   9.817 -0.6466  0.7483  0.4509
 1878SOL    HW217097   4.639   1.853   9.894  1.9968  0.6019  0.4282
 1879SOL     OW17098   2.375   1.786   9.058  0.4358 -0.1851 -0.3431
 1879SOL    HW117099   2.397   1.807   9.149 -0.7151  2.4736 -0.6631
 1879SOL    HW217100   2.294   1.837   9.049 -0.2166 -0.8025  2.0534
 1880SOL     OW17101   2.321   2.485   4.391 -0.3417 -0.2434  0.6239
 1880SOL    HW117102   2.382   2.471   4.318 -0.7752 -2.3949  0.6759
 1880SOL    HW217103   2.350   2.415   4.449  1.1410 -0.3895 -0.3000
 1881SOL     OW17104   4.230   0.728   9.370  0.7922 -0.0496 -0.1979
 1881SOL    HW117105   4.305   0.739   9.312  1.3496 -1.3210  0.2826
 1881SOL    HW217106   4.205   0.636   9.359 -0.3193 -0.2061  3.8101
 1882SOL     OW17107   1.981   0.808   7.468  0.0649 -0.2119  0.2593
 1882SOL    HW117108   2.053   0.775   7.522  1.1004 -0.3281 -1.1820
 1882SOL    HW217109   1.924   0.731   7.464 -1.0410  0.6204  0.1823
 1883SOL     OW17110   1.106   3.279   5.018 -0.4516  0.2225 -0.1953
 1883SOL    HW117111   1.181   3.220   5.009  0.1249  1.2839 -2.4621
 1883SOL    HW217112   1.054   3.217   5.068  0.9404  0.0827  1.0698
 1884SOL     OW17113   2.716   3.841   3.116  0.2776  0.2827  0.0387
 1884SOL    HW117114   2.719   3.908   3.048 -0.1842 -1.2047 -1.4472
 1884SOL    HW217115   2.622   3.827   3.125  0.1861  2.5259  2.4054
 1885SOL     OW17116   2.412   1.623  17.062  0.1462 -0.1613 -0.1187
 1885SOL    HW117117   2.374   1.645  16.977 -2.2025 -3.1754  0.1738
 1885SOL    HW217118   2.342   1.616  17.127  1.1298  2.0853  1.2330
 1886SOL     OW17119   3.672   0.151   6.283 -0.2498 -0.0561  0.1756
 1886SOL    HW117120   3.757   0.118   6.252 -0.3143  0.1067 -0.1739
 1886SOL    HW217121   3.612   0.084   6.250  1.1907  0.1680 -2.8615
 1887SOL     OW17122   0.766   1.051   3.076  0.1336  0.0479  0.8819
 1887SOL    HW117123   0.695   0.986   3.071  1.5291 -1.1884 -2.8518
 1887SOL    HW217124   0.834   1.005   3.027 -2.0739 -0.5902 -1.5845
 1888SOL     OW17125   2.624   2.012   6.487  0.6035 -0.5066  0.4393
 1888SOL    HW117126   2.631   1.927   6.529  0.8337 -0.9567 -0.5044
 1888SOL    HW217127   2.708   2.022   6.443  0.7533 -2.0268  0.4094
 1889SOL     OW17128   1.387   4.061  13.976  0.2524 -0.1477  0.5982
 1889SOL    HW117129   1.454   4.099  14.032 -2.3416 -0.7017  4.1383
 1889SOL    HW217130   1.447   4.030  13.908 -0.3661 -0.4810  0.2060
 1890SOL     OW17131   2.897   2.349   3.422  0.2825  0.4934 -0.5136
 1890SOL    HW117132   2.901   2.302   3.339  1.1127  0.1614 -0.2864
 1890SOL    HW217133   2.854   2.429   3.391  1.8318  0.4532 -2.7830
 1891SOL     OW17134   2.941   2.221   5.478  0.0673  0.8501 -0.8715
 1891SOL    HW117135   2.868   2.162   5.465 -1.0267  1.8147  0.9717
 1891SOL    HW217136   2.898   2.296   5.519  1.5656  0.3540  1.6326
 1892SOL     OW17137   0.210   2.470  14.161 -0.6555  0.1137 -0.0013
 1892SOL    HW117138   0.173   2.501  14.244  1.6141 -1.9640  1.8092
 1892SOL    HW217139   0.233   2.382  14.193 -2.9019 -0.3433  0.3794
 1893SOL     OW17140   4.474   2.918   1.972 -0.1055 -0.2865  0.0120
 1893SOL    HW117141   4.400   2.956   2.019  1.4408  1.5608  0.9429
 1893SOL    HW217142   4.545   2.979   1.992 -0.2459  0.0471 -0.5101
 1894SOL     OW17143   0.759   4.195  12.582  1.0060  0.3236  0.0561
 1894SOL    HW117144   0.715   4.117  12.550  0.2306  0.2505  1.3233
 1894SOL    HW217145   0.799   4.172  12.666  3.3350 -1.2042 -1.4425
 1895SOL     OW17146   4.003   0.220   8.821  0.6092 -0.1140 -0.3114
 1895SOL    HW117147   3.934   0.190   8.762  0.2404 -0.0811  0.1037
 1895SOL    HW217148   4.022   0.305   8.782  0.9331 -0.4088 -0.7899
 1896SOL     OW17149   1.958   2.169  12.299  0.4764  0.6527 -0.5442
 1896SOL    HW117150   2.004   2.126  12.372 -0.2806  3.8909  1.8773
 1896SOL    HW217151   2.030   2.176  12.236  0.6627  0.0546 -0.4048
 1897SOL     OW17152   1.501   1.102   7.007 -0.9903 -0.1884  0.4562
 1897SOL    HW117153   1.545   1.164   6.950  2.1451 -0.6190  2.4308
 1897SOL    HW217154   1.517   1.143   7.091 -1.4996  0.7098  0.1146
 1898SOL     OW17155   2.093   0.667   5.681  0.1031 -0.0722 -0.0276
 1898SOL    HW117156   2.046   0.658   5.763 -0.1608  0.7011 -0.0913
 1898SOL    HW217157   2.160   0.733   5.702  1.2703 -1.5275  0.8396
 1899SOL     OW17158   2.703   3.315   5.406 -0.2408  0.2840  0.2368
 1899SOL    HW117159   2.622   3.358   5.434 -1.2819 -0.5862 -1.4320
 1899SOL    HW217160   2.761   3.354   5.471 -0.2538  0.6067  0.0552
 1900SOL     OW17161   3.135   0.205   8.325  0.1605  0.1326 -0.1260
 1900SOL    HW117162   3.136   0.286   8.274  1.7504 -0.2335 -0.6687
 1900SOL    HW217163   3.184   0.147   8.267 -0.3860  1.8531 -2.2959
 1901SOL     OW17164   3.614   0.421   6.542  0.4402  0.6615  0.3296
 1901SOL    HW117165   3.606   0.404   6.636  1.8727  0.7353  0.4730
 1901SOL    HW217166   3.704   0.397   6.519  0.5076  1.1273  0.0941
 1902SOL     OW17167   3.324   2.822   0.217 -0.7241 -0.4435  0.0028
 1902SOL    HW117168   3.370   2.811   0.134 -0.4237 -0.2552  0.1431
 1902SOL    HW217169   3.316   2.737   0.262  0.3084  0.3013  1.6099
 1903SOL     OW17170   4.343   0.869   2.318 -0.3010  0.6909  0.7259
 1903SOL    HW117171   4.417   0.817   2.286 -1.3467 -0.8644  0.8290
 1903SOL    HW217172   4.347   0.944   2.258  0.2803  0.4961  0.5281
 1904SOL     OW17173   1.258   4.069   3.814  0.3357  0.6533  0.1043
 1904SOL    HW117174   1.345   4.049   3.849  0.7149 -0.1568 -1.3287
 1904SOL    HW217175   1.208   4.010   3.872  1.6903  0.7413  1.3637
 1905SOL     OW17176   1.430   2.965   2.422 -0.4319 -0.2597  0.4080
 1905SOL    HW117177   1.385   2.881   2.417  0.7220 -0.8077 -0.8149
 1905SOL    HW217178   1.391   2.999   2.502 -0.3051 -1.4466  0.9676
 1906SOL     OW17179   4.479   1.570   8.660 -0.1755  0.4806 -0.0143
 1906SOL    HW117180   4.443   1.595   8.745  1.5089  0.0288  0.8226
 1906SOL    HW217181   4.480   1.475   8.662  2.2667  0.4870 -0.9934
 1907SOL     OW17182   2.798   0.981   5.515 -0.2468  0.5267 -0.1680
 1907SOL    HW117183   2.842   1.046   5.459  0.6593  0.3075  0.2964
 1907SOL    HW217184   2.864   0.912   5.519  0.3393  1.1387  0.7256
 1908SOL     OW17185   4.717   0.592   9.425  0.3289 -0.3777  0.0445
 1908SOL    HW117186   0.057   0.552   9.486 -0.1580 -1.6292 -0.2740
 1908SOL    HW217187   0.016   0.685   9.439  1.9285 -0.6811 -0.2907
 1909SOL     OW17188   0.965   2.969   5.460  0.4238  0.2563 -0.1906
 1909SOL    HW117189   0.920   3.032   5.516  2.8621  0.4152  1.6015
 1909SOL    HW217190   1.044   2.970   5.514 -0.9046  0.1850  1.7607
 1910SOL     OW17191   3.484   0.628   3.766 -0.2698 -0.0751 -0.2293
 1910SOL    HW117192   3.505   0.711   3.809 -2.2743 -0.6776  1.9311
 1910SOL    HW217193   3.521   0.564   3.827  2.7824  2.4905  0.6316
 1911SOL     OW17194   4.200   0.844   3.542  0.3039  0.4412 -0.0407
 1911SOL    HW117195   4.143   0.868   3.615  1.5639  1.3729  0.6360
 1911SOL    HW217196   4.278   0.853   3.596  0.9363  0.2106 -0.9216
 1912SOL     OW17197   2.094   0.096   9.259 -0.3956 -0.0109 -0.1122
 1912SOL    HW117198   2.161   0.035   9.229 -0.3573 -0.3898  0.7576
 1912SOL    HW217199   2.102   0.083   9.354  1.5290 -1.7409 -0.5253
 1913SOL     OW17200   0.411   0.891   6.100  0.5285  0.0123  0.5603
 1913SOL    HW117201   0.445   0.972   6.137  1.9617  0.5390 -1.8994
 1913SOL    HW217202   0.333   0.937   6.068  0.6400 -0.2995 -0.1609
 1914SOL     OW17203   0.788   2.555   0.521  0.2339 -0.6869  0.1075
 1914SOL    HW117204   0.808   2.572   0.429  2.8395  2.7076  1.2707
 1914SOL    HW217205   0.844   2.479   0.530  1.2395  0.1199  0.5982
 1915SOL     OW17206   0.486   3.683  13.514  0.3479 -0.0374 -0.1911
 1915SOL    HW117207   0.517   3.700  13.425  0.8457  0.9540  0.1708
 1915SOL    HW217208   0.428   3.756  13.534 -0.3961 -0.9322  0.8826
 1916SOL     OW17209   0.663   2.458   7.692 -0.1874  0.0757  0.3988
 1916SOL    HW117210   0.653   2.550   7.718  1.4441  0.5255 -0.5486
 1916SOL    HW217211   0.642   2.464   7.599  0.7011 -1.2051  0.1182
 1917SOL     OW17212   2.400   4.289   4.215  0.4306  0.1910 -0.6667
 1917SOL    HW117213   2.395   4.368   4.268  0.8399 -2.0415  2.7000
 1917SOL    HW217214   2.462   4.238   4.267  0.2901 -0.0089 -0.6932
 1918SOL     OW17215   0.118   4.191   7.223  0.0386  0.7614 -0.2682
 1918SOL    HW117216   0.067   4.159   7.148 -0.9419  3.3955 -0.7492
 1918SOL    HW217217   0.143   4.275   7.184  0.8470 -0.0060 -1.4118
 1919SOL     OW17218   1.354   3.065   7.558  0.7585 -0.3693  0.2050
 1919SOL    HW117219   1.260   3.061   7.573  0.5558  1.5275 -0.5388
 1919SOL    HW217220   1.378   3.148   7.599  1.6328  0.4282 -1.9065
 1920SOL     OW17221   2.227   1.543   4.172 -0.6160 -0.6438 -0.7103
 1920SOL    HW117222   2.185   1.524   4.256 -2.0247  0.2208 -1.2171
 1920SOL    HW217223   2.270   1.625   4.195 -1.5958  0.0895 -1.5070
 1921SOL     OW17224   0.724   3.700   4.681  0.2473  0.0474 -0.1531
 1921SOL    HW117225   0.650   3.680   4.739 -0.7300  0.6917 -1.1611
 1921SOL    HW217226   0.695   3.685   4.591  2.6611 -1.1619 -0.7094
 1922SOL     OW17227   4.320   1.152   3.828  0.0202  0.2184 -0.2009
 1922SOL    HW117228   4.260   1.173   3.757 -1.8658 -1.4080  0.8934
 1922SOL    HW217229   4.389   1.112   3.776 -1.4350 -0.5571 -1.5409
 1923SOL     OW17230   4.656   1.362  13.070  0.1371 -0.0408 -0.4306
 1923SOL    HW117231   0.013   1.370  13.122  0.3932 -0.5122 -0.7479
 1923SOL    HW217232   4.592   1.331  13.133 -1.8521  2.9944 -0.9042
 1924SOL     OW17233   3.678   2.282  13.564 -0.2463  0.0490 -0.6143
 1924SOL    HW117234   3.599   2.249  13.608  1.1524  0.6490  2.3542
 1924SOL    HW217235   3.694   2.368  13.602  0.6212  0.0940 -1.0879
 1925SOL     OW17236   0.123   1.845  17.583  0.4110 -0.4210 -0.4069
 1925SOL    HW117237   0.069   1.921  17.561  2.5518  1.1496 -0.2359
 1925SOL    HW217238   0.124   1.801  17.498  0.8844 -1.9503  0.3940
 1926SOL     OW17239   1.608   3.932  16.736 -0.0190  0.0239  0.2242
 1926SOL    HW117240   1.585   3.860  16.795  1.3388  0.0771  0.8249
 1926SOL    HW217241   1.537   3.935  16.673 -0.8126  1.4963  1.1916
 1927SOL     OW17242   2.352   1.754   4.315 -0.8558  0.0243 -0.6395
 1927SOL    HW117243   2.364   1.821   4.382 -0.8313  2.1680 -2.8170
 1927SOL    HW217244   2.444   1.740   4.293  0.0979  2.0104  2.0940
 1928SOL     OW17245   0.057   3.642   3.142  0.5212 -0.6285 -0.3020
 1928SOL    HW117246   0.107   3.601   3.212  2.4382 -0.8834 -1.8286
 1928SOL    HW217247   0.122   3.669   3.078  0.8365  2.0207  1.1414
 1929SOL     OW17248   4.422   1.549  10.510  0.3818 -0.3588 -0.3085
 1929SOL    HW117249   4.483   1.594  10.452  1.5819  0.1052  1.2965
 1929SOL    HW217250   4.348   1.535  10.451 -1.4576  0.8660  1.6854
 1930SOL     OW17251   3.493   0.670   6.494  0.2367 -0.3783  0.2734
 1930SOL    HW117252   3.428   0.608   6.527  0.4470 -1.8754 -2.0760
 1930SOL    HW217253   3.568   0.612   6.480  1.5864  1.8510 -1.5961
 1931SOL     OW17254   0.333   1.039  12.942  0.1117  0.0952 -0.1174
 1931SOL    HW117255   0.280   1.072  12.869  1.6084  1.9014 -0.3899
 1931SOL    HW217256   0.415   1.073  12.908 -0.0811  0.7021  0.0196
 1932SOL     OW17257   0.341   1.273  13.547 -0.1537 -0.4142 -0.0510
 1932SOL    HW117258   0.276   1.209  13.517 -0.3117  0.1902 -1.0117
 1932SOL    HW217259   0.292   1.353  13.565 -1.1281 -0.6424 -1.6533
 1933SOL     OW17260   1.368   4.432   6.666  0.3655 -0.4041  0.4502
 1933SOL    HW117261   1.357   4.501   6.731  0.0794 -0.3620  0.3594
 1933SOL    HW217262   1.450   4.389   6.690 -0.4824 -2.3229 -0.0711
 1934SOL     OW17263   3.590   1.668  17.639 -0.4414  0.2611  0.2883
 1934SOL    HW117264   3.640   1.663   0.030  1.6594  0.9518 -0.9637
 1934SOL    HW217265   3.656   1.661  17.570 -0.7295 -0.5038  0.0943
 1935SOL     OW17266   4.068   3.941   6.455  0.7581 -0.1625  0.0115
 1935SOL    HW117267   4.062   3.872   6.521 -0.3928  0.1387  0.2194
 1935SOL    HW217268   4.051   4.027   6.494  0.9847 -0.4690  0.7642
 1936SOL     OW17269   1.873   3.121  15.905  0.3790  0.3484 -0.5268
 1936SOL    HW117270   1.843   3.107  15.995  2.1263 -1.4499 -0.2031
 1936SOL    HW217271   1.793   3.154  15.866  0.1870  3.7205  2.7139
 1937SOL     OW17272   0.255   0.733   7.505 -0.0720  0.0531  0.2370
 1937SOL    HW117273   0.296   0.818   7.490 -2.1029  0.9544 -0.1054
 1937SOL    HW217274   0.181   0.751   7.563 -1.2572 -1.8364 -0.7081
 1938SOL     OW17275   3.824   0.903   3.398 -0.1602  0.3772  0.5307
 1938SOL    HW117276   3.871   0.900   3.315 -1.4194  0.9106 -0.2089
 1938SOL    HW217277   3.764   0.829   3.396 -1.1222  1.2109 -1.3268
 1939SOL     OW17278   3.689   1.659  10.814 -0.6756 -0.6980 -0.0696
 1939SOL    HW117279   3.727   1.631  10.731 -1.7512 -2.4554  0.0259
 1939SOL    HW217280   3.754   1.725  10.840  0.7891 -1.5489 -1.5797
 1940SOL     OW17281   0.963   3.807  12.510  0.4503 -0.1583  0.1727
 1940SOL    HW117282   0.889   3.748  12.496  0.0289 -0.2960  2.9165
 1940SOL    HW217283   1.005   3.772  12.589 -0.8978  0.4337  1.1560
 1941SOL     OW17284   4.713   1.915   8.060 -0.0335 -0.4808 -0.4784
 1941SOL    HW117285   4.622   1.897   8.082 -0.7846  0.9900 -2.3510
 1941SOL    HW217286   0.040   1.896   8.140 -0.7841  1.0293  0.3522
 1942SOL     OW17287   2.742   2.587   7.934  0.1442  0.0664 -0.0023
 1942SOL    HW117288   2.703   2.573   8.020 -1.3203  0.4545 -0.5940
 1942SOL    HW217289   2.670   2.558   7.877 -1.1812 -0.6830  2.0511
 1943SOL     OW17290   2.538   4.195   3.007 -0.6343  0.0721 -0.1358
 1943SOL    HW117291   2.521   4.268   2.948 -2.5414 -1.1372 -1.1042
 1943SOL    HW217292   2.463   4.196   3.067  1.9960  1.0114  3.1216
 1944SOL     OW17293   4.029   4.212   4.615 -0.8212 -0.1396 -0.0880
 1944SOL    HW117294   3.947   4.212   4.664 -1.0390 -4.1881 -0.3969
 1944SOL    HW217295   4.013   4.273   4.543  1.9667  2.4492  1.4794
 1945SOL     OW17296   2.122   1.627   3.337 -0.5573  0.5142  0.6925
 1945SOL    HW117297   2.102   1.721   3.337 -1.7591  0.2501  0.7183
 1945SOL    HW217298   2.210   1.620   3.376  0.0361  0.5452 -0.6426
 1946SOL     OW17299   3.148   1.529  13.161 -0.2783  0.5610 -0.2783
 1946SOL    HW117300   3.056   1.545  13.139  0.5215  1.7318 -2.8388
 1946SOL    HW217301   3.124   1.524  13.253  2.3677  2.9476  0.5388
 1947SOL     OW17302   0.698   0.352   5.418  0.1051 -0.2019  0.0046
 1947SOL    HW117303   0.638   0.419   5.450  0.3982  0.1670 -0.2193
 1947SOL    HW217304   0.669   0.342   5.328  0.0353 -0.6547  0.0771
 1948SOL     OW17305   4.121   1.017   7.974 -0.0455 -0.0384 -0.3700
 1948SOL    HW117306   4.120   0.923   7.959 -3.8550  0.0395 -0.6409
 1948SOL    HW217307   4.124   1.051   7.885  0.3564 -2.4448 -1.2779
 1949SOL     OW17308   1.678   3.271   5.611 -0.0725 -0.6999  0.1932
 1949SOL    HW117309   1.687   3.366   5.611  0.5311 -0.7552 -0.1331
 1949SOL    HW217310   1.632   3.257   5.694 -0.8383  1.3331  0.1093
 1950SOL     OW17311   0.810   2.235  14.918  0.3394 -0.2199  0.5601
 1950SOL    HW117312   0.732   2.196  14.880  0.6718  1.6829 -2.0653
 1950SOL    HW217313   0.763   2.289  14.982  2.7388  2.9457 -0.3136
 1951SOL     OW17314   4.340   0.979   4.648 -0.5587 -0.2668 -0.2744
 1951SOL    HW117315   4.254   0.941   4.629 -1.0064  0.4759  0.2223
 1951SOL    HW217316   4.336   1.056   4.592 -0.5229  2.1343  3.0024
 1952SOL     OW17317   1.364   2.459   0.529 -0.6627  0.6160  0.1401
 1952SOL    HW117318   1.333   2.372   0.504  1.5097 -0.7462  2.1750
 1952SOL    HW217319   1.378   2.496   0.441 -0.0877  0.9755  0.3808
 1953SOL     OW17320   2.490   0.714   2.302 -0.1930  0.6901  0.2208
 1953SOL    HW117321   2.497   0.688   2.394 -1.6720  0.1274  0.1830
 1953SOL    HW217322   2.469   0.626   2.269  1.0029  0.4113  0.1935
 1954SOL     OW17323   2.012   1.633  16.207  0.0546  0.1344  0.2716
 1954SOL    HW117324   1.996   1.557  16.263 -0.1589  0.3351  0.4812
 1954SOL    HW217325   2.106   1.650  16.214  0.1931 -0.3889 -0.4354
 1955SOL     OW17326   1.367   3.977   5.830  0.4121  0.2817 -0.4729
 1955SOL    HW117327   1.440   3.970   5.769  1.7638 -1.2276  1.3136
 1955SOL    HW217328   1.308   3.917   5.785  1.0791 -2.0050  1.6873
 1956SOL     OW17329   2.403   4.184   8.777  0.0059 -0.4355 -0.5869
 1956SOL    HW117330   2.373   4.183   8.868 -1.3432  0.7186 -1.0207
 1956SOL    HW217331   2.445   4.269   8.767 -0.1966 -0.5729 -2.6504
 1957SOL     OW17332   3.498   1.018   2.875  0.1534  0.0183 -0.0082
 1957SOL    HW117333   3.577   1.033   2.927  0.7961 -1.6590 -0.5002
 1957SOL    HW217334   3.436   0.992   2.943  1.1570 -0.9398  0.5550
 1958SOL     OW17335   0.120   0.949   2.576  0.4885  0.6137 -0.0219
 1958SOL    HW117336   0.082   0.883   2.634 -1.0628  0.7220 -0.9248
 1958SOL    HW217337   0.047   0.967   2.517  1.1164 -1.9241 -1.6119
 1959SOL     OW17338   3.922   1.276   9.903 -0.6189 -0.8919 -0.6393
 1959SOL    HW117339   3.845   1.247   9.854 -1.3833 -1.4779  0.9011
 1959SOL    HW217340   3.981   1.218   9.855  1.4498  0.4752  0.2470
 1960SOL     OW17341   1.323   1.324   3.538  0.2315 -0.4743  0.0054
 1960SOL    HW117342   1.322   1.368   3.453 -1.0145  0.5391  0.5326
 1960SOL    HW217343   1.416   1.311   3.551  0.0801  0.2436  1.9464
 1961SOL     OW17344   2.605   0.027   1.087 -0.3232 -0.0156 -0.8762
 1961SOL    HW117345   2.613   0.121   1.103 -1.5262 -0.4080  2.1358
 1961SOL    HW217346   2.693   0.007   1.054 -0.0175 -4.5830  2.8198
 1962SOL     OW17347   1.117   2.369   1.775  0.1733  0.1052 -0.1223
 1962SOL    HW117348   1.126   2.334   1.686  0.8890 -0.2058  0.0802
 1962SOL    HW217349   1.092   2.292   1.825 -0.6812  0.2995 -0.2433
 1963SOL     OW17350   2.169   1.659  12.308 -0.3117  0.1152  0.7661
 1963SOL    HW117351   2.214   1.655  12.393  0.4834 -2.0573  0.2375
 1963SOL    HW217352   2.107   1.586  12.313 -0.7122  0.3018 -1.6926
 1964SOL     OW17353   0.891   0.729   4.238 -0.0985 -0.9283 -0.6386
 1964SOL    HW117354   0.888   0.773   4.153  1.1264 -1.1432 -0.7947
 1964SOL    HW217355   0.859   0.646   4.203 -0.6223  0.1850 -2.7752
 1965SOL     OW17356   3.047   3.797   2.847 -0.0163 -0.3525  0.5611
 1965SOL    HW117357   3.134   3.767   2.820  0.5299  2.2605 -0.5634
 1965SOL    HW217358   3.045   3.750   2.931 -1.3211 -0.0154  0.7183
 1966SOL     OW17359   4.497   1.746  17.624 -0.0985 -0.0403  0.0456
 1966SOL    HW117360   4.442   1.703  17.690 -1.1173  1.1111 -0.0599
 1966SOL    HW217361   4.456   1.688  17.560  1.4480 -1.4865  0.3709
 1967SOL     OW17362   4.333   3.540  12.385 -0.6213  0.0136  0.3072
 1967SOL    HW117363   4.280   3.601  12.332 -0.2201  0.5672  0.5385
 1967SOL    HW217364   4.275   3.537  12.461 -0.3959 -0.9863  0.4332
 1968SOL     OW17365   1.555   3.700   8.770 -0.4251  0.1763  0.0052
 1968SOL    HW117366   1.574   3.785   8.809 -1.6625  0.3843  0.1753
 1968SOL    HW217367   1.469   3.688   8.811  0.6132 -0.9182  1.8169
 1969SOL     OW17368   3.750   2.746   0.474 -0.4126 -0.0440 -0.1239
 1969SOL    HW117369   3.825   2.787   0.518  0.4214  0.2394 -1.8351
 1969SOL    HW217370   3.682   2.752   0.542 -0.4854 -0.5391 -0.1572
 1970SOL     OW17371   1.861   4.506   8.674  0.0323 -0.3477  0.2143
 1970SOL    HW117372   1.879   4.481   8.764 -0.8334 -0.5900  0.3268
 1970SOL    HW217373   1.841   4.426   8.625  1.2265 -2.4145  3.1623
 1971SOL     OW17374   3.350   1.375  12.254  0.0089 -0.2955  0.1095
 1971SOL    HW117375   3.344   1.298  12.310 -0.9259 -0.1071  0.2743
 1971SOL    HW217376   3.283   1.353  12.188  0.6602  0.7467 -0.9007
 1972SOL     OW17377   3.521   3.349   2.727  0.9327 -0.1433  0.1377
 1972SOL    HW117378   3.572   3.424   2.696 -1.4831  2.2699  2.0045
 1972SOL    HW217379   3.529   3.291   2.651  0.0783  0.8787 -0.7191
 1973SOL     OW17380   2.614   1.007   8.868  0.2591  0.3753 -0.0544
 1973SOL    HW117381   2.538   1.038   8.818 -0.3073 -0.5575  0.2258
 1973SOL    HW217382   2.662   0.953   8.804  0.7838  0.5937  0.1638
 1974SOL     OW17383   4.604   2.013  16.449  0.5761 -0.5292 -0.6134
 1974SOL    HW117384   4.695   2.004  16.422  0.7956 -1.1702  0.3154
 1974SOL    HW217385   4.549   2.019  16.371 -0.8918  0.1466  0.4858
 1975SOL     OW17386   4.378   1.009  13.107 -0.1768  0.1234  0.0078
 1975SOL    HW117387   4.399   1.086  13.160 -0.0011 -0.5807  0.9551
 1975SOL    HW217388   4.292   0.980  13.139 -0.7980  0.3198 -1.4665
 1976SOL     OW17389   1.917   2.176  16.290  0.0209 -0.3297 -0.3793
 1976SOL    HW117390   1.956   2.167  16.203 -0.1044 -1.4416 -0.3210
 1976SOL    HW217391   1.921   2.087  16.325 -3.1372 -0.7760 -1.2436
 1977SOL     OW17392   2.575   1.719   5.671 -0.4903 -0.7372 -0.1464
 1977SOL    HW117393   2.542   1.802   5.637 -0.0097  0.2044  1.6499
 1977SOL    HW217394   2.597   1.667   5.595  0.8638 -0.1632 -0.1410
 1978SOL     OW17395   4.018   0.655  17.198 -0.6438  0.8496  0.0087
 1978SOL    HW117396   3.946   0.713  17.220 -1.3119  0.4834 -1.2006
 1978SOL    HW217397   4.062   0.642  17.282 -0.0180  0.5483 -0.3549
 1979SOL     OW17398   0.950   3.849   0.980  0.1614  0.6653  0.1529
 1979SOL    HW117399   0.982   3.884   0.897  0.6754  2.5556  1.1470
 1979SOL    HW217400   0.963   3.758   0.956 -0.0810  1.4287 -2.8648
 1980SOL     OW17401   4.550   4.180   8.773 -0.1940 -0.3290  0.0112
 1980SOL    HW117402   4.469   4.205   8.817  2.4809  6.1381  1.3991
 1980SOL    HW217403   4.554   4.094   8.815  0.8918 -0.3385 -0.0913
 1981SOL     OW17404   1.290   0.567   8.276  0.4681 -0.0578 -0.0506
 1981SOL    HW117405   1.216   0.625   8.295  0.6808  0.1469  0.1550
 1981SOL    HW217406   1.313   0.547   8.367 -1.2728 -0.4584  0.3041
 1982SOL     OW17407   4.585   0.547  16.446 -0.1268 -0.3608 -0.1841
 1982SOL    HW117408   4.578   0.577  16.356  1.2416 -3.1542 -1.2540
 1982SOL    HW217409   4.624   0.463  16.420  0.4146 -0.3521  0.6084
 1983SOL     OW17410   1.333   0.638   3.322  0.3151 -0.4951 -0.1225
 1983SOL    HW117411   1.415   0.650   3.274 -0.5070 -2.5824 -2.0533
 1983SOL    HW217412   1.323   0.733   3.333  0.4147 -0.6594  1.3633
 1984SOL     OW17413   0.809   0.863  16.953  0.5436  0.1356 -1.3526
 1984SOL    HW117414   0.762   0.942  16.927  1.6215  2.0505  2.5802
 1984SOL    HW217415   0.801   0.810  16.874 -1.3369  1.1257 -1.8364
 1985SOL     OW17416   3.426   2.670   3.198  0.4121 -0.1318 -0.2573
 1985SOL    HW117417   3.441   2.688   3.291  0.0113 -1.0499 -0.0134
 1985SOL    HW217418   3.474   2.587   3.192  0.9304  0.1749 -0.2967
 1986SOL     OW17419   2.147   1.691  15.038 -0.1689  0.1062  0.3067
 1986SOL    HW117420   2.159   1.780  15.072  1.4256  0.3780 -0.9521
 1986SOL    HW217421   2.170   1.718  14.949  2.4963 -0.4949  0.8183
 1987SOL     OW17422   3.804   0.441   8.857 -0.7233 -0.8704 -0.3232
 1987SOL    HW117423   3.755   0.523   8.866  0.8899  0.2634 -2.1293
 1987SOL    HW217424   3.865   0.463   8.787  1.4284  0.6912  2.0401
 1988SOL     OW17425   3.400   1.302   2.815 -0.5135 -0.3739 -0.7370
 1988SOL    HW117426   3.374   1.289   2.906  0.2003  0.5199 -0.4003
 1988SOL    HW217427   3.453   1.223   2.805  0.8129  0.3877  0.2881
 1989SOL     OW17428   0.278   1.466   3.772  0.1111  0.2713 -0.0907
 1989SOL    HW117429   0.332   1.387   3.765 -2.4822 -1.3472 -2.0470
 1989SOL    HW217430   0.349   1.524   3.798  2.0161 -1.1966 -2.0763
 1990SOL     OW17431   4.084   3.306  17.263 -0.0928 -0.0139  0.3057
 1990SOL    HW117432   4.059   3.316  17.172  0.0836  3.4275  0.6045
 1990SOL    HW217433   4.162   3.361  17.259 -0.8678  1.1181  0.5791
 1991SOL     OW17434   0.690   1.816   2.248  0.0069 -0.1095  0.0926
 1991SOL    HW117435   0.682   1.727   2.283  1.3977  0.6686  2.4106
 1991SOL    HW217436   0.783   1.820   2.226 -0.3384 -1.6597 -1.6470
 1992SOL     OW17437   0.810   2.907   6.335 -0.7569 -0.1907 -0.0410
 1992SOL    HW117438   0.823   2.876   6.425 -0.2275 -0.4811 -0.2168
 1992SOL    HW217439   0.822   2.827   6.285  1.9681 -1.3861  2.5203
 1993SOL     OW17440   0.383   3.601   2.753 -0.5385 -0.6948 -0.1748
 1993SOL    HW117441   0.473   3.630   2.739 -0.5925 -0.8248 -0.7619
 1993SOL    HW217442   0.331   3.673   2.717  0.6784 -0.6130 -1.7602
 1994SOL     OW17443   4.330   2.339  12.527 -0.3195 -0.8177  0.4125
 1994SOL    HW117444   4.337   2.407  12.593  0.0308 -0.5293  0.0810
 1994SOL    HW217445   4.342   2.270  12.592 -0.3482 -0.3274  0.9335
 1995SOL     OW17446   1.175   1.352   8.040 -0.0863 -0.3768  0.1990
 1995SOL    HW117447   1.142   1.380   7.954  0.6659 -0.2151 -0.0413
 1995SOL    HW217448   1.173   1.438   8.083  0.8832 -1.1608  1.8211
 1996SOL     OW17449   1.643   2.824   3.455 -0.6811  0.3337  0.2801
 1996SOL    HW117450   1.554   2.798   3.479 -1.3280  0.6502 -1.7608
 1996SOL    HW217451   1.639   2.820   3.359  0.8847  3.1730  0.0914
 1997SOL     OW17452   3.620   2.771   8.843 -0.7911  0.1614 -0.2354
 1997SOL    HW117453   3.611   2.733   8.756  0.5736 -0.1035 -0.2509
 1997SOL    HW217454   3.630   2.864   8.823  0.4887  0.1195  0.2262
 1998SOL     OW17455   3.597   2.861   4.336  0.0825 -0.0874  0.1823
 1998SOL    HW117456   3.601   2.940   4.388 -0.0623 -1.3157  2.0526
 1998SOL    HW217457   3.687   2.830   4.351  0.8833  1.4778 -1.3475
 1999SOL     OW17458   2.744   0.581   1.934  0.3418 -0.0305  0.7028
 1999SOL    HW117459   2.765   0.535   1.853  1.5981  0.7235  0.6024
 1999SOL    HW217460   2.702   0.508   1.980 -3.0619  2.2363  1.1576
 2000SOL     OW17461   2.374   3.497   3.890  0.0431  0.3185 -0.2564
 2000SOL    HW117462   2.322   3.417   3.878 -1.0589  0.6529  2.2803
 2000SOL    HW217463   2.436   3.497   3.817  0.3897  0.2395  0.0393
 2001SOL     OW17464   0.144   3.611   4.024  0.4822 -0.1733 -0.3485
 2001SOL    HW117465   0.118   3.670   3.953  0.0339  1.0840  0.8684
 2001SOL    HW217466   0.178   3.668   4.092 -2.0944  1.3636 -0.3288
 2002SOL     OW17467   4.135   2.827   0.079  0.2750 -0.2899  0.1630
 2002SOL    HW117468   4.136   2.892   0.149  1.0363  1.4619 -1.4577
 2002SOL    HW217469   4.084   2.754   0.113 -0.3674 -0.6198 -1.5198
 2003SOL     OW17470   4.270   0.235   6.992  0.1556 -0.0835 -0.2273
 2003SOL    HW117471   4.257   0.240   6.898  0.8597 -0.6944 -0.3553
 2003SOL    HW217472   4.365   0.229   7.004  0.5897  4.0553 -1.4707
 2004SOL     OW17473   3.065   0.738   8.157  0.4332  0.0583  0.3495
 2004SOL    HW117474   3.159   0.750   8.167  0.9403 -3.4993 -0.0558
 2004SOL    HW217475   3.039   0.778   8.240  0.7640 -0.8454  0.8802
 2005SOL     OW17476   4.422   0.897   3.681  0.3383 -0.7200  0.1091
 2005SOL    HW117477   4.416   0.864   3.771 -1.8193 -0.9557 -0.1057
 2005SOL    HW217478   4.505   0.945   3.678 -1.3930  2.3533  0.8686
 2006SOL     OW17479   0.575   0.011  15.837  0.4294 -0.1309  0.0276
 2006SOL    HW117480   0.599   0.056  15.756  1.7517 -1.4735 -0.3205
 2006SOL    HW217481   0.644   4.667  15.847 -0.4471 -1.0073  0.3098
 2007SOL     OW17482   4.257   3.228   1.759 -0.5470  0.1634  0.3658
 2007SOL    HW117483   4.326   3.177   1.719  0.1027  1.3347 -0.0212
 2007SOL    HW217484   4.193   3.158   1.770 -0.7678  0.6519  2.2514
 2008SOL     OW17485   2.326   3.890   4.501  0.0122  0.3813 -0.5469
 2008SOL    HW117486   2.233   3.903   4.482 -0.9767 -2.7481  2.1020
 2008SOL    HW217487   2.356   3.900   4.410 -1.0129 -1.3426 -1.0759
 2009SOL     OW17488   3.880   2.406   6.165  0.2834  0.0144 -0.3908
 2009SOL    HW117489   3.902   2.342   6.098 -2.3642 -2.0590  0.7190
 2009SOL    HW217490   3.951   2.469   6.156  2.0969 -1.6095  2.6194
 2010SOL     OW17491   4.427   2.486  14.108  0.2652 -0.4670  0.8230
 2010SOL    HW117492   4.482   2.473  14.032 -0.4692  0.1625  0.1853
 2010SOL    HW217493   4.446   2.400  14.148  1.7448 -0.6998 -0.4328
 2011SOL     OW17494   3.501   0.157   7.439 -0.1554 -0.4413  0.1461
 2011SOL    HW117495   3.536   0.246   7.431 -0.4895 -0.3048  0.1937
 2011SOL    HW217496   3.505   0.146   7.534  2.0379  1.8662  0.3210
 2012SOL     OW17497   2.104   2.391   5.167 -0.2092 -0.0351 -0.1422
 2012SOL    HW117498   2.198   2.406   5.176 -0.0940 -1.4166  0.9617
 2012SOL    HW217499   2.099   2.371   5.073 -0.3662 -3.6874  0.6366
 2013SOL     OW17500   1.457   0.613   4.361  0.2652 -0.2679 -0.2057
 2013SOL    HW117501   1.500   0.675   4.302  1.6917 -0.1918  0.9309
 2013SOL    HW217502   1.365   0.625   4.335 -0.5048 -3.2083  1.1215
 2014SOL     OW17503   3.065   3.962  15.613  0.5829  0.9857 -0.2529
 2014SOL    HW117504   2.980   3.969  15.656  0.3724  2.0727 -0.8565
 2014SOL    HW217505   3.060   4.020  15.537 -0.5813  0.6201 -0.4594
 2015SOL     OW17506   3.544   3.193   8.589 -0.3037 -0.6883 -0.2985
 2015SOL    HW117507   3.605   3.219   8.521 -3.2787 -0.8154 -3.0153
 2015SOL    HW217508   3.457   3.219   8.559  0.7436  1.7555 -1.1563
 2016SOL     OW17509   1.632   2.310   2.096  0.7313  0.3633  0.6938
 2016SOL    HW117510   1.573   2.311   2.020  1.3121  2.0914  0.2639
 2016SOL    HW217511   1.557   2.314   2.155  0.1193 -1.5570  0.0410
 2017SOL     OW17512   3.183   3.022   4.249  0.0218 -0.2324  0.2235
 2017SOL    HW117513   3.188   3.000   4.342  0.5632  0.1523  0.2840
 2017SOL    HW217514   3.126   3.097   4.267  0.6712  0.2905  0.0844
 2018SOL     OW17515   4.229   2.719  14.068  0.4904  0.3832  0.0801
 2018SOL    HW117516   4.175   2.753  13.997 -0.7950 -1.8806 -0.0253
 2018SOL    HW217517   4.316   2.744  14.039  0.9321  1.5974  2.4392
 2019SOL     OW17518   2.201   0.088   1.458  0.4410  0.5740 -0.2675
 2019SOL    HW117519   2.160   0.095   1.545 -0.6218 -0.0367 -0.7167
 2019SOL    HW217520   2.138   0.127   1.397 -1.0940 -1.5129  0.0016
 2020SOL     OW17521   4.101   0.306   5.379 -0.1742  0.4447 -0.0756
 2020SOL    HW117522   4.067   0.381   5.331  0.8333  1.0041  0.0770
 2020SOL    HW217523   4.197   0.310   5.375 -0.1154 -0.1134  0.7989
 2021SOL     OW17524   3.773   1.135   4.956  0.3334 -0.5219  0.0549
 2021SOL    HW117525   3.717   1.163   5.028 -0.0344 -0.1086 -0.3890
 2021SOL    HW217526   3.839   1.204   4.947 -0.7905  0.3972 -1.1747
 2022SOL     OW17527   3.980   2.155   6.451 -0.3249 -0.2594  0.5004
 2022SOL    HW117528   4.013   2.073   6.487  1.3589 -0.8719 -2.4369
 2022SOL    HW217529   3.998   2.139   6.358 -0.0197 -0.5799  0.6168
 2023SOL     OW17530   2.415   1.527  16.359 -0.0449  0.3873 -0.1610
 2023SOL    HW117531   2.407   1.596  16.293 -0.6961  0.6959  0.2396
 2023SOL    HW217532   2.451   1.576  16.433  3.0663 -1.3947 -0.5007
 2024SOL     OW17533   0.481   3.187   8.532  0.2872  0.3093  0.0302
 2024SOL    HW117534   0.471   3.104   8.577 -0.5255  0.0807 -0.5633
 2024SOL    HW217535   0.404   3.182   8.475  2.2829  0.1041 -2.6376
 2025SOL     OW17536   1.229   4.541  13.533 -0.5212 -0.1549  0.0572
 2025SOL    HW117537   1.175   4.534  13.454  0.6297  2.8730 -1.0013
 2025SOL    HW217538   1.294   4.472  13.524  0.5124  1.0237 -1.5709
 2026SOL     OW17539   1.192   3.135  15.358  0.2560 -0.8873 -0.1318
 2026SOL    HW117540   1.201   3.206  15.294  2.3300 -1.7298 -0.7425
 2026SOL    HW217541   1.098   3.114  15.351  0.6877 -3.2737  1.1946
 2027SOL     OW17542   1.270   4.692  17.417  0.1409  0.2308  0.0862
 2027SOL    HW117543   1.266   4.688  17.513  1.9617  0.2328  0.1622
 2027SOL    HW217544   1.216   4.619  17.386 -1.7331  1.3613  0.7100
 2028SOL     OW17545   3.134   0.168   2.054  0.5821  0.7755 -0.5399
 2028SOL    HW117546   3.189   0.136   2.125 -0.1236 -0.8150 -0.7067
 2028SOL    HW217547   3.068   0.099   2.046 -0.6564  1.6060  2.6000
 2029SOL     OW17548   4.578   0.227   8.610 -0.4468  0.4272 -0.2425
 2029SOL    HW117549   4.553   0.239   8.702  3.6181  1.3562  0.7295
 2029SOL    HW217550   4.674   0.223   8.610 -0.4773 -0.5889 -2.1726
 2030SOL     OW17551   0.595   2.759   5.766  0.2875 -0.0274  0.4911
 2030SOL    HW117552   0.536   2.684   5.770  1.8993 -1.2647  1.1722
 2030SOL    HW217553   0.550   2.835   5.802  1.8450  0.3506  1.6793
 2031SOL     OW17554   2.033   0.397   8.387 -0.4104 -0.1634  0.2047
 2031SOL    HW117555   1.992   0.311   8.398 -0.6455 -0.0345  0.3397
 2031SOL    HW217556   1.968   0.432   8.327  1.0696  1.5528 -0.3973
 2032SOL     OW17557   3.012   4.566  11.073 -0.5230 -0.0586  0.4487
 2032SOL    HW117558   3.076   4.505  11.110 -1.4233 -3.2919 -3.3751
 2032SOL    HW217559   2.969   4.594  11.154  0.0523 -1.1386  1.1320
 2033SOL     OW17560   2.391   1.774   3.987  0.5661 -0.0634  0.2350
 2033SOL    HW117561   2.435   1.787   4.071  2.7744  0.7509 -1.0397
 2033SOL    HW217562   2.348   1.859   3.978  0.1854 -0.6430 -3.5303
 2034SOL     OW17563   1.890   3.846   4.131  0.4838 -0.0200 -0.4081
 2034SOL    HW117564   1.917   3.893   4.209 -1.2914  1.1008 -0.4771
 2034SOL    HW217565   1.965   3.867   4.074 -0.2485 -1.2008 -1.8042
 2035SOL     OW17566   1.191   1.193   0.691 -0.4026 -0.4909 -0.4873
 2035SOL    HW117567   1.143   1.164   0.613 -0.1810 -1.5658 -0.2149
 2035SOL    HW217568   1.200   1.282   0.657 -1.2236  0.3188  1.4387
 2036SOL     OW17569   0.259   0.610  16.595 -0.3340  0.4769 -0.2642
 2036SOL    HW117570   0.197   0.682  16.586 -1.2961 -0.4347 -0.9592
 2036SOL    HW217571   0.302   0.647  16.672  2.2226 -4.8880  0.8837
 2037SOL     OW17572   3.189   3.432  13.782  0.1609  0.5906 -0.3238
 2037SOL    HW117573   3.219   3.342  13.769 -1.6663  0.3273 -2.6933
 2037SOL    HW217574   3.258   3.475  13.833 -0.1217  0.5737  0.0716
 2038SOL     OW17575   0.058   3.515   6.288  0.1360 -0.0245 -0.0755
 2038SOL    HW117576   4.700   3.474   6.322 -0.3103  1.3138  0.4730
 2038SOL    HW217577   0.050   3.605   6.319  0.3968  0.8894 -2.6815
 2039SOL     OW17578   3.892   1.192   0.167 -0.0121 -0.0841  0.1217
 2039SOL    HW117579   3.870   1.174   0.076  0.5216  1.1570 -0.2552
 2039SOL    HW217580   3.913   1.285   0.167  0.0045 -0.0927 -1.8972
 2040SOL     OW17581   3.953   3.706   2.983  0.0887 -0.2335 -0.2511
 2040SOL    HW117582   3.967   3.782   3.038 -0.0610 -0.2693 -0.1623
 2040SOL    HW217583   4.040   3.684   2.949  0.6056  2.8232 -0.9255
 2041SOL     OW17584   2.655   2.133   8.013  0.3291 -0.0003 -0.5783
 2041SOL    HW117585   2.571   2.171   7.989 -0.0200  0.2845  1.0543
 2041SOL    HW217586   2.633   2.105   8.102 -0.7327  1.7047 -0.3112
 2042SOL     OW17587   2.423   4.097   4.682  0.6091  0.5066 -0.2281
 2042SOL    HW117588   2.391   4.046   4.756 -1.4580  1.3205 -0.5442
 2042SOL    HW217589   2.405   4.036   4.610 -0.8395 -0.5101  0.9807
 2043SOL     OW17590   0.310   3.443   2.405  0.1949  0.9358 -0.1390
 2043SOL    HW117591   0.380   3.436   2.470  1.4127  0.0232 -1.5387
 2043SOL    HW217592   0.296   3.351   2.381  0.4017  0.9023 -0.1340
 2044SOL     OW17593   1.146   0.218  12.134  0.1119  0.0217  0.1013
 2044SOL    HW117594   1.124   0.274  12.209  1.1848  0.2482  0.2414
 2044SOL    HW217595   1.191   0.147  12.179  2.0308  0.7182 -0.7577
 2045SOL     OW17596   4.283   1.823   5.670 -0.5570  0.5530 -0.1011
 2045SOL    HW117597   4.331   1.851   5.748 -1.2475  0.2393  0.4357
 2045SOL    HW217598   4.342   1.756   5.636 -0.8863 -0.1065  0.6368
 2046SOL     OW17599   4.514   0.453  12.928 -0.0996  0.3550 -0.4900
 2046SOL    HW117600   4.602   0.483  12.907 -0.8424  2.6524 -0.3821
 2046SOL    HW217601   4.511   0.363  12.896 -0.3392 -0.1550  0.9259
 2047SOL     OW17602   3.440   1.564   3.671  0.3625  0.4289 -0.6426
 2047SOL    HW117603   3.370   1.576   3.735  2.0636 -1.7071  1.6192
 2047SOL    HW217604   3.452   1.654   3.640  1.3557  0.2135 -0.8858
 2048SOL     OW17605   0.604   1.133   8.114 -0.1477  0.1233 -0.2053
 2048SOL    HW117606   0.528   1.074   8.109 -0.4777  0.6463 -1.4860
 2048SOL    HW217607   0.562   1.213   8.082  0.6319  0.3279 -0.6911
 2049SOL     OW17608   3.275   4.337   7.900  0.2278 -0.6273  0.4196
 2049SOL    HW117609   3.300   4.421   7.940 -0.0372 -0.2406 -0.2195
 2049SOL    HW217610   3.277   4.283   7.979 -1.6186 -0.6435  0.4391
 2050SOL     OW17611   0.574   0.328   8.998  0.1561  0.2492 -0.1434
 2050SOL    HW117612   0.667   0.347   9.004 -0.0414  1.8249 -1.9237
 2050SOL    HW217613   0.580   0.255   8.936 -0.5586  0.8656 -0.9533
 2051SOL     OW17614   4.637   1.752   3.028 -0.6890  0.1414  0.0346
 2051SOL    HW117615   4.619   1.806   3.105 -1.8716 -0.5788  0.2519
 2051SOL    HW217616   4.693   1.681   3.061  1.5765  2.8365  2.0542
 2052SOL     OW17617   1.373   2.965   3.669 -0.2092  0.1716 -0.1767
 2052SOL    HW117618   1.279   2.980   3.660  0.0026  1.2488 -0.5998
 2052SOL    HW217619   1.381   2.884   3.619 -3.4572 -0.9465  1.1320
 2053SOL     OW17620   1.646   1.753  12.019 -0.2255  0.3211 -0.0060
 2053SOL    HW117621   1.726   1.728  12.064  0.3912  0.7951 -0.8393
 2053SOL    HW217622   1.677   1.783  11.934 -0.4241  1.4770  0.3332
 2054SOL     OW17623   0.476   2.600   0.201  0.0375 -0.3836 -0.4137
 2054SOL    HW117624   0.491   2.611   0.295  4.2466 -1.5383 -0.9550
 2054SOL    HW217625   0.532   2.525   0.179  0.2052 -1.1621  2.7194
 2055SOL     OW17626   1.617   4.031   2.568 -0.3950 -0.3505 -0.3091
 2055SOL    HW117627   1.650   3.942   2.553 -0.2975 -0.2356 -0.7841
 2055SOL    HW217628   1.651   4.044   2.656  0.4993 -0.2444 -0.6609
 2056SOL     OW17629   1.832   4.088   8.717 -0.1597  0.5149  0.4429
 2056SOL    HW117630   1.919   4.053   8.736  0.0099  0.1395 -1.0206
 2056SOL    HW217631   1.773   4.018   8.745 -0.0994 -0.6375 -2.2583
 2057SOL     OW17632   3.735   0.978   7.934 -0.2350 -0.4799  0.1548
 2057SOL    HW117633   3.782   1.038   7.991  2.6209 -0.5728 -2.0935
 2057SOL    HW217634   3.745   0.892   7.973  0.8190 -1.0633 -1.4147
 2058SOL     OW17635   3.142   3.072   4.536  0.2804 -0.1784 -0.4228
 2058SOL    HW117636   3.074   3.139   4.530  0.0457 -0.5160 -1.5324
 2058SOL    HW217637   3.212   3.119   4.581 -1.2800  2.0579 -0.3606
 2059SOL     OW17638   3.752   3.958   7.970  0.5728  0.2554 -0.4990
 2059SOL    HW117639   3.716   4.028   7.915  0.6122  2.1924  1.9448
 2059SOL    HW217640   3.842   3.981   7.950  0.9820 -0.7752  0.1688
 2060SOL     OW17641   4.679   1.290   2.637 -0.2617 -0.6908 -0.2243
 2060SOL    HW117642   0.052   1.284   2.642 -0.1323  2.6542  1.2917
 2060SOL    HW217643   4.653   1.366   2.689 -0.3958 -0.4025 -0.7148
 2061SOL     OW17644   2.849   1.087   7.696  0.1839 -0.0151  0.7655
 2061SOL    HW117645   2.761   1.083   7.734 -0.4447  2.2312 -0.4366
 2061SOL    HW217646   2.837   1.042   7.613 -0.1261 -0.7190  1.1927
 2062SOL     OW17647   3.599   2.705   2.789  0.0149  0.4587  0.2898
 2062SOL    HW117648   3.540   2.643   2.747  1.1181 -0.1445 -0.3725
 2062SOL    HW217649   3.593   2.772   2.721  1.5694  0.2345 -0.0717
 2063SOL     OW17650   4.059   3.153   5.826 -0.1553 -0.2229  0.7209
 2063SOL    HW117651   4.113   3.230   5.812 -0.8297  0.4125  1.6212
 2063SOL    HW217652   4.116   3.083   5.796  0.1487  0.3445 -0.0226
 2064SOL     OW17653   4.207   2.966   6.420  0.0885 -0.0379 -0.2343
 2064SOL    HW117654   4.170   2.892   6.371  1.9578 -0.1786 -1.4367
 2064SOL    HW217655   4.168   3.035   6.367  0.6432  3.1919  3.6464
 2065SOL     OW17656   0.559   3.524   8.643 -0.3509  0.3109 -0.1351
 2065SOL    HW117657   0.469   3.554   8.660 -0.8226 -0.4912 -1.2232
 2065SOL    HW217658   0.589   3.578   8.571  1.2291  0.7900  0.8885
 2066SOL     OW17659   4.550   3.736   2.961 -0.1003 -0.1124 -0.0245
 2066SOL    HW117660   4.638   3.749   2.997 -0.9799  0.6941  1.8258
 2066SOL    HW217661   4.553   3.807   2.897 -0.1328 -0.3102 -0.2470
 2067SOL     OW17662   4.576   4.624   9.368  0.4857 -0.3552  0.7335
 2067SOL    HW117663   4.582   4.531   9.390  2.6001 -0.4017 -0.0119
 2067SOL    HW217664   4.498   4.630   9.313  0.2002 -1.6045  0.9906
 2068SOL     OW17665   1.231   1.334   7.633  0.1805 -0.3313 -0.3134
 2068SOL    HW117666   1.311   1.286   7.654  0.1612 -1.5806 -3.1360
 2068SOL    HW217667   1.171   1.276   7.680  0.5797  1.0937  1.9688
 2069SOL     OW17668   1.481   1.800   9.162  0.1864  0.3816  0.3208
 2069SOL    HW117669   1.543   1.792   9.234  0.3713  0.9910  0.2261
 2069SOL    HW217670   1.400   1.790   9.213  0.9685  2.1563  1.9160
 2070SOL     OW17671   4.518   1.680   4.099 -0.2900  0.6668  0.3402
 2070SOL    HW117672   4.540   1.588   4.084 -1.6608  0.1873  1.2524
 2070SOL    HW217673   4.426   1.681   4.071 -0.2951 -1.3740  0.3177
 2071SOL     OW17674   4.672   2.343  13.503  0.6163  0.1817  0.9981
 2071SOL    HW117675   0.008   2.274  13.469  1.9310  2.5280 -1.4731
 2071SOL    HW217676   0.011   2.404  13.544  3.4389 -2.8701  1.3526
 2072SOL     OW17677   0.057   3.459   4.797 -0.2342 -0.1677  0.2988
 2072SOL    HW117678   0.151   3.451   4.812 -0.2351  2.2462  1.6666
 2072SOL    HW217679   0.038   3.543   4.840 -2.3658 -1.2864  1.5221
 2073SOL     OW17680   1.033   2.068   3.697  0.4363 -0.5734 -0.0438
 2073SOL    HW117681   1.077   2.126   3.760  0.5392 -0.2086 -0.4487
 2073SOL    HW217682   1.090   1.992   3.711  1.4442  0.3862  1.0712
 2074SOL     OW17683   3.414   4.099   6.725 -0.3775 -0.4219  0.9972
 2074SOL    HW117684   3.411   4.057   6.811  0.4277  0.7315  1.5897
 2074SOL    HW217685   3.463   4.033   6.676 -2.2708  0.4446 -2.0214
 2075SOL     OW17686   0.114   1.049   5.764  0.1647 -0.2436  0.3709
 2075SOL    HW117687   0.115   0.958   5.793 -0.7786 -0.4568 -0.2611
 2075SOL    HW217688   0.100   1.049   5.670 -1.1849 -1.2377  0.5718
 2076SOL     OW17689   2.325   1.144  13.446  0.2026  0.0444  0.2631
 2076SOL    HW117690   2.282   1.063  13.417 -0.9907  1.0397 -0.7439
 2076SOL    HW217691   2.415   1.113  13.439  0.0431 -0.5732  0.8571
 2077SOL     OW17692   4.454   1.974   4.573 -0.4633  0.1397 -0.0233
 2077SOL    HW117693   4.382   1.920   4.539  1.1908 -2.3222  0.3451
 2077SOL    HW217694   4.505   2.005   4.499 -1.0718 -0.7903 -0.8262
 2078SOL     OW17695   0.342   0.989   6.920  0.0673  0.7313 -0.4612
 2078SOL    HW117696   0.436   0.998   6.930  0.1305 -0.5959  0.1720
 2078SOL    HW217697   0.316   1.062   6.863  0.6061 -0.2747 -2.0006
 2079SOL     OW17698   0.260   1.190   7.301  0.0026 -0.2988 -0.3581
 2079SOL    HW117699   0.187   1.129   7.287 -1.8378  1.8204 -0.0483
 2079SOL    HW217700   0.276   1.234   7.217 -0.7900 -0.8396 -0.7947
 2080SOL     OW17701   2.827   3.901  14.925 -0.0441 -0.4567 -0.3733
 2080SOL    HW117702   2.912   3.938  14.900  0.4875 -0.4397  1.4676
 2080SOL    HW217703   2.853   3.841  14.996 -2.7909 -1.0678  0.1103
 2081SOL     OW17704   4.006   2.016   9.270 -0.3364  0.2612 -0.3908
 2081SOL    HW117705   4.061   1.969   9.206  1.3151  2.8493 -0.8721
 2081SOL    HW217706   3.993   2.094   9.217 -1.7585 -0.1780 -0.6814
 2082SOL     OW17707   0.765   4.600   2.242  0.1648  0.0780 -0.5212
 2082SOL    HW117708   0.854   4.566   2.236  0.1453 -0.3961  2.0551
 2082SOL    HW217709   0.718   4.556   2.171 -0.1484  0.9055 -0.8232
 2083SOL     OW17710   0.714   2.056   4.967 -0.0060  0.4026  0.0401
 2083SOL    HW117711   0.797   2.091   4.998  0.0717 -0.8724  1.2389
 2083SOL    HW217712   0.677   2.003   5.037 -3.0809 -0.2674 -2.0884
 2084SOL     OW17713   1.202   4.337   8.169  0.2193  0.3112 -0.4274
 2084SOL    HW117714   1.209   4.427   8.201 -2.3974  0.4064 -0.0672
 2084SOL    HW217715   1.108   4.316   8.175  0.4793 -0.7545 -0.0608
 2085SOL     OW17716   0.026   0.161   0.513 -0.0592  0.9828 -0.4404
 2085SOL    HW117717   4.698   0.157   0.431  0.3639 -0.3513 -0.6270
 2085SOL    HW217718   4.672   0.157   0.572 -0.9605 -1.3306 -1.7670
 2086SOL     OW17719   2.153   2.713   3.298  0.1987  0.3556  0.8659
 2086SOL    HW117720   2.135   2.763   3.378 -4.5620  1.2172 -0.7485
 2086SOL    HW217721   2.153   2.626   3.336  0.9626  0.2272  0.5796
 2087SOL     OW17722   4.084   3.854   7.323  0.1376  0.1050 -0.0639
 2087SOL    HW117723   4.164   3.870   7.373 -1.1050  1.3802  1.5111
 2087SOL    HW217724   4.035   3.792   7.377  0.3874  1.2225  1.4560
 2088SOL     OW17725   1.064   2.749   2.006  0.0826 -0.3559 -0.3200
 2088SOL    HW117726   1.035   2.764   2.096 -0.9696  1.9239 -1.0425
 2088SOL    HW217727   1.157   2.770   2.011  0.4085 -1.9502  0.3815
 2089SOL     OW17728   0.524   4.060  14.504  0.3032 -0.5200 -0.4074
 2089SOL    HW117729   0.604   4.112  14.510 -1.6813  2.5020 -0.0233
 2089SOL    HW217730   0.546   3.977  14.546  0.0957  0.2758  1.2571
 2090SOL     OW17731   0.732   3.359   4.852  0.2400 -0.3231  0.4895
 2090SOL    HW117732   0.774   3.274   4.834 -0.1112 -0.6089  1.0259
 2090SOL    HW217733   0.652   3.328   4.894 -1.1929  0.9729 -1.2921
 2091SOL     OW17734   0.680   0.463   9.482 -0.3844 -0.0641 -0.2764
 2091SOL    HW117735   0.697   0.379   9.440  0.4164 -0.7992  1.5331
 2091SOL    HW217736   0.591   0.439   9.506 -0.3968 -0.8475 -1.0897
 2092SOL     OW17737   1.612   3.320   2.799 -0.6333  0.3527  0.0622
 2092SOL    HW117738   1.539   3.289   2.852 -1.0787  0.2243 -0.6276
 2092SOL    HW217739   1.655   3.373   2.866  0.0844  0.1245 -0.2184
 2093SOL     OW17740   4.148   3.815   8.816  0.3000  0.2503 -0.1966
 2093SOL    HW117741   4.080   3.859   8.868  0.2758  1.5747 -1.3545
 2093SOL    HW217742   4.104   3.802   8.732 -1.3008 -0.5067  0.7584
 2094SOL     OW17743   3.335   0.821  10.480 -0.3676  0.1636  0.7032
 2094SOL    HW117744   3.243   0.831  10.457  0.1709  3.4238  0.0554
 2094SOL    HW217745   3.377   0.779  10.405 -0.4751  0.0519  0.7037
 2095SOL     OW17746   3.791   3.520  15.824  0.3035  0.1499 -0.3570
 2095SOL    HW117747   3.821   3.596  15.775  2.1788 -0.0051  0.5296
 2095SOL    HW217748   3.716   3.559  15.869  0.9971 -0.5563  1.4277
 2096SOL     OW17749   2.620   3.207   8.410  0.3530  0.4837  0.0181
 2096SOL    HW117750   2.576   3.253   8.481 -0.1097 -0.9002  0.6221
 2096SOL    HW217751   2.692   3.270   8.408 -1.1212  2.1757  0.7023
 2097SOL     OW17752   0.293   2.219   5.600  0.3753 -0.1055  0.4189
 2097SOL    HW117753   0.223   2.166   5.562  1.8641  0.7280 -3.5169
 2097SOL    HW217754   0.372   2.183   5.558  0.0734  0.1961 -0.4176
 2098SOL     OW17755   0.105   0.467  15.187 -0.2875  0.0230  0.2064
 2098SOL    HW117756   0.146   0.453  15.101 -0.8936 -2.5017  0.3301
 2098SOL    HW217757   0.092   0.562  15.188 -1.1972 -0.1027 -0.1475
 2099SOL     OW17758   0.734   1.152   3.327 -0.2299  0.2462 -0.5240
 2099SOL    HW117759   0.770   1.135   3.240 -1.7214 -0.5383 -0.9879
 2099SOL    HW217760   0.751   1.246   3.318 -0.6825  0.3132 -0.6580
 2100SOL     OW17761   1.399   4.590   6.420 -0.0898  0.5192 -0.0892
 2100SOL    HW117762   1.381   4.531   6.494 -0.0734  0.6907  0.0507
 2100SOL    HW217763   1.366   4.537   6.348  0.5552  0.0093 -0.0118
 2101SOL     OW17764   3.994   0.859  17.657 -0.0768 -0.2369  0.3102
 2101SOL    HW117765   3.997   0.953  17.638  0.9678  0.6555  5.0269
 2101SOL    HW217766   3.917   0.852   0.022  0.1102  1.9756  0.8668
 2102SOL     OW17767   0.445   3.297   9.900 -0.5860 -0.2226  0.0903
 2102SOL    HW117768   0.508   3.254   9.842  0.4472 -0.1333  1.1419
 2102SOL    HW217769   0.367   3.251   9.869 -1.6720  1.2693  0.6112
 2103SOL     OW17770   3.127   3.951  10.828  0.2795  0.8620 -0.0089
 2103SOL    HW117771   3.109   3.902  10.909  0.5381  0.0431 -0.4483
 2103SOL    HW217772   3.045   3.933  10.782 -0.5996 -1.7807  2.5139
 2104SOL     OW17773   1.121   4.541   1.970 -0.3392 -0.0160  0.2568
 2104SOL    HW117774   1.197   4.563   2.024 -1.0494  0.5994  1.0242
 2104SOL    HW217775   1.154   4.560   1.882 -0.2010  1.3297  0.5903
 2105SOL     OW17776   1.049   4.540   8.484  0.0257  0.7194  0.3601
 2105SOL    HW117777   1.087   4.598   8.418  2.3493  1.1583  2.0983
 2105SOL    HW217778   1.049   4.457   8.437 -1.6297  0.9180 -0.0113
 2106SOL     OW17779   0.744   0.840   6.252  0.0007 -0.5464  0.2314
 2106SOL    HW117780   0.768   0.914   6.197  3.1223 -1.1448  0.8391
 2106SOL    HW217781   0.788   0.762   6.220  0.1829 -0.9679  1.4965
 2107SOL     OW17782   3.555   1.424   6.164 -0.0848 -0.1080  0.2292
 2107SOL    HW117783   3.571   1.513   6.193  0.8814 -0.5981  1.1958
 2107SOL    HW217784   3.615   1.414   6.090  0.0749 -0.0021  0.3468
 2108SOL     OW17785   0.214   3.288  12.211 -0.3132  0.2631 -0.3071
 2108SOL    HW117786   0.157   3.215  12.235  0.0127  0.0434 -0.1955
 2108SOL    HW217787   0.294   3.238  12.197 -1.1230 -0.8410 -0.9827
 2109SOL     OW17788   2.040   3.570   7.943  0.0816  0.2863 -0.2227
 2109SOL    HW117789   2.016   3.524   8.024  0.9028  2.4680  1.2672
 2109SOL    HW217790   1.970   3.636   7.942  0.0109  0.1917 -1.3116
 2110SOL     OW17791   1.088   1.770  13.735 -0.0268 -0.6011 -0.5037
 2110SOL    HW117792   1.144   1.766  13.657  1.1217 -1.8723  0.3992
 2110SOL    HW217793   1.149   1.807  13.798  2.0958 -3.0047 -1.1604
 2111SOL     OW17794   0.612   1.479   1.062  0.5276 -0.0515  0.1842
 2111SOL    HW117795   0.542   1.504   1.002  2.3260  2.1271 -1.0022
 2111SOL    HW217796   0.607   1.383   1.057  0.3198 -0.0897  1.0830
 2112SOL     OW17797   0.398   0.938   3.598  0.0511 -0.3348 -0.0476
 2112SOL    HW117798   0.391   0.857   3.648 -1.5702  0.4915  1.0694
 2112SOL    HW217799   0.488   0.963   3.617 -0.1531  0.6447 -0.3207
 2113SOL     OW17800   1.089   2.919   2.932 -0.3202 -0.6145  0.5848
 2113SOL    HW117801   1.044   2.847   2.887  1.1434 -0.3845 -1.2778
 2113SOL    HW217802   1.147   2.881   2.998 -0.7395 -0.4525  1.0434
 2114SOL     OW17803   4.546   4.342   5.441 -0.5651 -0.4823 -0.0832
 2114SOL    HW117804   4.523   4.249   5.433 -1.6572 -0.2883  0.8743
 2114SOL    HW217805   4.607   4.354   5.369 -1.4887 -0.6245 -0.8925
 2115SOL     OW17806   3.150   4.646  11.903  0.1619 -0.8861  0.7778
 2115SOL    HW117807   3.098   4.715  11.943  0.0105 -1.3306  1.3434
 2115SOL    HW217808   3.224   4.695  11.866 -0.6827 -0.4506 -0.3328
 2116SOL     OW17809   4.395   2.949  14.015 -0.1170 -0.1281  0.4471
 2116SOL    HW117810   4.383   3.037  13.982 -0.2156 -0.3945 -0.2234
 2116SOL    HW217811   4.487   2.937  13.991 -0.1653 -1.3857  0.8850
 2117SOL     OW17812   1.628   2.986   1.345 -0.0050 -0.7345  0.6413
 2117SOL    HW117813   1.605   2.903   1.303  0.8731 -0.4425 -0.4028
 2117SOL    HW217814   1.684   2.953   1.415 -1.8135 -0.9437  1.9916
 2118SOL     OW17815   4.362   2.302   0.853  0.1082 -0.6637 -0.2429
 2118SOL    HW117816   4.430   2.311   0.920  0.3786 -0.7980 -0.4987
 2118SOL    HW217817   4.385   2.218   0.814  2.1009  0.3850 -1.3319
 2119SOL     OW17818   1.309   4.279   2.312  0.1246  0.0069  0.3236
 2119SOL    HW117819   1.226   4.232   2.316  0.9468 -1.4664  0.2598
 2119SOL    HW217820   1.353   4.250   2.392  1.8009 -0.1920 -0.6560
 2120SOL     OW17821   2.531   3.776  14.475  0.4268  0.5269 -0.3871
 2120SOL    HW117822   2.586   3.698  14.470  1.0184  0.7475  2.7352
 2120SOL    HW217823   2.567   3.822  14.399  0.0502 -0.9515 -1.4807
 2121SOL     OW17824   1.073   1.245   2.387  0.3969 -0.5721 -0.0773
 2121SOL    HW117825   1.122   1.311   2.339  0.7906 -0.2732  0.7204
 2121SOL    HW217826   1.056   1.282   2.474 -1.3800 -2.3880  0.3459
 2122SOL     OW17827   4.584   4.567  17.140 -0.9100  0.2310  0.3987
 2122SOL    HW117828   4.572   4.621  17.061 -0.7211  0.0931  0.2777
 2122SOL    HW217829   4.656   4.611  17.185  0.0435 -1.0300  0.1028
 2123SOL     OW17830   2.261   0.915   0.532  0.2571  0.4071  0.1398
 2123SOL    HW117831   2.327   0.883   0.471  1.8785  2.0822  1.0222
 2123SOL    HW217832   2.296   0.889   0.617  1.4495 -2.7984 -1.3268
 2124SOL     OW17833   0.349   3.483   1.557  0.6195 -0.5191  0.1544
 2124SOL    HW117834   0.429   3.449   1.517  1.5641  3.0099 -0.9509
 2124SOL    HW217835   0.375   3.488   1.649 -1.6907 -2.2470  0.8870
 2125SOL     OW17836   2.943   1.083   5.296  0.2069  0.7487  0.1795
 2125SOL    HW117837   3.012   1.147   5.277 -0.5131  0.8359 -2.2239
 2125SOL    HW217838   2.914   1.067   5.206 -1.1542 -0.5344  0.8715
 2126SOL     OW17839   2.469   1.189   5.571  0.1502  0.2599 -0.1016
 2126SOL    HW117840   2.401   1.256   5.567 -0.0944 -0.0914 -1.8131
 2126SOL    HW217841   2.440   1.138   5.495 -3.0016  1.2054  0.4867
 2127SOL     OW17842   2.339   1.890  14.868 -0.4539 -0.3497  0.7164
 2127SOL    HW117843   2.434   1.899  14.869 -0.3753 -1.2465  1.2311
 2127SOL    HW217844   2.309   1.905  14.958  0.8320  0.2056  1.0532
 2128SOL     OW17845   0.528   1.920   7.562  0.7825  0.1758 -0.0016
 2128SOL    HW117846   0.438   1.925   7.596  0.5180 -0.7031 -0.5916
 2128SOL    HW217847   0.578   1.947   7.639  0.2071  1.9174 -0.2251
 2129SOL     OW17848   2.167   1.339   2.580  0.3164  0.3052  0.3205
 2129SOL    HW117849   2.255   1.328   2.545  0.4985  2.1562  0.2100
 2129SOL    HW217850   2.125   1.261   2.544 -0.9423  0.7204  0.8825
 2130SOL     OW17851   1.081   0.740   6.412 -0.0962 -0.2405 -0.3546
 2130SOL    HW117852   1.175   0.721   6.416  0.2178  1.3427 -0.1416
 2130SOL    HW217853   1.091   0.821   6.362  1.0047  1.9672  3.3949
 2131SOL     OW17854   4.284   2.936   3.672 -0.0144 -0.3592  0.2538
 2131SOL    HW117855   4.194   2.958   3.648  0.0042 -2.2442 -1.4905
 2131SOL    HW217856   4.303   2.873   3.603 -0.8462 -0.0034 -0.3042
 2132SOL     OW17857   1.302   0.969   7.663  0.0445 -0.0626  0.2754
 2132SOL    HW117858   1.290   0.899   7.727  2.2918 -1.7558 -1.1130
 2132SOL    HW217859   1.266   0.935   7.581 -2.1077  1.0814  0.7697
 2133SOL     OW17860   3.149   0.777   6.423  0.5299  0.7533  0.5371
 2133SOL    HW117861   3.143   0.863   6.382  2.1774  0.2499 -0.7581
 2133SOL    HW217862   3.206   0.738   6.356  0.8366  0.2920  1.0642
 2134SOL     OW17863   3.185   4.101   2.879  0.4296 -0.1211  0.1161
 2134SOL    HW117864   3.256   4.117   2.941 -1.0930  0.5260  1.6913
 2134SOL    HW217865   3.221   4.036   2.818 -1.4301 -0.9705 -0.0824
 2135SOL     OW17866   4.049   1.515  13.481  0.1617 -0.3912 -0.2612
 2135SOL    HW117867   4.051   1.465  13.563  0.2651  0.4224  0.2404
 2135SOL    HW217868   4.065   1.605  13.511  1.9909 -0.3591 -1.3151
 2136SOL     OW17869   0.490   0.711   4.687  0.1485  0.0205  0.1307
 2136SOL    HW117870   0.556   0.644   4.669 -0.9896 -0.6253 -1.5360
 2136SOL    HW217871   0.426   0.659   4.735  1.6329 -2.3437 -0.4630
 2137SOL     OW17872   1.706   0.556   7.969  0.3162 -0.7333 -0.2358
 2137SOL    HW117873   1.630   0.498   7.962 -1.2444  1.1566  1.1553
 2137SOL    HW217874   1.688   0.576   8.061  0.0083 -0.0844 -0.4389
 2138SOL     OW17875   0.112   2.358   2.482 -0.6274 -0.1657  0.4803
 2138SOL    HW117876   0.021   2.388   2.488 -0.1255  1.1698  1.4293
 2138SOL    HW217877   0.113   2.271   2.442 -2.4011 -0.3985  0.9081
 2139SOL     OW17878   1.514   3.686  17.565 -0.3900  0.0952  0.2180
 2139SOL    HW117879   1.584   3.629  17.534 -0.8425 -0.2378 -0.1802
 2139SOL    HW217880   1.445   3.679  17.500 -1.3654 -1.4903  1.4194
 2140SOL     OW17881   2.603   0.783   8.439  0.0674 -0.3871 -0.1059
 2140SOL    HW117882   2.613   0.812   8.348 -0.6357  0.8340  0.2125
 2140SOL    HW217883   2.600   0.688   8.430 -3.3396 -0.2309 -0.8972
 2141SOL     OW17884   3.137   1.654   5.636  0.0192  0.2889 -0.1773
 2141SOL    HW117885   3.108   1.609   5.715  0.4630 -0.6820 -0.5634
 2141SOL    HW217886   3.091   1.737   5.636  0.1055  0.3428 -1.8251
 2142SOL     OW17887   2.911   2.163  14.553 -0.1950 -0.2959 -0.2926
 2142SOL    HW117888   2.942   2.233  14.612  0.9784 -0.9094 -0.1788
 2142SOL    HW217889   2.868   2.221  14.490  0.4008  1.1668  0.6310
 2143SOL     OW17890   0.668   2.415  15.145  0.0120 -0.0703 -0.3514
 2143SOL    HW117891   0.622   2.410  15.061  0.2356  0.7722 -0.5212
 2143SOL    HW217892   0.684   2.509  15.147 -0.5378  0.0234 -0.4297
 2144SOL     OW17893   4.343   3.605   7.597 -0.2692 -0.6047  0.4907
 2144SOL    HW117894   4.412   3.548   7.631  1.3214  2.4871  2.4543
 2144SOL    HW217895   4.328   3.667   7.669  1.4846  0.2697  0.1061
 2145SOL     OW17896   3.853   4.506   7.847 -0.6437 -0.0763  0.0438
 2145SOL    HW117897   3.898   4.428   7.880 -0.8162  0.8027  2.3262
 2145SOL    HW217898   3.763   4.471   7.853 -1.2930  1.3542 -1.3155
 2146SOL     OW17899   1.133   0.539   9.375 -0.4577  0.1490  0.4591
 2146SOL    HW117900   1.135   0.618   9.429  0.4077 -0.0330  0.6842
 2146SOL    HW217901   1.102   0.474   9.439 -0.0364  0.2899  0.8059
 2147SOL     OW17902   0.459   3.544   6.317 -0.3824  0.2253  0.1551
 2147SOL    HW117903   0.529   3.541   6.382  0.1104  1.0892 -0.3393
 2147SOL    HW217904   0.454   3.640   6.316 -0.7946  0.1969 -0.3036
 2148SOL     OW17905   3.755   1.145   9.744 -0.0057  0.0566  0.8237
 2148SOL    HW117906   3.791   1.057   9.746  0.0198  0.0175 -1.1497
 2148SOL    HW217907   3.667   1.127   9.777 -0.1046  0.5834  0.8505
 2149SOL     OW17908   0.274   2.639   3.369  0.0345 -0.1683 -0.2330
 2149SOL    HW117909   0.277   2.546   3.345 -0.8037  0.0595 -1.2368
 2149SOL    HW217910   0.183   2.656   3.396  0.3245 -0.2608  0.8069
 2150SOL     OW17911   1.342   4.390   3.814  0.4951  0.1937 -0.2412
 2150SOL    HW117912   1.311   4.311   3.769 -1.5855  1.1842 -0.5705
 2150SOL    HW217913   1.309   4.383   3.904 -0.4141  0.9044 -0.5258
 2151SOL     OW17914   4.151   3.022  10.085  0.9687 -0.1045  0.5221
 2151SOL    HW117915   4.235   2.997  10.048  0.2262  0.8140 -1.7951
 2151SOL    HW217916   4.186   3.039  10.172 -0.9523  0.9213  1.1085
 2152SOL     OW17917   1.969   1.728  16.509 -0.0502 -0.0530  0.1275
 2152SOL    HW117918   1.882   1.692  16.521  0.2625 -0.6872  0.4657
 2152SOL    HW217919   1.966   1.769  16.422 -0.6705 -0.0050  0.1770
 2153SOL     OW17920   0.328   3.283  13.645  0.1468 -0.1339  0.5144
 2153SOL    HW117921   0.298   3.373  13.659  0.0472 -0.3201  1.5490
 2153SOL    HW217922   0.420   3.289  13.673  0.0389 -0.4984  0.9621
 2154SOL     OW17923   3.358   2.974   0.464  0.3325  0.0827 -0.4097
 2154SOL    HW117924   3.338   2.922   0.386 -0.4424 -0.3883  0.1020
 2154SOL    HW217925   3.297   2.936   0.526 -0.3386 -1.6706 -2.1510
 2155SOL     OW17926   0.009   4.323   6.429 -0.0587  0.3825 -0.0763
 2155SOL    HW117927   4.640   4.296   6.446 -0.1427  0.9215  0.3298
 2155SOL    HW217928   4.721   4.387   6.359 -0.1142  1.4366  0.8888
 2156SOL     OW17929   3.011   0.466   2.856 -0.4912  0.0230  0.1721
 2156SOL    HW117930   2.963   0.462   2.773 -0.8458 -0.8508  0.4188
 2156SOL    HW217931   2.943   0.489   2.919  0.5522  2.4018  0.4332
 2157SOL     OW17932   1.333   1.505  16.322 -0.4264 -0.1817 -0.0077
 2157SOL    HW117933   1.338   1.578  16.260  1.7908  0.0592  0.4375
 2157SOL    HW217934   1.422   1.495  16.355 -0.3754 -0.1481 -0.1322
 2158SOL     OW17935   2.034   0.595   8.877 -0.3057  0.2681  0.2276
 2158SOL    HW117936   1.992   0.509   8.885 -0.4518  0.4063  0.8827
 2158SOL    HW217937   2.122   0.579   8.910  0.1068  0.8859 -0.5523
 2159SOL     OW17938   1.803   2.145   2.521  0.6633  0.2722 -0.2695
 2159SOL    HW117939   1.864   2.209   2.558  0.8367  0.6642 -1.2262
 2159SOL    HW217940   1.822   2.068   2.575  0.9609 -0.6114 -1.6476
 2160SOL     OW17941   1.041   0.719   4.838  0.1032  0.6025  0.6656
 2160SOL    HW117942   1.125   0.753   4.868 -0.2811  1.2630  1.0127
 2160SOL    HW217943   1.066   0.678   4.755 -0.0445  1.6869  0.0758
 2161SOL     OW17944   2.097   3.672   8.658  0.1501  0.2055  0.1863
 2161SOL    HW117945   2.006   3.692   8.682  0.5488 -0.0085  1.8930
 2161SOL    HW217946   2.089   3.682   8.563 -1.1200 -2.6549 -0.0122
 2162SOL     OW17947   4.520   2.016  16.188  0.1633 -0.2064  0.4012
 2162SOL    HW117948   4.438   1.981  16.154 -0.2689  0.9202  0.2916
 2162SOL    HW217949   4.574   2.027  16.109  0.8347 -2.3097  0.5774
 2163SOL     OW17950   0.891   3.810  16.629 -0.1738  0.2559 -0.1594
 2163SOL    HW117951   0.857   3.894  16.595 -0.9275  0.0610  0.1198
 2163SOL    HW217952   0.833   3.803  16.705  0.7454  2.1317  0.7321
 2164SOL     OW17953   3.042   1.970  10.993 -0.2224  0.1444  0.0517
 2164SOL    HW117954   3.088   1.963  11.076 -0.4515  1.1859  0.2565
 2164SOL    HW217955   3.100   2.026  10.942  1.1537 -0.3871  1.0420
 2165SOL     OW17956   1.895   4.445   6.563  0.2657 -0.1120  0.0255
 2165SOL    HW117957   1.877   4.355   6.587 -0.0587 -0.5996 -2.0770
 2165SOL    HW217958   1.978   4.456   6.609  0.3128 -0.6210  0.0577
 2166SOL     OW17959   2.118   4.116  11.416  0.7598  0.1085 -0.3274
 2166SOL    HW117960   2.062   4.194  11.417  1.8567  0.9626 -2.4166
 2166SOL    HW217961   2.176   4.127  11.492  1.4997  0.9445 -0.9925
 2167SOL     OW17962   3.131   0.289   6.232  0.4444  0.2953  0.0018
 2167SOL    HW117963   3.083   0.328   6.159  1.7921 -0.1079 -1.1055
 2167SOL    HW217964   3.207   0.346   6.218  0.5218  0.1813 -0.0353
 2168SOL     OW17965   0.190   3.675   8.618  0.0698  0.3052 -0.3791
 2168SOL    HW117966   0.101   3.642   8.631 -0.2135  1.4475  0.5736
 2168SOL    HW217967   0.242   3.649   8.694  0.7976 -0.7312 -1.2192
 2169SOL     OW17968   0.353   4.289  11.440 -0.4570  0.2136 -0.0793
 2169SOL    HW117969   0.292   4.318  11.373  0.0462  0.4627 -0.4330
 2169SOL    HW217970   0.435   4.320  11.401 -1.3520 -1.4732 -3.3175
 2170SOL     OW17971   0.924   4.331   8.150  0.0065  0.4178  0.1916
 2170SOL    HW117972   0.886   4.243   8.149 -0.2146  0.4967  1.6434
 2170SOL    HW217973   0.858   4.371   8.207 -1.2920 -1.1517 -0.2275
 2171SOL     OW17974   4.397   2.768   9.323 -0.3291 -0.4139  0.3914
 2171SOL    HW117975   4.427   2.677   9.320  1.0666 -0.0335  2.6652
 2171SOL    HW217976   4.331   2.765   9.392  0.2324 -0.3206  0.9349
 2172SOL     OW17977   0.416   2.991  13.461  0.2035 -0.3189  0.0850
 2172SOL    HW117978   0.386   3.055  13.397 -1.2041 -1.4411 -0.3795
 2172SOL    HW217979   0.387   2.908  13.422 -0.2773 -0.7126  1.2710
 2173SOL     OW17980   0.522   3.981   2.070  0.3700  0.3152  0.1771
 2173SOL    HW117981   0.605   3.947   2.104  0.1266 -1.9333 -1.5166
 2173SOL    HW217982   0.532   3.959   1.978  1.3615 -0.5968  0.4929
 2174SOL     OW17983   1.607   1.621   4.948 -0.1661 -0.0131  0.3626
 2174SOL    HW117984   1.571   1.699   4.905 -1.9529 -1.5001 -0.8335
 2174SOL    HW217985   1.533   1.561   4.945  0.1321 -0.3258 -0.6812
 2175SOL     OW17986   2.316   2.025   8.020 -0.2662 -0.2289  0.3111
 2175SOL    HW117987   2.241   1.972   8.049 -0.3976 -0.0870  0.2322
 2175SOL    HW217988   2.382   1.956   8.015  0.5830  0.7322 -1.8244
 2176SOL     OW17989   3.853   0.473   4.162  0.7640 -0.4955  0.1758
 2176SOL    HW117990   3.937   0.514   4.182  0.6415 -0.1655  0.0128
 2176SOL    HW217991   3.784   0.539   4.170 -0.2066 -1.6461  1.2863
 2177SOL     OW17992   0.527   1.887  10.983 -0.1975 -0.0176 -0.2775
 2177SOL    HW117993   0.463   1.924  10.922  0.8658  0.3387 -1.1872
 2177SOL    HW217994   0.581   1.839  10.919 -1.2105 -1.6822  0.1157
 2178SOL     OW17995   0.484   0.384   0.269 -0.0063  0.0243 -0.4347
 2178SOL    HW117996   0.525   0.298   0.280  0.3072  0.3962  1.3714
 2178SOL    HW217997   0.525   0.429   0.344 -0.3583 -0.9007  0.3121
 2179SOL     OW17998   2.496   4.240  16.554  0.0462  0.0996 -0.1947
 2179SOL    HW117999   2.589   4.217  16.551 -0.1055 -0.5603  0.0802
 2179SOL    HW218000   2.502   4.335  16.555 -0.7647  0.1674 -1.5149
 2180SOL     OW18001   2.947   4.574   2.343  0.6318  0.2912 -0.0061
 2180SOL    HW118002   3.042   4.585   2.345  1.0550 -3.5010  2.1081
 2180SOL    HW218003   2.925   4.537   2.428 -0.2707 -0.8101 -0.7034
 2181SOL     OW18004   3.809   2.375   7.272 -0.3348  0.3658  0.1829
 2181SOL    HW118005   3.790   2.287   7.307  1.8581  0.4108  1.4964
 2181SOL    HW218006   3.863   2.403   7.346  1.9012  0.1932 -1.3862
 2182SOL     OW18007   0.745   0.731   4.931  0.6009  0.5338 -0.2783
 2182SOL    HW118008   0.839   0.727   4.914  0.6222  2.5011 -0.5747
 2182SOL    HW218009   0.722   0.790   4.860  0.6083  0.3973 -0.3943
 2183SOL     OW18010   2.998   3.545  12.178 -0.1800 -0.5531 -0.3998
 2183SOL    HW118011   3.034   3.486  12.245 -0.0054 -2.2910 -2.0449
 2183SOL    HW218012   2.946   3.481  12.129 -1.2470 -0.1698  0.2368
 2184SOL     OW18013   3.962   4.319   4.251  0.3180  0.4960 -0.1567
 2184SOL    HW118014   3.875   4.315   4.211  1.0544 -0.1494 -1.6745
 2184SOL    HW218015   3.988   4.227   4.252  1.0606  0.6970 -1.2844
 2185SOL     OW18016   3.955   4.527   7.489  0.8418 -0.2909  0.2365
 2185SOL    HW118017   3.926   4.585   7.419  0.6470 -1.0092 -0.2729
 2185SOL    HW218018   3.870   4.487   7.507  0.9558  0.4692  2.5087
 2186SOL     OW18019   4.532   1.350   7.589  0.3976  0.3358  0.3021
 2186SOL    HW118020   4.440   1.375   7.594  0.8266  1.8499  0.7433
 2186SOL    HW218021   4.562   1.426   7.539  0.6391  1.5815  2.3045
 2187SOL     OW18022   2.547   3.138   6.816 -0.2427 -0.0781 -0.2419
 2187SOL    HW118023   2.596   3.148   6.734  1.3428  1.4953  0.8924
 2187SOL    HW218024   2.552   3.045   6.836 -0.4498  0.0998  0.6172
 2188SOL     OW18025   4.441   4.198  15.363 -0.4954  0.2489  0.3855
 2188SOL    HW118026   4.377   4.159  15.303 -0.5239 -0.3793  0.8183
 2188SOL    HW218027   4.377   4.253  15.407 -0.3156  0.7119  0.0673
 2189SOL     OW18028   2.999   3.395  10.013 -0.2186 -0.1971 -0.1226
 2189SOL    HW118029   3.082   3.361   9.978  0.2415  0.4524  0.3363
 2189SOL    HW218030   2.938   3.403   9.940  0.2891 -0.7614 -0.6088
 2190SOL     OW18031   3.690   0.149  16.767  0.2299 -0.3543 -0.1097
 2190SOL    HW118032   3.604   0.169  16.803  0.5179 -1.0004  0.9188
 2190SOL    HW218033   3.722   0.236  16.790  1.9609 -1.3457  1.2041
 2191SOL     OW18034   0.551   4.343  10.158  0.0923 -0.8612 -0.1804
 2191SOL    HW118035   0.554   4.436  10.181 -0.4781 -0.9832  0.3936
 2191SOL    HW218036   0.535   4.350  10.064  2.8298  0.0433 -0.5713
 2192SOL     OW18037   3.285   0.147   4.565 -0.1454  0.1780 -0.0921
 2192SOL    HW118038   3.334   0.208   4.620 -0.8046  0.6477 -0.0209
 2192SOL    HW218039   3.347   0.118   4.498  1.3064 -0.6383  1.5838
 2193SOL     OW18040   0.507   0.825   0.679 -0.2282 -0.5583 -0.4036
 2193SOL    HW118041   0.545   0.904   0.639 -0.9998  0.7743  1.4965
 2193SOL    HW218042   0.448   0.872   0.738 -0.0256  0.4494 -0.9977
 2194SOL     OW18043   2.164   2.680   6.664  0.1425  0.1847 -0.0727
 2194SOL    HW118044   2.233   2.695   6.600  0.7289  1.6562  0.8808
 2194SOL    HW218045   2.171   2.767   6.704  1.5671  0.3627 -0.7135
 2195SOL     OW18046   0.839   2.398   2.315 -0.1512 -0.3607 -0.2894
 2195SOL    HW118047   0.768   2.334   2.320  1.6005 -2.5587 -3.2504
 2195SOL    HW218048   0.862   2.383   2.406 -1.8203  0.2731  0.2473
 2196SOL     OW18049   1.391   0.807   4.605 -0.0451  0.5910 -0.0847
 2196SOL    HW118050   1.470   0.795   4.553 -0.2580  1.8888 -0.6920
 2196SOL    HW218051   1.353   0.890   4.578 -1.5779  0.0959  0.5515
 2197SOL     OW18052   2.103   3.491  16.236  0.5971 -0.2540  0.2795
 2197SOL    HW118053   2.029   3.489  16.176  0.0169 -0.1672  0.9958
 2197SOL    HW218054   2.169   3.528  16.177  0.8461  1.8854  1.9140
 2198SOL     OW18055   4.454   2.325   7.376 -0.5266  0.3181 -0.0226
 2198SOL    HW118056   4.456   2.410   7.332  1.3697  1.7355  2.7522
 2198SOL    HW218057   4.540   2.289   7.353 -0.6101 -0.1935  0.4446
 2199SOL     OW18058   0.358   0.191   4.314 -0.0613  0.4248  0.1127
 2199SOL    HW118059   0.290   0.124   4.310 -0.2366  0.5700  0.6799
 2199SOL    HW218060   0.326   0.233   4.234 -1.2396 -1.4244 -0.3761
 2200SOL     OW18061   0.911   3.092   8.035 -0.2048  0.4820  0.2838
 2200SOL    HW118062   0.947   3.026   8.094  2.3921  0.4691 -1.3332
 2200SOL    HW218063   0.990   3.142   8.014 -0.6289  0.6660 -0.8770
 2201SOL     OW18064   1.999   0.185   5.613  0.5999  0.4608  0.4924
 2201SOL    HW118065   1.931   0.192   5.546  1.0982 -0.1692 -0.0935
 2201SOL    HW218066   2.036   0.273   5.616 -0.5751  0.9293  1.0900
 2202SOL     OW18067   2.382   2.650  10.843  0.0086  0.4875 -0.5409
 2202SOL    HW118068   2.421   2.596  10.913  0.0972 -0.5807 -1.4191
 2202SOL    HW218069   2.292   2.617  10.844 -0.9261  2.9985 -0.3442
 2203SOL     OW18070   1.845   4.174   6.866 -0.6184 -0.1183  0.0246
 2203SOL    HW118071   1.899   4.097   6.852 -0.8978  0.0227 -1.8010
 2203SOL    HW218072   1.765   4.123   6.879  1.2816 -3.3144 -1.1300
 2204SOL     OW18073   3.772   3.440  16.956  0.4481  0.0404  0.3366
 2204SOL    HW118074   3.786   3.431  16.862  1.7605  0.2755  0.5044
 2204SOL    HW218075   3.861   3.439  16.990 -0.1067 -1.4211  1.7577
 2205SOL     OW18076   1.400   0.014  12.655 -0.4236  0.5922 -0.4870
 2205SOL    HW118077   1.486   0.043  12.686 -0.9909  0.5126  1.1243
 2205SOL    HW218078   1.426   4.691  12.574  0.0847 -0.6952  0.3874
 2206SOL     OW18079   0.540   0.297  16.279 -0.0369 -0.5645 -0.2240
 2206SOL    HW118080   0.493   0.315  16.198  0.4016  0.1207 -0.3271
 2206SOL    HW218081   0.481   0.338  16.343  0.3467 -0.5262  0.1075
 2207SOL     OW18082   1.203   4.631   3.308  0.0310 -0.2346 -0.0585
 2207SOL    HW118083   1.239   4.578   3.379  0.4262 -0.4088 -0.3884
 2207SOL    HW218084   1.134   4.573   3.276 -0.7141  0.3218  0.5613
 2208SOL     OW18085   2.948   3.199   4.190  0.2708  0.2272  0.1126
 2208SOL    HW118086   2.855   3.176   4.183  0.2722  1.0255 -2.7259
 2208SOL    HW218087   2.939   3.294   4.196  0.8677  0.2642  0.3744
 2209SOL     OW18088   4.579   3.910  14.304 -0.1517  0.3272 -0.1686
 2209SOL    HW118089   4.498   3.908  14.253  0.1561  1.8033 -0.7229
 2209SOL    HW218090   4.607   3.819  14.297  0.4883  0.5175 -0.0554
 2210SOL     OW18091   4.684   2.943  13.998 -0.0057  0.0083  0.1209
 2210SOL    HW118092   4.691   3.017  14.058  1.7191  0.2943 -0.4498
 2210SOL    HW218093   0.046   2.939  13.954  0.3887  0.7094  0.8213
 2211SOL     OW18094   1.040   0.735  17.033  0.3407  0.3892 -0.3638
 2211SOL    HW118095   0.955   0.758  16.997 -0.3291  1.9775  2.3026
 2211SOL    HW218096   1.034   0.759  17.125  1.8236  0.0998 -0.1909
 2212SOL     OW18097   1.189   2.983   2.616  0.4824  0.1427  0.4150
 2212SOL    HW118098   1.166   3.052   2.679 -0.7095  1.1045 -1.0493
 2212SOL    HW218099   1.110   2.930   2.620 -1.0114  2.3572  0.7534
 2213SOL     OW18100   0.050   0.270   4.319 -0.2491  0.2793 -0.2324
 2213SOL    HW118101   0.058   0.196   4.378 -1.4058 -0.7042 -1.3056
 2213SOL    HW218102   0.010   0.232   4.240  0.1011 -0.0603 -0.2442
 2214SOL     OW18103   3.656   4.154  14.038 -0.1872  0.0424  0.2554
 2214SOL    HW118104   3.742   4.114  14.048  0.3283  1.1188  0.1801
 2214SOL    HW218105   3.650   4.225  14.102 -0.5368 -2.8510  3.4335
 2215SOL     OW18106   3.002   3.972  12.007 -0.4025 -0.1093 -0.1388
 2215SOL    HW118107   3.044   4.054  12.031  2.1021 -0.8851 -1.9525
 2215SOL    HW218108   2.931   4.003  11.951  1.7639  1.2213 -2.0905
 2216SOL     OW18109   1.592   4.257   8.711  0.2932  0.1389 -0.2353
 2216SOL    HW118110   1.665   4.234   8.769 -2.5244 -2.2785  2.4143
 2216SOL    HW218111   1.569   4.174   8.669  1.6038 -0.3667  0.0347
 2217SOL     OW18112   3.759   1.868   8.056  0.4834  0.2272  0.6776
 2217SOL    HW118113   3.685   1.813   8.083  0.6380  0.5525  1.7885
 2217SOL    HW218114   3.734   1.894   7.968  1.4047  1.3646  0.7577
 2218SOL     OW18115   4.418   2.666   9.947 -0.4414 -0.0959 -0.3071
 2218SOL    HW118116   4.455   2.709   9.869 -1.0196  0.6100 -0.1906
 2218SOL    HW218117   4.424   2.575   9.918  1.0534  0.3011 -1.2891
 2219SOL     OW18118   2.421   4.566   7.052 -0.0030  0.2988 -0.5684
 2219SOL    HW118119   2.337   4.587   7.091  1.0692  1.9517  0.8725
 2219SOL    HW218120   2.476   4.608   7.118  3.0143 -0.3840 -2.6251
 2220SOL     OW18121   3.390   0.853   9.457 -0.0917  0.3693 -0.1355
 2220SOL    HW118122   3.312   0.797   9.462 -1.2691  2.2214  2.0905
 2220SOL    HW218123   3.367   0.906   9.381 -2.4498  0.9214  0.9585
 2221SOL     OW18124   1.954   3.273   5.387  0.0231 -0.6358  0.8385
 2221SOL    HW118125   1.932   3.180   5.398 -0.0612 -0.5689  1.2258
 2221SOL    HW218126   2.022   3.285   5.454 -0.0199 -1.2760  0.9969
 2222SOL     OW18127   2.131   1.484   2.288  0.7339 -0.2123  0.0323
 2222SOL    HW118128   2.112   1.413   2.350  0.9460 -0.1195  0.2064
 2222SOL    HW218129   2.217   1.504   2.326  0.5446 -2.8537  1.8529
 2223SOL     OW18130   1.883   1.124   1.930  0.3264 -0.0570 -0.2661
 2223SOL    HW118131   1.804   1.176   1.915  1.2167  1.2496 -0.4493
 2223SOL    HW218132   1.858   1.079   2.011 -1.5682  0.6119 -0.4808
 2224SOL     OW18133   4.465   0.359   4.877  0.2874  0.1743 -0.6562
 2224SOL    HW118134   4.412   0.326   4.950 -1.3637  0.5229 -1.6946
 2224SOL    HW218135   4.553   0.346   4.913 -0.7215 -1.4360  1.2262
 2225SOL     OW18136   1.541   3.545  14.385  0.2953 -0.1419 -0.1534
 2225SOL    HW118137   1.538   3.594  14.467  1.1316 -2.4619  1.2689
 2225SOL    HW218138   1.503   3.610  14.326 -1.9474 -2.5400 -1.3582
 2226SOL     OW18139   1.889   4.227   3.275 -0.5096  0.2418 -0.2021
 2226SOL    HW118140   1.959   4.272   3.227  0.6849  0.5919  1.8841
 2226SOL    HW218141   1.903   4.245   3.368  2.2492 -2.4960 -0.0885
 2227SOL     OW18142   4.111   0.924   0.240  0.4400 -0.0562  0.0542
 2227SOL    HW118143   4.202   0.900   0.223 -0.0096  0.2869 -2.7058
 2227SOL    HW218144   4.063   0.862   0.185 -0.3537 -0.2067  0.9182
 2228SOL     OW18145   1.096   4.619   3.846  0.4144 -0.3372 -0.0042
 2228SOL    HW118146   1.121   4.556   3.914  1.6984  0.7036  0.4867
 2228SOL    HW218147   1.005   4.640   3.866  0.4047 -1.0056  0.6405
 2229SOL     OW18148   3.561   3.223  13.110 -0.4860 -0.1081  0.1330
 2229SOL    HW118149   3.545   3.131  13.129 -1.4736 -0.1424 -0.8355
 2229SOL    HW218150   3.473   3.250  13.081 -1.5035 -1.3893  2.0723
 2230SOL     OW18151   1.456   3.989  14.251  0.2112  0.4548  0.1142
 2230SOL    HW118152   1.385   4.037  14.293 -0.2928  0.0410 -0.2723
 2230SOL    HW218153   1.513   4.065  14.235  0.6457  0.4454  1.6405
 2231SOL     OW18154   2.850   3.952   2.688  0.2203  0.2932  0.0137
 2231SOL    HW118155   2.928   3.943   2.744 -0.0189  0.5978  0.4010
 2231SOL    HW218156   2.789   3.979   2.757  0.9077  1.4292  0.1965
 2232SOL     OW18157   2.162   3.552   4.525 -0.3969  0.0107 -0.1475
 2232SOL    HW118158   2.077   3.525   4.559  0.3350 -0.4411  1.3085
 2232SOL    HW218159   2.158   3.512   4.439 -0.9355 -1.3052  0.4945
 2233SOL     OW18160   4.468   2.543  14.405 -0.7868  0.1073 -0.6559
 2233SOL    HW118161   4.403   2.608  14.432 -1.0822 -0.6614  0.5132
 2233SOL    HW218162   4.427   2.511  14.325 -0.8713 -0.3880 -0.4169
 2234SOL     OW18163   3.727   3.775  14.827 -0.1493  0.3315 -0.2126
 2234SOL    HW118164   3.653   3.820  14.868 -1.8438 -0.2635 -2.5778
 2234SOL    HW218165   3.709   3.685  14.855  1.0574  0.9499  2.5895
 2235SOL     OW18166   3.977   2.362   2.382  0.1298  0.5402 -0.1260
 2235SOL    HW118167   4.003   2.437   2.435 -0.1149  0.0604  0.6732
 2235SOL    HW218168   3.946   2.412   2.306  0.8790  1.2290  0.0150
 2236SOL     OW18169   0.748   3.630   6.229  0.3656  0.1690  0.1720
 2236SOL    HW118170   0.731   3.613   6.322 -0.0361 -1.6831 -0.2387
 2236SOL    HW218171   0.805   3.707   6.232  2.6557 -1.4888 -0.8381
 2237SOL     OW18172   2.350   3.092   1.244  0.4692  0.1374  0.2315
 2237SOL    HW118173   2.382   3.182   1.238 -1.3617  0.8184  0.8536
 2237SOL    HW218174   2.431   3.044   1.265  0.0233 -0.4605  0.5786
 2238SOL     OW18175   4.520   4.222   2.282 -0.0478 -0.0904  0.4109
 2238SOL    HW118176   4.448   4.283   2.300 -1.0634 -1.7396  1.9830
 2238SOL    HW218177   4.593   4.283   2.271 -1.7087  1.5870 -1.1957
 2239SOL     OW18178   1.083   4.659  11.519  0.1094  0.0937  0.7391
 2239SOL    HW118179   1.019   0.007  11.503  0.4114 -0.2402 -1.8055
 2239SOL    HW218180   1.070   4.642  11.613 -0.8395  0.9330  0.7604
 2240SOL     OW18181   1.645   0.609  14.269 -0.1959 -0.6260 -0.5546
 2240SOL    HW118182   1.709   0.607  14.340 -1.2378  1.8556  0.4406
 2240SOL    HW218183   1.686   0.676  14.213  1.6136 -0.9623  0.3628
 2241SOL     OW18184   1.080   1.357   4.748 -0.1763 -0.6662  0.0146
 2241SOL    HW118185   0.990   1.326   4.753  0.8025 -3.2450  1.5739
 2241SOL    HW218186   1.096   1.335   4.656  2.0415  1.8732 -0.1905
 2242SOL     OW18187   0.304   3.857   9.410  0.4343 -0.3913  0.0951
 2242SOL    HW118188   0.305   3.898   9.496 -1.2530  0.9730 -0.5174
 2242SOL    HW218189   0.378   3.892   9.361  0.5580 -1.0739 -0.1961
 2243SOL     OW18190   1.611   4.008   6.885 -0.6012 -0.0965 -0.2679
 2243SOL    HW118191   1.526   3.974   6.858  0.3358 -2.4990 -0.2610
 2243SOL    HW218192   1.610   4.001   6.981 -2.3376  3.1753 -0.0443
 2244SOL     OW18193   0.189   3.802  14.475 -0.9705  0.0479 -0.6331
 2244SOL    HW118194   0.099   3.770  14.479 -1.0606  0.4026  0.1594
 2244SOL    HW218195   0.185   3.897  14.484  0.2473  0.1208 -0.7604
 2245SOL     OW18196   3.512   2.602   6.899  0.5769 -0.0891 -0.5157
 2245SOL    HW118197   3.576   2.546   6.855  0.9161  0.4086 -0.6525
 2245SOL    HW218198   3.551   2.687   6.881 -0.4988  0.5733  0.2609
 2246SOL     OW18199   3.867   2.127   4.984 -0.5178 -0.6571  1.1728
 2246SOL    HW118200   3.794   2.180   5.015  0.4431 -0.0952  2.5295
 2246SOL    HW218201   3.917   2.198   4.943  0.3862 -0.7900  2.0270
 2247SOL     OW18202   3.914   4.577   4.828  0.0105  0.2908 -0.0543
 2247SOL    HW118203   3.855   4.652   4.834 -2.6103 -1.7944  0.3996
 2247SOL    HW218204   3.856   4.510   4.863 -2.0543  1.2406 -1.6589
 2248SOL     OW18205   2.153   2.761   7.968  0.4064 -0.4656  0.8614
 2248SOL    HW118206   2.108   2.842   7.989  0.7345  0.8270 -3.4667
 2248SOL    HW218207   2.074   2.711   7.989  0.5141 -0.7866  0.5113
 2249SOL     OW18208   0.580   1.511   1.965 -0.2889  0.4690  0.2234
 2249SOL    HW118209   0.513   1.455   2.004  0.7633 -2.3865 -2.0825
 2249SOL    HW218210   0.658   1.484   2.013 -0.5761 -1.4739 -0.4416
 2250SOL     OW18211   2.428   1.388   4.381 -0.1884  0.0422  0.3549
 2250SOL    HW118212   2.503   1.371   4.324 -0.6514  0.9355 -0.5149
 2250SOL    HW218213   2.387   1.452   4.323 -1.2398 -1.0754 -0.1359
 2251SOL     OW18214   3.831   3.025   8.183 -0.1526  0.5726 -0.0367
 2251SOL    HW118215   3.786   2.994   8.104  2.6124  1.6208 -2.0266
 2251SOL    HW218216   3.866   3.098   8.131  2.0385 -0.7201 -0.3898
 2252SOL     OW18217   4.257   2.772   4.830  0.1689  0.0437 -0.2691
 2252SOL    HW118218   4.341   2.751   4.872 -0.6875 -0.9439  0.9245
 2252SOL    HW218219   4.191   2.725   4.881  0.4209 -0.8756 -0.8004
 2253SOL     OW18220   4.080   0.984  13.230 -0.0153 -0.6944 -0.0449
 2253SOL    HW118221   4.048   0.997  13.141  0.5170  0.8173 -0.0246
 2253SOL    HW218222   4.047   1.063  13.272  0.6561 -0.7651  0.6205
 2254SOL     OW18223   1.376   1.635   0.864 -0.1793  0.2151  0.4266
 2254SOL    HW118224   1.398   1.705   0.927  0.3714 -0.0489  0.5244
 2254SOL    HW218225   1.287   1.653   0.832 -0.1250 -3.3979 -1.6895
 2255SOL     OW18226   1.355   3.776   6.186 -0.0500  0.0067  0.0159
 2255SOL    HW118227   1.277   3.771   6.131  1.1648  1.1915 -1.8309
 2255SOL    HW218228   1.410   3.840   6.140 -0.0548  0.6471  0.9133
 2256SOL     OW18229   1.810   4.400   7.851 -0.1870 -0.0738 -0.2495
 2256SOL    HW118230   1.773   4.407   7.763 -0.3191  1.9834 -0.0317
 2256SOL    HW218231   1.863   4.479   7.846 -1.0303  0.4465 -0.9722
 2257SOL     OW18232   3.478   1.471   8.266  0.2560  0.2471  0.1572
 2257SOL    HW118233   3.515   1.402   8.211 -0.1809 -0.2318  0.4604
 2257SOL    HW218234   3.391   1.441   8.291 -0.2318 -0.4827 -2.4564
 2258SOL     OW18235   3.424   4.177   3.835  0.4874 -0.1466  0.0716
 2258SOL    HW118236   3.515   4.195   3.812  0.2909  0.2798 -0.3828
 2258SOL    HW218237   3.432   4.173   3.931  0.8646  2.6026  0.1654
 2259SOL     OW18238   2.942   0.327   4.707  0.1920 -0.1013 -0.1582
 2259SOL    HW118239   2.865   0.271   4.697 -1.2161  1.4391  2.0368
 2259SOL    HW218240   3.006   0.293   4.645 -0.1352 -1.9401  0.5343
 2260SOL     OW18241   2.366   0.776   1.273  0.2673 -0.3020  0.1285
 2260SOL    HW118242   2.319   0.856   1.298  0.2105 -0.4564  0.5063
 2260SOL    HW218243   2.391   0.811   1.188  1.8543  1.1819  1.1929
 2261SOL     OW18244   0.344   0.992   0.813  0.1055  0.1951  0.6514
 2261SOL    HW118245   0.266   0.940   0.793  1.2833 -1.4254  0.3537
 2261SOL    HW218246   0.310   1.079   0.789  0.2343  0.3928  1.1788
 2262SOL     OW18247   1.161   4.604  14.696 -0.2270  0.4234 -0.5079
 2262SOL    HW118248   1.256   4.595  14.699 -0.3965 -1.6624 -1.8284
 2262SOL    HW218249   1.145   4.673  14.761  0.2283  0.2612 -0.2220
 2263SOL     OW18250   0.478   4.185   8.936  0.5865  0.4104  0.2350
 2263SOL    HW118251   0.440   4.267   8.968 -0.6964 -0.1014  0.0495
 2263SOL    HW218252   0.446   4.127   9.006  0.9711  0.1537  0.1936
 2264SOL     OW18253   1.749   2.824   3.732 -0.3376 -0.0523 -0.0412
 2264SOL    HW118254   1.735   2.917   3.749 -0.2280  0.0526 -0.5309
 2264SOL    HW218255   1.722   2.813   3.641 -1.0521 -2.4334  0.4466
 2265SOL     OW18256   0.179   1.669   1.012  0.0638 -0.0997 -0.2709
 2265SOL    HW118257   0.142   1.752   1.040 -0.0757 -0.4169  0.4945
 2265SOL    HW218258   0.158   1.608   1.084 -0.9599  0.3652 -0.1920
 2266SOL     OW18259   3.680   2.835   1.227  0.4427 -0.1992  1.2897
 2266SOL    HW118260   3.606   2.828   1.288 -1.3590 -1.4257 -1.0061
 2266SOL    HW218261   3.697   2.927   1.244  1.2526 -0.1836  0.3641
 2267SOL     OW18262   4.364   4.142  17.057 -0.0819  0.0968  0.3805
 2267SOL    HW118263   4.286   4.193  17.035 -0.1188  0.2939  0.9559
 2267SOL    HW218264   4.314   4.060  17.064  1.2374 -0.6808  0.6669
 2268SOL     OW18265   2.995   1.395   6.461  0.2315 -0.6719  0.1496
 2268SOL    HW118266   2.946   1.420   6.382 -1.4426 -0.3847  1.2650
 2268SOL    HW218267   3.047   1.474   6.480 -0.6610 -0.1632  0.5009
 2269SOL     OW18268   2.298   4.460   4.031 -0.3914  1.0990  0.3296
 2269SOL    HW118269   2.331   4.383   4.078  0.7031 -0.4700 -2.9815
 2269SOL    HW218270   2.370   4.515   4.063  0.8280  0.2042 -0.8946
 2270SOL     OW18271   2.525   0.281   4.313  0.9496  0.0689  0.5342
 2270SOL    HW118272   2.523   0.185   4.320  2.5549 -0.1131 -1.8521
 2270SOL    HW218273   2.533   0.302   4.406  0.1247 -0.1893  0.6661
 2271SOL     OW18274   3.217   1.476  14.467  0.0640  0.2007 -0.1811
 2271SOL    HW118275   3.175   1.510  14.546  2.7877  2.9779  0.0743
 2271SOL    HW218276   3.296   1.530  14.461 -0.5586  1.2435  0.9058
 2272SOL     OW18277   1.036   0.312   7.078 -0.0252  0.2462 -0.1993
 2272SOL    HW118278   1.050   0.264   7.160  0.4771  0.0162 -0.4239
 2272SOL    HW218279   1.129   0.320   7.058 -0.1705  0.9037 -0.6208
 2273SOL     OW18280   3.221   0.832   3.647 -0.4050 -0.0707  0.1651
 2273SOL    HW118281   3.202   0.848   3.739 -3.0326  1.8911 -0.6971
 2273SOL    HW218282   3.316   0.840   3.649 -0.4615  0.7099 -0.2844
 2274SOL     OW18283   3.917   4.693   8.026 -0.0378  0.4032  0.1025
 2274SOL    HW118284   4.013   4.699   8.031 -0.0756  1.6140 -0.6662
 2274SOL    HW218285   3.905   4.621   7.964 -1.0647  1.8580 -1.3915
 2275SOL     OW18286   1.260   0.341   9.123  0.9921 -0.0946 -0.6626
 2275SOL    HW118287   1.195   0.344   9.054  2.2310 -0.3617 -1.8293
 2275SOL    HW218288   1.331   0.299   9.076  1.6356 -1.0100  1.0962
 2276SOL     OW18289   2.352   3.642   8.709  0.0415 -0.5799 -0.0965
 2276SOL    HW118290   2.258   3.659   8.704  0.4561  2.2966  2.0978
 2276SOL    HW218291   2.366   3.609   8.798  0.2365 -1.3656 -0.4161
 2277SOL     OW18292   3.942   4.156   0.787  0.1806  0.3768  0.6543
 2277SOL    HW118293   3.995   4.226   0.750 -1.2523  0.6572 -0.8946
 2277SOL    HW218294   3.961   4.078   0.736 -0.9511  0.3174  0.3172
 2278SOL     OW18295   2.950   0.584   3.693  0.4290  0.6214 -0.2287
 2278SOL    HW118296   3.020   0.590   3.758 -0.7242  0.1959  1.0612
 2278SOL    HW218297   2.899   0.515   3.736 -0.0136  0.9769 -0.1867
 2279SOL     OW18298   2.277   2.881   4.235 -0.2891  0.1237 -0.1130
 2279SOL    HW118299   2.246   2.927   4.157  1.4525  0.7750 -0.4006
 2279SOL    HW218300   2.269   2.953   4.297 -2.4995  1.0200 -1.4241
 2280SOL     OW18301   1.263   4.091  16.072  0.0032 -0.2566  0.5956
 2280SOL    HW118302   1.178   4.097  16.027 -0.2887 -0.1106  1.1657
 2280SOL    HW218303   1.240   4.074  16.163 -2.2579 -1.2554 -0.1386
 2281SOL     OW18304   1.391   0.723   6.364 -0.8782 -0.2459 -0.7328
 2281SOL    HW118305   1.391   0.633   6.395  1.6611 -0.0496 -0.1669
 2281SOL    HW218306   1.481   0.749   6.385 -2.0637  2.8092  0.6134
 2282SOL     OW18307   0.739   3.317   6.548  0.1984  0.7029 -0.1055
 2282SOL    HW118308   0.715   3.251   6.484  1.8814 -1.5176  1.5732
 2282SOL    HW218309   0.737   3.250   6.616  2.0302 -0.9003 -1.6466
 2283SOL     OW18310   3.698   0.163   3.496 -0.0086 -0.3153 -0.4088
 2283SOL    HW118311   3.736   0.208   3.571 -2.3916 -2.6435  2.1610
 2283SOL    HW218312   3.700   0.238   3.437 -0.0288 -0.6954 -0.8911
 2284SOL     OW18313   4.048   0.626   8.425 -0.1881  0.3736  0.2431
 2284SOL    HW118314   4.041   0.585   8.511  1.1302 -0.6022 -0.1241
 2284SOL    HW218315   4.120   0.575   8.389  1.2680  1.4749  1.6258
 2285SOL     OW18316   0.714   3.483   6.884 -0.0505 -0.1178 -0.2749
 2285SOL    HW118317   0.781   3.426   6.923 -1.0912 -1.5381 -0.5457
 2285SOL    HW218318   0.663   3.410   6.848 -0.6867 -0.3898  1.1497
 2286SOL     OW18319   0.575   2.587   0.792  0.5572  0.2600 -0.2178
 2286SOL    HW118320   0.667   2.611   0.776 -0.0031  0.7823 -2.7789
 2286SOL    HW218321   0.570   2.627   0.879  0.0532 -1.6492  0.6175
 2287SOL     OW18322   0.137   2.897  14.225 -0.3335  0.2940  0.4292
 2287SOL    HW118323   0.181   2.879  14.141 -3.3576 -3.7225 -0.2709
 2287SOL    HW218324   0.060   2.843  14.210 -0.0280 -0.0022 -0.0905
 2288SOL     OW18325   1.245   4.327   9.168  0.2376  0.1026  0.4988
 2288SOL    HW118326   1.230   4.329   9.074 -1.6490  1.3823  0.8241
 2288SOL    HW218327   1.339   4.342   9.166 -0.2859  2.9832 -1.1886
 2289SOL     OW18328   0.820   4.341   2.833 -0.1086  0.6574  0.0099
 2289SOL    HW118329   0.780   4.420   2.870 -0.7731  0.4959 -0.3725
 2289SOL    HW218330   0.825   4.367   2.741  3.3286 -0.7495 -0.1954
 2290SOL     OW18331   4.344   4.282   4.223  0.3407  0.2934 -0.0008
 2290SOL    HW118332   4.271   4.229   4.256  3.2309 -4.0494 -0.6769
 2290SOL    HW218333   4.296   4.310   4.144  1.4568  1.5350 -0.2384
 2291SOL     OW18334   0.067   3.695   8.895  0.3781 -0.0787 -0.1057
 2291SOL    HW118335   0.069   3.783   8.857  0.2437  0.5362  1.3028
 2291SOL    HW218336   4.699   3.668   8.878  0.4743  0.0610 -0.7975
 2292SOL     OW18337   3.257   0.812   4.633  0.2443 -0.2776  0.1974
 2292SOL    HW118338   3.247   0.716   4.630  1.7493 -0.4690  1.5782
 2292SOL    HW218339   3.164   0.837   4.626  1.3014  3.1507 -1.5949
 2293SOL     OW18340   4.218   2.702   9.517 -0.2491 -0.0599 -0.2655
 2293SOL    HW118341   4.125   2.685   9.500 -0.3951  0.2259  0.2593
 2293SOL    HW218342   4.210   2.723   9.610  2.9979  2.9295 -0.6784
 2294SOL     OW18343   3.613   0.344  10.007 -0.4979 -0.0140 -0.0837
 2294SOL    HW118344   3.627   0.438  10.000 -2.5795  0.3171  0.2361
 2294SOL    HW218345   3.673   0.329  10.080  0.9118 -1.3788 -1.5181
 2295SOL     OW18346   1.203   0.921   9.804  0.4911 -0.3356 -0.3570
 2295SOL    HW118347   1.246   1.007   9.807 -1.6028  0.6392  1.1849
 2295SOL    HW218348   1.183   0.905   9.712 -1.5120 -1.8163  0.3456
 2296SOL     OW18349   0.384   1.803   8.496  0.0742  0.1623 -0.8569
 2296SOL    HW118350   0.395   1.896   8.515 -1.5937  0.4515 -1.2788
 2296SOL    HW218351   0.385   1.754   8.578 -1.2215  1.4933 -0.0424
 2297SOL     OW18352   2.975   4.076  15.388 -0.4398  0.4202 -0.3209
 2297SOL    HW118353   2.909   4.142  15.408 -0.6289 -0.1955  1.0984
 2297SOL    HW218354   2.914   4.007  15.361 -1.2328  1.2021 -0.5380
 2298SOL     OW18355   0.371   1.177  15.044  0.2055  0.1373  0.2408
 2298SOL    HW118356   0.455   1.207  15.009 -0.1896  1.3893  0.3311
 2298SOL    HW218357   0.339   1.255  15.091 -1.0841  0.1562 -0.6573
 2299SOL     OW18358   0.267   0.595   4.854 -0.3563  0.2034 -0.7296
 2299SOL    HW118359   0.312   0.552   4.927  2.4458  1.2653 -1.8058
 2299SOL    HW218360   0.259   0.521   4.794 -1.3408 -0.2187 -0.0640
 2300SOL     OW18361   0.155   4.424   4.045  0.6925 -0.5929 -0.3472
 2300SOL    HW118362   0.243   4.456   4.026  0.4571  0.8010  0.9247
 2300SOL    HW218363   0.155   4.330   4.027 -2.0942 -0.4413 -1.1705
 2301SOL     OW18364   0.139   4.658   8.470 -0.7109  0.5363 -0.5066
 2301SOL    HW118365   0.147   0.015   8.525 -3.1390 -0.8788  1.9023
 2301SOL    HW218366   0.207   4.673   8.405  2.2326 -1.6757  2.0994
 2302SOL     OW18367   4.482   1.305  13.886 -0.3846 -0.0600 -0.0247
 2302SOL    HW118368   4.419   1.234  13.896 -0.6700  0.0794 -0.8243
 2302SOL    HW218369   4.534   1.281  13.962 -0.3384 -1.6128 -0.5510
 2303SOL     OW18370   2.698   1.978   5.812 -0.1813 -1.0144  0.1646
 2303SOL    HW118371   2.723   2.016   5.896 -2.8157 -0.5979  0.7600
 2303SOL    HW218372   2.730   1.888   5.809  1.8046 -0.2745 -0.5876
 2304SOL     OW18373   1.811   1.852   3.696  0.3481  0.0649  0.3632
 2304SOL    HW118374   1.878   1.842   3.763  0.7638 -0.6758 -0.1526
 2304SOL    HW218375   1.752   1.786   3.733 -1.7239  0.9480 -1.3058
 2305SOL     OW18376   1.667   3.588   9.533 -0.4786  0.1690  0.1031
 2305SOL    HW118377   1.762   3.580   9.526 -0.1899  1.5332  2.5935
 2305SOL    HW218378   1.632   3.499   9.531  1.8121 -0.7226  0.3654
 2306SOL     OW18379   1.783   3.382  13.315  0.1887  0.0751 -0.5068
 2306SOL    HW118380   1.810   3.297  13.351 -1.3097 -0.0046  0.3999
 2306SOL    HW218381   1.701   3.358  13.273  0.4191 -0.8974 -0.4022
 2307SOL     OW18382   0.133   2.999   5.641 -0.0250 -0.3064  0.5266
 2307SOL    HW118383   0.202   2.942   5.608 -0.3906 -1.1398  1.1888
 2307SOL    HW218384   0.089   2.945   5.707  0.5761 -2.4101 -0.7849
 2308SOL     OW18385   1.411   2.728   7.273 -0.2268 -0.0569 -0.0637
 2308SOL    HW118386   1.506   2.736   7.270 -0.3352  1.3374  0.5054
 2308SOL    HW218387   1.400   2.768   7.187  1.1181  2.0724  0.7825
 2309SOL     OW18388   4.697   2.320  14.056  0.1542  0.5003  0.6980
 2309SOL    HW118389   4.624   2.283  14.105 -1.4764  1.5971 -0.9379
 2309SOL    HW218390   0.010   2.393  14.107  1.4898  1.3445 -1.4363
 2310SOL     OW18391   3.123   3.526   5.032  0.2722  0.3866 -0.1067
 2310SOL    HW118392   3.127   3.433   5.053  3.2466 -0.1465 -2.9849
 2310SOL    HW218393   3.183   3.533   4.957 -0.6977  1.0118 -0.8287
 2311SOL     OW18394   3.708   3.961   0.861  0.5253  0.2094  0.3854
 2311SOL    HW118395   3.632   3.909   0.888  1.3618 -1.3882 -0.2936
 2311SOL    HW218396   3.690   3.962   0.767 -1.2358  2.6411  0.7617
 2312SOL     OW18397   2.863   2.503   3.075  0.7534  0.2615 -0.2059
 2312SOL    HW118398   2.809   2.505   2.996  2.6549  1.5912 -1.4603
 2312SOL    HW218399   2.937   2.448   3.048 -0.0957 -0.4092 -1.1994
 2313SOL     OW18400   0.531   0.846   4.355  0.4009  0.7255  0.0527
 2313SOL    HW118401   0.507   0.800   4.274  0.0442 -0.6826  0.9541
 2313SOL    HW218402   0.587   0.781   4.398 -1.8687 -1.4033 -0.1593
 2314SOL     OW18403   0.643   4.466   6.997 -0.2400 -0.1013  0.2096
 2314SOL    HW118404   0.695   4.478   7.077  1.2443 -0.4594 -0.7072
 2314SOL    HW218405   0.710   4.418   6.948 -1.4144 -0.1120 -1.3987
 2315SOL     OW18406   1.891   4.451   8.246 -0.8271 -0.0563  0.2721
 2315SOL    HW118407   1.815   4.438   8.302 -1.1807 -3.4983 -1.0306
 2315SOL    HW218408   1.842   4.500   8.180 -1.4103 -1.6898 -0.4901
 2316SOL     OW18409   1.257   0.862   1.051 -0.1545 -0.2172  0.1054
 2316SOL    HW118410   1.238   0.952   1.022 -1.2602 -0.3648  0.3584
 2316SOL    HW218411   1.279   0.878   1.143  0.5143  0.5890 -0.1998
 2317SOL     OW18412   3.972   2.739  13.395 -0.3624  0.6809 -0.1511
 2317SOL    HW118413   4.049   2.796  13.393  0.3917 -0.2828  0.9592
 2317SOL    HW218414   4.018   2.655  13.397 -0.0549  0.8371 -0.6778
 2318SOL     OW18415   4.033   1.178  13.446 -0.4774 -0.1258 -0.4619
 2318SOL    HW118416   3.956   1.234  13.453 -0.7755 -0.5663 -0.2065
 2318SOL    HW218417   4.094   1.241  13.407  0.6760 -0.7694  0.3328
 2319SOL     OW18418   3.616   3.771  16.197  0.6384  0.3100  0.5306
 2319SOL    HW118419   3.685   3.715  16.233 -1.0257 -1.3488  1.1372
 2319SOL    HW218420   3.656   3.858  16.200  1.6459 -0.2749  3.9546
 2320SOL     OW18421   3.175   3.623   1.369  0.2022  0.7090  0.1431
 2320SOL    HW118422   3.202   3.671   1.447  2.8077  1.3946 -1.1521
 2320SOL    HW218423   3.128   3.556   1.419  1.8983 -1.4381 -1.1092
 2321SOL     OW18424   2.218   1.339  13.145  0.0004  0.0334  0.0616
 2321SOL    HW118425   2.129   1.374  13.137  0.1284  0.5347  0.8544
 2321SOL    HW218426   2.233   1.361  13.237 -0.0759 -1.0371  0.3333
 2322SOL     OW18427   0.537   3.299   7.619  0.1937  0.2678  0.4680
 2322SOL    HW118428   0.459   3.343   7.587 -0.7583 -0.8292  1.2313
 2322SOL    HW218429   0.590   3.372   7.649  1.4378 -0.0105 -1.0745
 2323SOL     OW18430   4.682   2.638   6.692 -0.4486 -0.2050  0.1253
 2323SOL    HW118431   4.605   2.608   6.741 -0.4236 -0.6719 -0.1171
 2323SOL    HW218432   4.678   2.731   6.711 -0.2044 -0.2474  0.3767
 2324SOL     OW18433   1.279   0.171   7.891  0.3242  0.6138 -0.0225
 2324SOL    HW118434   1.226   0.235   7.842  0.5981  0.9811  0.1587
 2324SOL    HW218435   1.318   0.226   7.959 -0.7590  0.8427  0.4240
 2325SOL     OW18436   3.431   3.213   3.899  0.0260  0.6670 -0.4544
 2325SOL    HW118437   3.343   3.247   3.918  0.2154 -0.4207  2.4319
 2325SOL    HW218438   3.428   3.145   3.966  1.2861  0.8799 -0.1911
 2326SOL     OW18439   0.920   2.791   0.645  0.7133  0.0018  0.2498
 2326SOL    HW118440   0.901   2.708   0.690 -0.4677 -0.6190 -1.4112
 2326SOL    HW218441   0.959   2.757   0.564  0.1849 -0.2719  0.1150
 2327SOL     OW18442   2.137   3.822   9.315 -0.5524  0.2237 -0.6080
 2327SOL    HW118443   2.096   3.888   9.371 -2.6352 -0.8830 -0.8240
 2327SOL    HW218444   2.142   3.867   9.231  1.2428  4.4258  1.7467
 2328SOL     OW18445   3.191   3.027   3.759  0.0733  0.0078  0.2916
 2328SOL    HW118446   3.179   3.090   3.830 -2.4155  0.8601 -0.8813
 2328SOL    HW218447   3.261   2.968   3.788  0.3689  0.6178  0.8243
 2329SOL     OW18448   2.011   2.120  16.034 -0.1210  0.3799 -0.3105
 2329SOL    HW118449   2.064   2.087  15.962  0.9292 -1.3094  1.2610
 2329SOL    HW218450   1.928   2.140  15.989 -0.6169  1.4931  1.0869
 2330SOL     OW18451   1.861   4.510  17.621  0.3099  0.1033 -0.2971
 2330SOL    HW118452   1.882   4.427  17.663 -0.3975  0.7665  1.3696
 2330SOL    HW218453   1.853   4.488  17.528  1.1489  0.4027 -0.4327
 2331SOL     OW18454   0.357   1.066   2.516 -0.5011  0.2995  0.2107
 2331SOL    HW118455   0.289   1.019   2.563 -0.9203  0.8736  0.1756
 2331SOL    HW218456   0.391   1.115   2.592  0.7264  0.6498 -0.5558
 2332SOL     OW18457   3.429   0.607  13.346 -0.2364  0.1094  0.2955
 2332SOL    HW118458   3.357   0.590  13.285  0.5494 -1.5198 -0.1673
 2332SOL    HW218459   3.373   0.639  13.417  0.1266 -0.1708  0.7090
 2333SOL     OW18460   1.214   4.218   1.557 -0.3732 -0.1335 -0.6336
 2333SOL    HW118461   1.128   4.234   1.596 -1.4033 -0.3002 -2.8140
 2333SOL    HW218462   1.247   4.308   1.550 -0.9200 -0.0873 -2.8768
 2334SOL     OW18463   0.745   3.161  13.193  0.1294  0.1058 -0.3591
 2334SOL    HW118464   0.836   3.140  13.170  0.8304  0.9078  1.6197
 2334SOL    HW218465   0.760   3.160  13.288 -1.0407  2.0237 -0.1491
 2335SOL     OW18466   4.294   0.547   6.958  0.4333 -0.0447 -0.3861
 2335SOL    HW118467   4.221   0.486   6.945  0.8917 -0.7473  0.3739
 2335SOL    HW218468   4.272   0.615   6.894 -1.2973  0.5544  0.8529
 2336SOL     OW18469   0.713   0.861   4.719 -0.0040 -0.3328  0.3327
 2336SOL    HW118470   0.735   0.858   4.626 -0.0288  1.5554  0.2626
 2336SOL    HW218471   0.623   0.831   4.708 -1.0306  1.1454  4.4905
 2337SOL     OW18472   2.996   0.087   0.498  0.0182  0.1223  0.0733
 2337SOL    HW118473   2.962   0.089   0.409  2.5370 -1.5786 -0.9125
 2337SOL    HW218474   3.077   0.133   0.477 -2.1275  3.2765 -1.3088
 2338SOL     OW18475   2.598   4.356   5.290  0.2103 -0.6131  0.0481
 2338SOL    HW118476   2.529   4.423   5.290  0.1767 -0.6407 -3.1752
 2338SOL    HW218477   2.564   4.307   5.215  0.0447 -0.5730  0.0962
 2339SOL     OW18478   1.970   0.469   3.107  0.1284  1.0811  0.0923
 2339SOL    HW118479   2.042   0.520   3.144 -1.0619  1.6869  1.5863
 2339SOL    HW218480   1.905   0.537   3.125 -0.4951  0.6994 -0.7324
 2340SOL     OW18481   2.202   2.640   8.457  0.0704 -0.0649  0.4597
 2340SOL    HW118482   2.142   2.603   8.522  1.1574  1.2830  2.2364
 2340SOL    HW218483   2.177   2.730   8.476  0.9165 -0.0150  1.3509
 2341SOL     OW18484   1.767   2.447   9.624 -0.1197 -0.0987  0.2001
 2341SOL    HW118485   1.754   2.541   9.641 -0.9498  0.0750 -1.4497
 2341SOL    HW218486   1.854   2.437   9.661  0.3454 -4.4876 -2.2084
 2342SOL     OW18487   2.646   1.389   6.504  0.1950  0.5423  0.2669
 2342SOL    HW118488   2.588   1.342   6.564  1.3265 -0.7615  0.3336
 2342SOL    HW218489   2.668   1.331   6.431 -1.1322  2.7403 -1.9138
 2343SOL     OW18490   3.910   0.554   3.674  0.5522 -0.1686  0.4109
 2343SOL    HW118491   3.858   0.573   3.596  1.3602 -0.2850 -0.1568
 2343SOL    HW218492   3.903   0.635   3.725 -1.2533  0.7450 -1.2569
 2344SOL     OW18493   4.440   0.495   4.033 -0.0191 -0.1618 -0.0301
 2344SOL    HW118494   4.464   0.585   4.055 -1.0610  0.3565 -0.9949
 2344SOL    HW218495   4.421   0.461   4.120  2.4368  0.6166  0.7863
 2345SOL     OW18496   0.710   3.250   3.005 -0.1425 -0.0385 -0.6515
 2345SOL    HW118497   0.617   3.247   2.984 -0.5640  0.8590  1.0630
 2345SOL    HW218498   0.741   3.202   2.929 -3.4526 -1.3136 -1.1771
 2346SOL     OW18499   0.146   1.041  17.367 -0.2172 -0.1359  0.7981
 2346SOL    HW118500   0.196   1.028  17.448  1.2926  1.7196  0.1607
 2346SOL    HW218501   0.067   1.072  17.412 -0.1511  0.1491  0.7134
 2347SOL     OW18502   2.421   2.869  16.636 -0.7834 -0.0375  0.3251
 2347SOL    HW118503   2.359   2.872  16.564  0.4565 -0.8286 -0.7871
 2347SOL    HW218504   2.372   2.910  16.707  0.8421  0.5936  1.0777
 2348SOL     OW18505   0.882   3.249   6.115  0.9656  0.5948  0.3024
 2348SOL    HW118506   0.900   3.228   6.024 -2.3374  1.0550 -0.4509
 2348SOL    HW218507   0.797   3.294   6.115  0.8538  0.3350 -2.8503
 2349SOL     OW18508   1.866   2.179   3.017  0.0125 -0.0789  0.1136
 2349SOL    HW118509   1.829   2.139   3.095  0.0160 -0.5198 -0.1042
 2349SOL    HW218510   1.826   2.266   3.014  0.1094 -0.0216  0.5776
 2350SOL     OW18511   2.447   3.213   5.206  0.1565  0.1469  0.5589
 2350SOL    HW118512   2.477   3.294   5.247  2.1251 -0.5123  0.3991
 2350SOL    HW218513   2.524   3.176   5.163 -1.8214 -0.5106 -2.3940
 2351SOL     OW18514   4.268   2.095   3.011  0.5320 -0.0744 -0.2739
 2351SOL    HW118515   4.193   2.035   3.009 -1.5140  2.4731  0.0389
 2351SOL    HW218516   4.295   2.094   3.102  1.6797 -0.6595 -0.6180
 2352SOL     OW18517   0.960   4.591   7.511 -0.8841  0.2743  0.3107
 2352SOL    HW118518   1.019   4.573   7.585 -0.4609  1.5860  0.2900
 2352SOL    HW218519   0.882   4.624   7.555 -0.2261  1.3059  0.7054
 2353SOL     OW18520   3.943   3.820   1.134 -0.4140  0.4820  0.3807
 2353SOL    HW118521   3.912   3.734   1.164  0.6529  0.2959  0.9609
 2353SOL    HW218522   4.012   3.832   1.199  1.9402 -0.0386 -2.0484
 2354SOL     OW18523   3.901   0.743   9.533 -0.2224  0.0685 -0.0223
 2354SOL    HW118524   3.808   0.757   9.516 -0.3279  0.3781  0.7986
 2354SOL    HW218525   3.914   0.694   9.451 -0.5860 -0.8735  0.4816
 2355SOL     OW18526   4.235   0.748   4.971 -0.0785  0.3927  0.1070
 2355SOL    HW118527   4.309   0.788   4.925  1.2092  2.5597  4.0532
 2355SOL    HW218528   4.261   0.773   5.059  1.3773 -1.5384  0.2279
 2356SOL     OW18529   0.813   0.450   4.991  0.0503 -0.1752 -0.1213
 2356SOL    HW118530   0.904   0.470   5.013 -1.3870  3.0974  2.8832
 2356SOL    HW218531   0.778   0.537   5.011  0.4350  0.5906 -2.7919
 2357SOL     OW18532   0.853   1.731   4.168  0.5866 -0.4640  0.1976
 2357SOL    HW118533   0.766   1.703   4.139  1.1886  0.9212 -3.0637
 2357SOL    HW218534   0.831   1.809   4.220  1.2558 -1.9535  2.7024
 2358SOL     OW18535   1.677   3.370   4.809  0.6263  0.3782  0.0007
 2358SOL    HW118536   1.669   3.460   4.777 -0.2205  0.5714  0.7381
 2358SOL    HW218537   1.745   3.371   4.877  1.9524 -0.7921 -1.3276
 2359SOL     OW18538   4.086   1.709  13.209 -0.2557  0.5273  0.1628
 2359SOL    HW118539   4.174   1.742  13.226 -0.3019  0.1981  1.0812
 2359SOL    HW218540   4.040   1.731  13.291  2.7785 -1.1536  2.3324
 2360SOL     OW18541   4.463   0.909   4.866 -0.2404  0.1697  0.5564
 2360SOL    HW118542   4.427   0.937   4.782 -3.7002 -1.6673  1.4028
 2360SOL    HW218543   4.486   0.996   4.899  0.5984  1.1341 -2.6349
 2361SOL     OW18544   3.394   1.920   8.479  0.3411 -0.6748  0.3047
 2361SOL    HW118545   3.322   1.978   8.453  1.1072 -0.3546 -1.1126
 2361SOL    HW218546   3.453   1.925   8.404  0.0184  0.9283  0.1560
 2362SOL     OW18547   0.096   2.429   6.610  0.6498 -0.0207 -0.0483
 2362SOL    HW118548   0.035   2.376   6.661  1.0496 -0.3518  0.0809
 2362SOL    HW218549   0.048   2.512   6.610 -0.7989 -0.8683  1.0459
 2363SOL     OW18550   1.380   3.701   3.898  0.0283  0.3229 -0.0493
 2363SOL    HW118551   1.469   3.723   3.872 -0.2591 -1.4460 -2.4955
 2363SOL    HW218552   1.375   3.738   3.987 -1.8953 -2.2642  0.9153
 2364SOL     OW18553   2.916   1.167   1.680 -0.4854  0.2132 -0.4154
 2364SOL    HW118554   2.873   1.167   1.766  2.8479  2.1359  1.2135
 2364SOL    HW218555   3.009   1.181   1.695 -0.1702 -0.1335 -1.9805
 2365SOL     OW18556   4.713   0.073   6.263 -0.0584  0.5178  0.5416
 2365SOL    HW118557   0.029   0.152   6.301  1.4082  0.0504  0.0722
 2365SOL    HW218558   4.661   0.035   6.333 -0.6702  1.6726  0.7125
 2366SOL     OW18559   3.634   2.351   7.058  0.3853 -0.6890  0.0219
 2366SOL    HW118560   3.569   2.419   7.073  1.8844  0.8282 -0.3708
 2366SOL    HW218561   3.680   2.345   7.141 -1.4620  0.3206  1.1182
 2367SOL     OW18562   0.764   4.356   5.590 -0.2173  0.1090 -0.5424
 2367SOL    HW118563   0.746   4.345   5.684 -2.2169 -1.3881 -1.0954
 2367SOL    HW218564   0.858   4.374   5.587 -0.1992 -0.3247 -2.3187
 2368SOL     OW18565   1.480   0.112   4.791  0.4519 -0.1628 -0.5522
 2368SOL    HW118566   1.420   0.185   4.808 -1.0787 -1.2305 -1.2719
 2368SOL    HW218567   1.416   0.054   4.750 -1.0418  0.2448  1.1614
 2369SOL     OW18568   4.237   4.368   3.993  0.0594  0.4262  0.4753
 2369SOL    HW118569   4.307   4.403   3.937  1.6132 -4.2087 -0.4753
 2369SOL    HW218570   4.170   4.436   3.987 -0.8929 -0.7888 -2.4738
 2370SOL     OW18571   0.203   1.125   7.854 -0.1193 -1.1070  0.0288
 2370SOL    HW118572   0.122   1.074   7.848 -0.1073 -1.4410  2.5169
 2370SOL    HW218573   0.204   1.136   7.949  0.9149 -0.4854 -0.0554
 2371SOL     OW18574   4.701   1.625  10.365  0.5283  0.1592 -0.5908
 2371SOL    HW118575   4.716   1.720  10.368  2.5607 -0.1810 -0.3031
 2371SOL    HW218576   0.003   1.604  10.275  1.1920  0.7529 -0.5505
 2372SOL     OW18577   3.808   1.029   7.218  0.1923 -0.1383  0.6216
 2372SOL    HW118578   3.801   1.081   7.138 -1.0597 -0.1211  0.7462
 2372SOL    HW218579   3.753   0.953   7.197 -1.0744  1.4172 -1.6233
 2373SOL     OW18580   0.272   0.178  14.580 -0.0762  0.0401 -0.0277
 2373SOL    HW118581   0.264   0.252  14.520  1.5309 -1.3173 -1.9132
 2373SOL    HW218582   0.264   0.118  14.506 -0.7910 -1.4231  1.2293
 2374SOL     OW18583   1.497   3.682  15.264  0.9658 -0.0287  0.0047
 2374SOL    HW118584   1.585   3.717  15.249  0.1357  1.2489 -2.0181
 2374SOL    HW218585   1.518   3.589  15.262  1.4951  0.0827  0.3331
 2375SOL     OW18586   3.913   0.376   5.046  0.5978  0.1745  0.1011
 2375SOL    HW118587   3.984   0.358   4.984 -0.4003 -0.3334 -0.8921
 2375SOL    HW218588   3.876   0.452   5.002  1.9858  1.4500  1.1565
 2376SOL     OW18589   3.247   4.094  15.354 -0.5064 -0.5647  0.0193
 2376SOL    HW118590   3.270   4.165  15.414 -3.0701  0.4011 -0.1500
 2376SOL    HW218591   3.152   4.094  15.365 -0.2499 -1.6467  2.1676
 2377SOL     OW18592   3.011   1.513   5.820 -0.1237 -0.1412 -0.5481
 2377SOL    HW118593   2.920   1.542   5.812 -0.8180 -2.4660 -0.8873
 2377SOL    HW218594   2.998   1.418   5.817  0.8769 -0.3277  1.4812
 2378SOL     OW18595   0.841   1.109   1.844  0.2952  0.0239  0.1128
 2378SOL    HW118596   0.862   1.090   1.753 -1.2968 -0.1385 -0.2141
 2378SOL    HW218597   0.777   1.179   1.834 -1.1535 -1.1383  1.1252
 2379SOL     OW18598   0.976   0.285  15.240  0.9345  0.5383 -0.4006
 2379SOL    HW118599   1.042   0.308  15.306  0.5535  3.3642 -1.0008
 2379SOL    HW218600   0.923   0.362  15.224 -2.2014 -1.2805  1.3341
 2380SOL     OW18601   4.510   0.943   2.920 -0.1779  0.4230  0.3302
 2380SOL    HW118602   4.568   1.005   2.875 -0.6133  0.8852  0.4006
 2380SOL    HW218603   4.563   0.864   2.920  0.6772  0.9963  0.3657
 2381SOL     OW18604   2.622   3.723   7.669 -0.1695  0.6153 -0.0674
 2381SOL    HW118605   2.676   3.681   7.736 -1.2485 -0.4076  0.1773
 2381SOL    HW218606   2.606   3.649   7.610 -1.7458  0.4418  0.5653
 2382SOL     OW18607   3.384   0.544   2.115 -0.6144 -0.4969 -0.0764
 2382SOL    HW118608   3.397   0.586   2.200 -0.4637 -2.0380  0.6615
 2382SOL    HW218609   3.463   0.567   2.067  1.2257 -4.0570  1.3210
 2383SOL     OW18610   3.179   0.035   8.785 -0.0561  0.3133 -0.2217
 2383SOL    HW118611   3.235   0.073   8.717  0.5753 -0.6253 -0.2096
 2383SOL    HW218612   3.228   4.685   8.823 -1.6407 -0.3614  0.5269
 2384SOL     OW18613   2.686   0.637   3.239  0.0726 -0.0402  0.5000
 2384SOL    HW118614   2.711   0.713   3.292  0.0481  0.0662  0.3583
 2384SOL    HW218615   2.606   0.669   3.197 -0.0011  0.0039  0.6720
 2385SOL     OW18616   0.357   4.689   3.256  0.2190  0.3709 -0.0655
 2385SOL    HW118617   0.287   4.648   3.306 -0.2030  0.7108 -0.3806
 2385SOL    HW218618   0.407   4.609   3.237  0.6596  0.6066  0.1132
 2386SOL     OW18619   2.119   3.207   5.167 -0.4336 -0.7034  0.0327
 2386SOL    HW118620   2.082   3.252   5.243 -0.7296  0.9970 -1.1107
 2386SOL    HW218621   2.214   3.222   5.170 -0.6221  0.1316  1.8314
 2387SOL     OW18622   0.961   4.441   8.753  0.1858  0.1618 -0.8370
 2387SOL    HW118623   0.986   4.450   8.661  3.1598 -3.2052 -0.3268
 2387SOL    HW218624   0.953   4.534   8.774  1.7860 -0.3294  1.9985
 2388SOL     OW18625   1.047   0.419   0.655  1.1193 -0.5474 -0.1000
 2388SOL    HW118626   0.982   0.489   0.644  0.0665 -1.3411  1.0925
 2388SOL    HW218627   0.987   0.350   0.681 -0.3052  0.5407 -0.5067
 2389SOL     OW18628   0.299   3.491  13.082 -0.0092  0.5233  0.5134
 2389SOL    HW118629   0.338   3.404  13.067 -0.8524 -0.1397  2.2597
 2389SOL    HW218630   0.366   3.528  13.139 -0.5329  2.5324 -0.1962
 2390SOL     OW18631   4.326   2.171   7.848 -0.3839 -0.0175 -0.3763
 2390SOL    HW118632   4.410   2.137   7.817  0.9847  0.3538  2.9571
 2390SOL    HW218633   4.299   2.213   7.766 -0.1519 -0.7857 -0.8510
 2391SOL     OW18634   2.030   1.309   0.159 -0.3753 -0.2380  0.2426
 2391SOL    HW118635   2.017   1.278   0.248  1.9044  0.9381  0.9786
 2391SOL    HW218636   1.937   1.324   0.139 -0.1390  0.0389 -0.6878
 2392SOL     OW18637   4.535   0.286  15.732 -0.0090 -0.1989 -0.4971
 2392SOL    HW118638   4.551   0.193  15.743 -0.0358 -0.0628  0.6929
 2392SOL    HW218639   4.605   0.307  15.669 -1.1151  0.6816 -1.4504
 2393SOL     OW18640   3.284   1.126   3.533  0.1065  0.1409  0.4142
 2393SOL    HW118641   3.281   1.136   3.628 -0.1294 -0.7453  0.5063
 2393SOL    HW218642   3.356   1.064   3.525 -0.3618 -0.3262 -0.1967
 2394SOL     OW18643   3.439   0.050  10.647 -0.4017 -0.2480  0.0395
 2394SOL    HW118644   3.353   0.089  10.659  0.0389 -0.2386  3.4503
 2394SOL    HW218645   3.484   0.070  10.730 -0.1390 -1.0527  0.0990
 2395SOL     OW18646   4.641   4.272   2.665  0.0706  0.2822  0.1524
 2395SOL    HW118647   4.657   4.358   2.626  1.0462 -1.0966 -2.5434
 2395SOL    HW218648   4.612   4.297   2.752  1.8868 -1.9192  1.3870
 2396SOL     OW18649   3.197   3.597   2.364  0.1943  0.3853 -0.3469
 2396SOL    HW118650   3.266   3.532   2.377 -1.5732 -0.9819  2.1185
 2396SOL    HW218651   3.247   3.679   2.371  0.1825  0.2884  0.7806
 2397SOL     OW18652   2.551   1.595  17.661  0.0206  0.3274 -0.4294
 2397SOL    HW118653   2.585   1.665   0.026  0.9030 -1.3860  1.1735
 2397SOL    HW218654   2.460   1.588   0.001  0.0728 -0.1273 -0.3775
 2398SOL     OW18655   4.707   0.234   4.974  0.5934  0.5080  0.0977
 2398SOL    HW118656   4.691   0.174   5.046  1.4146 -0.0317 -0.1721
 2398SOL    HW218657   0.053   0.294   5.005  1.6357  0.4682 -2.0597
 2399SOL     OW18658   3.246   3.684   0.727 -0.1299  0.7819 -0.0723
 2399SOL    HW118659   3.280   3.752   0.669  0.4288 -1.2002 -2.0495
 2399SOL    HW218660   3.277   3.601   0.691 -1.2474 -0.2091  1.2103
 2400SOL     OW18661   2.916   4.715   2.768  0.2971  0.1584 -0.3600
 2400SOL    HW118662   2.999   4.679   2.736 -0.4218 -0.7700 -1.1969
 2400SOL    HW218663   2.945   0.069   2.819 -0.0130  0.1412 -0.1641
 2401SOL     OW18664   1.837   4.156   9.103 -0.0167 -0.3346 -0.3475
 2401SOL    HW118665   1.750   4.128   9.129 -0.7834  1.2371 -1.2018
 2401SOL    HW218666   1.873   4.205   9.177 -1.2808  0.2549 -0.1234
 2402SOL     OW18667   4.011   1.409   8.976  0.0533  0.5423 -0.2260
 2402SOL    HW118668   3.915   1.406   8.971 -0.0972  2.4844  1.4448
 2402SOL    HW218669   4.028   1.500   8.953 -1.9813  1.2962  1.2147
 2403SOL     OW18670   3.279   3.010   7.236 -0.2675  0.0054 -0.0279
 2403SOL    HW118671   3.252   2.985   7.324 -2.2120  0.3931 -0.5127
 2403SOL    HW218672   3.203   2.979   7.188  0.3863 -0.7699 -0.5818
 2404SOL     OW18673   0.765   1.413   3.338 -0.2015  0.1906  0.1741
 2404SOL    HW118674   0.773   1.402   3.432 -2.8653 -1.1968  0.2710
 2404SOL    HW218675   0.809   1.497   3.338 -3.0330  1.6794  1.6983
 2405SOL     OW18676   0.200   0.215  10.117 -0.1669 -0.3969 -0.1713
 2405SOL    HW118677   0.140   0.289  10.105  1.4828  1.0382  0.4043
 2405SOL    HW218678   0.135   0.149  10.139  0.5466 -0.8268  0.6440
 2406SOL     OW18679   1.139   2.200   2.584  0.5245  0.2887 -0.2148
 2406SOL    HW118680   1.213   2.145   2.612 -0.4583 -1.0314 -0.2198
 2406SOL    HW218681   1.108   2.146   2.511  0.5725  2.1854 -1.6423
 2407SOL     OW18682   1.271   4.072  10.560  0.2622 -0.2395 -0.6727
 2407SOL    HW118683   1.259   4.117  10.643  1.5298  1.9872 -1.7052
 2407SOL    HW218684   1.185   4.057  10.520 -1.2944  0.4841  2.4366
 2408SOL     OW18685   4.685   0.725   4.932 -0.1403 -0.4808  0.3043
 2408SOL    HW118686   4.599   0.761   4.910  0.8913  2.1150  0.5143
 2408SOL    HW218687   0.016   0.739   4.853  1.3395 -0.8920  1.2132
 2409SOL     OW18688   4.160   1.803   5.041 -0.6100  0.0249  0.1530
 2409SOL    HW118689   4.147   1.750   5.120 -1.0228 -0.6449 -0.3607
 2409SOL    HW218690   4.165   1.733   4.975 -1.0361 -1.1430  1.3681
 2410SOL     OW18691   4.285   1.087   3.052 -0.2254 -0.3893 -0.1744
 2410SOL    HW118692   4.309   1.063   3.141 -2.1455 -2.1477 -0.1218
 2410SOL    HW218693   4.354   1.046   3.000  0.0982 -2.0870  1.6140
 2411SOL     OW18694   2.468   2.869   2.925  0.1324 -0.3530  0.2636
 2411SOL    HW118695   2.422   2.836   3.002  1.6951  0.4313  1.5391
 2411SOL    HW218696   2.465   2.801   2.859 -2.4177 -2.2235  2.3064
 2412SOL     OW18697   0.892   2.026   4.111  0.3077 -0.6434  1.2640
 2412SOL    HW118698   0.874   2.025   4.205  0.2468 -0.5367  1.2542
 2412SOL    HW218699   0.986   2.008   4.103  0.2221 -0.1963 -0.7593
 2413SOL     OW18700   3.467   3.583   3.598 -0.0649 -0.6347  0.3092
 2413SOL    HW118701   3.406   3.510   3.608 -0.4553 -0.3660 -0.1270
 2413SOL    HW218702   3.508   3.568   3.513 -1.8263 -0.0523 -0.6427
 2414SOL     OW18703   0.960   3.038   1.872  0.2042  0.3998 -0.1637
 2414SOL    HW118704   0.902   2.978   1.826 -0.8064  1.1057  0.1774
 2414SOL    HW218705   1.041   3.002   1.836 -0.4037  0.3866 -1.4920
 2415SOL     OW18706   1.485   2.189  10.429 -0.1026  0.1313 -0.1054
 2415SOL    HW118707   1.493   2.111  10.483  0.0912  0.2093 -0.0249
 2415SOL    HW218708   1.577   2.196  10.403 -0.7356  1.2513 -2.0756
 2416SOL     OW18709   0.996   0.590   7.160 -0.1828 -0.0560 -0.1574
 2416SOL    HW118710   1.050   0.638   7.098 -0.0728  1.2828  0.9530
 2416SOL    HW218711   1.024   0.501   7.138  0.7435  0.4519 -1.0463
 2417SOL     OW18712   2.460   4.622   4.984 -0.1193 -0.7822  0.0274
 2417SOL    HW118713   2.548   4.661   4.983 -0.3152 -0.3971 -1.6144
 2417SOL    HW218714   2.457   4.602   5.078 -0.3931  0.9137  0.3884
 2418SOL     OW18715   3.366   1.903  16.953  0.1704  0.9103 -0.1176
 2418SOL    HW118716   3.301   1.832  16.947 -0.1084  1.0366  1.2581
 2418SOL    HW218717   3.437   1.872  16.897  0.4623 -0.4376  0.9958
 2419SOL     OW18718   2.077   2.758   1.752  0.1060  0.1190  0.0854
 2419SOL    HW118719   2.119   2.677   1.779  0.6154  1.2673  2.7919
 2419SOL    HW218720   2.012   2.712   1.699  0.4458 -0.5415  0.2478
 2420SOL     OW18721   3.737   1.205  16.024 -0.3583 -0.1880 -0.2964
 2420SOL    HW118722   3.706   1.115  16.013  2.8776 -1.4514  0.8398
 2420SOL    HW218723   3.653   1.251  16.019  0.6085  1.5735 -0.4004
 2421SOL     OW18724   4.718   4.062  13.278  0.0822  0.4611  0.5052
 2421SOL    HW118725   0.001   4.103  13.191  2.5446 -0.3134  0.2879
 2421SOL    HW218726   0.072   4.005  13.271  1.6874  2.9934 -3.0424
 2422SOL     OW18727   0.326   1.381  13.874  0.0712 -0.7544  0.3038
 2422SOL    HW118728   0.271   1.410  13.801 -0.4015  0.2655  1.0655
 2422SOL    HW218729   0.289   1.292  13.874  1.7001 -1.4347 -0.9749
 2423SOL     OW18730   1.421   4.651   5.634 -0.2550 -0.6709 -1.0931
 2423SOL    HW118731   1.383   4.720   5.579 -1.2240 -0.9038 -0.7195
 2423SOL    HW218732   1.515   4.663   5.625  0.0228 -1.2947  0.8939
 2424SOL     OW18733   2.905   4.329   8.198 -0.2918  0.0360  0.3104
 2424SOL    HW118734   2.849   4.405   8.211 -1.8058 -1.1215  0.5859
 2424SOL    HW218735   2.867   4.297   8.116 -1.8894  0.3342  0.9293
 2425SOL     OW18736   1.536   1.465   4.064  0.4978 -0.0762  0.0929
 2425SOL    HW118737   1.559   1.372   4.067  1.8739  0.2643  0.1428
 2425SOL    HW218738   1.601   1.497   4.001 -0.0472  0.8322 -0.0141
 2426SOL     OW18739   1.603   1.139   6.461 -0.2968  0.1404  0.4794
 2426SOL    HW118740   1.545   1.149   6.386  1.0677  0.2491 -0.5716
 2426SOL    HW218741   1.645   1.225   6.464 -0.2327  0.0492  1.9159
 2427SOL     OW18742   0.343   1.880   2.609  0.6286  0.4851 -0.1293
 2427SOL    HW118743   0.352   1.902   2.517  0.7491  0.2302 -0.1757
 2427SOL    HW218744   0.430   1.900   2.643 -0.0436 -0.3810  2.1069
 2428SOL     OW18745   2.571   0.300   1.136  0.5499 -0.0174  0.5856
 2428SOL    HW118746   2.566   0.390   1.103  4.4934 -0.4855 -1.3706
 2428SOL    HW218747   2.492   0.293   1.189  0.4344  2.6691  0.7822
 2429SOL     OW18748   3.225   2.079   6.659 -0.0164  0.2197 -0.0442
 2429SOL    HW118749   3.317   2.051   6.660  0.0248  0.3115 -1.2110
 2429SOL    HW218750   3.184   1.992   6.661  0.5693 -0.0528  0.2411
 2430SOL     OW18751   0.614   0.460   4.789  0.1920  0.1650 -0.6872
 2430SOL    HW118752   0.700   0.449   4.830 -1.2088 -1.7586  1.7283
 2430SOL    HW218753   0.593   0.373   4.755  0.7187 -0.4135  0.4629
 2431SOL     OW18754   1.844   2.540   7.204 -0.0507 -0.2664  0.0979
 2431SOL    HW118755   1.849   2.497   7.118  0.2286 -1.4968  0.7249
 2431SOL    HW218756   1.816   2.463   7.253 -0.5268  0.4667  0.9565
 2432SOL     OW18757   1.051   2.209   7.467  0.1065  0.3896 -0.1211
 2432SOL    HW118758   1.147   2.203   7.472  0.1883  1.1281 -0.8769
 2432SOL    HW218759   1.045   2.275   7.398 -0.1187  0.9027  0.3891
 2433SOL     OW18760   2.436   2.263  13.786 -0.0043 -0.5684 -0.7370
 2433SOL    HW118761   2.354   2.214  13.792 -0.5700  0.4510 -0.1123
 2433SOL    HW218762   2.419   2.281  13.694 -4.1812  0.6375  0.2601
 2434SOL     OW18763   3.511   4.710  16.410 -0.6889 -0.4612 -1.0581
 2434SOL    HW118764   3.492   4.696  16.318  0.5035 -1.5140 -1.1544
 2434SOL    HW218765   3.547   4.624  16.431  0.1664 -0.0130 -0.7067
 2435SOL     OW18766   0.492   0.345  10.330 -0.1172  0.5997  0.0354
 2435SOL    HW118767   0.427   0.402  10.371 -2.3948 -1.6621 -0.4986
 2435SOL    HW218768   0.566   0.353  10.390  0.0049 -2.8183  0.3401
 2436SOL     OW18769   0.122   2.765   6.927  0.4040  0.2161 -0.0147
 2436SOL    HW118770   0.086   2.677   6.939  2.3244 -0.7395 -1.2918
 2436SOL    HW218771   0.071   2.820   6.986  1.2940 -0.2907  1.2296
 2437SOL     OW18772   3.486   2.287   2.769  0.7854  1.0527  0.1815
 2437SOL    HW118773   3.437   2.227   2.826  0.3590  1.4109  0.1885
 2437SOL    HW218774   3.426   2.327   2.706  1.3479 -0.6484 -1.4636
 2438SOL     OW18775   3.342   1.331  11.538  0.1314 -0.6386  0.2768
 2438SOL    HW118776   3.429   1.355  11.505 -1.3622  1.8987 -1.7548
 2438SOL    HW218777   3.295   1.409  11.510 -1.4546 -1.6223  0.1973
 2439SOL     OW18778   3.034   0.639  16.358 -0.2389 -0.0749 -0.1930
 2439SOL    HW118779   3.118   0.603  16.331 -0.4924  0.0187 -1.1051
 2439SOL    HW218780   3.020   0.717  16.304 -0.6244  0.2904  0.4272
 2440SOL     OW18781   2.841   4.273   6.670  0.1456  0.2410 -0.4153
 2440SOL    HW118782   2.757   4.297   6.709  2.4781  1.7310  3.6974
 2440SOL    HW218783   2.898   4.307   6.740  0.5466 -1.2727  0.0006
 2441SOL     OW18784   2.679   4.384   1.106  0.4487  0.0401  0.0497
 2441SOL    HW118785   2.634   4.442   1.168 -0.2490  0.5851 -0.9607
 2441SOL    HW218786   2.603   4.332   1.078 -0.8319  2.1006 -0.2996
 2442SOL     OW18787   1.573   3.528   8.566 -0.0343 -0.2022  0.7233
 2442SOL    HW118788   1.541   3.600   8.621 -0.3367  0.1889  0.0444
 2442SOL    HW218789   1.496   3.471   8.566  0.0033 -0.2466 -1.1372
 2443SOL     OW18790   0.943   2.964   4.936  0.1097 -0.9632  0.3146
 2443SOL    HW118791   0.885   3.027   4.979  1.3130 -0.0074  0.5385
 2443SOL    HW218792   0.932   3.000   4.848  0.5634  0.3280  0.7891
 2444SOL     OW18793   3.536   1.271   6.744  0.1901 -0.1727  0.1425
 2444SOL    HW118794   3.517   1.365   6.744  0.1339 -0.1711 -2.4030
 2444SOL    HW218795   3.455   1.238   6.706  0.6400  1.1007 -1.9132
 2445SOL     OW18796   3.558   4.024   3.551 -0.0939 -0.1676 -0.3248
 2445SOL    HW118797   3.622   3.954   3.561 -0.0579  0.0707  1.1810
 2445SOL    HW218798   3.493   3.987   3.491 -1.0806 -1.4410  1.5072
 2446SOL     OW18799   3.083   4.117   6.136 -0.4542 -0.0203  0.3318
 2446SOL    HW118800   3.152   4.179   6.110 -0.6500  0.1106  0.1240
 2446SOL    HW218801   3.101   4.115   6.230 -2.0269 -0.0600  0.6254
 2447SOL     OW18802   3.751   2.103   6.144 -0.0218 -0.2569  0.0175
 2447SOL    HW118803   3.844   2.102   6.168 -0.1876  0.4353  0.7054
 2447SOL    HW218804   3.730   2.013   6.120 -0.1524 -0.1103 -0.4242
 2448SOL     OW18805   3.027   1.052   4.530  0.1388  0.0188  0.2574
 2448SOL    HW118806   3.022   0.975   4.473  3.6019 -0.0766  0.1015
 2448SOL    HW218807   3.117   1.053   4.563 -0.1791 -0.3722  1.1209
 2449SOL     OW18808   3.774   2.360  15.209 -0.1599 -0.2385  0.3146
 2449SOL    HW118809   3.817   2.347  15.294  2.2559 -0.1722 -0.8994
 2449SOL    HW218810   3.691   2.330  15.246 -0.9563  2.9000  1.1302
 2450SOL     OW18811   3.191   3.416  16.460  0.2774 -0.1889 -0.2602
 2450SOL    HW118812   3.214   3.359  16.386 -0.0529 -0.9236  0.1966
 2450SOL    HW218813   3.163   3.357  16.530 -1.6031  1.3510  0.2959
 2451SOL     OW18814   2.301   3.858   8.155 -0.3340 -0.0669  0.1221
 2451SOL    HW118815   2.293   3.860   8.250 -1.2613 -0.1701  0.0476
 2451SOL    HW218816   2.277   3.767   8.137 -0.6985 -0.4055  2.2987
 2452SOL     OW18817   1.779   1.849  10.814 -0.2689  0.3119 -0.7700
 2452SOL    HW118818   1.792   1.928  10.762 -0.2155  2.7778  2.9954
 2452SOL    HW218819   1.833   1.848  10.894  1.0363  0.4666 -1.6491
 2453SOL     OW18820   1.697   2.435   4.688  0.2082 -0.1789  0.4359
 2453SOL    HW118821   1.628   2.402   4.746 -0.6247 -1.0807 -1.0659
 2453SOL    HW218822   1.772   2.382   4.716 -1.1515 -1.4798  1.5877
 2454SOL     OW18823   4.647   0.719   2.871 -0.0729 -0.3611  0.1397
 2454SOL    HW118824   4.582   0.673   2.818  0.2722 -0.4938 -0.1607
 2454SOL    HW218825   4.718   0.655   2.877 -0.1554 -0.1580  3.2697
 2455SOL     OW18826   2.914   3.522  16.099 -0.2324 -0.3536 -0.1387
 2455SOL    HW118827   2.995   3.569  16.081 -0.5503  0.0176 -0.6097
 2455SOL    HW218828   2.859   3.592  16.064  0.4852 -0.2443 -1.0535
 2456SOL     OW18829   1.840   3.805   4.825 -0.2811 -0.5857  0.5128
 2456SOL    HW118830   1.876   3.749   4.895 -1.8513 -1.9535  0.2324
 2456SOL    HW218831   1.919   3.793   4.772 -1.8704 -1.6858 -1.6046
 2457SOL     OW18832   1.792   3.074   5.991 -0.1771 -0.1318  0.8571
 2457SOL    HW118833   1.807   3.084   5.896 -1.0687 -1.5342  0.5691
 2457SOL    HW218834   1.879   3.106   6.017  0.5777 -0.6684 -0.9320
 2458SOL     OW18835   1.192   1.611   7.880 -0.7957  0.8538  0.3823
 2458SOL    HW118836   1.194   1.619   7.976  1.5348 -1.0035  0.5023
 2458SOL    HW218837   1.278   1.571   7.865 -0.2515  2.0627  0.2346
 2459SOL     OW18838   3.638   2.547   4.707 -0.1789  0.1461 -0.2342
 2459SOL    HW118839   3.554   2.508   4.730 -1.2615  2.5306 -0.1795
 2459SOL    HW218840   3.674   2.574   4.792  0.1657  0.9896 -0.6440
 2460SOL     OW18841   0.038   2.344   5.012 -0.1200 -0.0783 -0.1051
 2460SOL    HW118842   0.111   2.402   5.036 -0.5973 -0.0780  1.3345
 2460SOL    HW218843   0.081   2.260   4.994 -0.1326 -0.5396  2.0261
 2461SOL     OW18844   3.093   0.296   1.252  0.5986 -0.4175 -0.2797
 2461SOL    HW118845   3.173   0.246   1.263  1.6716  1.2471 -0.4812
 2461SOL    HW218846   3.099   0.332   1.163  0.8469 -0.2665 -0.2025
 2462SOL     OW18847   0.741   0.215   6.937 -0.2186  0.5080  0.5193
 2462SOL    HW118848   0.790   0.289   6.972 -0.4498 -0.5104  2.9483
 2462SOL    HW218849   0.713   0.250   6.852  1.4656 -1.8015 -1.0210
 2463SOL     OW18850   2.738   1.909  12.773  0.4905 -0.0076 -0.2961
 2463SOL    HW118851   2.665   1.950  12.725  0.0906  2.3882  2.2971
 2463SOL    HW218852   2.812   1.914  12.713 -0.8466  2.7957 -1.7188
 2464SOL     OW18853   2.651   4.212   7.444  0.1866  0.7884  0.5677
 2464SOL    HW118854   2.569   4.206   7.395  0.5050  0.8345  0.0275
 2464SOL    HW218855   2.675   4.120   7.449  0.1351  0.6662 -1.4730
 2465SOL     OW18856   0.272   1.048  13.203 -0.3756 -0.5327 -0.3335
 2465SOL    HW118857   0.319   0.972  13.235 -1.1621 -1.6642 -1.9014
 2465SOL    HW218858   0.310   1.059  13.117  0.4966  1.3867  0.2994
 2466SOL     OW18859   3.344   0.154   2.651  0.9011  0.1518 -0.2213
 2466SOL    HW118860   3.375   0.183   2.565 -0.3526 -0.9938 -1.0520
 2466SOL    HW218861   3.337   0.059   2.641 -0.9731  0.2189  0.4519
 2467SOL     OW18862   4.543   2.423  13.842  0.4768 -0.2047  0.4524
 2467SOL    HW118863   4.624   2.374  13.861  0.7003 -0.2268 -0.5523
 2467SOL    HW218864   4.580   2.498  13.796  0.1837 -1.3367 -1.6266
 2468SOL     OW18865   3.695   1.409  10.944 -0.3734 -0.7519 -0.1711
 2468SOL    HW118866   3.600   1.416  10.958 -0.2518 -0.1426  0.3332
 2468SOL    HW218867   3.698   1.476  10.876  1.0403 -0.6496 -0.0041
 2469SOL     OW18868   3.197   3.934   5.432  0.3073 -0.0555  0.0956
 2469SOL    HW118869   3.185   3.848   5.391  0.9505 -0.2094  0.2283
 2469SOL    HW218870   3.109   3.971   5.438  0.6511  0.4915  1.9983
 2470SOL     OW18871   1.066   3.098   4.716 -0.3311  0.7134  0.3440
 2470SOL    HW118872   1.077   3.127   4.806 -0.8453  0.1100  0.5987
 2470SOL    HW218873   1.138   3.126   4.659  1.9246 -0.7828  2.5056
 2471SOL     OW18874   4.269   0.218   4.168 -0.2484  0.4078 -0.1103
 2471SOL    HW118875   4.209   0.273   4.218 -0.7106  0.3487 -0.5916
 2471SOL    HW218876   4.293   0.163   4.243  2.1166  3.0459  1.0255
 2472SOL     OW18877   1.923   0.529  14.901  0.1921  0.1863 -0.4174
 2472SOL    HW118878   1.962   0.539  14.814 -0.3833 -0.2522 -0.7219
 2472SOL    HW218879   1.948   0.619  14.924  0.3003  0.0792 -0.1113
 2473SOL     OW18880   2.031   3.685   5.448 -0.4355 -0.0638  0.4940
 2473SOL    HW118881   2.014   3.652   5.536 -0.6505  0.7932  0.7806
 2473SOL    HW218882   1.971   3.760   5.453 -2.1781 -1.4664  0.4249
 2474SOL     OW18883   4.486   1.932   3.616 -0.6085 -0.6763 -0.3505
 2474SOL    HW118884   4.461   1.842   3.637  2.5883 -1.3392  0.5553
 2474SOL    HW218885   4.580   1.920   3.624 -0.5630 -0.8946 -1.2244
 2475SOL     OW18886   1.746   0.990   1.396  0.1350  0.0809  0.7062
 2475SOL    HW118887   1.778   0.938   1.470 -0.1256  1.2310  1.6318
 2475SOL    HW218888   1.727   0.926   1.328  4.9030 -3.0540  2.2688
 2476SOL     OW18889   1.867   0.273  17.658 -0.7478 -0.7490 -0.1011
 2476SOL    HW118890   1.791   0.242   0.017 -0.1076  1.6220  2.4016
 2476SOL    HW218891   1.882   0.195  17.605  1.5619 -0.6549  0.3968
 2477SOL     OW18892   2.742   3.322  13.022 -0.3227 -0.3052  0.2336
 2477SOL    HW118893   2.673   3.361  13.075  1.1049  1.6085  0.6744
 2477SOL    HW218894   2.812   3.297  13.082 -1.1001  0.3182  1.3864
 2478SOL     OW18895   1.830   2.001   3.231 -1.1568 -0.4184  0.0427
 2478SOL    HW118896   1.846   1.934   3.297  0.5135 -0.5942 -0.5493
 2478SOL    HW218897   1.773   2.061   3.280 -0.8662 -0.5505  0.5454
 2479SOL     OW18898   3.594   3.534   7.151 -0.1768  0.3644  0.3288
 2479SOL    HW118899   3.668   3.593   7.164  0.5146 -0.3065 -0.5841
 2479SOL    HW218900   3.554   3.585   7.080  3.6941  2.6177 -0.2102
 2480SOL     OW18901   1.947   2.431   4.938 -0.0252 -0.0351 -0.5182
 2480SOL    HW118902   1.980   2.415   4.850  1.9844 -1.0981  0.4270
 2480SOL    HW218903   1.976   2.522   4.950  2.5435 -0.9316 -0.0361
 2481SOL     OW18904   3.082   3.145   6.602 -1.0515  0.5090  0.8237
 2481SOL    HW118905   3.145   3.215   6.584 -0.7541  0.4833  1.7997
 2481SOL    HW218906   3.028   3.188   6.668 -1.1747  0.1470  0.9596
 2482SOL     OW18907   4.320   0.933  14.891  0.5349 -0.1384 -0.7372
 2482SOL    HW118908   4.338   0.883  14.811  2.5168  2.2405 -1.7604
 2482SOL    HW218909   4.281   0.868  14.951  3.0100 -0.3487  0.6123
 2483SOL     OW18910   4.274   3.878  10.116  0.0774 -0.4602  0.0016
 2483SOL    HW118911   4.368   3.874  10.101 -0.4077 -0.1841 -3.0884
 2483SOL    HW218912   4.249   3.935  10.043  0.2208 -0.1159  0.2220
 2484SOL     OW18913   1.506   0.255  11.044  0.1448 -0.3604 -0.5965
 2484SOL    HW118914   1.417   0.277  11.018  0.4362  0.8163 -0.6351
 2484SOL    HW218915   1.493   0.254  11.139  0.4195  2.7550 -0.5157
 2485SOL     OW18916   2.700   4.401   9.074 -0.2634  0.4066 -0.3164
 2485SOL    HW118917   2.612   4.370   9.095 -0.7828  2.2516  0.1948
 2485SOL    HW218918   2.713   4.468   9.141  1.0468  1.3551 -1.5365
 2486SOL     OW18919   1.362   2.157   8.690  0.0285 -0.2117  0.3085
 2486SOL    HW118920   1.398   2.069   8.689  1.9103  0.6247 -3.3540
 2486SOL    HW218921   1.434   2.200   8.645 -0.8251  1.2170  0.2862
 2487SOL     OW18922   1.267   2.044   9.452  0.3270 -0.1433  0.0622
 2487SOL    HW118923   1.275   1.977   9.384 -3.1791 -0.4080 -0.1138
 2487SOL    HW218924   1.284   2.123   9.400  2.3500 -1.1093 -0.7411
 2488SOL     OW18925   0.084   2.383   7.529 -0.5770  0.2005 -0.5676
 2488SOL    HW118926   0.114   2.395   7.619 -1.1547 -1.1166 -0.1966
 2488SOL    HW218927   0.111   2.292   7.512 -0.6729 -0.0190  0.4555
 2489SOL     OW18928   0.954   2.923   8.431  0.1893 -0.1046  0.6728
 2489SOL    HW118929   1.047   2.940   8.443  0.3584 -1.3610  1.1311
 2489SOL    HW218930   0.922   3.007   8.397  0.5716  1.2250  3.6148
 2490SOL     OW18931   0.633   3.426   4.228  0.2068  0.0439 -0.2227
 2490SOL    HW118932   0.690   3.418   4.305  0.0371 -1.9307 -0.2812
 2490SOL    HW218933   0.613   3.335   4.205 -0.2131 -0.0699  0.6112
 2491SOL     OW18934   0.957   2.323   0.234 -0.1523  0.1278 -0.2089
 2491SOL    HW118935   1.050   2.312   0.215  0.2462 -0.5240  2.1710
 2491SOL    HW218936   0.946   2.304   0.327 -3.0001  0.3515 -0.5142
 2492SOL     OW18937   3.907   0.172   4.195  0.6051 -0.1157  0.0185
 2492SOL    HW118938   3.943   0.260   4.201  0.0101 -0.0120  2.0766
 2492SOL    HW218939   3.931   0.143   4.107 -2.0072  1.8725 -1.3406
 2493SOL     OW18940   3.693   4.109  12.992  0.1040 -0.1542 -0.0862
 2493SOL    HW118941   3.665   4.188  13.037  1.0072  0.7774 -1.1503
 2493SOL    HW218942   3.614   4.056  12.980 -1.6051  2.0642  1.3469
 2494SOL     OW18943   2.113   2.374   1.285 -0.0665  0.4607 -0.0683
 2494SOL    HW118944   2.139   2.407   1.199  0.7020 -1.0334 -0.4063
 2494SOL    HW218945   2.148   2.285   1.278 -0.4157  0.1778  1.7083
 2495SOL     OW18946   1.360   0.464   1.409  0.0035 -0.0362 -0.2094
 2495SOL    HW118947   1.433   0.522   1.389 -1.1069  1.4931  0.1816
 2495SOL    HW218948   1.343   0.490   1.500 -0.3933 -0.3950 -0.1778
 2496SOL     OW18949   2.314   0.698   0.989 -0.4690  0.3413 -0.2310
 2496SOL    HW118950   2.363   0.780   0.984  1.1703 -0.5056  1.9765
 2496SOL    HW218951   2.228   0.723   0.956 -0.3205  1.8003  0.5061
 2497SOL     OW18952   1.423   1.236  10.543  0.0003 -0.3593 -0.3462
 2497SOL    HW118953   1.360   1.244  10.472  0.2833 -0.3252 -0.5923
 2497SOL    HW218954   1.451   1.150  10.512  0.3843 -0.0958 -0.7300
 2498SOL     OW18955   2.090   2.841   3.541 -0.2866  0.3535  0.0405
 2498SOL    HW118956   2.046   2.767   3.582 -0.0937  1.1022  1.6078
 2498SOL    HW218957   2.062   2.912   3.598 -0.4628  0.6874 -0.4573
 2499SOL     OW18958   2.053   3.071   3.700 -0.0378  0.2743  0.8687
 2499SOL    HW118959   2.127   3.038   3.750  1.0778  0.6815 -0.5209
 2499SOL    HW218960   1.990   3.091   3.769  1.2921  0.2278  2.0768
 2500SOL     OW18961   2.963   0.671   6.599 -0.2576 -0.1299  0.2224
 2500SOL    HW118962   2.942   0.737   6.665  0.7374 -0.3864  0.7951
 2500SOL    HW218963   3.038   0.711   6.554 -0.1612  1.3035  1.6579
 2501SOL     OW18964   2.197   4.141  11.914 -0.5087  0.5286 -1.0151
 2501SOL    HW118965   2.111   4.122  11.952 -0.3413 -0.7144 -1.2880
 2501SOL    HW218966   2.259   4.099  11.974 -2.8089  0.2465  1.1657
 2502SOL     OW18967   1.781   3.649  13.626 -0.6517 -0.1352 -0.5101
 2502SOL    HW118968   1.832   3.675  13.702  0.6248  0.2572 -1.4889
 2502SOL    HW218969   1.700   3.633  13.674  1.1063  1.2025  2.9149
 2503SOL     OW18970   3.657   3.538   5.124 -0.0534  0.5628  0.3693
 2503SOL    HW118971   3.604   3.613   5.149  0.2724  0.6606  0.7762
 2503SOL    HW218972   3.741   3.567   5.160  0.6179 -0.5643 -0.2773
 2504SOL     OW18973   0.351   0.481   3.902  0.1416  0.0887  0.2682
 2504SOL    HW118974   0.273   0.537   3.903 -1.0408 -1.5492  0.5917
 2504SOL    HW218975   0.347   0.437   3.817 -0.5672  2.3011 -0.8416
 2505SOL     OW18976   1.028   0.428  14.847  0.1835 -0.0538 -0.0963
 2505SOL    HW118977   0.934   0.428  14.865 -0.3415  3.6967 -2.8813
 2505SOL    HW218978   1.063   0.432  14.936 -1.3177 -4.1806  0.6762
 2506SOL     OW18979   4.046   0.564  15.411 -0.0108  0.3828 -0.1867
 2506SOL    HW118980   3.958   0.594  15.429  0.9601  2.6717  0.7208
 2506SOL    HW218981   4.082   0.538  15.497 -2.2745  0.4159  0.7510
 2507SOL     OW18982   0.872   3.106   4.421  0.1915  0.6539 -0.1234
 2507SOL    HW118983   0.909   3.022   4.451  0.7560  1.6905  2.0879
 2507SOL    HW218984   0.781   3.076   4.423 -0.2833  2.2819  1.9677
 2508SOL     OW18985   2.801   1.133   8.628  0.6983  0.1377 -0.1202
 2508SOL    HW118986   2.889   1.161   8.654 -0.0975  1.1150  1.5090
 2508SOL    HW218987   2.810   1.039   8.647 -1.3890 -0.2095 -0.8363
 2509SOL     OW18988   2.618   1.361   5.112 -0.4167  0.1287  0.4166
 2509SOL    HW118989   2.525   1.356   5.088 -0.2769 -0.2617 -0.0251
 2509SOL    HW218990   2.634   1.290   5.174 -0.2082 -0.4748 -0.3313
 2510SOL     OW18991   3.715   3.615   4.003  0.3162 -0.2520 -0.7710
 2510SOL    HW118992   3.670   3.533   4.023 -1.4874  0.1686 -3.1225
 2510SOL    HW218993   3.730   3.612   3.909  0.0466  0.0001 -0.8215
 2511SOL     OW18994   3.409   0.795   6.282 -0.1198  0.3709 -0.0894
 2511SOL    HW118995   3.448   0.752   6.358  1.8672  0.9777 -0.7441
 2511SOL    HW218996   3.371   0.874   6.320 -1.9726  0.6594 -2.5038
 2512SOL     OW18997   3.145   2.537   7.843  0.2558  0.0202  0.3754
 2512SOL    HW118998   3.136   2.442   7.854  1.7936  0.2723  3.8557
 2512SOL    HW218999   3.053   2.550   7.864 -0.0866 -1.7828  0.0018
 2513SOL     OW19000   0.424   4.380   7.128  0.6877 -0.0925  0.4134
 2513SOL    HW119001   0.374   4.455   7.160  0.0583  0.1073 -1.0006
 2513SOL    HW219002   0.491   4.425   7.076  0.1010 -0.5801 -0.7859
 2514SOL     OW19003   2.999   1.022   3.516 -0.1635  0.1980 -0.5334
 2514SOL    HW119004   3.003   1.106   3.470 -0.8343 -1.2708 -3.2542
 2514SOL    HW219005   3.086   0.988   3.497 -0.3676 -0.5932 -0.0595
 2515SOL     OW19006   3.431   2.546   7.835  0.3622  0.1395 -0.5648
 2515SOL    HW119007   3.479   2.628   7.837  0.6099 -0.0082 -0.5072
 2515SOL    HW219008   3.338   2.567   7.821 -0.5131 -3.6295 -0.5125
 2516SOL     OW19009   2.050   0.649  13.361  0.4019 -0.0597 -0.1403
 2516SOL    HW119010   2.005   0.725  13.398  0.0372  0.0289 -0.7563
 2516SOL    HW219011   1.989   0.577  13.377  0.0755 -0.0740 -1.4214
 2517SOL     OW19012   3.785   2.416   6.427 -0.6871 -0.6654  0.8742
 2517SOL    HW119013   3.810   2.329   6.456 -1.1647 -1.4147 -1.0134
 2517SOL    HW219014   3.809   2.416   6.335  0.5690  0.6260  1.1903
 2518SOL     OW19015   3.316   4.383   3.369 -0.1418 -0.2188 -0.0687
 2518SOL    HW119016   3.287   4.311   3.425  0.4441  1.4688  2.3936
 2518SOL    HW219017   3.360   4.442   3.431  2.3694 -1.7300 -0.4350
 2519SOL     OW19018   0.783   3.402   7.742  0.1387 -0.0635  0.2769
 2519SOL    HW119019   0.767   3.324   7.794  0.0603 -1.8761 -2.4888
 2519SOL    HW219020   0.776   3.476   7.803  0.7804 -0.8105  1.2596
 2520SOL     OW19021   0.663   2.955   2.109  0.0509  0.3136  0.3897
 2520SOL    HW119022   0.739   2.945   2.166  0.3965  2.9402  0.4001
 2520SOL    HW219023   0.651   3.049   2.095  0.6320  0.4649  0.9194
 2521SOL     OW19024   3.491   4.238   5.642 -0.0586 -0.5388 -0.3638
 2521SOL    HW119025   3.528   4.163   5.689  1.6706  0.4212 -0.1687
 2521SOL    HW219026   3.441   4.199   5.571 -0.0396  0.5021 -0.9474
 2522SOL     OW19027   3.408   1.522   1.633  0.0455 -0.2448  0.0567
 2522SOL    HW119028   3.373   1.527   1.722  0.2060 -0.1027  0.1112
 2522SOL    HW219029   3.438   1.431   1.629 -0.2830 -0.3035 -0.9587
 2523SOL     OW19030   3.766   3.775  13.796  0.0052 -0.0339 -0.0246
 2523SOL    HW119031   3.830   3.785  13.726  0.0952  0.5417  0.1425
 2523SOL    HW219032   3.725   3.701  13.752 -0.1927  0.3514 -0.4870
 2524SOL     OW19033   0.716   1.845   6.078 -0.2101  0.3816  0.3540
 2524SOL    HW119034   0.667   1.861   6.159 -1.2120 -1.5253  0.1356
 2524SOL    HW219035   0.642   1.870   6.023 -0.9425  0.1512  1.2278
 2525SOL     OW19036   0.012   0.172   7.496  0.0801 -0.3325 -0.4219
 2525SOL    HW119037   0.050   0.206   7.415 -0.7013 -0.2783 -0.7606
 2525SOL    HW219038   4.648   0.149   7.461 -0.4854 -0.8275  1.3164
 2526SOL     OW19039   0.479   4.383   9.527  0.2578 -0.0116  0.4595
 2526SOL    HW119040   0.477   4.363   9.434  2.2724  0.5847  0.2884
 2526SOL    HW219041   0.424   4.461   9.519  0.1297 -0.2136 -0.5407
 2527SOL     OW19042   1.751   0.956   5.104 -0.3805  0.0449 -0.0450
 2527SOL    HW119043   1.784   0.965   5.193  0.0975  4.6453 -0.6992
 2527SOL    HW219044   1.670   1.007   5.103  0.8074  1.9619  0.3925
 2528SOL     OW19045   2.789   3.947   0.094  0.1231  0.4897  0.9125
 2528SOL    HW119046   2.811   3.955   0.001 -0.6940 -2.3236  0.4794
 2528SOL    HW219047   2.856   3.999   0.139 -1.9765  3.9140  0.0675
 2529SOL     OW19048   0.258   2.812   2.769  0.1687 -0.2441 -1.0297
 2529SOL    HW119049   0.249   2.723   2.737  1.9170 -1.4806  1.8535
 2529SOL    HW219050   0.347   2.809   2.804 -0.0508 -1.5479 -0.5867
 2530SOL     OW19051   0.796   4.249   4.530  0.3969 -0.0254  0.4542
 2530SOL    HW119052   0.771   4.339   4.548 -3.1758 -0.8529 -0.3733
 2530SOL    HW219053   0.846   4.248   4.449 -1.9524 -0.8769 -0.9842
 2531SOL     OW19054   1.685   0.602   8.575 -0.3863  0.0069 -0.2151
 2531SOL    HW119055   1.765   0.642   8.610  1.4298 -3.8987  0.0163
 2531SOL    HW219056   1.698   0.638   8.487  1.9771 -0.0592  0.1054
 2532SOL     OW19057   1.608   2.305   4.432  0.3624 -0.4361 -0.4355
 2532SOL    HW119058   1.658   2.346   4.502  0.7419  1.9633 -2.1356
 2532SOL    HW219059   1.672   2.241   4.401 -0.1030 -0.7118 -0.8301
 2533SOL     OW19060   1.749   1.813   4.692  0.0639 -0.0945  0.2302
 2533SOL    HW119061   1.714   1.834   4.778  0.4967  0.1359  0.3532
 2533SOL    HW219062   1.697   1.868   4.633  0.6494  0.2594  0.0367
 2534SOL     OW19063   4.673   3.640   9.992  0.0868 -0.8066 -0.2981
 2534SOL    HW119064   4.713   3.563  10.033  1.2411 -0.4337 -0.7343
 2534SOL    HW219065   4.694   3.638   9.899 -3.6044  2.1520 -1.2148
 2535SOL     OW19066   4.439   1.714  10.742  0.5552  0.2847  0.0836
 2535SOL    HW119067   4.354   1.723  10.786  0.0392 -4.4864  0.0205
 2535SOL    HW219068   4.412   1.659  10.668  3.3527 -0.1601 -0.5982
 2536SOL     OW19069   2.977   3.541   6.240 -0.1314 -0.1913 -0.4611
 2536SOL    HW119070   2.916   3.556   6.313 -0.2139  3.3920 -1.2453
 2536SOL    HW219071   2.934   3.470   6.192  0.6280 -1.0218  0.1099
 2537SOL     OW19072   0.281   0.211  11.076  0.1132  0.0458 -0.0391
 2537SOL    HW119073   0.189   0.185  11.071  0.1360 -0.2292  1.1355
 2537SOL    HW219074   0.321   0.162  11.147  0.0999  1.1876  0.7453
 2538SOL     OW19075   2.774   2.880   8.581 -0.0897 -0.1109  0.1772
 2538SOL    HW119076   2.688   2.890   8.539  0.7746  1.3503 -1.2602
 2538SOL    HW219077   2.749   2.862   8.672 -1.5653  4.0949  0.5972
 2539SOL     OW19078   2.631   1.555   4.548  0.1613  0.1888 -0.3900
 2539SOL    HW119079   2.545   1.517   4.528  0.9589 -1.0486 -1.4313
 2539SOL    HW219080   2.691   1.518   4.484  0.6094  1.1010 -0.5022
 2540SOL     OW19081   0.293   0.318   9.752  0.1409 -0.5678  0.2202
 2540SOL    HW119082   0.202   0.346   9.750  0.2287 -0.2541  0.6751
 2540SOL    HW219083   0.322   0.346   9.665  0.7049  0.4742  0.7535
 2541SOL     OW19084   3.025   1.834   4.445 -0.2700  0.7578  0.3346
 2541SOL    HW119085   3.002   1.760   4.389  0.5968  1.7049 -1.2456
 2541SOL    HW219086   2.940   1.859   4.480 -0.4512 -0.0770  0.5037
 2542SOL     OW19087   0.751   2.649   3.269 -0.0282 -0.3186  0.1897
 2542SOL    HW119088   0.697   2.674   3.194  1.0441 -1.3133 -0.9130
 2542SOL    HW219089   0.726   2.715   3.334 -2.5332  0.8332 -1.9569
 2543SOL     OW19090   2.912   2.134   4.184  0.1291  0.4752 -0.2663
 2543SOL    HW119091   2.865   2.052   4.199 -1.5003  1.7670  1.7229
 2543SOL    HW219092   2.863   2.179   4.253  0.6075 -2.4404  1.9873
 2544SOL     OW19093   4.692   3.268   2.577  0.1343  0.8594  0.4200
 2544SOL    HW119094   4.706   3.296   2.487  3.4013 -1.2107  0.3075
 2544SOL    HW219095   0.039   3.311   2.628  0.7545  1.3445 -0.8270
 2545SOL     OW19096   3.404   2.951   8.353  0.1131 -0.5984 -0.0190
 2545SOL    HW119097   3.335   2.997   8.401  2.3438 -0.7303  3.2811
 2545SOL    HW219098   3.483   2.958   8.406  0.6877 -0.5414 -0.8833
 2546SOL     OW19099   2.490   2.276   8.448  0.0534 -0.4840 -0.1968
 2546SOL    HW119100   2.421   2.318   8.397  1.7400  1.7115 -0.7044
 2546SOL    HW219101   2.450   2.267   8.534 -1.4746  1.2690 -0.7325
 2547SOL     OW19102   2.449   2.822   8.110  0.3168 -0.1436 -0.1451
 2547SOL    HW119103   2.531   2.860   8.079 -0.1686  0.0146 -1.2345
 2547SOL    HW219104   2.387   2.888   8.078  0.6353  0.3845  0.3265
 2548SOL     OW19105   0.676   1.209   4.981 -0.1168 -0.0017  0.3104
 2548SOL    HW119106   0.582   1.212   4.993 -0.1723 -0.2761 -0.0633
 2548SOL    HW219107   0.712   1.251   5.060 -0.7445 -0.2576  0.7289
 2549SOL     OW19108   2.810   0.755   5.163 -0.3016  0.1019  0.3866
 2549SOL    HW119109   2.892   0.710   5.143 -0.7951 -0.4703 -0.3826
 2549SOL    HW219110   2.802   0.793   5.075  2.2968 -2.9691 -1.1810
 2550SOL     OW19111   0.266   1.334   1.024  0.7506 -0.5390  0.2297
 2550SOL    HW119112   0.287   1.367   0.938 -0.5706 -1.1417 -0.3327
 2550SOL    HW219113   0.174   1.360   1.022  0.5894 -1.1280 -0.0997
 2551SOL     OW19114   2.740   4.475   7.457  0.2438  0.3080  0.3941
 2551SOL    HW119115   2.810   4.415   7.431 -0.8251 -0.1714 -1.3968
 2551SOL    HW219116   2.672   4.411   7.480  1.2694 -0.5087  1.1452
 2552SOL     OW19117   0.753   2.035   2.952 -0.1865 -0.2562  0.0762
 2552SOL    HW119118   0.719   2.117   2.988  0.5189  1.2049 -2.5400
 2552SOL    HW219119   0.845   2.054   2.936  0.4889 -1.6251  2.4581
 2553SOL     OW19120   0.193   0.866   3.305  0.1348  0.2560  0.2510
 2553SOL    HW119121   0.166   0.842   3.217  1.4250 -0.3370  0.0211
 2553SOL    HW219122   0.278   0.824   3.319 -1.7807 -3.9205 -0.6525
 2554SOL     OW19123   2.578   4.490   7.704  0.3821 -0.3500 -0.1907
 2554SOL    HW119124   2.535   4.523   7.782 -0.0652  0.3004 -0.7158
 2554SOL    HW219125   2.660   4.535   7.728 -0.0646  0.6701 -0.5679
 2555SOL     OW19126   4.621   3.395   9.431 -0.1022 -0.3049  0.6038
 2555SOL    HW119127   4.625   3.413   9.525 -1.3962  2.0884  0.2135
 2555SOL    HW219128   4.704   3.435   9.406 -1.0958  1.3471 -0.1027
 2556SOL     OW19129   2.753   2.659   1.833 -0.0843 -0.0375  0.5369
 2556SOL    HW119130   2.745   2.664   1.738  1.6705 -0.7213  0.3555
 2556SOL    HW219131   2.791   2.571   1.837  0.3975  0.1173 -0.4884
 2557SOL     OW19132   1.429   0.533   2.119  0.5961  0.0621  0.1814
 2557SOL    HW119133   1.505   0.527   2.061 -0.4273 -0.6132 -1.1051
 2557SOL    HW219134   1.371   0.561   2.047  0.1795 -0.5236  0.2865
 2558SOL     OW19135   4.420   2.882   3.198 -0.2085 -0.6433 -0.5110
 2558SOL    HW119136   4.479   2.808   3.180  1.1110  0.5346 -1.0630
 2558SOL    HW219137   4.442   2.909   3.288 -0.8944  2.6669 -1.3648
 2559SOL     OW19138   3.912   1.729   2.189  0.0015  0.3840 -0.3359
 2559SOL    HW119139   3.847   1.689   2.131 -0.1002  0.0847 -0.0126
 2559SOL    HW219140   3.906   1.675   2.268 -0.9910 -0.2663 -0.8464
 2560SOL     OW19141   1.629   0.757   6.463 -0.1102  0.0104 -0.3684
 2560SOL    HW119142   1.675   0.675   6.447 -0.5742 -0.3568  0.1610
 2560SOL    HW219143   1.704   0.815   6.462 -0.4059  0.3985 -0.0475
 2561SOL     OW19144   3.148   2.667   6.068 -0.4529  0.5298  0.2596
 2561SOL    HW119145   3.191   2.669   5.982  3.5640  1.0889  2.2947
 2561SOL    HW219146   3.060   2.630   6.059 -0.5814  0.3571  2.2711
 2562SOL     OW19147   3.934   0.582  17.476 -0.3359  0.1098 -0.2146
 2562SOL    HW119148   3.863   0.646  17.469  1.1446  1.8952  1.4422
 2562SOL    HW219149   3.893   0.495  17.483 -1.1946  0.3620 -1.9024
 2563SOL     OW19150   2.103   1.489  15.233 -0.1231 -0.2179  0.2990
 2563SOL    HW119151   2.121   1.571  15.187 -1.3227  0.5168  1.1514
 2563SOL    HW219152   2.105   1.429  15.158 -3.1525  1.1071 -0.8367
 2564SOL     OW19153   1.765   1.612  11.256  0.2815  0.3120 -0.2500
 2564SOL    HW119154   1.682   1.566  11.270  0.6766 -0.9069 -1.8249
 2564SOL    HW219155   1.827   1.542  11.280  0.0473  0.2131  0.0620
 2565SOL     OW19156   2.305   2.419   8.320  0.4469  0.4719  0.1336
 2565SOL    HW119157   2.333   2.458   8.237 -1.7072  0.6367 -0.5108
 2565SOL    HW219158   2.274   2.496   8.367 -2.5137  1.2445 -3.0450
 2566SOL     OW19159   4.678   2.752   8.144 -0.0253  0.3567 -0.7193
 2566SOL    HW119160   4.669   2.755   8.048 -2.9192  1.1031 -0.4305
 2566SOL    HW219161   4.623   2.821   8.180  0.7170  0.3998  0.3212
 2567SOL     OW19162   2.424   3.423   2.946  1.2397 -0.0536  0.3454
 2567SOL    HW119163   2.376   3.499   2.979  0.0650 -1.1285  1.0736
 2567SOL    HW219164   2.439   3.451   2.856 -0.9343 -0.3167 -0.0973
 2568SOL     OW19165   1.891   2.329  11.182 -0.4524 -0.1616  0.2498
 2568SOL    HW119166   1.828   2.336  11.110 -0.2136  4.2187  0.4775
 2568SOL    HW219167   1.866   2.250  11.231  0.4577 -0.6007  0.0007
 2569SOL     OW19168   1.770   0.672   2.644  0.8469 -0.4176 -0.5125
 2569SOL    HW119169   1.755   0.673   2.549  1.1387  0.9263 -0.5485
 2569SOL    HW219170   1.790   0.765   2.657  1.4971 -0.3607 -1.9001
 2570SOL     OW19171   3.665   0.222   5.453 -0.2262 -0.2402  0.1550
 2570SOL    HW119172   3.628   0.273   5.525  0.4716  1.7290 -0.8524
 2570SOL    HW219173   3.752   0.203   5.488  1.4340  1.7885 -2.8497
 2571SOL     OW19174   2.327   4.301  16.740 -0.6407  0.4166  1.0279
 2571SOL    HW119175   2.379   4.243  16.684  0.0559  0.4309  1.6695
 2571SOL    HW219176   2.247   4.305  16.687  0.2528 -1.1051 -0.4466
 2572SOL     OW19177   1.469   1.913   8.411  0.2529  0.0179 -0.0146
 2572SOL    HW119178   1.387   1.924   8.363  0.8845 -1.3572 -1.4382
 2572SOL    HW219179   1.536   1.951   8.355 -0.5519 -1.7534 -2.1966
 2573SOL     OW19180   2.926   0.627   4.487  0.0544 -0.4247 -0.7626
 2573SOL    HW119181   2.876   0.631   4.569 -0.0675  0.7878 -0.8945
 2573SOL    HW219182   2.943   0.533   4.495  0.8819 -0.0567  1.9041
 2574SOL     OW19183   2.308   3.825   6.469 -0.5020 -0.7323 -0.4746
 2574SOL    HW119184   2.254   3.751   6.442 -0.4889 -0.7362 -0.4902
 2574SOL    HW219185   2.366   3.842   6.395  3.1236  1.3865  2.9031
 2575SOL     OW19186   1.602   3.198   0.389 -0.5715 -0.4357  0.0087
 2575SOL    HW119187   1.689   3.160   0.377 -0.6325 -0.3957 -0.5665
 2575SOL    HW219188   1.612   3.293   0.388  0.2382 -0.5296 -1.7245
 2576SOL     OW19189   3.729   0.468  12.570 -0.3769 -0.5828 -0.5763
 2576SOL    HW119190   3.785   0.410  12.517 -0.4322 -0.8212 -0.3753
 2576SOL    HW219191   3.660   0.405  12.590 -1.1527 -0.1402 -1.8721
 2577SOL     OW19192   3.802   4.166   7.021  0.9094 -0.1781  0.5644
 2577SOL    HW119193   3.724   4.191   6.972  0.4136  2.1862  2.5269
 2577SOL    HW219194   3.830   4.250   7.058 -2.2562  1.0205  0.2554
 2578SOL     OW19195   3.413   0.388   4.163 -0.3105  0.1231  0.1408
 2578SOL    HW119196   3.456   0.366   4.081 -1.7255  0.4567 -0.6736
 2578SOL    HW219197   3.483   0.365   4.224  0.2287  1.4473  0.0321
 2579SOL     OW19198   2.193   4.559   0.356 -0.2743 -0.2123 -0.0473
 2579SOL    HW119199   2.105   4.550   0.394  0.0127  1.0660  0.9496
 2579SOL    HW219200   2.198   4.474   0.314 -4.1710 -0.2921 -0.3786
 2580SOL     OW19201   3.358   3.747   3.117  0.1721 -0.2424 -0.2442
 2580SOL    HW119202   3.363   3.665   3.166 -1.7012  0.1470  0.5637
 2580SOL    HW219203   3.329   3.718   3.030  0.4341  1.6292 -0.9485
 2581SOL     OW19204   4.141   3.848  15.538 -0.3782 -0.5614 -0.5220
 2581SOL    HW119205   4.136   3.920  15.600 -0.3122 -0.5056 -0.5804
 2581SOL    HW219206   4.052   3.851  15.503 -0.8147  0.8084  0.6986
 2582SOL     OW19207   0.627   1.754   0.461 -0.0065  0.1068 -0.4842
 2582SOL    HW119208   0.582   1.814   0.520  0.4120  0.1184 -0.1734
 2582SOL    HW219209   0.706   1.727   0.509 -0.1341  0.1432 -0.2528
 2583SOL     OW19210   3.556   0.186   3.975 -0.3586  0.0034 -0.2230
 2583SOL    HW119211   3.518   0.176   3.888 -1.4300  1.1148  0.1189
 2583SOL    HW219212   3.595   0.098   3.984  0.7409  0.4886 -0.2507
 2584SOL     OW19213   4.101   1.920   2.300  0.6208 -0.1913 -0.3513
 2584SOL    HW119214   4.040   1.856   2.263 -1.2781  1.6355 -0.3863
 2584SOL    HW219215   4.185   1.874   2.296 -0.8904 -2.9090 -0.9690
 2585SOL     OW19216   3.224   2.405   4.111  0.0936  0.3078 -0.0733
 2585SOL    HW119217   3.166   2.349   4.059 -0.4243  0.1411  0.6940
 2585SOL    HW219218   3.209   2.363   4.195  0.3422  0.4599  0.0473
 2586SOL     OW19219   1.292   3.287  14.645 -0.0997 -0.4262 -0.2544
 2586SOL    HW119220   1.204   3.279  14.608  0.1598  1.3886 -1.2769
 2586SOL    HW219221   1.345   3.277  14.566 -2.5658  2.3464 -2.2474
 2587SOL     OW19222   2.162   2.210  13.492 -0.4166 -0.4095 -0.4763
 2587SOL    HW119223   2.217   2.268  13.544  1.5132 -1.6094 -1.1734
 2587SOL    HW219224   2.202   2.225  13.406 -0.8502  2.4356 -0.1537
 2588SOL     OW19225   1.444   3.721   3.029 -0.0432  0.4438 -0.1409
 2588SOL    HW119226   1.461   3.815   3.021 -0.7455  0.3786 -2.4157
 2588SOL    HW219227   1.513   3.678   2.978 -2.0430 -0.8305 -1.7747
 2589SOL     OW19228   1.067   2.332   6.038 -0.4374 -0.4849  0.0338
 2589SOL    HW119229   1.058   2.412   6.090  0.0124 -0.3850 -0.0396
 2589SOL    HW219230   1.049   2.253   6.089  3.2199 -1.0418  0.5058
 2590SOL     OW19231   2.483   0.833   0.406 -0.5692  0.9666 -0.2931
 2590SOL    HW119232   2.460   0.779   0.330  0.0709 -1.3783  1.1723
 2590SOL    HW219233   2.535   0.903   0.368  1.9062 -0.5899  0.2258
 2591SOL     OW19234   4.669   0.930   6.565 -0.3125 -0.7635 -0.1272
 2591SOL    HW119235   0.033   0.954   6.530 -0.6211  0.3187 -0.1395
 2591SOL    HW219236   4.686   0.862   6.629 -0.0932 -0.8734 -0.3012
 2592SOL     OW19237   1.939   0.042   6.691  0.1542  0.0214 -0.5128
 2592SOL    HW119238   1.861   0.009   6.646 -0.7109  1.2047  0.1213
 2592SOL    HW219239   1.989   0.082   6.619  3.6290 -0.8336  1.4289
 2593SOL     OW19240   2.847   0.742   2.691 -0.6595  0.0201 -0.7645
 2593SOL    HW119241   2.834   0.710   2.601 -0.8013 -0.4301 -0.5855
 2593SOL    HW219242   2.780   0.691   2.737 -0.0232  0.3007  0.4736
 2594SOL     OW19243   4.228   1.410   6.858  0.2756  0.0988 -0.0016
 2594SOL    HW119244   4.159   1.465   6.821  0.2514 -1.0147 -1.6070
 2594SOL    HW219245   4.193   1.391   6.944 -0.2920  1.6995  0.1280
 2595SOL     OW19246   3.964   4.506   5.489  0.3326  0.0581 -0.0036
 2595SOL    HW119247   4.018   4.585   5.481  0.4734  0.1334  1.6248
 2595SOL    HW219248   4.010   4.456   5.556  0.1238  2.1171  1.6754
 2596SOL     OW19249   0.732   1.951   7.744 -0.4997 -0.2349 -0.1989
 2596SOL    HW119250   0.802   1.900   7.785 -0.2691 -1.3798 -2.0191
 2596SOL    HW219251   0.791   2.008   7.694 -2.0449  0.8771 -0.7306
 2597SOL     OW19252   1.884   2.030   8.974  0.1726  0.3540 -0.5479
 2597SOL    HW119253   1.854   1.995   8.891  1.8226  0.6659 -1.2759
 2597SOL    HW219254   1.818   2.003   9.038  0.3995  1.0705 -0.0070
 2598SOL     OW19255   0.462   4.328   8.497 -0.0999  0.2917 -0.2149
 2598SOL    HW119256   0.435   4.372   8.416  0.3135 -1.3595 -1.2534
 2598SOL    HW219257   0.457   4.240   8.460 -0.7441 -0.1164  0.8408
 2599SOL     OW19258   3.930   1.864   1.154 -0.0587  0.5623  0.0606
 2599SOL    HW119259   3.867   1.830   1.217 -0.8984  0.6990 -0.7097
 2599SOL    HW219260   4.010   1.879   1.205 -0.7673  2.0809  0.7192
 2600SOL     OW19261   3.411   0.593   1.505 -0.4363  0.1209 -0.2836
 2600SOL    HW119262   3.451   0.624   1.586  1.8197  1.2361 -1.8412
 2600SOL    HW219263   3.448   0.505   1.503 -0.1110  0.2944 -1.5930
 2601SOL     OW19264   4.518   3.912   8.940 -0.2810  0.0869 -0.2372
 2601SOL    HW119265   4.537   3.988   8.993 -2.4310  0.8000 -0.5019
 2601SOL    HW219266   4.521   3.836   8.998  1.3460  0.6349  0.3759
 2602SOL     OW19267   2.296   2.387   0.657 -0.4709 -0.3577 -0.3412
 2602SOL    HW119268   2.380   2.355   0.691 -0.4583  0.0306 -0.0065
 2602SOL    HW219269   2.268   2.315   0.600 -0.4726  0.6843 -1.6527
 2603SOL     OW19270   2.342   2.686   3.609 -0.1671  0.7793 -0.1599
 2603SOL    HW119271   2.406   2.624   3.573 -0.0018 -1.1451  3.3877
 2603SOL    HW219272   2.261   2.636   3.615  0.2246  0.0526 -0.9200
 2604SOL     OW19273   0.407   2.259  15.293 -0.4689 -0.3138 -0.4572
 2604SOL    HW119274   0.341   2.275  15.225 -1.0152  2.6940  0.7869
 2604SOL    HW219275   0.382   2.323  15.360  1.7607  1.9426 -1.7696
 2605SOL     OW19276   4.182   3.288  15.380 -0.0932 -0.1846  0.3583
 2605SOL    HW119277   4.166   3.382  15.394  2.9292  0.3268  0.5394
 2605SOL    HW219278   4.232   3.276  15.299  1.3963  1.6322  1.0056
 2606SOL     OW19279   3.713   1.549   1.615  0.3398  0.3460 -0.1614
 2606SOL    HW119280   3.619   1.546   1.594  0.1772 -1.7513  0.8334
 2606SOL    HW219281   3.723   1.456   1.635  0.6901  0.3222 -0.4365
 2607SOL     OW19282   1.639   2.805   6.303 -0.3619 -0.0344 -0.7120
 2607SOL    HW119283   1.605   2.883   6.261 -0.2845  0.6943  0.5806
 2607SOL    HW219284   1.734   2.819   6.303 -0.1656 -1.3818  2.5313
 2608SOL     OW19285   4.287   0.065   4.404  0.3285  0.2180 -0.3849
 2608SOL    HW119286   4.331   0.080   4.487  2.1651 -2.1756 -0.9478
 2608SOL    HW219287   4.196   0.054   4.434  0.1003 -0.5186 -1.3436
 2609SOL     OW19288   3.169   3.974   9.199 -0.3196 -0.0413 -0.0706
 2609SOL    HW119289   3.228   3.960   9.125 -0.5304  3.3284 -0.8802
 2609SOL    HW219290   3.084   3.991   9.159 -0.6992  1.6791  1.4851
 2610SOL     OW19291   3.976   3.389  16.426 -0.0573  0.6182  0.2672
 2610SOL    HW119292   3.956   3.300  16.398 -1.2941  0.5435  1.4121
 2610SOL    HW219293   4.071   3.377  16.425 -0.1763 -0.2956 -0.0887
 2611SOL     OW19294   2.631   1.790   8.754 -0.0598  0.1718  0.5129
 2611SOL    HW119295   2.620   1.706   8.710  3.6786  0.0918 -0.2822
 2611SOL    HW219296   2.644   1.764   8.845 -1.3784 -1.7250  0.1698
 2612SOL     OW19297   1.607   1.284   3.531 -0.0042  0.2598  0.1312
 2612SOL    HW119298   1.591   1.230   3.453  0.6777  0.2456 -0.0002
 2612SOL    HW219299   1.698   1.305   3.511 -0.2572  0.6342 -0.6397
 2613SOL     OW19300   2.179   2.159   4.284 -0.2938  0.0264  0.2339
 2613SOL    HW119301   2.262   2.127   4.319 -0.7982 -1.8543 -0.3446
 2613SOL    HW219302   2.214   2.196   4.203  0.1501 -0.9165 -0.0022
 2614SOL     OW19303   0.509   0.206   5.580 -0.3306 -0.4061 -0.1599
 2614SOL    HW119304   0.476   0.296   5.575  0.5853 -0.1513 -1.5698
 2614SOL    HW219305   0.589   0.201   5.527 -0.7932 -1.1463 -0.7650
 2615SOL     OW19306   4.284   2.750  17.551  0.4148  0.3695  0.2573
 2615SOL    HW119307   4.322   2.670  17.589 -1.2349  0.7959  2.7813
 2615SOL    HW219308   4.227   2.784  17.620  0.4266  0.7860  0.0583
 2616SOL     OW19309   3.985   1.619  10.168 -0.0747  0.3284  0.0074
 2616SOL    HW119310   4.069   1.601  10.211  0.0517  2.4795  0.6385
 2616SOL    HW219311   3.996   1.570  10.087  0.5315  0.0654  0.2484
 2617SOL     OW19312   2.557   0.532   8.307 -0.1470 -0.0743  0.4038
 2617SOL    HW119313   2.648   0.503   8.297  0.1911  1.3183 -0.4769
 2617SOL    HW219314   2.543   0.542   8.213 -0.4929  0.6392  0.5363
 2618SOL     OW19315   1.417   3.764  14.513  0.1580 -0.3940 -0.5005
 2618SOL    HW119316   1.506   3.783  14.541  1.2380 -2.3176 -2.6019
 2618SOL    HW219317   1.416   3.812  14.430 -0.4655 -1.4426 -1.1087
 2619SOL     OW19318   4.037   2.085  11.214 -0.5370 -0.2803  0.2908
 2619SOL    HW119319   4.070   2.091  11.125 -1.1538 -1.8031 -0.0445
 2619SOL    HW219320   3.978   2.160  11.217  2.1845  1.8764 -0.5260
 2620SOL     OW19321   4.628   2.882   3.826 -0.1481 -0.2496 -0.0059
 2620SOL    HW119322   4.565   2.810   3.829 -0.5093  0.0035 -1.3636
 2620SOL    HW219323   4.645   2.914   3.914  0.3045  3.8784 -1.5645
 2621SOL     OW19324   1.591   2.923  16.693 -0.3787  0.0441 -0.2757
 2621SOL    HW119325   1.573   2.859  16.762  1.9841  0.2581  0.5301
 2621SOL    HW219326   1.507   2.970  16.689 -0.9831 -1.0780 -0.7143
 2622SOL     OW19327   0.982   0.927   0.449  0.0261  0.5613 -0.4541
 2622SOL    HW119328   0.887   0.932   0.439 -0.2382 -1.1980  1.1126
 2622SOL    HW219329   1.007   1.019   0.452  3.1646 -0.2183 -2.3090
 2623SOL     OW19330   1.947   3.382  13.809  0.3261 -0.0552  0.1732
 2623SOL    HW119331   1.884   3.361  13.740  1.6870 -0.5163 -0.9177
 2623SOL    HW219332   1.890   3.359  13.883 -0.2219  0.5583 -0.0599
 2624SOL     OW19333   4.376   0.572   4.764  0.2522 -0.4439 -0.2986
 2624SOL    HW119334   4.348   0.624   4.839  0.6482 -0.9133  0.1817
 2624SOL    HW219335   4.399   0.490   4.809  0.6852  1.0946  2.2930
 2625SOL     OW19336   2.152   0.161   6.854  0.0191  0.0472  0.2258
 2625SOL    HW119337   2.124   0.088   6.798  0.2243  1.1194 -1.2842
 2625SOL    HW219338   2.116   0.236   6.807 -3.2320 -1.8239 -0.2319
 2626SOL     OW19339   1.695   1.411   7.730  0.4215 -0.0620 -0.2660
 2626SOL    HW119340   1.789   1.415   7.710 -0.1843  0.9461 -2.9533
 2626SOL    HW219341   1.695   1.440   7.821 -0.5009 -1.4895  0.2016
 2627SOL     OW19342   4.193   1.584   1.652  0.0676  0.2455  0.0511
 2627SOL    HW119343   4.164   1.645   1.720  1.0798 -0.8815  1.4934
 2627SOL    HW219344   4.278   1.621   1.628  0.6197 -1.2431 -0.2523
 2628SOL     OW19345   1.272   4.248   7.278 -0.4210  0.0698 -0.4037
 2628SOL    HW119346   1.259   4.251   7.373 -0.6364 -2.2072 -0.3614
 2628SOL    HW219347   1.219   4.170   7.263  1.0790 -1.2840  1.2684
 2629SOL     OW19348   0.185   3.343  16.573 -0.2654 -0.0225 -0.9812
 2629SOL    HW119349   0.279   3.340  16.588 -0.2402  2.7758 -0.6807
 2629SOL    HW219350   0.187   3.289  16.493 -1.0719  0.4705 -1.3296
 2630SOL     OW19351   4.015   0.104   9.967 -0.0749  0.2845 -0.7855
 2630SOL    HW119352   4.091   0.062  10.006 -1.8641 -2.1693  0.0683
 2630SOL    HW219353   3.949   0.080  10.032 -0.7739  3.0683 -0.4892
 2631SOL     OW19354   3.150   3.721  15.891  0.6267  0.2528 -0.1024
 2631SOL    HW119355   3.200   3.787  15.941  1.0641  2.0139 -2.8879
 2631SOL    HW219356   3.063   3.757  15.874  0.3969 -0.4381 -0.3542
 2632SOL     OW19357   4.199   2.001   1.707 -0.0866 -0.3577  0.1998
 2632SOL    HW119358   4.241   1.944   1.642 -0.2555  0.2153 -0.4155
 2632SOL    HW219359   4.168   2.067   1.645  1.2152  0.3882  0.3611
 2633SOL     OW19360   2.075   4.058  12.187 -0.1006 -0.0376 -0.2670
 2633SOL    HW119361   1.984   4.078  12.211 -0.7747 -1.4462 -1.6517
 2633SOL    HW219362   2.134   4.084  12.257  0.2272  0.8022 -0.8538
 2634SOL     OW19363   3.687   3.011   9.561  0.3688  0.0605 -0.0846
 2634SOL    HW119364   3.623   2.984   9.496  0.5054  1.2908 -0.7231
 2634SOL    HW219365   3.715   3.094   9.523 -0.3411 -1.2056 -3.3464
 2635SOL     OW19366   3.363   0.081  11.840  0.1873  0.6882 -0.4245
 2635SOL    HW119367   3.395   0.094  11.750 -0.4686 -0.5798 -0.8424
 2635SOL    HW219368   3.373   0.169  11.875 -1.3609  1.1221 -1.0468
 2636SOL     OW19369   1.205   3.584   2.944 -0.2993  0.2118  1.1305
 2636SOL    HW119370   1.278   3.645   2.958 -0.8550  0.7726  1.6148
 2636SOL    HW219371   1.147   3.659   2.959 -0.8987 -0.0798  0.2430
 2637SOL     OW19372   0.559   3.947  10.135 -0.0303 -0.1472 -0.4917
 2637SOL    HW119373   0.558   3.931  10.229  0.4660  3.0795  0.0389
 2637SOL    HW219374   0.651   3.933  10.113 -0.1808 -2.2149  0.1136
 2638SOL     OW19375   3.270   2.272   3.810 -0.0665 -0.2533  0.0077
 2638SOL    HW119376   3.222   2.248   3.889  0.4149  0.0565  0.3980
 2638SOL    HW219377   3.213   2.259   3.735 -0.5341  2.9893 -0.2044
 2639SOL     OW19378   0.709   2.426   3.471 -0.0262 -0.0845  0.5248
 2639SOL    HW119379   0.709   2.453   3.563 -0.1278  1.1633  0.1573
 2639SOL    HW219380   0.730   2.507   3.425  0.4641 -0.6091 -0.1710
 2640SOL     OW19381   3.235   1.700  15.410  0.2049 -0.4017 -0.3033
 2640SOL    HW119382   3.321   1.660  15.419 -0.1608 -0.2716  3.7511
 2640SOL    HW219383   3.184   1.632  15.367  0.5506  0.9600 -2.8508
 2641SOL     OW19384   1.167   2.606   2.233  0.0234 -0.5849 -0.4228
 2641SOL    HW119385   1.129   2.538   2.177  0.1460 -0.6118 -0.4750
 2641SOL    HW219386   1.194   2.551   2.307 -2.6634  1.3296  1.9787
 2642SOL     OW19387   1.735   2.110  12.951 -0.1580  0.7343  0.2970
 2642SOL    HW119388   1.825   2.089  12.925 -1.1915 -2.7365 -0.4989
 2642SOL    HW219389   1.683   2.133  12.874  0.8039 -2.5805 -1.3537
 2643SOL     OW19390   0.487   2.289  16.767 -0.1368 -1.1739  0.4974
 2643SOL    HW119391   0.570   2.335  16.771 -1.0773  0.6834 -1.1678
 2643SOL    HW219392   0.452   2.293  16.856  1.7291 -0.6154  1.2004
 2644SOL     OW19393   3.835   3.096   0.383  0.2613 -0.2887 -0.3688
 2644SOL    HW119394   3.742   3.107   0.362  0.0532 -2.7668 -0.7368
 2644SOL    HW219395   3.827   3.059   0.471  0.6943 -0.4188 -0.3881
 2645SOL     OW19396   4.012   1.688  16.577 -0.2060  0.3852 -0.0554
 2645SOL    HW119397   3.919   1.711  16.567 -0.3822 -1.3683 -2.6806
 2645SOL    HW219398   4.010   1.599  16.614 -1.8183 -0.0102 -1.0782
 2646SOL     OW19399   4.371   2.263   8.990  0.5074 -0.1709  0.2610
 2646SOL    HW119400   4.293   2.238   9.039 -1.3576  1.1011 -2.0463
 2646SOL    HW219401   4.409   2.181   8.958  0.5419  1.0768 -2.8883
 2647SOL     OW19402   4.059   3.518  15.527  0.4443 -0.3897 -0.0163
 2647SOL    HW119403   4.141   3.550  15.566  0.0932  0.5009  0.0073
 2647SOL    HW219404   4.081   3.551  15.440 -0.6839 -0.2101 -0.2341
 2648SOL     OW19405   0.546   0.620  10.605  0.1607  0.1655 -0.2252
 2648SOL    HW119406   0.498   0.617  10.687  0.6900 -2.3669  0.0056
 2648SOL    HW219407   0.473   0.607  10.544 -0.8518 -0.8085  1.2093
 2649SOL     OW19408   0.628   2.450   8.648  0.7601 -0.6433  0.1327
 2649SOL    HW119409   0.649   2.517   8.713 -0.4289 -0.3644  0.2243
 2649SOL    HW219410   0.661   2.492   8.569 -1.3448 -2.0190 -1.4626
 2650SOL     OW19411   3.697   3.513  14.981 -0.5982 -0.3131  0.5082
 2650SOL    HW119412   3.608   3.478  14.989 -1.1825  1.0725  0.1063
 2650SOL    HW219413   3.745   3.447  15.031  0.1310 -0.7283 -0.7215
 2651SOL     OW19414   0.690   0.470  11.671 -0.9681  0.3167 -0.6489
 2651SOL    HW119415   0.722   0.521  11.596 -1.9804  1.6710 -0.1468
 2651SOL    HW219416   0.664   0.537  11.734 -0.1562 -0.3600  0.4122
 2652SOL     OW19417   4.509   0.389   5.788 -0.2170 -0.5515 -0.1138
 2652SOL    HW119418   4.589   0.407   5.837  0.0774 -1.4092 -0.2865
 2652SOL    HW219419   4.503   0.297   5.812  1.7824 -0.9351 -1.0738
 2653SOL     OW19420   1.066   4.505   6.825 -0.3828  0.0158  0.2888
 2653SOL    HW119421   1.150   4.547   6.807  0.1304 -1.1363 -0.0271
 2653SOL    HW219422   1.003   4.576   6.819 -0.4985 -0.2113 -1.1497
 2654SOL     OW19423   3.172   1.661   3.500 -0.6111  0.1378  0.0585
 2654SOL    HW119424   3.100   1.719   3.476 -1.1003  0.6153  2.7614
 2654SOL    HW219425   3.203   1.720   3.568  1.0922  1.2843 -1.6782
 2655SOL     OW19426   4.674   1.703   9.928  0.4306 -0.2309 -0.0931
 2655SOL    HW119427   0.032   1.665   9.892  0.8568  1.3807 -0.8325
 2655SOL    HW219428   4.664   1.644  10.002 -1.8322  0.7540  0.3986
 2656SOL     OW19429   3.758   1.815  16.579  0.1394 -0.2799 -0.2574
 2656SOL    HW119430   3.693   1.857  16.635 -0.6724  1.8349 -2.7775
 2656SOL    HW219431   3.745   1.849  16.490 -1.2595  0.9271  0.4056
 2657SOL     OW19432   0.672   0.159  14.961  0.4669 -0.0483  0.0064
 2657SOL    HW119433   0.690   0.254  14.963  2.7745 -0.4305 -2.3040
 2657SOL    HW219434   0.589   0.153  14.915  1.2603  0.4903 -1.5149
 2658SOL     OW19435   1.023   0.301   3.023 -0.5346  0.4794 -0.1167
 2658SOL    HW119436   1.043   0.376   3.079 -0.5840  0.8482 -0.5887
 2658SOL    HW219437   1.106   0.261   2.998  0.3522  2.9459 -1.2027
 2659SOL     OW19438   0.219   3.061   3.564 -0.7274 -0.2459 -0.4779
 2659SOL    HW119439   0.133   3.073   3.606 -0.6486 -1.1337 -0.0531
 2659SOL    HW219440   0.198   3.023   3.479  0.9121 -1.0822 -0.4997
 2660SOL     OW19441   2.134   0.690   6.815 -0.3838  0.3177 -0.1239
 2660SOL    HW119442   2.123   0.675   6.721 -0.6582 -1.4512  0.1849
 2660SOL    HW219443   2.066   0.631   6.846 -0.2175  0.3243  0.2532
 2661SOL     OW19444   1.515   4.409   9.204  0.0888 -0.0406  0.1705
 2661SOL    HW119445   1.553   4.472   9.143  0.3891 -1.1082 -0.7505
 2661SOL    HW219446   1.549   4.441   9.287 -1.1333 -0.2553  0.7435
 2662SOL     OW19447   0.933   4.028   5.739 -0.5273 -0.3474  0.3730
 2662SOL    HW119448   0.956   3.983   5.658 -1.0956 -1.7345  0.9656
 2662SOL    HW219449   1.016   4.071   5.753 -0.8478  0.2452  0.4375
 2663SOL     OW19450   0.837   0.147   6.366 -0.4997 -0.3370 -0.7916
 2663SOL    HW119451   0.795   0.216   6.417 -4.4844 -1.8106 -2.1430
 2663SOL    HW219452   0.848   0.189   6.280 -0.0947 -2.3619 -1.7231
 2664SOL     OW19453   2.691   2.030  12.183  0.0532  0.5151  0.3250
 2664SOL    HW119454   2.757   1.986  12.237 -0.8751 -0.2802  0.8083
 2664SOL    HW219455   2.613   1.992  12.222 -1.6845  1.7048 -2.0341
 2665SOL     OW19456   3.892   0.284   6.170 -0.4398 -0.0231  0.0936
 2665SOL    HW119457   3.920   0.211   6.225 -1.2323 -0.2606  0.1793
 2665SOL    HW219458   3.894   0.245   6.083  4.3082  1.5234 -0.5126
 2666SOL     OW19459   1.824   4.015   4.661  0.4578  0.2715  0.3287
 2666SOL    HW119460   1.803   3.987   4.572 -1.9973 -0.8183  1.2323
 2666SOL    HW219461   1.817   3.931   4.707  0.9078  0.6571  1.0939
 2667SOL     OW19462   0.955   0.459   5.662  0.4951 -0.0385 -0.5505
 2667SOL    HW119463   0.934   0.444   5.754  0.3096 -0.1832 -0.6152
 2667SOL    HW219464   0.947   0.368   5.632  0.2296 -0.0457 -0.4612
 2668SOL     OW19465   1.694   1.402   7.998  0.1305 -0.1601  0.2326
 2668SOL    HW119466   1.629   1.367   8.059 -2.2107  0.1760 -2.0610
 2668SOL    HW219467   1.748   1.327   7.974 -1.5170 -2.1649  2.7947
 2669SOL     OW19468   2.926   2.843   3.674  0.4597  0.2943 -0.5404
 2669SOL    HW119469   2.841   2.874   3.706  1.2366  3.1155 -1.1843
 2669SOL    HW219470   2.985   2.873   3.744  0.9036  0.8736 -1.1623
 2670SOL     OW19471   3.625   1.602   9.775  0.0791 -0.5109 -0.4407
 2670SOL    HW119472   3.534   1.580   9.753 -0.1976 -0.2451  0.4462
 2670SOL    HW219473   3.669   1.554   9.704  1.6803 -0.7207  0.7111
 2671SOL     OW19474   1.329   4.283  10.388  0.4356  0.1071 -0.3644
 2671SOL    HW119475   1.334   4.210  10.450  0.2170 -2.3418 -3.2630
 2671SOL    HW219476   1.240   4.318  10.390  0.2019 -0.4609 -0.8043
 2672SOL     OW19477   0.873   1.459  11.563 -0.2687  0.4598 -0.3659
 2672SOL    HW119478   0.855   1.365  11.569 -1.0883  0.5943 -0.8404
 2672SOL    HW219479   0.966   1.450  11.543 -0.2584  0.3795 -0.2798
 2673SOL     OW19480   2.558   4.374   9.397 -0.3115 -0.0844 -0.4313
 2673SOL    HW119481   2.636   4.325   9.371 -1.1613 -1.5797 -0.1667
 2673SOL    HW219482   2.517   4.391   9.313 -1.4617 -2.1998 -0.3077
 2674SOL     OW19483   3.084   0.456   8.250 -0.4942 -0.0055 -0.0332
 2674SOL    HW119484   3.079   0.519   8.322  1.7511  1.1901 -0.9208
 2674SOL    HW219485   3.073   0.518   8.178  0.2231 -0.8910 -0.8921
 2675SOL     OW19486   1.148   3.955   5.561 -0.1789 -0.3466 -0.3494
 2675SOL    HW119487   1.154   3.899   5.484  0.1363  3.2904 -2.9481
 2675SOL    HW219488   1.154   3.886   5.627 -0.8685  2.0170  2.1839
 2676SOL     OW19489   3.965   0.135   3.898 -0.0287  0.0706  0.0991
 2676SOL    HW119490   4.019   0.212   3.880  2.2689 -0.9932  2.4584
 2676SOL    HW219491   3.909   0.143   3.821 -0.6763 -0.7849  0.4786
 2677SOL     OW19492   4.173   0.352   3.475  0.1236 -0.6984  0.1540
 2677SOL    HW119493   4.105   0.413   3.448  2.2433  1.6164  0.0668
 2677SOL    HW219494   4.194   0.322   3.387 -0.7027  0.4144 -0.4219
 2678SOL     OW19495   0.556   0.469  13.367  0.0273 -0.1237  0.6192
 2678SOL    HW119496   0.622   0.488  13.434  1.8195  1.4726 -1.5991
 2678SOL    HW219497   0.485   0.513  13.414 -0.8157 -0.3764 -0.4145
 2679SOL     OW19498   1.962   4.525   0.519 -0.0600  0.1126  0.0156
 2679SOL    HW119499   1.942   4.433   0.502  0.8751  0.0080 -0.5158
 2679SOL    HW219500   1.894   4.544   0.585 -0.7755 -2.5172  0.0297
 2680SOL     OW19501   3.482   0.164   1.193 -0.2813  0.5822  0.4190
 2680SOL    HW119502   3.520   0.076   1.184 -0.3001  0.9091 -2.7934
 2680SOL    HW219503   3.423   0.151   1.267  1.2541  1.6266  1.8322
 2681SOL     OW19504   0.276   1.750  10.904 -0.1776  0.0425  0.2243
 2681SOL    HW119505   0.325   1.812  10.849 -1.8215  1.1067 -0.0205
 2681SOL    HW219506   0.344   1.687  10.928 -0.7147  0.3117  2.4213
 2682SOL     OW19507   3.889   4.112   6.617 -0.1649  0.5179 -0.1933
 2682SOL    HW119508   3.890   4.056   6.695 -0.6454  0.0728 -0.5025
 2682SOL    HW219509   3.918   4.188   6.667  1.2284 -0.0541 -0.1173
 2683SOL     OW19510   4.472   3.033  15.060  0.1948  0.3043 -0.1514
 2683SOL    HW119511   4.492   2.962  15.122 -0.8161 -1.4754 -1.8486
 2683SOL    HW219512   4.539   3.022  14.992  0.0198  0.1294 -0.2959
 2684SOL     OW19513   3.053   1.293   0.693  0.2908  0.0226 -0.1455
 2684SOL    HW119514   3.086   1.258   0.610  1.2618 -0.4850  0.4644
 2684SOL    HW219515   3.053   1.213   0.745  0.5980  0.8251  1.0912
 2685SOL     OW19516   3.576   1.706   3.427  0.7118 -0.1748 -0.0557
 2685SOL    HW119517   3.495   1.723   3.380  0.2612 -1.8818  0.1161
 2685SOL    HW219518   3.593   1.614   3.405  0.1916 -0.1791 -0.4274
 2686SOL     OW19519   2.369   0.748  17.608 -0.5732  0.4050 -0.0734
 2686SOL    HW119520   2.319   0.785  17.536  1.4791  0.0835 -1.6814
 2686SOL    HW219521   2.443   0.692  17.582 -0.7390 -0.0857  0.5289
 2687SOL     OW19522   0.046   2.052   5.753  0.2593  0.1628 -0.7595
 2687SOL    HW119523   0.043   2.147   5.765 -1.2401  0.1610 -1.1266
 2687SOL    HW219524   0.046   2.040   5.658  0.2873  0.4864 -0.8018
 2688SOL     OW19525   1.161   1.722   3.394 -0.0359 -0.0496  0.1499
 2688SOL    HW119526   1.253   1.699   3.401  0.3205  1.6197  1.0134
 2688SOL    HW219527   1.148   1.747   3.303  0.4059  2.3311  0.7272
 2689SOL     OW19528   0.049   3.264  17.618 -0.3721 -0.2004  0.1903
 2689SOL    HW119529   0.021   3.350  17.650  2.0997  0.7071 -0.0729
 2689SOL    HW219530   4.719   3.247  17.540 -0.9632 -3.1460  1.2237
 2690SOL     OW19531   2.481   3.837   9.057  0.5449 -0.1634 -0.5848
 2690SOL    HW119532   2.389   3.841   9.031  0.2330  1.8801  0.7852
 2690SOL    HW219533   2.473   3.747   9.087  2.0842 -0.2806 -0.5030
 2691SOL     OW19534   0.685   2.149   3.480 -0.2911 -0.3621 -0.4539
 2691SOL    HW119535   0.661   2.237   3.509  0.7719  0.4492 -2.0674
 2691SOL    HW219536   0.725   2.120   3.562 -0.9338 -0.6306 -0.2293
 2692SOL     OW19537   2.947   3.831  15.148 -0.0332  0.1235 -0.9347
 2692SOL    HW119538   3.023   3.779  15.174 -0.7960 -0.1122  0.8435
 2692SOL    HW219539   2.902   3.856  15.229  1.6326 -0.3820  0.1383
 2693SOL     OW19540   1.200   2.080   6.417  0.2871  0.1326  0.3657
 2693SOL    HW119541   1.140   2.052   6.486 -0.7820  3.7379  0.9123
 2693SOL    HW219542   1.139   2.111   6.349  1.8998  1.5438 -0.4594
 2694SOL     OW19543   4.233   4.155   3.291  0.2117 -0.5901  0.0308
 2694SOL    HW119544   4.213   4.128   3.201 -0.4204  0.7326 -0.2220
 2694SOL    HW219545   4.268   4.244   3.285 -0.4667 -0.1574  2.7986
 2695SOL     OW19546   0.132   3.538   9.535 -0.1538 -0.5723  0.6433
 2695SOL    HW119547   0.211   3.486   9.518  0.8182  1.4865 -1.1122
 2695SOL    HW219548   0.131   3.547   9.630 -1.7242  2.0664  0.3682
 2696SOL     OW19549   0.228   4.598   3.471 -0.6426 -0.2282 -0.4792
 2696SOL    HW119550   0.166   4.526   3.487 -1.6093  0.5064 -0.9133
 2696SOL    HW219551   0.299   4.591   3.535  0.5817 -1.3502 -1.9506
 2697SOL     OW19552   4.142   1.013   6.199  0.4883  0.2723 -0.5210
 2697SOL    HW119553   4.150   1.108   6.212  2.6577  0.5689 -4.1277
 2697SOL    HW219554   4.207   0.976   6.260 -0.9400 -1.5494 -0.1206
 2698SOL     OW19555   1.324   4.464   4.911 -0.3599  0.2293 -0.2856
 2698SOL    HW119556   1.336   4.404   4.985  0.1985 -1.6695 -1.9241
 2698SOL    HW219557   1.384   4.532   4.943  2.2301 -0.3733 -3.8931
 2699SOL     OW19558   0.367   3.108   4.433  0.0317 -0.3660 -0.4538
 2699SOL    HW119559   0.367   3.160   4.352 -1.0429 -1.4632 -1.1708
 2699SOL    HW219560   0.275   3.113   4.458  0.4751 -0.0449  1.0474
 2700SOL     OW19561   1.421   3.469   3.217 -0.5649 -0.5422 -0.1786
 2700SOL    HW119562   1.511   3.462   3.249 -0.3111  1.3823 -0.4679
 2700SOL    HW219563   1.406   3.557   3.183 -0.5032 -0.6589 -0.5004
 2701SOL     OW19564   1.648   4.205   7.152 -0.0405 -0.6465  0.5038
 2701SOL    HW119565   1.582   4.225   7.219  0.0994  1.2810  0.0685
 2701SOL    HW219566   1.632   4.112   7.138  2.0555 -0.5934 -2.2809
 2702SOL     OW19567   1.811   0.455  10.207 -0.2795 -0.3443  0.2518
 2702SOL    HW119568   1.904   0.463  10.229 -0.7703  0.2343  2.1420
 2702SOL    HW219569   1.834   0.428  10.118  2.5083 -1.3424  1.2579
 2703SOL     OW19570   4.665   1.699   8.473 -0.3457  0.1003  0.3535
 2703SOL    HW119571   4.646   1.624   8.415  0.2998  0.4905 -0.3561
 2703SOL    HW219572   4.625   1.671   8.556 -3.7159 -0.9614 -1.6276
 2704SOL     OW19573   3.825   3.675   9.135 -0.3986  1.1302 -0.9650
 2704SOL    HW119574   3.791   3.674   9.225  0.4153  1.9958 -0.6454
 2704SOL    HW219575   3.806   3.769   9.131 -2.5560  0.8520  1.9416
 2705SOL     OW19576   4.163   3.811  12.296  0.4427  0.2619 -0.0631
 2705SOL    HW119577   4.136   3.854  12.376  0.0575 -0.3869  0.1594
 2705SOL    HW219578   4.222   3.878  12.262  1.8223 -0.8561  0.1344
 2706SOL     OW19579   1.050   0.551   8.056 -0.6128  0.0730  0.0778
 2706SOL    HW119580   1.087   0.630   8.095  1.3309 -1.1132  0.6324
 2706SOL    HW219581   0.970   0.587   8.017  0.2561  0.5622 -1.2550
 2707SOL     OW19582   2.433   3.844   4.237 -0.2122  0.0766 -0.3238
 2707SOL    HW119583   2.383   3.770   4.202  1.0793 -1.8091  1.7998
 2707SOL    HW219584   2.405   3.917   4.181 -1.4618 -0.8222 -0.8784
 2708SOL     OW19585   4.704   1.669  10.669 -0.5011  0.0136  0.0289
 2708SOL    HW119586   4.619   1.678  10.713 -0.1203 -0.2193  0.7979
 2708SOL    HW219587   4.703   1.579  10.637  2.1402  0.6412 -1.8426
 2709SOL     OW19588   1.105   2.604   0.511  0.0696  0.2838  0.5979
 2709SOL    HW119589   1.186   2.561   0.536 -0.9326 -2.1496 -0.4045
 2709SOL    HW219590   1.042   2.540   0.541  2.5456 -2.0179  0.8539
 2710SOL     OW19591   1.010   1.187   8.626  0.3117  0.4542  0.1729
 2710SOL    HW119592   1.026   1.261   8.567 -3.5885  1.9608  0.9764
 2710SOL    HW219593   1.093   1.189   8.672 -0.9209 -0.1370  2.4373
 2711SOL     OW19594   0.179   3.476   6.870 -0.1141  0.0819  0.0889
 2711SOL    HW119595   0.179   3.571   6.884  1.4219 -0.3501  2.9695
 2711SOL    HW219596   0.233   3.476   6.792  1.2644  2.1171  1.0218
 2712SOL     OW19597   1.905   3.739  13.892  0.1310  0.2401  0.5678
 2712SOL    HW119598   1.833   3.730  13.954 -0.3609  0.0459 -0.0230
 2712SOL    HW219599   1.973   3.702  13.947  2.1853  3.1408  0.0004
 2713SOL     OW19600   1.894   2.383   6.974 -0.4848  0.3999 -0.0435
 2713SOL    HW119601   1.822   2.342   6.926 -1.0374  2.0605 -0.6031
 2713SOL    HW219602   1.965   2.396   6.911  2.5450 -0.4139  3.1862
 2714SOL     OW19603   0.509   1.745   8.113  0.2042  0.5296  0.0937
 2714SOL    HW119604   0.571   1.720   8.045  0.5287  1.0641  0.1869
 2714SOL    HW219605   0.552   1.722   8.196 -1.1055 -1.1152  0.3004
 2715SOL     OW19606   2.443   4.438   6.159 -0.0782 -0.0907  0.4332
 2715SOL    HW119607   2.503   4.406   6.226 -0.0417 -1.4878 -0.2836
 2715SOL    HW219608   2.474   4.405   6.075  2.4632  0.3759  1.1807
 2716SOL     OW19609   4.193   1.221   2.641  0.7948 -0.3917  0.5480
 2716SOL    HW119610   4.172   1.217   2.735 -0.4770 -0.1069  0.2672
 2716SOL    HW219611   4.119   1.185   2.592  0.4109  0.5945  0.4118
 2717SOL     OW19612   3.092   2.931   1.853 -0.2119 -0.6416  0.5736
 2717SOL    HW119613   3.030   2.900   1.919  0.1014 -0.3192  1.0243
 2717SOL    HW219614   3.094   2.856   1.793  0.9314  0.4672 -0.7637
 2718SOL     OW19615   0.772   4.719   8.976 -0.1039  0.3781  0.0189
 2718SOL    HW119616   0.779   0.058   9.050  1.4840  0.8599 -0.5357
 2718SOL    HW219617   0.771   4.632   9.017 -0.2829  0.8885  1.1170
 2719SOL     OW19618   4.451   2.524   4.211  0.2712  0.7903 -0.2468
 2719SOL    HW119619   4.469   2.581   4.286  0.3335 -0.6887  0.8538
 2719SOL    HW219620   4.538   2.532   4.173 -0.2582 -0.0771 -1.6484
 2720SOL     OW19621   2.174   1.525   0.242  0.0517  0.2587 -0.2033
 2720SOL    HW119622   2.134   1.448   0.201  2.3912 -1.2399  0.3381
 2720SOL    HW219623   2.097   1.581   0.231  0.9068  1.2038 -1.3424
 2721SOL     OW19624   4.190   2.937   4.604 -0.0492 -0.3956 -0.1416
 2721SOL    HW119625   4.262   2.993   4.634  1.2404 -0.5103 -3.0512
 2721SOL    HW219626   4.193   2.864   4.665  1.1378 -0.0157  0.2449
 2722SOL     OW19627   0.425   0.121  15.150  0.1025  0.4063  0.2707
 2722SOL    HW119628   0.516   0.106  15.122  0.5093  0.9063  1.3162
 2722SOL    HW219629   0.439   0.198  15.205  0.0310 -0.0605  0.9426
 2723SOL     OW19630   1.319   0.623   0.848 -0.1454 -0.7812 -0.4849
 2723SOL    HW119631   1.314   0.654   0.758 -1.2678 -0.1007 -0.1923
 2723SOL    HW219632   1.360   0.537   0.842 -0.2160 -0.8735  0.3017
 2724SOL     OW19633   0.993   2.675   7.560 -0.1017 -0.4773  0.3350
 2724SOL    HW119634   1.065   2.732   7.534 -0.6821  0.5034  0.8594
 2724SOL    HW219635   0.951   2.658   7.476  2.6195  1.5247 -1.4233
 2725SOL     OW19636   2.531   3.473   1.613  0.2108  0.2145 -0.2497
 2725SOL    HW119637   2.444   3.474   1.654 -0.3963  2.5720 -1.6311
 2725SOL    HW219638   2.568   3.390   1.645 -1.0381  0.1338  0.9943
 2726SOL     OW19639   0.818   2.385   1.672 -0.4283  0.0487  0.2403
 2726SOL    HW119640   0.827   2.363   1.765  0.4981  2.3882  0.7117
 2726SOL    HW219641   0.820   2.481   1.674 -4.0147  0.1197  1.3802
 2727SOL     OW19642   2.932   3.386   6.664 -0.0007 -0.3357  0.2469
 2727SOL    HW119643   3.011   3.405   6.715 -0.2784 -0.6479  0.7892
 2727SOL    HW219644   2.905   3.477   6.652 -1.6807 -0.7169  1.1273
 2728SOL     OW19645   2.381   0.346   2.587 -0.0619  0.3906 -0.0323
 2728SOL    HW119646   2.436   0.361   2.664 -0.4635  1.0181  0.1322
 2728SOL    HW219647   2.409   0.418   2.531 -1.9826  1.0603 -0.1482
 2729SOL     OW19648   3.819   4.630   3.555 -0.5200 -0.0732 -0.0838
 2729SOL    HW119649   3.794   4.614   3.646 -1.1844  1.0493 -0.0688
 2729SOL    HW219650   3.810   0.003   3.544 -3.4060 -0.3278  0.2280
 2730SOL     OW19651   3.218   0.601  12.751  0.0111  0.1748  0.2565
 2730SOL    HW119652   3.186   0.660  12.819 -0.5458  1.4621 -1.1339
 2730SOL    HW219653   3.312   0.619  12.755  0.2401 -1.1638  0.8600
 2731SOL     OW19654   3.685   4.426   1.600  0.2785 -0.1061  0.9479
 2731SOL    HW119655   3.769   4.448   1.559 -0.0348  2.0783  1.5190
 2731SOL    HW219656   3.719   4.437   1.689 -0.0363 -1.2926  1.2210
 2732SOL     OW19657   3.796   2.789   9.674  0.1465  0.4540  0.0292
 2732SOL    HW119658   3.770   2.877   9.646 -0.4614  1.1064  2.6232
 2732SOL    HW219659   3.878   2.799   9.722  2.1506 -0.9477 -3.1247
 2733SOL     OW19660   1.658   1.313   6.892  0.0500  0.3196  0.1272
 2733SOL    HW119661   1.657   1.407   6.872 -0.2588  0.3290  0.1849
 2733SOL    HW219662   1.741   1.315   6.940 -0.9869 -3.2613  2.0392
 2734SOL     OW19663   4.677   3.658   9.716  0.2332  0.3802 -0.0684
 2734SOL    HW119664   4.582   3.664   9.721  0.2830  1.4800 -0.6654
 2734SOL    HW219665   4.693   3.743   9.676  0.9633  0.2725 -0.0091
 2735SOL     OW19666   2.903   2.398   1.890  0.6002  0.5644 -0.4178
 2735SOL    HW119667   2.978   2.443   1.850  1.7359 -0.7246  0.2695
 2735SOL    HW219668   2.921   2.415   1.982  1.7085  0.4407 -0.6062
 2736SOL     OW19669   0.746   0.720   3.382 -0.1141  0.1565 -0.2847
 2736SOL    HW119670   0.695   0.773   3.321  1.0733  2.5028  0.7724
 2736SOL    HW219671   0.838   0.738   3.364  0.2715 -0.5594  0.9934
 2737SOL     OW19672   1.049   0.811   1.814 -0.4352  0.1242 -0.3686
 2737SOL    HW119673   1.053   0.726   1.772  0.1034  0.7573 -1.5992
 2737SOL    HW219674   0.981   0.850   1.758 -0.9646 -0.2519  0.0202
 2738SOL     OW19675   4.040   1.087   1.312 -0.3845 -0.3230 -0.7521
 2738SOL    HW119676   4.017   0.994   1.321  0.7821 -0.4652  0.8249
 2738SOL    HW219677   3.992   1.108   1.232  1.0976 -2.4240 -2.2112
 2739SOL     OW19678   2.075   1.836  10.463 -0.5514  0.6343  0.5122
 2739SOL    HW119679   2.003   1.789  10.419 -0.6781  0.4557  0.9081
 2739SOL    HW219680   2.148   1.810  10.407  0.0046  0.7141  1.2055
 2740SOL     OW19681   0.620   0.891   7.019 -0.4379  0.4192  0.2210
 2740SOL    HW119682   0.688   0.868   7.081  1.4942 -0.6788 -2.3067
 2740SOL    HW219683   0.664   0.876   6.935 -2.4144  1.2180 -0.9690
 2741SOL     OW19684   2.480   3.535   8.491 -0.8017  0.1383 -0.1003
 2741SOL    HW119685   2.507   3.590   8.416  3.2923  0.4568  1.6171
 2741SOL    HW219686   2.431   3.601   8.539  2.5138  2.9317 -0.4967
 2742SOL     OW19687   4.606   3.925  13.496 -0.1101 -0.0349 -0.5311
 2742SOL    HW119688   4.647   3.947  13.412  1.4300  1.4130  0.6107
 2742SOL    HW219689   4.683   3.919  13.552  0.8588 -1.0966 -1.9890
 2743SOL     OW19690   3.245   1.978   7.521  0.2401  0.7623 -0.3488
 2743SOL    HW119691   3.252   2.069   7.551 -0.7974 -0.3178  3.1172
 2743SOL    HW219692   3.158   1.950   7.549  0.9929 -1.2831 -0.0664
 2744SOL     OW19693   3.376   4.641  13.425 -0.0255 -0.2973 -0.5794
 2744SOL    HW119694   3.331   4.672  13.503 -1.4991 -0.7836 -1.2325
 2744SOL    HW219695   3.318   4.630  13.350 -2.5616  2.0153  1.0517
 2745SOL     OW19696   2.337   3.561   6.022  0.2378  0.3071  0.2925
 2745SOL    HW119697   2.341   3.648   5.983  1.0148 -0.5871 -1.6241
 2745SOL    HW219698   2.426   3.526   6.015 -0.5982 -1.5397 -1.1564
 2746SOL     OW19699   0.567   3.832  11.361 -0.4289  0.3684 -0.5213
 2746SOL    HW119700   0.635   3.895  11.337  0.9778 -1.2409 -0.7013
 2746SOL    HW219701   0.498   3.897  11.374  1.8091  2.5887  0.3351
 2747SOL     OW19702   2.687   1.894   7.584 -0.3478 -0.0720  0.4399
 2747SOL    HW119703   2.752   1.874   7.516 -0.8953  3.3764 -1.0924
 2747SOL    HW219704   2.735   1.946   7.648  0.4244  0.9312 -0.9620
 2748SOL     OW19705   1.031   2.273   3.433 -0.2348  0.0863 -0.0389
 2748SOL    HW119706   1.002   2.216   3.504  0.9051 -0.1385  0.2348
 2748SOL    HW219707   1.121   2.243   3.424 -0.5495 -0.2072 -2.3011
 2749SOL     OW19708   1.044   3.879   2.443 -0.4337  0.1171 -0.3037
 2749SOL    HW119709   1.135   3.870   2.473 -0.8442  2.8552  1.7155
 2749SOL    HW219710   1.043   3.841   2.355  0.9994 -2.2729  0.7272
 2750SOL     OW19711   0.989   0.526  13.601 -0.6141 -0.0598  0.1874
 2750SOL    HW119712   0.973   0.433  13.612  0.7175 -0.3661 -0.4802
 2750SOL    HW219713   1.028   0.531  13.514 -2.7882  0.7302 -0.7318
 2751SOL     OW19714   1.509   1.374  11.024 -0.5511 -0.3030  0.2562
 2751SOL    HW119715   1.419   1.340  11.023 -0.9343  0.6422  2.2090
 2751SOL    HW219716   1.533   1.315  10.953  0.9260  0.7543 -0.1125
 2752SOL     OW19717   2.347   2.046   0.698 -0.6687 -0.3778 -0.1780
 2752SOL    HW119718   2.361   2.138   0.721 -1.8094 -0.3134  0.2579
 2752SOL    HW219719   2.286   2.019   0.767 -0.6043 -1.1814 -0.4459
 2753SOL     OW19720   1.120   4.342  14.803 -0.0175  0.1340  0.1891
 2753SOL    HW119721   1.145   4.431  14.778  1.3397 -0.1451  0.5821
 2753SOL    HW219722   1.164   4.300  14.729 -1.7054 -0.4559 -0.4777
 2754SOL     OW19723   0.005   2.515  14.334 -0.4724  0.3846 -0.2044
 2754SOL    HW119724   4.647   2.524  14.386 -0.0263  0.8061  0.3931
 2754SOL    HW219725   4.714   2.585  14.269 -2.3392 -0.2846 -0.5635
 2755SOL     OW19726   1.585   2.327  10.740 -0.0348  0.6345 -0.3980
 2755SOL    HW119727   1.527   2.384  10.690 -1.6656  1.0839  1.9715
 2755SOL    HW219728   1.536   2.245  10.726  0.8308  0.5333 -2.7558
 2756SOL     OW19729   0.610   2.184   1.737  0.1050  0.2007 -0.5959
 2756SOL    HW119730   0.615   2.213   1.828 -4.2047 -0.5722 -0.1056
 2756SOL    HW219731   0.519   2.156   1.730  0.9307 -1.8292 -3.3361
 2757SOL     OW19732   4.444   4.393   6.378 -0.7657 -0.2110 -0.1556
 2757SOL    HW119733   4.432   4.321   6.315 -1.9130 -0.5512  0.4499
 2757SOL    HW219734   4.356   4.431   6.383 -0.9105 -0.5115 -0.3878
 2758SOL     OW19735   3.329   3.127   3.527 -0.1428 -0.2535 -0.5982
 2758SOL    HW119736   3.358   3.080   3.606 -1.5812 -0.5299 -0.2165
 2758SOL    HW219737   3.242   3.089   3.510 -1.2378  2.6295 -1.4556
 2759SOL     OW19738   0.010   3.345   8.111  0.3667  0.3026  0.0033
 2759SOL    HW119739   4.719   3.250   8.122 -1.6299  0.5469 -0.3136
 2759SOL    HW219740   4.661   3.373   8.053  1.1080 -2.0724 -2.0584
 2760SOL     OW19741   1.583   3.221  11.553  0.0140 -0.1452  0.5678
 2760SOL    HW119742   1.658   3.280  11.544  1.9171 -2.7407 -0.4743
 2760SOL    HW219743   1.517   3.266  11.606  1.1227  1.0595  0.9428
 2761SOL     OW19744   0.773   1.310   9.303 -0.4148 -0.4595 -0.2076
 2761SOL    HW119745   0.736   1.344   9.385 -0.9410  2.7375 -1.7864
 2761SOL    HW219746   0.759   1.218   9.327 -2.6493  0.1150  0.6891
 2762SOL     OW19747   4.358   1.685  14.256 -0.6641 -0.2906 -0.0589
 2762SOL    HW119748   4.289   1.713  14.196  0.4068  1.3796 -0.5261
 2762SOL    HW219749   4.399   1.631  14.189 -0.5834  0.4288 -0.5866
 2763SOL     OW19750   3.225   2.918   7.482 -0.3617  0.0606 -0.3967
 2763SOL    HW119751   3.187   2.834   7.508  1.1674 -0.0975  1.3261
 2763SOL    HW219752   3.218   2.973   7.560 -1.8263 -1.0044  0.2302
 2764SOL     OW19753   0.439   1.308   2.671 -0.1901 -0.0825  0.4321
 2764SOL    HW119754   0.449   1.390   2.623  0.8695 -0.2256  0.4090
 2764SOL    HW219755   0.527   1.272   2.665  0.4607  1.4124  1.1016
 2765SOL     OW19756   4.356   2.592   4.616  0.2527 -0.0142 -0.1967
 2765SOL    HW119757   4.340   2.669   4.671  0.6926 -1.2885  1.7199
 2765SOL    HW219758   4.449   2.575   4.603 -0.0698 -2.6712  0.8901
 2766SOL     OW19759   2.680   3.367   2.341  0.1253 -0.2561  0.1491
 2766SOL    HW119760   2.773   3.348   2.351  0.1426 -1.0480 -1.4885
 2766SOL    HW219761   2.657   3.422   2.416  0.7729  0.2671 -0.0292
 2767SOL     OW19762   1.834   2.356  13.060 -0.4285 -0.1593  0.7534
 2767SOL    HW119763   1.789   2.278  13.028 -0.3383 -0.2872  0.9364
 2767SOL    HW219764   1.852   2.333  13.151 -0.6042 -1.6117  0.4122
 2768SOL     OW19765   4.691   0.448   0.476 -0.1650  0.3154 -0.1918
 2768SOL    HW119766   4.716   0.357   0.493 -0.7830  0.1247 -0.2988
 2768SOL    HW219767   0.029   0.466   0.404 -0.8615  0.7775 -0.6619
 2769SOL     OW19768   0.808   4.187   3.357  0.7325 -0.5859  0.3827
 2769SOL    HW119769   0.803   4.218   3.267 -0.3346 -0.1610  0.5817
 2769SOL    HW219770   0.718   4.157   3.373 -0.2309  2.4930  0.8950
 2770SOL     OW19771   0.888   2.895   2.604  0.0558 -0.2347 -0.0637
 2770SOL    HW119772   0.923   2.823   2.552  0.3784  0.3179 -0.6094
 2770SOL    HW219773   0.881   2.963   2.538 -0.6114 -1.6505 -1.4345
 2771SOL     OW19774   0.408   0.082  12.608  0.3932 -0.4848  0.2831
 2771SOL    HW119775   0.473   0.151  12.599  2.1106 -2.2762 -0.9647
 2771SOL    HW219776   0.407   0.039  12.522  0.0808 -1.2088  0.6512
 2772SOL     OW19777   1.374   2.856   2.770 -0.4792 -0.1808 -0.5178
 2772SOL    HW119778   1.300   2.810   2.810 -1.5447 -0.2241 -2.5423
 2772SOL    HW219779   1.325   2.907   2.705  0.2299 -0.1762 -1.0577
 2773SOL     OW19780   2.065   0.212   1.270 -0.2208  0.1039 -0.3336
 2773SOL    HW119781   2.090   0.240   1.183 -2.9385 -0.9148 -1.4395
 2773SOL    HW219782   2.009   0.138   1.246 -1.3460  0.1587  2.1135
 2774SOL     OW19783   2.055   2.691   7.185  0.3000  0.6688 -0.3876
 2774SOL    HW119784   2.122   2.650   7.240 -0.4284  0.5007  0.3715
 2774SOL    HW219785   1.984   2.632   7.210 -1.0448  1.6330 -1.9851
 2775SOL     OW19786   3.516   1.094  12.182 -0.1784  0.0597 -0.3994
 2775SOL    HW119787   3.423   1.094  12.205 -0.2723  0.4105 -0.7873
 2775SOL    HW219788   3.508   1.156  12.110 -0.4831 -0.0994 -0.5032
 2776SOL     OW19789   4.423   3.307   3.172  0.0787 -0.1214 -0.7566
 2776SOL    HW119790   4.435   3.347   3.258  1.7128  0.3141 -1.1886
 2776SOL    HW219791   4.494   3.354   3.127  0.5395  0.1058  0.2042
 2777SOL     OW19792   4.326   2.540   3.065  0.2789 -0.1469  0.2929
 2777SOL    HW119793   4.338   2.447   3.044  0.1132 -0.4150  1.4009
 2777SOL    HW219794   4.290   2.544   3.154 -0.7916 -0.4381 -0.1315
 2778SOL     OW19795   3.698   1.289   8.638 -0.1251  0.6854  0.6448
 2778SOL    HW119796   3.787   1.316   8.618 -0.1413  1.3970  1.5519
 2778SOL    HW219797   3.642   1.351   8.591 -0.2956 -0.7284 -1.0181
 2779SOL     OW19798   1.336   1.067   6.485  0.0421 -0.8354 -0.4833
 2779SOL    HW119799   1.300   1.061   6.573  0.9309  1.5458  0.0394
 2779SOL    HW219800   1.425   1.078   6.517 -1.1353  1.5743  1.9724
 2780SOL     OW19801   1.809   2.082  10.679  0.5708  0.2446  0.2943
 2780SOL    HW119802   1.739   2.080  10.614 -0.3503 -0.0968  1.2902
 2780SOL    HW219803   1.874   2.135  10.632  0.0769 -0.0111 -0.6621
 2781SOL     OW19804   1.635   0.586   1.948  0.0590 -0.3077 -0.0707
 2781SOL    HW119805   1.641   0.498   1.911 -1.6864 -0.7457  0.6580
 2781SOL    HW219806   1.709   0.597   2.008 -1.3561  0.9103  1.4336
 2782SOL     OW19807   0.053   2.735   2.483  0.2812 -0.8070 -0.0391
 2782SOL    HW119808   4.718   2.777   2.548 -0.4228  0.6913 -1.6311
 2782SOL    HW219809   0.139   2.747   2.522  0.5199 -0.6276 -0.6335
 2783SOL     OW19810   4.089   2.106  16.373 -0.2537  0.3293  0.2554
 2783SOL    HW119811   4.010   2.121  16.426 -0.8629 -1.1043 -0.2551
 2783SOL    HW219812   4.048   2.073  16.294  2.0759 -2.2575  0.1391
 2784SOL     OW19813   3.235   3.790  16.836 -0.1122 -0.4264 -0.4494
 2784SOL    HW119814   3.169   3.825  16.775 -1.4539 -2.1535  0.0110
 2784SOL    HW219815   3.257   3.863  16.893 -2.3611 -1.7598  2.1052
 2785SOL     OW19816   2.927   3.766  17.377 -0.6577  0.3186 -0.3505
 2785SOL    HW119817   2.967   3.688  17.338 -1.9027 -0.7569  0.5033
 2785SOL    HW219818   2.925   3.834  17.310 -2.3272 -0.0152 -0.6583
 2786SOL     OW19819   3.281   1.415   3.994  0.2162  0.6254 -0.9623
 2786SOL    HW119820   3.254   1.480   3.930 -2.4821  1.2978  0.8544
 2786SOL    HW219821   3.377   1.417   3.993  0.2243  0.2530 -1.0696
 2787SOL     OW19822   3.321   1.651  17.544  0.3147  0.2423 -0.1094
 2787SOL    HW119823   3.409   1.667  17.578  0.4629 -1.0036  0.0735
 2787SOL    HW219824   3.346   1.625  17.455  2.0122  0.1825  0.3899
 2788SOL     OW19825   3.811   4.113   7.293  0.3529  0.1743  0.3737
 2788SOL    HW119826   3.771   4.102   7.207  0.4359  1.3106  0.1958
 2788SOL    HW219827   3.893   4.157   7.273  0.9583 -1.1501 -0.0833
 2789SOL     OW19828   1.904   0.709   1.390  0.1319 -0.2930 -0.1927
 2789SOL    HW119829   1.924   0.621   1.357  1.6339 -0.5538  1.3483
 2789SOL    HW219830   1.868   0.750   1.312  0.8759  3.5694  1.4892
 2790SOL     OW19831   0.457   3.519   1.828 -0.0141  0.3018  0.3460
 2790SOL    HW119832   0.409   3.463   1.890  1.9149 -2.2075 -0.4203
 2790SOL    HW219833   0.547   3.493   1.849 -1.3392 -3.8320  0.9933
 2791SOL     OW19834   4.441   2.375  15.710  0.3201 -0.5389  0.1978
 2791SOL    HW119835   4.408   2.454  15.668 -3.1045 -2.2873 -0.3613
 2791SOL    HW219836   4.510   2.347  15.650  0.2823 -1.7795  0.7173
 2792SOL     OW19837   2.102   2.688  12.552  0.6883  0.2386 -0.0622
 2792SOL    HW119838   2.126   2.741  12.476  1.8564  0.5756  0.5445
 2792SOL    HW219839   2.007   2.682  12.538  0.7150 -0.9413  0.2781
 2793SOL     OW19840   2.336   4.440  11.781  0.0786  0.4196  0.3179
 2793SOL    HW119841   2.401   4.420  11.849  0.4904 -0.7560 -0.4199
 2793SOL    HW219842   2.356   4.531  11.758 -2.3419  0.4800 -1.5889
 2794SOL     OW19843   1.916   2.739   5.423 -0.7568  0.3927  0.1092
 2794SOL    HW119844   2.003   2.701   5.436 -0.2216  1.2049 -1.0480
 2794SOL    HW219845   1.891   2.708   5.336  0.2018 -0.5343  0.1639
 2795SOL     OW19846   2.407   3.905   9.436  0.3674  0.1412  0.1835
 2795SOL    HW119847   2.394   3.814   9.411  3.5878 -0.7922  1.8709
 2795SOL    HW219848   2.333   3.931   9.491 -0.1359 -0.0744 -0.3960
 2796SOL     OW19849   0.776   1.195   9.775  0.2385 -0.0273  0.1989
 2796SOL    HW119850   0.738   1.253   9.840  1.0647  2.8185 -1.8799
 2796SOL    HW219851   0.730   1.113   9.794 -1.9328  1.0478 -0.4556
 2797SOL     OW19852   4.082   1.614   1.992 -0.2360 -0.3345  0.2054
 2797SOL    HW119853   4.032   1.656   2.063 -1.2853 -0.2430 -0.5944
 2797SOL    HW219854   4.066   1.676   1.921  1.7217  0.1561  0.2042
 2798SOL     OW19855   1.807   3.998   1.849 -0.3966 -0.6894 -0.0280
 2798SOL    HW119856   1.738   3.932   1.847  1.2223 -2.3684 -0.1128
 2798SOL    HW219857   1.796   4.043   1.765  0.3891 -0.4761 -0.0190
 2799SOL     OW19858   2.107   3.152  13.469  0.1167 -0.1277 -0.3892
 2799SOL    HW119859   2.112   3.233  13.519  1.1069  0.5830 -1.6424
 2799SOL    HW219860   2.011   3.157  13.467  0.0447 -0.8809  1.1045
 2800SOL     OW19861   4.687   2.004   4.100  0.2012 -0.1846  0.3546
 2800SOL    HW119862   0.030   2.016   4.032  0.9198  0.2470  1.1181
 2800SOL    HW219863   4.688   1.909   4.113  0.9913 -0.1955  0.1827
 2801SOL     OW19864   3.707   1.903   3.547 -0.2394  0.0593  0.3345
 2801SOL    HW119865   3.656   1.832   3.508  0.5511  0.0685 -0.7116
 2801SOL    HW219866   3.725   1.967   3.478  0.5551 -0.3276  0.1829
 2802SOL     OW19867   1.888   1.311  10.867 -0.3218  0.1584 -0.0394
 2802SOL    HW119868   1.960   1.256  10.836  0.7352  0.0423  2.6147
 2802SOL    HW219869   1.820   1.245  10.862 -0.0785 -0.0629 -0.4031
 2803SOL     OW19870   1.664   3.099   2.369  0.2323 -0.3478  0.4404
 2803SOL    HW119871   1.674   3.151   2.449 -0.6498 -1.8122  1.4841
 2803SOL    HW219872   1.579   3.059   2.382 -0.4051  0.1370 -2.1062
 2804SOL     OW19873   0.121   3.472   1.384  0.0453 -0.3472  0.6587
 2804SOL    HW119874   0.175   3.474   1.305  1.6900 -0.9936  1.7693
 2804SOL    HW219875   0.186   3.477   1.454  0.6569  0.2289  0.0461
 2805SOL     OW19876   3.880   2.959   4.080 -0.3323  0.3395 -0.0847
 2805SOL    HW119877   3.928   3.038   4.103 -0.7264  0.5819 -0.1011
 2805SOL    HW219878   3.891   2.916   4.165  0.5378  1.1913  0.2226
 2806SOL     OW19879   3.052   0.159  11.289  0.0703 -0.6046  0.4321
 2806SOL    HW119880   3.023   0.102  11.360 -0.0263 -3.1362 -1.6547
 2806SOL    HW219881   2.969   0.174  11.245  0.2963 -0.8295 -0.0618
 2807SOL     OW19882   2.487   1.732   5.930  0.0808 -0.1583 -0.2417
 2807SOL    HW119883   2.417   1.669   5.948 -0.5850  0.8484  0.7175
 2807SOL    HW219884   2.488   1.718   5.836 -0.5512  1.7414 -0.5374
 2808SOL     OW19885   0.308   4.202   6.366  0.2168 -0.0330  0.5249
 2808SOL    HW119886   0.247   4.250   6.422 -3.2626 -2.2565 -1.3336
 2808SOL    HW219887   0.241   4.139   6.341  1.8640 -1.4196 -0.3839
 2809SOL     OW19888   0.952   1.004   4.711 -0.1387  0.2724 -0.7374
 2809SOL    HW119889   0.968   1.020   4.804 -2.5279 -3.4348  0.3046
 2809SOL    HW219890   0.892   0.929   4.712  1.0542 -0.6881 -2.3798
 2810SOL     OW19891   3.581   4.427   7.861  0.4438  0.0921 -0.5028
 2810SOL    HW119892   3.560   4.425   7.955 -0.7362 -1.9650 -0.7936
 2810SOL    HW219893   3.497   4.452   7.823 -0.2042 -1.5029 -0.1582
 2811SOL     OW19894   2.111   2.573  10.847  0.7297  0.6887  0.4943
 2811SOL    HW119895   2.071   2.620  10.920  0.0163  1.2816 -0.2798
 2811SOL    HW219896   2.038   2.577  10.785 -2.4267  0.2883  4.2607
 2812SOL     OW19897   1.696   1.736   8.527 -0.0371  0.1185 -0.7204
 2812SOL    HW119898   1.663   1.739   8.617  1.2541  1.8014 -0.3100
 2812SOL    HW219899   1.700   1.645   8.497 -0.0652 -0.0162 -0.3124
 2813SOL     OW19900   2.177   0.141  10.594  0.2891  0.5783  0.2744
 2813SOL    HW119901   2.260   0.163  10.636 -0.0418 -1.2495  1.8732
 2813SOL    HW219902   2.183   0.047  10.578 -3.3316  0.3348  0.3744
 2814SOL     OW19903   2.056   1.301   4.926  0.0091 -0.1235 -0.0883
 2814SOL    HW119904   1.975   1.351   4.932  0.0676 -0.2876  1.8602
 2814SOL    HW219905   2.022   1.215   4.900 -2.8318  1.2005 -0.7792
 2815SOL     OW19906   1.307   0.533   2.979 -0.4151  0.2600  0.6592
 2815SOL    HW119907   1.396   0.509   2.953 -0.2865  0.6174  0.7681
 2815SOL    HW219908   1.309   0.526   3.074 -1.4025 -1.2281  0.5655
 2816SOL     OW19909   2.831   1.961   9.109 -0.1728  0.0396 -0.3431
 2816SOL    HW119910   2.792   1.896   9.167  1.3091  1.4995  2.3190
 2816SOL    HW219911   2.790   2.041   9.141 -0.1658 -0.5871  1.2665
 2817SOL     OW19912   4.710   0.926   3.714  0.0073  0.6430 -0.2534
 2817SOL    HW119913   0.048   0.938   3.641 -0.2164 -0.1227 -0.5613
 2817SOL    HW219914   4.715   0.830   3.713 -0.3637  0.6129  0.6279
 2818SOL     OW19915   1.842   2.226   7.949  0.0834 -0.1004 -0.3790
 2818SOL    HW119916   1.771   2.287   7.969  0.0244  0.2231 -1.5598
 2818SOL    HW219917   1.913   2.270   7.996 -1.4105  0.5926  1.2362
 2819SOL     OW19918   1.631   3.946   5.731 -0.6886 -1.0117 -0.0374
 2819SOL    HW119919   1.638   3.854   5.755  1.6786 -1.7250 -3.4753
 2819SOL    HW219920   1.656   3.992   5.810 -0.8934 -1.0591  0.0553
 2820SOL     OW19921   0.855   3.849   7.237 -0.0783  0.4561 -0.1211
 2820SOL    HW119922   0.765   3.826   7.217 -0.0735  1.0928 -0.9047
 2820SOL    HW219923   0.904   3.790   7.179 -0.7392 -0.3492  0.1531
 2821SOL     OW19924   3.992   4.324   3.020  0.5671 -0.1730  0.2610
 2821SOL    HW119925   3.965   4.232   3.017  0.9100 -0.2748  0.2257
 2821SOL    HW219926   3.941   4.366   3.088 -0.4397  1.4417 -1.5200
 2822SOL     OW19927   0.664   4.144  14.278  0.5206 -0.1550  0.0770
 2822SOL    HW119928   0.709   4.124  14.360  1.9944 -0.8373 -0.8859
 2822SOL    HW219929   0.574   4.123  14.300  0.5562 -2.4067 -1.9147
 2823SOL     OW19930   2.260   1.008   5.452 -0.2874 -0.1936  0.1409
 2823SOL    HW119931   2.318   0.942   5.416 -0.8849 -0.4720 -0.3237
 2823SOL    HW219932   2.177   0.992   5.406 -1.1953  0.9782  1.3638
 2824SOL     OW19933   3.926   3.970  17.451 -0.1074  0.2663 -0.6200
 2824SOL    HW119934   3.858   3.906  17.430  0.7892 -0.4171 -1.4302
 2824SOL    HW219935   3.979   3.960  17.372  0.1294 -0.0911 -0.4193
 2825SOL     OW19936   4.670   3.719  14.581 -0.7099 -0.0685  0.2935
 2825SOL    HW119937   4.680   3.661  14.657 -1.3923 -0.1660  0.3068
 2825SOL    HW219938   4.597   3.670  14.544 -0.6343 -1.2201  1.6497
 2826SOL     OW19939   2.324   4.344   4.660  0.3450 -0.2092 -0.3729
 2826SOL    HW119940   2.279   4.349   4.744  0.4458 -0.8197 -0.2830
 2826SOL    HW219941   2.357   4.254   4.658 -0.5692 -0.5375 -1.1822
 2827SOL     OW19942   4.083   4.538   5.102  0.1108 -0.4079  0.8874
 2827SOL    HW119943   4.021   4.611   5.111  0.2760 -0.3085  1.1976
 2827SOL    HW219944   4.167   4.583   5.093  0.9137 -1.9818  0.6295
 2828SOL     OW19945   1.227   1.790   2.139  0.5047 -0.1971 -0.3690
 2828SOL    HW119946   1.208   1.735   2.063  0.0080 -0.9848  0.3221
 2828SOL    HW219947   1.304   1.746   2.174  1.5490  1.0244 -1.1031
 2829SOL     OW19948   2.910   3.480   5.252  0.4551  0.2071  0.1583
 2829SOL    HW119949   2.905   3.410   5.188 -2.8282 -0.7201  1.4509
 2829SOL    HW219950   2.994   3.523   5.234  1.7006 -2.0260  0.6568
 2830SOL     OW19951   1.299   0.910   6.109  0.3134  0.1607  0.5028
 2830SOL    HW119952   1.361   0.971   6.147 -0.0760  2.1228 -2.0149
 2830SOL    HW219953   1.223   0.924   6.166  0.1610 -0.8247  0.5415
 2831SOL     OW19954   0.399   0.357   4.531 -0.7922 -0.5236  0.6502
 2831SOL    HW119955   0.459   0.307   4.587 -1.7844 -2.5442 -0.1024
 2831SOL    HW219956   0.402   0.302   4.453  1.8429 -1.0910  1.1487
 2832SOL     OW19957   4.093   2.348   0.816  0.0698 -0.0113  0.1261
 2832SOL    HW119958   4.187   2.347   0.830 -0.1906 -0.6754  1.8144
 2832SOL    HW219959   4.084   2.253   0.822  2.2007 -0.1243  1.2572
 2833SOL     OW19960   4.629   4.516   4.862  0.2327  0.3320 -0.4406
 2833SOL    HW119961   4.663   4.429   4.840  2.4567  0.7384  1.3615
 2833SOL    HW219962   4.536   4.494   4.867  0.4076 -0.4222 -0.4313
 2834SOL     OW19963   0.093   2.755  11.113  0.1056 -0.0754  0.1287
 2834SOL    HW119964   0.040   2.676  11.106 -0.4926  0.1714  1.6927
 2834SOL    HW219965   0.174   2.727  11.070 -0.8957 -1.4979 -0.8222
 2835SOL     OW19966   4.369   3.402   2.460 -0.0517  0.2708  0.5569
 2835SOL    HW119967   4.360   3.488   2.501 -0.5796 -0.3268  1.6937
 2835SOL    HW219968   4.439   3.419   2.398  1.5706 -1.2448  1.9744
 2836SOL     OW19969   0.874   2.145   5.544  0.1005 -0.0257 -0.4673
 2836SOL    HW119970   0.804   2.080   5.535 -0.9423  1.2358 -1.4298
 2836SOL    HW219971   0.922   2.137   5.462 -0.6986  1.1023 -1.0400
 2837SOL     OW19972   3.226   0.917   2.382 -0.4000 -0.1326 -0.3307
 2837SOL    HW119973   3.286   0.991   2.396  2.2436 -2.0986 -1.1424
 2837SOL    HW219974   3.179   0.900   2.463 -1.1267  1.6738 -0.3794
 2838SOL     OW19975   0.087   1.311   3.370  0.0950 -0.0686  0.2712
 2838SOL    HW119976   0.126   1.247   3.430  1.2976  0.5386  0.1470
 2838SOL    HW219977   0.068   1.254   3.296  3.2134 -0.6953 -0.0421
 2839SOL     OW19978   3.291   3.190  14.050  0.1189 -0.2610 -0.2080
 2839SOL    HW119979   3.223   3.124  14.044  1.5016 -1.7929  1.1459
 2839SOL    HW219980   3.255   3.244  14.120  0.3718 -0.9962  0.4772
 2840SOL     OW19981   3.848   0.253  10.466 -0.5599  0.1773  0.4053
 2840SOL    HW119982   3.931   0.242  10.512  0.2502  2.8611 -0.4437
 2840SOL    HW219983   3.778   0.263  10.531 -0.8471 -1.1700  0.2986
 2841SOL     OW19984   0.715   2.567  13.747  0.4060 -0.4106 -0.3315
 2841SOL    HW119985   0.748   2.516  13.673  1.7017  0.1153 -0.1135
 2841SOL    HW219986   0.751   2.654  13.727 -0.3172 -0.1913 -0.7213
 2842SOL     OW19987   1.520   3.509   1.413 -0.0256  0.0590  0.8721
 2842SOL    HW119988   1.476   3.583   1.371 -0.0738  0.4766  1.6599
 2842SOL    HW219989   1.560   3.465   1.338  0.4297 -1.1552  1.8328
 2843SOL     OW19990   0.870   2.689   7.042  0.6888  0.2135  0.3116
 2843SOL    HW119991   0.931   2.616   7.025 -0.5411 -0.4193 -1.3445
 2843SOL    HW219992   0.923   2.730   7.110  1.1463 -1.3506  0.9185
 2844SOL     OW19993   1.442   4.026   8.657 -0.0733  0.5329 -0.5324
 2844SOL    HW119994   1.381   3.977   8.713 -0.3905 -0.3049 -1.6015
 2844SOL    HW219995   1.485   3.954   8.610 -0.6984 -0.2916  0.1423
 2845SOL     OW19996   1.973   3.502   8.231 -0.1331  0.4583 -0.2926
 2845SOL    HW119997   2.018   3.569   8.283 -0.9234  0.1770  0.7534
 2845SOL    HW219998   1.896   3.485   8.285  0.9864  0.5649  1.3281
 2846SOL     OW19999   0.162   4.329   7.711  0.4037  0.2737 -0.4330
 2846SOL    HW120000   0.105   4.283   7.773  0.5900  0.0751 -0.4091
 2846SOL    HW220001   0.228   4.346   7.779  1.6134  0.0018 -1.5394
 2847SOL     OW20002   1.108   0.553   6.692  0.1406  0.3211 -0.0995
 2847SOL    HW120003   1.025   0.519   6.727 -0.9509  1.0277 -1.9824
 2847SOL    HW220004   1.151   0.556   6.777 -1.2503  1.5534  0.5566
 2848SOL     OW20005   3.724   3.822   2.806  0.4037 -0.2428 -0.4941
 2848SOL    HW120006   3.774   3.741   2.799  0.0630 -0.6557  1.7141
 2848SOL    HW220007   3.762   3.862   2.885  2.6195 -1.8261 -0.7485
 2849SOL     OW20008   1.966   2.066  12.559 -0.4882 -0.6672 -0.1533
 2849SOL    HW120009   1.960   2.043  12.652 -1.6761  3.3941  0.7492
 2849SOL    HW220010   1.954   2.160  12.565 -1.0438 -0.5850 -2.3519
 2850SOL     OW20011   2.987   0.234   5.625  0.1562  0.4884 -0.3186
 2850SOL    HW120012   2.970   0.175   5.551  2.3886 -1.8644  1.0513
 2850SOL    HW220013   3.037   0.184   5.689  0.4381  0.0189 -0.9059
 2851SOL     OW20014   0.111   4.156  16.809 -0.5141 -0.4540  0.1145
 2851SOL    HW120015   0.166   4.172  16.885 -1.6430 -0.5856  0.9540
 2851SOL    HW220016   0.043   4.097  16.842  0.3173 -1.4876 -0.0007
 2852SOL     OW20017   3.858   4.230   9.124  0.2792  0.1415 -0.1163
 2852SOL    HW120018   3.925   4.273   9.070  1.8483  1.2435  2.7203
 2852SOL    HW220019   3.857   4.293   9.196  0.2381 -0.2657  0.2384
 2853SOL     OW20020   3.996   2.242   5.656  0.0892 -0.2700 -0.0726
 2853SOL    HW120021   3.944   2.244   5.576  1.3487  3.0208 -0.8205
 2853SOL    HW220022   4.078   2.278   5.623  0.0795  0.0170  0.2115
 2854SOL     OW20023   2.315   2.476   4.827 -0.1829  0.3979  0.9126
 2854SOL    HW120024   2.308   2.399   4.770  1.8431 -1.6215  3.4172
 2854SOL    HW220025   2.244   2.532   4.796  1.4009  1.5358 -0.6519
 2855SOL     OW20026   4.172   0.724  10.805 -0.0564  0.3635 -0.0589
 2855SOL    HW120027   4.210   0.773  10.878 -1.6800 -0.0153  1.0592
 2855SOL    HW220028   4.113   0.789  10.766 -1.8498 -0.9667  0.4328
 2856SOL     OW20029   3.653   4.303   8.920  0.1781  0.3610 -0.1625
 2856SOL    HW120030   3.716   4.300   8.992  0.2171 -3.3307 -0.3333
 2856SOL    HW220031   3.586   4.357   8.961  2.5102  0.7508  3.1686
 2857SOL     OW20032   3.963   4.102  12.187  0.1667 -0.3940 -0.5467
 2857SOL    HW120033   4.012   4.061  12.259  1.6841  0.4780 -1.0738
 2857SOL    HW220034   3.879   4.061  12.209  1.8693 -1.3444  4.2412
 2858SOL     OW20035   4.239   2.957   5.763 -0.0842  0.1725 -0.2176
 2858SOL    HW120036   4.209   2.900   5.691 -0.0735  1.0490 -0.9199
 2858SOL    HW220037   4.285   2.897   5.821 -1.1714  0.1294  0.5899
 2859SOL     OW20038   0.784   3.847   9.990 -0.0964 -0.0915  0.4924
 2859SOL    HW120039   0.793   3.887   9.903 -1.2495 -2.8228 -0.8597
 2859SOL    HW220040   0.727   3.776   9.961  0.2967  0.4454 -1.5762
 2860SOL     OW20041   2.812   2.180   4.616  0.1190  0.2169 -0.0947
 2860SOL    HW120042   2.891   2.195   4.669  0.3588  1.4963 -0.8109
 2860SOL    HW220043   2.741   2.191   4.679  1.9918  0.0794  2.0691
 2861SOL     OW20044   4.431   1.972   8.107  0.0822 -0.6143 -0.4777
 2861SOL    HW120045   4.371   1.953   8.034 -0.2666 -1.5255  0.0509
 2861SOL    HW220046   4.381   2.038   8.155 -0.0916  0.6160 -2.3441
 2862SOL     OW20047   1.636   1.789   9.381  0.0108 -0.0289  0.3770
 2862SOL    HW120048   1.677   1.729   9.443  0.5191 -1.1427 -1.0411
 2862SOL    HW220049   1.605   1.859   9.438 -1.0844  0.4607 -0.7976
 2863SOL     OW20050   1.149   1.608   1.173 -0.1591 -0.4047 -0.7012
 2863SOL    HW120051   1.128   1.687   1.124 -2.5032 -0.5507  0.1016
 2863SOL    HW220052   1.064   1.566   1.165 -1.3220  1.8391  0.0943
 2864SOL     OW20053   2.370   3.569   1.998 -0.0658  0.2125  0.0021
 2864SOL    HW120054   2.337   3.635   2.059  0.0743 -0.8678  1.2444
 2864SOL    HW220055   2.405   3.622   1.926  1.0056 -0.6684 -0.1277
 2865SOL     OW20056   0.565   1.269   7.710 -0.1571  0.2212 -0.0603
 2865SOL    HW120057   0.597   1.189   7.751 -3.3341 -0.8305  0.3659
 2865SOL    HW220058   0.509   1.235   7.640  0.6425 -0.6159 -0.3027
 2866SOL     OW20059   1.288   3.267   3.414  0.2258 -0.3485 -0.5486
 2866SOL    HW120060   1.315   3.341   3.359  1.2184 -0.7458 -0.6004
 2866SOL    HW220061   1.195   3.285   3.425 -0.0105 -0.5146 -2.2000
 2867SOL     OW20062   3.903   1.024   8.789 -0.2967 -0.2925  0.4622
 2867SOL    HW120063   3.863   1.076   8.859  1.1165  0.9959  0.3222
 2867SOL    HW220064   3.997   1.014   8.804 -0.0299  2.5111  0.7457
 2868SOL     OW20065   4.020   3.645   6.510 -0.3400 -0.1983  0.1892
 2868SOL    HW120066   3.969   3.671   6.586  0.0977 -1.5007  0.9307
 2868SOL    HW220067   3.948   3.608   6.461  0.1380 -0.0804 -0.6105
 2869SOL     OW20068   3.265   2.400   8.314 -0.0799 -0.5895  0.0162
 2869SOL    HW120069   3.307   2.431   8.233 -0.1224  1.0774  0.6349
 2869SOL    HW220070   3.187   2.454   8.323  0.1238 -0.0511 -1.4722
 2870SOL     OW20071   3.711   0.934  15.993 -0.1365 -0.0860  1.2986
 2870SOL    HW120072   3.690   0.840  15.991 -0.7098  0.1056 -1.6354
 2870SOL    HW220073   3.786   0.920  15.936  0.3857 -0.0256  1.9737
 2871SOL     OW20074   2.043   3.133   6.075  0.1039  0.3505  0.1535
 2871SOL    HW120075   2.109   3.162   6.137 -0.4044  1.9622 -0.0711
 2871SOL    HW220076   2.075   3.047   6.048 -0.9363 -0.4271  1.4057
 2872SOL     OW20077   4.002   0.512  16.956  0.2099  0.0028 -0.4277
 2872SOL    HW120078   3.999   0.546  17.046  0.3966 -0.4726 -0.2413
 2872SOL    HW220079   3.912   0.480  16.953  0.2279 -0.1682  0.7534
 2873SOL     OW20080   0.550   1.345   5.898  0.5935  0.3484 -0.4115
 2873SOL    HW120081   0.546   1.271   5.958  0.8655  0.0114 -0.8124
 2873SOL    HW220082   0.635   1.389   5.899  1.1429 -0.7822  1.0341
 2874SOL     OW20083   2.694   3.990   9.899  0.1204 -0.0880  0.2750
 2874SOL    HW120084   2.653   3.998   9.813  0.6653 -1.6733 -0.1381
 2874SOL    HW220085   2.783   3.959   9.880 -0.6925  0.0362 -3.6253
 2875SOL     OW20086   1.067   0.419   8.718  0.1089  0.1155  1.0488
 2875SOL    HW120087   1.077   0.332   8.680 -1.7672 -0.5612  2.1218
 2875SOL    HW220088   1.055   0.477   8.642  0.1295 -0.7294  0.3994
 2876SOL     OW20089   3.136   4.570   7.537 -0.1834  0.1639  0.9773
 2876SOL    HW120090   3.058   4.553   7.590 -3.2401 -2.3527 -4.3535
 2876SOL    HW220091   3.122   4.661   7.511  1.6633  0.1056 -0.2150
 2877SOL     OW20092   1.995   0.964   0.420 -0.6473 -0.0421 -0.1571
 2877SOL    HW120093   2.037   1.050   0.406 -1.2146  0.0111 -1.5552
 2877SOL    HW220094   2.063   0.930   0.478  0.7989  0.0643 -1.8001
 2878SOL     OW20095   1.039   1.043   7.391 -0.6047 -0.8169 -0.0404
 2878SOL    HW120096   1.036   1.139   7.393 -1.1796 -0.8011 -1.6123
 2878SOL    HW220097   0.984   1.015   7.463  0.6035 -1.6983  0.5457
 2879SOL     OW20098   2.583   1.642   8.968  0.0208 -0.4999 -0.0063
 2879SOL    HW120099   2.585   1.572   9.033  0.7807 -0.2026  0.2857
 2879SOL    HW220100   2.495   1.677   8.981 -0.9783 -2.2402 -2.0135
 2880SOL     OW20101   3.242   2.921   6.124  0.1665 -0.2519  0.8125
 2880SOL    HW120102   3.211   2.831   6.113  0.3133 -0.3378  1.1064
 2880SOL    HW220103   3.278   2.920   6.212 -1.6000 -0.1394  1.5359
 2881SOL     OW20104   2.367   0.583  12.967 -0.0276  0.0665  0.4664
 2881SOL    HW120105   2.290   0.617  13.013  0.8365 -0.9253  2.6315
 2881SOL    HW220106   2.401   0.652  12.911  1.7518  0.6006  2.2000
 2882SOL     OW20107   2.382   1.322   4.736 -0.4396  0.3071 -0.0252
 2882SOL    HW120108   2.419   1.388   4.676  0.6966 -1.3997 -1.2215
 2882SOL    HW220109   2.324   1.284   4.670  2.1880 -3.0495 -0.3887
 2883SOL     OW20110   0.176   3.734   5.073 -0.4505 -0.4317  0.6168
 2883SOL    HW120111   0.228   3.682   5.135  1.2085  0.5058  0.0341
 2883SOL    HW220112   0.155   3.673   5.003 -1.5335  1.1559 -0.4562
 2884SOL     OW20113   0.351   0.991   5.605  0.4340 -0.2972 -0.2474
 2884SOL    HW120114   0.405   0.945   5.668 -0.8528 -0.3269  0.8437
 2884SOL    HW220115   0.360   1.082   5.633 -0.2934  0.3684 -2.1408
 2885SOL     OW20116   1.628   0.295   4.978  0.2360  0.2149 -0.0564
 2885SOL    HW120117   1.682   0.322   4.904 -0.3236  2.8108  0.4958
 2885SOL    HW220118   1.589   0.219   4.935  1.1104  1.6220 -3.2907
 2886SOL     OW20119   2.362   3.607   8.072  0.5243 -0.4192 -0.1100
 2886SOL    HW120120   2.383   3.612   7.978  3.7414 -0.9109  0.5809
 2886SOL    HW220121   2.324   3.519   8.069 -2.3882  0.8285  0.3200
 2887SOL     OW20122   3.148   0.581  16.622  0.1823 -0.4031 -0.2834
 2887SOL    HW120123   3.119   0.619  16.539  0.1117 -0.7724 -0.4265
 2887SOL    HW220124   3.072   0.529  16.647  0.2940 -0.9518 -1.0892
 2888SOL     OW20125   2.177   3.280   1.917  0.3324  0.4278 -0.1789
 2888SOL    HW120126   2.182   3.338   1.841 -0.3679 -0.3538 -0.8124
 2888SOL    HW220127   2.199   3.196   1.878  0.0056  0.2645 -0.0126
 2889SOL     OW20128   1.169   3.217   7.928 -0.0522  0.4990 -0.5026
 2889SOL    HW120129   1.218   3.251   8.003 -0.3191 -0.6602  0.1937
 2889SOL    HW220130   1.131   3.300   7.899 -0.4122  1.0169  1.5064
 2890SOL     OW20131   4.028   2.147   3.329 -0.2415  0.1288 -0.3107
 2890SOL    HW120132   4.109   2.195   3.345  0.4647  0.1427 -3.8238
 2890SOL    HW220133   3.979   2.220   3.291  2.3025  1.0417 -1.8909
 2891SOL     OW20134   1.922   3.910   6.799  0.2606  0.3145 -0.3269
 2891SOL    HW120135   2.017   3.923   6.794  0.2360  0.6372  0.0501
 2891SOL    HW220136   1.917   3.825   6.843  3.5591  1.3848  2.1252
 2892SOL     OW20137   0.790   4.600  10.405  0.7458 -0.1707  0.2093
 2892SOL    HW120138   0.713   4.653  10.426  1.3641  0.2266  1.4547
 2892SOL    HW220139   0.832   4.583  10.489  1.2856  0.4531  0.0671
 2893SOL     OW20140   2.067   4.472   3.332 -0.0582 -0.1274  0.5366
 2893SOL    HW120141   2.137   4.429   3.380 -0.1606 -1.0901 -0.1767
 2893SOL    HW220142   2.069   4.562   3.365  0.8792 -0.2433  0.8145
 2894SOL     OW20143   2.416   0.709   6.848  0.3704  0.1735  0.6232
 2894SOL    HW120144   2.325   0.694   6.821  0.4231  0.9801 -0.0032
 2894SOL    HW220145   2.424   0.642   6.917  2.9830 -0.0899  0.0831
 2895SOL     OW20146   1.498   4.456   3.320  0.0544  0.0135 -0.3340
 2895SOL    HW120147   1.527   4.432   3.408 -0.4045  0.7503  0.0193
 2895SOL    HW220148   1.420   4.401   3.315  0.1520  0.1063 -2.5744
 2896SOL     OW20149   0.184   4.551   5.776  0.1002  0.6157  0.1169
 2896SOL    HW120150   0.258   4.528   5.831  0.5411 -0.1534 -0.7960
 2896SOL    HW220151   0.135   4.470   5.790  0.3790  0.5742  0.8252
 2897SOL     OW20152   4.055   4.641  16.099  0.3683  0.1246 -0.2911
 2897SOL    HW120153   4.033   4.654  16.191 -0.4930 -0.4306 -0.4145
 2897SOL    HW220154   4.149   4.650  16.113  0.2534 -0.7879  1.0551
 2898SOL     OW20155   0.486   0.532   6.304  0.0470  0.8039  0.0847
 2898SOL    HW120156   0.508   0.568   6.218  1.4647  0.5985  0.3741
 2898SOL    HW220157   0.403   0.486   6.286 -0.4108  2.4902 -2.1599
 2899SOL     OW20158   2.306   3.837   8.421  0.1216 -0.2059  0.7636
 2899SOL    HW120159   2.377   3.894   8.451 -1.1412  0.2049  2.9680
 2899SOL    HW220160   2.249   3.872   8.489 -0.5965 -0.2704  0.2016
 2900SOL     OW20161   3.672   0.183  11.347  0.6280  0.2075  0.2285
 2900SOL    HW120162   3.609   0.245  11.384  0.0704 -1.3528  1.8741
 2900SOL    HW220163   3.737   0.192  11.417 -0.1604 -1.7511  1.1980
 2901SOL     OW20164   2.960   3.387  17.452  0.3284 -0.1259  0.2799
 2901SOL    HW120165   3.002   3.429  17.377 -0.0701  1.3515  0.8996
 2901SOL    HW220166   2.891   3.348  17.399 -1.1277  0.2038  1.9470
 2902SOL     OW20167   2.708   0.207   5.246 -0.5484 -0.1734 -0.1456
 2902SOL    HW120168   2.628   0.198   5.299 -2.8091  1.0038 -3.4026
 2902SOL    HW220169   2.774   0.164   5.301 -0.7179  2.9655  2.4936
 2903SOL     OW20170   4.001   2.417  11.824 -0.0141  0.1179  0.3713
 2903SOL    HW120171   4.012   2.470  11.903 -1.4661 -1.9445  1.9501
 2903SOL    HW220172   3.988   2.491  11.764 -1.1339  0.7643  1.4072
 2904SOL     OW20173   3.977   1.244   1.082 -0.7672  0.1397 -0.1556
 2904SOL    HW120174   4.067   1.215   1.096 -0.8765 -0.8736 -1.5824
 2904SOL    HW220175   3.994   1.337   1.064  1.6108 -0.3212 -0.3466
 2905SOL     OW20176   3.220   0.062  13.145 -0.1240  0.1847  0.5313
 2905SOL    HW120177   3.308   0.074  13.180  0.7365 -2.4514 -0.7276
 2905SOL    HW220178   3.241   4.705  13.095  2.3590  0.9116  0.4681
 2906SOL     OW20179   2.949   2.376   1.167 -0.4591 -0.0319  0.4454
 2906SOL    HW120180   2.954   2.326   1.086  1.7731 -1.8328  1.6803
 2906SOL    HW220181   2.862   2.416   1.160 -1.0831 -1.4605  0.0475
 2907SOL     OW20182   0.448   1.821  15.118 -0.5963 -0.0643  0.4606
 2907SOL    HW120183   0.508   1.796  15.188  0.6414  0.8558 -0.2573
 2907SOL    HW220184   0.446   1.750  15.054  0.8777  0.9039 -0.6795
 2908SOL     OW20185   2.642   0.216   5.726 -0.2380  0.8042  0.5270
 2908SOL    HW120186   2.682   0.264   5.653  0.7222  0.1933  0.6497
 2908SOL    HW220187   2.720   0.165   5.748 -1.0892 -1.5165 -1.7775
 2909SOL     OW20188   3.911   3.555   6.962 -0.1326 -0.3586 -0.8060
 2909SOL    HW120189   3.915   3.474   6.911  0.8492  1.4892 -3.6174
 2909SOL    HW220190   3.945   3.527   7.048 -1.6283  0.0293 -0.0790
 2910SOL     OW20191   0.692   0.415   6.435  0.2188 -0.1053  0.3169
 2910SOL    HW120192   0.618   0.460   6.394  0.6532  0.4404  0.1237
 2910SOL    HW220193   0.769   0.446   6.388 -1.9236  1.4682 -2.1438
 2911SOL     OW20194   3.227   4.195   3.555 -0.1600 -0.1663 -0.0860
 2911SOL    HW120195   3.207   4.236   3.640 -1.0202 -0.8555  0.0442
 2911SOL    HW220196   3.239   4.105   3.585 -0.2044  0.1791  0.9634
 2912SOL     OW20197   3.285   1.288   3.139  0.1417  0.4113  0.1732
 2912SOL    HW120198   3.322   1.362   3.187 -0.7536  0.8225  0.2272
 2912SOL    HW220199   3.348   1.221   3.168  0.0928  0.1411 -0.3492
 2913SOL     OW20200   0.562   0.601   3.072 -0.6616 -0.2085  0.2795
 2913SOL    HW120201   0.642   0.577   3.026 -0.2747 -1.3358  1.5242
 2913SOL    HW220202   0.494   0.571   3.011 -0.8293  1.5473 -0.3884
 2914SOL     OW20203   0.006   2.867   7.347 -0.0080  0.2219 -0.3228
 2914SOL    HW120204   4.659   2.842   7.409  0.7049  1.8950  1.1308
 2914SOL    HW220205   0.073   2.901   7.406 -0.8733 -0.4759  1.0668
 2915SOL     OW20206   1.468   3.095   0.054  0.5508  0.1599 -0.1179
 2915SOL    HW120207   1.451   3.053   0.138  2.1274  1.3122  0.7718
 2915SOL    HW220208   1.452   3.188   0.070 -1.7639 -0.4525  1.0829
 2916SOL     OW20209   4.212   2.823  11.903  0.0475  0.1120 -0.2778
 2916SOL    HW120210   4.251   2.762  11.966 -0.0106 -0.0527 -0.4026
 2916SOL    HW220211   4.120   2.807  11.924  0.1089  2.4871  1.7066
 2917SOL     OW20212   4.303   4.642  12.493  0.2365 -0.7321  0.2542
 2917SOL    HW120213   4.334   4.580  12.560 -0.9083  0.3418  1.7635
 2917SOL    HW220214   4.305   4.585  12.416 -1.0141  0.8726 -0.9405
 2918SOL     OW20215   0.154   4.192   5.986 -0.2972  0.5339  0.6882
 2918SOL    HW120216   0.177   4.099   5.986  0.8830  0.8165 -0.8360
 2918SOL    HW220217   0.204   4.228   6.059  1.6420 -1.4650  0.3489
 2919SOL     OW20218   0.715   2.764   7.309 -0.1925  0.6438  0.2126
 2919SOL    HW120219   0.761   2.680   7.299 -3.8133 -1.2932  0.0081
 2919SOL    HW220220   0.622   2.743   7.308 -0.3495  1.3359  0.7646
 2920SOL     OW20221   3.806   1.270  14.728 -0.4346  0.7087  0.2837
 2920SOL    HW120222   3.856   1.188  14.737 -0.7151  0.6496  1.3136
 2920SOL    HW220223   3.826   1.301  14.640 -0.1413 -0.1787  0.0355
 2921SOL     OW20224   0.263   4.013   4.176 -0.5885 -0.0665 -0.3520
 2921SOL    HW120225   0.309   4.049   4.252  1.6600 -1.6370 -0.9891
 2921SOL    HW220226   0.230   3.933   4.219  0.6801 -0.7434 -0.6346
 2922SOL     OW20227   2.986   2.465   4.456 -0.2022  0.1175 -0.5899
 2922SOL    HW120228   3.015   2.544   4.411 -1.1746  0.8653  0.1198
 2922SOL    HW220229   3.056   2.401   4.437  1.4536  1.2373  1.8445
 2923SOL     OW20230   0.607   2.373   1.461 -0.5638  0.0792  0.1129
 2923SOL    HW120231   0.609   2.452   1.515  1.9203  1.3183 -1.8320
 2923SOL    HW220232   0.586   2.400   1.372  0.0905 -0.2358 -0.1345
 2924SOL     OW20233   2.434   0.778  10.573 -0.2676  0.3861 -0.7491
 2924SOL    HW120234   2.459   0.777  10.480 -0.0831 -1.1089 -0.6849
 2924SOL    HW220235   2.340   0.787  10.565 -0.0435  0.9539 -2.7330
 2925SOL     OW20236   3.013   1.924   5.594 -0.5325  0.0370 -0.6543
 2925SOL    HW120237   3.014   1.923   5.689  1.2092  3.0272 -0.6596
 2925SOL    HW220238   3.082   1.989   5.582 -1.0053  0.4391 -1.2047
 2926SOL     OW20239   0.582   4.423   7.998 -0.4230 -0.3469 -0.3208
 2926SOL    HW120240   0.625   4.494   8.046  0.8513 -1.3079 -0.0579
 2926SOL    HW220241   0.652   4.395   7.939  0.3355 -0.0349  0.4317
 2927SOL     OW20242   4.159   1.826   7.550 -0.1855 -0.0807  0.2911
 2927SOL    HW120243   4.250   1.853   7.560 -0.1116 -0.0940 -0.3740
 2927SOL    HW220244   4.130   1.835   7.641 -0.0497  2.6604  0.0623
 2928SOL     OW20245   2.258   2.948   3.827 -0.1112 -0.6349  0.2601
 2928SOL    HW120246   2.327   2.885   3.808  1.7917  1.6600 -0.5392
 2928SOL    HW220247   2.289   2.975   3.913  2.2382 -0.8622 -0.5063
 2929SOL     OW20248   0.591   4.269   4.031 -0.2126  0.7590 -0.0438
 2929SOL    HW120249   0.648   4.294   3.958  1.0409  0.6338  0.8982
 2929SOL    HW220250   0.624   4.326   4.100 -0.9823  0.9907  0.1330
 2930SOL     OW20251   1.494   2.029   6.591  0.3582 -0.0655 -0.2799
 2930SOL    HW120252   1.575   2.050   6.545  1.0594  0.2413  1.0625
 2930SOL    HW220253   1.479   2.113   6.635 -0.4924 -0.1538 -0.4113
 2931SOL     OW20254   2.531   1.421   6.915  0.2219  0.0834 -0.2526
 2931SOL    HW120255   2.476   1.392   6.841  1.2579 -0.3179 -0.8641
 2931SOL    HW220256   2.462   1.431   6.980 -0.3768  3.2679 -1.3989
 2932SOL     OW20257   0.460   4.424   9.224 -0.3171 -0.2736  0.0037
 2932SOL    HW120258   0.430   4.510   9.196 -1.6400 -0.4817  0.7567
 2932SOL    HW220259   0.552   4.423   9.197 -0.3191  1.1655 -0.0378
 2933SOL     OW20260   2.277   2.986   7.349 -0.5544  0.1954 -0.2169
 2933SOL    HW120261   2.196   2.942   7.372 -1.0464  0.7422 -0.8814
 2933SOL    HW220262   2.258   3.078   7.369 -1.6575 -0.5335  2.0142
 2934SOL     OW20263   1.076   3.077   7.595  0.3531  0.3289 -0.2206
 2934SOL    HW120264   1.020   3.014   7.551  0.0102  0.8207 -0.4925
 2934SOL    HW220265   1.028   3.158   7.575  1.3806  0.8650 -0.4856
 2935SOL     OW20266   4.410   4.530   2.590 -0.3628  0.4998  0.4623
 2935SOL    HW120267   4.492   4.522   2.540 -0.6456  0.1390  0.0524
 2935SOL    HW220268   4.354   4.473   2.537 -0.3752  2.0801 -1.2119
 2936SOL     OW20269   4.551   0.953   8.870  0.4139  0.0525 -0.0851
 2936SOL    HW120270   4.623   0.900   8.903 -1.1456 -2.1154 -0.1788
 2936SOL    HW220271   4.522   1.004   8.946  0.5087  0.5086 -0.3585
 2937SOL     OW20272   0.194   0.990   9.635  0.1096  0.7569  0.0551
 2937SOL    HW120273   0.274   1.015   9.589  1.0713  1.5083  2.1816
 2937SOL    HW220274   0.217   0.967   9.724  3.0605  0.9213 -0.6829
 2938SOL     OW20275   1.393   3.340   8.536 -0.3478  0.0964  0.0226
 2938SOL    HW120276   1.456   3.269   8.522  0.2993  0.8218 -0.6875
 2938SOL    HW220277   1.335   3.305   8.604  1.3828 -0.1854  1.3466
 2939SOL     OW20278   4.291   1.009   3.319  0.0552 -0.1127 -0.1756
 2939SOL    HW120279   4.373   0.982   3.361 -0.3766 -0.7746  0.2425
 2939SOL    HW220280   4.227   0.988   3.387 -1.0403 -0.5971 -1.3692
 2940SOL     OW20281   0.523   2.239   3.215 -0.2158  0.5268  0.1423
 2940SOL    HW120282   0.520   2.151   3.253 -1.0759  0.5668  0.1634
 2940SOL    HW220283   0.605   2.239   3.164 -0.7310  0.4280 -0.6904
 2941SOL     OW20284   3.209   4.404  11.200 -0.4672  0.7030  0.0943
 2941SOL    HW120285   3.243   4.354  11.126 -0.0652  2.0034 -0.6012
 2941SOL    HW220286   3.284   4.453  11.231  1.5174 -2.3651  0.1239
 2942SOL     OW20287   1.554   2.558   4.965 -0.6128 -0.5245  0.0892
 2942SOL    HW120288   1.565   2.626   5.032 -0.8455 -2.1402  1.7712
 2942SOL    HW220289   1.468   2.522   4.985 -1.1738  1.2537  0.9631
 2943SOL     OW20290   0.942   2.527  17.014 -0.2883  0.1044 -0.4045
 2943SOL    HW120291   0.912   2.601  17.067  0.2177  0.5325 -0.7111
 2943SOL    HW220292   0.860   2.478  17.006  0.2282 -0.7816 -0.2735
 2944SOL     OW20293   2.131   1.613   2.646  0.2235  0.1821  0.3835
 2944SOL    HW120294   2.055   1.638   2.593 -0.4767 -1.8317  0.4289
 2944SOL    HW220295   2.126   1.519   2.627 -3.0310  0.5353 -0.4953
 2945SOL     OW20296   4.474   0.535   6.217 -0.3286  0.3986  0.2616
 2945SOL    HW120297   4.557   0.558   6.174 -0.7051  1.1156 -0.0867
 2945SOL    HW220298   4.509   0.512   6.303  0.5397  1.5672  0.2352
 2946SOL     OW20299   3.217   0.441  16.210 -0.2686  0.0824  0.4226
 2946SOL    HW120300   3.225   0.491  16.129  1.3449 -1.5353 -0.4029
 2946SOL    HW220301   3.141   0.388  16.185  0.7887 -1.1828 -0.0981
 2947SOL     OW20302   1.580   1.350   8.232  0.2430 -0.2119 -0.0982
 2947SOL    HW120303   1.485   1.344   8.246  0.3819  0.0707  0.9833
 2947SOL    HW220304   1.600   1.260   8.257  0.9895  0.6351  2.4131
 2948SOL     OW20305   1.401   3.508   7.823  0.3482 -0.7708 -0.3370
 2948SOL    HW120306   1.364   3.588   7.861  2.3825  0.2669 -0.5793
 2948SOL    HW220307   1.357   3.446   7.881 -3.1085 -0.4580 -2.6043
 2949SOL     OW20308   4.635   1.756   1.777  0.3609 -0.1181  0.2690
 2949SOL    HW120309   4.624   1.673   1.731  2.4578  0.5244 -1.4252
 2949SOL    HW220310   4.719   1.734   1.816  0.4777  1.7609  1.1061
 2950SOL     OW20311   2.286   0.134   6.016  0.2505  0.3607 -0.1420
 2950SOL    HW120312   2.315   0.225   6.005 -0.2379  0.2651 -2.2393
 2950SOL    HW220313   2.336   0.109   6.093 -0.4438  0.3372  0.3004
 2951SOL     OW20314   0.408   0.904   8.111  0.8376 -0.1596  0.2140
 2951SOL    HW120315   0.351   0.968   8.155 -0.5443 -1.1853 -0.0984
 2951SOL    HW220316   0.336   0.857   8.070  0.1732  2.7081 -1.9327
 2952SOL     OW20317   3.987   2.333   8.752 -0.8953 -0.2214  0.0478
 2952SOL    HW120318   3.954   2.245   8.770  1.9580 -1.7331 -2.1657
 2952SOL    HW220319   3.937   2.363   8.676 -0.8127  1.3631  0.6141
 2953SOL     OW20320   3.519   4.058  15.862 -0.2904  0.1627 -0.1819
 2953SOL    HW120321   3.441   4.052  15.808 -0.1199  1.5120 -0.5870
 2953SOL    HW220322   3.489   4.003  15.933  2.1218 -1.3313 -0.3087
 2954SOL     OW20323   3.561   1.935   5.237 -0.1019 -0.2566  0.2803
 2954SOL    HW120324   3.519   1.911   5.155  2.1789 -2.2188 -0.3178
 2954SOL    HW220325   3.486   1.960   5.291  0.7542 -1.4024  2.0177
 2955SOL     OW20326   2.984   3.803   0.733 -0.0789 -0.2921 -0.4226
 2955SOL    HW120327   2.958   3.719   0.771 -2.9705  1.0366  0.4935
 2955SOL    HW220328   3.061   3.773   0.684  1.1943  1.5525  0.4448
 2956SOL     OW20329   2.079   1.892   8.062  0.3099 -0.0594  0.3195
 2956SOL    HW120330   2.070   1.929   8.149 -0.9832  0.7006 -0.1272
 2956SOL    HW220331   1.988   1.888   8.029 -0.3641 -0.8002  2.3045
 2957SOL     OW20332   3.820   1.418   4.045  0.0435 -0.2506  0.0342
 2957SOL    HW120333   3.889   1.480   4.068  0.3766 -0.0610 -1.4604
 2957SOL    HW220334   3.821   1.359   4.121 -1.8524 -0.5880 -0.2083
 2958SOL     OW20335   3.909   0.818   1.404 -0.2609  0.5427  0.7563
 2958SOL    HW120336   3.818   0.792   1.419 -0.3896  0.9523  0.6713
 2958SOL    HW220337   3.923   0.858   1.490  1.9627 -0.5378  0.8939
 2959SOL     OW20338   1.769   4.109   3.547 -0.6905 -0.2724 -0.3246
 2959SOL    HW120339   1.722   4.191   3.561 -0.5906 -0.2117 -0.3442
 2959SOL    HW220340   1.695   4.049   3.535 -0.2712 -1.5208  3.3194
 2960SOL     OW20341   2.828   3.237   7.128 -0.7879 -0.0800  0.4028
 2960SOL    HW120342   2.826   3.293   7.205 -1.4244 -2.2345  1.9603
 2960SOL    HW220343   2.922   3.222   7.114 -1.2367 -4.7751  2.1745
 2961SOL     OW20344   2.343   1.934  11.615  0.3930 -0.0267 -0.3527
 2961SOL    HW120345   2.424   1.985  11.623  0.3512 -0.0386  0.1234
 2961SOL    HW220346   2.290   1.997  11.565 -2.4500 -0.6998  1.8216
 2962SOL     OW20347   3.312   3.938   1.390  0.2407  0.3773 -0.6136
 2962SOL    HW120348   3.318   4.024   1.432 -1.0491 -0.5461  1.4911
 2962SOL    HW220349   3.218   3.927   1.375  0.5276 -0.1885 -2.0270
 2963SOL     OW20350   0.201   0.703  12.264 -0.1572  0.4295  0.3303
 2963SOL    HW120351   0.259   0.778  12.253 -1.7670  1.4730 -0.9673
 2963SOL    HW220352   0.197   0.692  12.359 -1.6115 -0.5322  0.1513
 2964SOL     OW20353   2.994   4.424   4.832 -0.4465  0.0290  0.1145
 2964SOL    HW120354   3.032   4.365   4.897 -1.2120 -0.7521 -0.1471
 2964SOL    HW220355   2.943   4.483   4.888 -1.5225  0.6485 -1.5088
 2965SOL     OW20356   3.760   3.506   3.080 -0.0319 -0.9768  0.3218
 2965SOL    HW120357   3.771   3.429   3.023  0.4742 -0.8916  0.3020
 2965SOL    HW220358   3.838   3.557   3.058  0.2052 -0.7294  1.7975
 2966SOL     OW20359   3.038   0.719   7.597 -0.1892  0.0024 -0.3439
 2966SOL    HW120360   2.970   0.683   7.654  0.6229  1.5597  1.6233
 2966SOL    HW220361   3.066   0.791   7.653 -1.9172  0.8801 -0.6166
 2967SOL     OW20362   0.477   0.160   5.273  0.4558  0.4470  0.1034
 2967SOL    HW120363   0.557   0.195   5.234  0.2539 -0.6703 -1.3476
 2967SOL    HW220364   0.504   0.129   5.359 -1.2039 -1.4213 -0.0504
 2968SOL     OW20365   1.159   2.663   0.874  0.3961  0.1396  0.2256
 2968SOL    HW120366   1.086   2.613   0.838  0.2553  1.1449 -0.9159
 2968SOL    HW220367   1.140   2.751   0.840  1.4683  0.8909  1.5958
 2969SOL     OW20368   3.320   4.279   6.009  0.1170  0.2073  0.0405
 2969SOL    HW120369   3.274   4.226   5.943 -0.3781 -0.8489  1.2376
 2969SOL    HW220370   3.373   4.214   6.054 -0.8641  1.1438  2.5334
 2970SOL     OW20371   0.899   2.710   2.865 -0.0473  0.5957  0.1308
 2970SOL    HW120372   0.823   2.743   2.914  1.6145  0.2627  2.9051
 2970SOL    HW220373   0.857   2.685   2.782 -0.8474 -3.3164  1.7556
 2971SOL     OW20374   3.325   4.317   7.621  0.2699  0.1072 -0.1428
 2971SOL    HW120375   3.332   4.305   7.716 -2.0776  0.4824  0.0829
 2971SOL    HW220376   3.230   4.322   7.606  0.2384  1.6562  0.6041
 2972SOL     OW20377   3.385   2.530  17.618  0.0913  0.1796  0.0432
 2972SOL    HW120378   3.345   2.611  17.586  0.0148 -0.5778 -1.7822
 2972SOL    HW220379   3.446   2.561  17.685 -0.5605  0.0322  0.7058
 2973SOL     OW20380   4.260   2.952  14.287  0.7070 -0.0432 -0.2339
 2973SOL    HW120381   4.304   2.939  14.203  0.2414  2.7359 -0.9147
 2973SOL    HW220382   4.239   3.046  14.294  2.2456  0.4072 -1.6191
 2974SOL     OW20383   2.148   0.287   4.042 -0.7570 -0.1339 -0.5259
 2974SOL    HW120384   2.129   0.299   3.949  1.2275 -1.2387 -1.0643
 2974SOL    HW220385   2.125   0.372   4.082  4.1482  0.9208  0.0499
 2975SOL     OW20386   4.348   0.553   3.103  0.0248 -0.2231 -0.0535
 2975SOL    HW120387   4.330   0.639   3.065  1.4625  0.7427  1.4414
 2975SOL    HW220388   4.405   0.581   3.175  0.0831 -2.3638  0.7300
 2976SOL     OW20389   1.776   3.522  14.242  0.0159  0.5494  0.1949
 2976SOL    HW120390   1.692   3.544  14.283 -0.3307  0.8101 -0.6470
 2976SOL    HW220391   1.833   3.532  14.318 -1.7529  0.5153  1.5217
 2977SOL     OW20392   4.635   1.297  10.199  0.2001 -0.0556 -0.0160
 2977SOL    HW120393   4.699   1.227  10.209  0.0918 -0.0324  0.8380
 2977SOL    HW220394   4.630   1.332  10.288  2.4721  0.9365 -0.2863
 2978SOL     OW20395   3.805   0.896   5.565  0.0384  0.6797  0.0574
 2978SOL    HW120396   3.858   0.859   5.495  0.7543 -0.7380  1.3471
 2978SOL    HW220397   3.725   0.882   5.513 -0.1651  4.2104 -0.5575
 2979SOL     OW20398   4.234   1.882   8.403  0.0083  0.8785 -0.1563
 2979SOL    HW120399   4.316   1.911   8.443  0.7059  0.1934 -1.0597
 2979SOL    HW220400   4.207   1.969   8.375  0.7157  0.9764 -0.5375
 2980SOL     OW20401   2.276   2.574   1.732 -0.4324 -0.2748 -0.2364
 2980SOL    HW120402   2.336   2.523   1.786  0.4962 -0.8397 -1.7803
 2980SOL    HW220403   2.241   2.511   1.669  0.6359  0.5814 -1.6913
 2981SOL     OW20404   4.459   2.087   2.168 -0.4767 -0.0310 -0.0658
 2981SOL    HW120405   4.428   2.069   2.257 -1.1411 -1.3141 -0.5631
 2981SOL    HW220406   4.377   2.065   2.123 -0.4037 -0.0358 -0.1947
 2982SOL     OW20407   2.468   0.023   0.004 -0.5744  0.3861  0.2452
 2982SOL    HW120408   2.468   4.661  17.649  0.6228 -1.5092  3.7013
 2982SOL    HW220409   2.387   0.017   0.053 -1.2605 -0.0046 -0.9472
 2983SOL     OW20410   0.958   1.512   2.256  0.2402 -0.3875 -0.2809
 2983SOL    HW120411   1.052   1.511   2.274  0.0594  0.6709  0.7423
 2983SOL    HW220412   0.966   1.564   2.176  2.3082  1.2958  1.0252
 2984SOL     OW20413   2.940   2.909   4.412 -0.1855 -0.9310  0.1540
 2984SOL    HW120414   2.988   2.973   4.465  1.3204 -1.7109 -0.2768
 2984SOL    HW220415   2.921   2.840   4.475 -1.0956 -0.9832 -0.1649
 2985SOL     OW20416   4.567   1.069   9.758 -0.1696  0.0169  0.0809
 2985SOL    HW120417   4.612   1.135   9.811  1.6176 -1.6885  0.6960
 2985SOL    HW220418   4.475   1.090   9.771 -0.3833 -1.1340  0.4332
 2986SOL     OW20419   1.419   4.068   7.699 -0.2229 -0.0196  0.3969
 2986SOL    HW120420   1.459   4.085   7.784  2.6141 -0.3406 -0.8822
 2986SOL    HW220421   1.407   4.157   7.666  0.5436 -0.2912 -0.6168
 2987SOL     OW20422   2.941   3.522  13.749  0.0946 -0.0738  0.1892
 2987SOL    HW120423   3.035   3.510  13.761  0.3826  2.1223  0.0943
 2987SOL    HW220424   2.901   3.449  13.798 -1.1811  0.9158  0.6301
 2988SOL     OW20425   2.305   3.528   9.875  0.5642 -0.6138 -0.5122
 2988SOL    HW120426   2.361   3.451   9.882 -0.1002 -1.1682 -1.2201
 2988SOL    HW220427   2.245   3.517   9.949  1.5236 -0.4089  0.2973
 2989SOL     OW20428   2.955   0.349   2.524  0.2747  0.5313 -0.4524
 2989SOL    HW120429   3.043   0.369   2.492  1.3590  0.7669  2.7064
 2989SOL    HW220430   2.907   0.327   2.444  1.0907  0.9444 -1.0686
 2990SOL     OW20431   4.031   3.012  13.739 -0.4306 -0.0738  0.0766
 2990SOL    HW120432   4.018   3.030  13.646 -0.1512  4.3641  0.9030
 2990SOL    HW220433   4.085   2.933  13.746  0.3270  0.5488  1.1732
 2991SOL     OW20434   0.816   3.102   0.983 -0.0053 -0.0663 -0.2656
 2991SOL    HW120435   0.842   3.011   1.000 -1.2340 -0.2697  0.5574
 2991SOL    HW220436   0.723   3.080   0.972  0.3490 -0.6787 -1.9720
 2992SOL     OW20437   1.036   4.526  13.339  0.1181  0.5820  0.6211
 2992SOL    HW120438   0.968   4.586  13.371  0.5936  0.1393  2.4621
 2992SOL    HW220439   0.996   4.440  13.355  0.1925  0.4155 -0.1111
 2993SOL     OW20440   3.093   1.494   7.109  0.3058 -0.0354  0.1798
 2993SOL    HW120441   3.174   1.512   7.157  1.4950 -0.2253 -1.7508
 2993SOL    HW220442   3.036   1.553   7.156  2.1223  2.2564 -0.4766
 2994SOL     OW20443   3.017   2.405  16.436 -0.3881  0.5479 -0.4065
 2994SOL    HW120444   3.090   2.466  16.432 -2.5110  3.2070  1.2086
 2994SOL    HW220445   2.997   2.404  16.343 -3.6335  0.7526  0.2860
 2995SOL     OW20446   4.155   4.383   6.741 -0.1703  0.0920  0.3535
 2995SOL    HW120447   4.250   4.389   6.749 -0.1673  1.9410 -1.0416
 2995SOL    HW220448   4.146   4.294   6.775 -1.6282  0.0226 -0.2167
 2996SOL     OW20449   3.082   0.678   4.075 -0.0368  0.3660 -0.7916
 2996SOL    HW120450   3.000   0.640   4.042 -0.3070  0.5506 -0.3220
 2996SOL    HW220451   3.136   0.631   4.011  0.5564 -1.5481  1.1212
 2997SOL     OW20452   0.167   1.102   4.961 -0.1680 -0.4626  0.0217
 2997SOL    HW120453   0.117   1.148   4.893  0.4418 -0.0921 -0.1713
 2997SOL    HW220454   0.192   1.020   4.919  2.8366  0.2677  0.3776
 2998SOL     OW20455   0.347   0.648   3.675  0.0194 -0.1361  0.1095
 2998SOL    HW120456   0.418   0.632   3.613  0.6957  0.0141  0.8386
 2998SOL    HW220457   0.273   0.605   3.632  0.2162  3.3667 -3.5974
 2999SOL     OW20458   0.601   1.793  15.421  0.1569  0.2644  0.4139
 2999SOL    HW120459   0.689   1.815  15.391 -0.4207 -0.2420 -1.7063
 2999SOL    HW220460   0.559   1.878  15.405 -0.1242  0.0568  0.0282
 3000SOL     OW20461   2.774   1.904   4.044 -0.0867 -0.3794 -0.0175
 3000SOL    HW120462   2.810   1.927   3.959 -1.0042 -3.8301 -1.3298
 3000SOL    HW220463   2.842   1.842   4.073 -0.2848 -0.0209  1.2044
 3001SOL     OW20464   4.272   0.524   7.642  0.0513 -1.2488  0.5141
 3001SOL    HW120465   4.179   0.512   7.659 -0.6769  0.4066 -2.2151
 3001SOL    HW220466   4.295   0.480   7.560 -0.3383 -0.2607 -0.1220
 3002SOL     OW20467   3.565   2.556  15.115 -0.1768  0.4597  0.8005
 3002SOL    HW120468   3.578   2.493  15.186  0.1238 -1.3956 -0.8956
 3002SOL    HW220469   3.478   2.534  15.081  0.1366 -0.3534  0.5350
 3003SOL     OW20470   3.868   0.207   2.656  0.1016 -0.3406  0.2735
 3003SOL    HW120471   3.787   0.185   2.702  0.1149  4.3297  2.4631
 3003SOL    HW220472   3.834   0.246   2.576  0.1681 -0.3404  0.2446
 3004SOL     OW20473   1.657   4.238   9.533 -0.0571 -0.5531 -0.7190
 3004SOL    HW120474   1.623   4.323   9.507  1.1519  0.1427 -0.0567
 3004SOL    HW220475   1.578   4.185   9.539  2.2144 -3.9870 -0.7528
 3005SOL     OW20476   3.000   4.304   7.334 -0.7108 -0.1057 -0.1350
 3005SOL    HW120477   2.966   4.311   7.245  1.0784 -0.1887 -0.8378
 3005SOL    HW220478   2.998   4.209   7.347  0.0698  0.0254  1.0303
 3006SOL     OW20479   1.043   1.911   8.934 -0.2574  0.3712  0.3137
 3006SOL    HW120480   1.137   1.930   8.934 -0.1825  0.0384 -0.2912
 3006SOL    HW220481   1.038   1.834   8.991  0.9498 -1.1395 -1.5889
 3007SOL     OW20482   2.911   4.216   8.646 -0.0088  0.0495 -0.9304
 3007SOL    HW120483   2.907   4.303   8.685  1.4115  0.3298 -1.4012
 3007SOL    HW220484   2.888   4.166   8.724 -0.8113 -0.4614 -1.4895
 3008SOL     OW20485   0.094   2.101   8.299 -0.3683 -0.4889  0.0116
 3008SOL    HW120486   0.127   2.012   8.292 -0.7494 -0.6865  0.6440
 3008SOL    HW220487   0.060   2.132   8.216 -0.4566 -0.8885 -0.0998
 3009SOL     OW20488   4.288   1.560   7.730  0.0955 -0.0652  0.4188
 3009SOL    HW120489   4.312   1.494   7.796 -2.4636 -1.2856  0.1440
 3009SOL    HW220490   4.366   1.615   7.720  1.4610 -1.8064  1.3126
 3010SOL     OW20491   3.731   0.969   0.764  0.1514 -0.1129  0.4389
 3010SOL    HW120492   3.678   1.029   0.711 -0.6786 -0.1286  1.2506
 3010SOL    HW220493   3.817   0.980   0.723 -0.2956 -1.6994 -0.9321
 3011SOL     OW20494   2.108   0.143   2.329  0.3413 -0.5807 -0.5761
 3011SOL    HW120495   2.196   0.106   2.336  0.6545  0.5060  1.2988
 3011SOL    HW220496   2.101   0.194   2.409  1.2275 -1.6009  0.1628
 3012SOL     OW20497   1.747   2.833   1.583 -0.0695 -0.3685  0.6184
 3012SOL    HW120498   1.805   2.768   1.621 -0.2488 -1.2593 -0.6508
 3012SOL    HW220499   1.797   2.914   1.593 -2.1503  1.1138 -0.9824
 3013SOL     OW20500   3.047   1.674   4.689 -0.0158 -0.0148  0.4356
 3013SOL    HW120501   3.114   1.695   4.755 -2.4506  0.3127  2.7948
 3013SOL    HW220502   3.070   1.737   4.621  1.6084  0.2047  1.1945
 3014SOL     OW20503   0.245   0.237  17.054 -0.0157 -0.7552  0.1440
 3014SOL    HW120504   0.229   0.166  16.992 -2.3072  1.6530 -2.0164
 3014SOL    HW220505   0.156   0.267  17.071  0.3403  1.5788 -2.0416
 3015SOL     OW20506   2.594   0.484  13.998  0.3034  0.2486 -0.0318
 3015SOL    HW120507   2.591   0.511  13.906  2.7305  0.2970 -0.1005
 3015SOL    HW220508   2.584   0.390  13.987 -1.8021  0.5785 -0.9426
 3016SOL     OW20509   2.201   2.841  14.897  0.2657 -0.2236 -0.4016
 3016SOL    HW120510   2.272   2.892  14.936  0.4184 -0.9986  0.3152
 3016SOL    HW220511   2.181   2.911  14.834 -0.0976 -1.9130 -2.1627
 3017SOL     OW20512   2.011   3.391   9.583  0.4973  0.0168  0.3629
 3017SOL    HW120513   1.935   3.333   9.575  0.2862  0.2376  0.7880
 3017SOL    HW220514   1.979   3.459   9.524  0.2010  1.5151  2.2484
 3018SOL     OW20515   3.970   3.198   7.646 -0.5734  0.2702 -0.0061
 3018SOL    HW120516   3.936   3.277   7.690  1.6403  1.2509 -0.0249
 3018SOL    HW220517   3.977   3.223   7.554  0.6308 -1.5493 -0.3992
 3019SOL     OW20518   3.763   4.519  16.169  0.4881 -0.2330 -0.6419
 3019SOL    HW120519   3.832   4.542  16.231 -1.5290 -1.8685  2.2152
 3019SOL    HW220520   3.771   4.578  16.094 -1.0941  1.7708  0.7563
 3020SOL     OW20521   2.196   1.048  12.511 -0.0665 -0.6258  0.7514
 3020SOL    HW120522   2.265   0.987  12.536  1.8153  1.5012  0.7576
 3020SOL    HW220523   2.153   1.077  12.592 -1.8325  1.2009 -0.8297
 3021SOL     OW20524   2.569   4.326   2.291 -0.3511  0.7442  0.1684
 3021SOL    HW120525   2.588   4.347   2.382  1.2592 -1.2028  0.2989
 3021SOL    HW220526   2.655   4.300   2.256 -0.1998 -0.2989  1.2852
 3022SOL     OW20527   2.738   3.944   6.592 -0.5234 -0.9226  0.0285
 3022SOL    HW120528   2.711   3.990   6.512  2.4392  1.5539  0.4096
 3022SOL    HW220529   2.829   3.920   6.576 -0.6649 -0.5584 -1.3256
 3023SOL     OW20530   4.169   3.852  14.772 -0.5427 -0.3622  0.1231
 3023SOL    HW120531   4.090   3.800  14.788  0.2312 -1.8898 -1.0828
 3023SOL    HW220532   4.226   3.821  14.843  0.4985  0.1180 -0.5036
 3024SOL     OW20533   3.294   4.581  12.656 -0.1803 -0.7979  0.0494
 3024SOL    HW120534   3.324   4.497  12.623 -0.9525 -0.2594 -2.0694
 3024SOL    HW220535   3.215   4.589  12.601 -0.6466  0.3513  0.8808
 3025SOL     OW20536   4.518   1.763   2.099 -0.9555  0.1529  0.4554
 3025SOL    HW120537   4.436   1.771   2.149 -0.4963  0.6047  1.1464
 3025SOL    HW220538   4.559   1.848   2.084 -0.0322 -0.4547 -0.4512
 3026SOL     OW20539   2.924   4.152  16.202 -0.4680  0.0284 -0.2657
 3026SOL    HW120540   2.989   4.149  16.131 -1.1491 -2.3034 -0.7848
 3026SOL    HW220541   2.942   4.065  16.237 -0.3767 -0.3101 -1.1389
 3027SOL     OW20542   4.517   4.181  10.556 -0.4616 -0.3369  0.1203
 3027SOL    HW120543   4.470   4.255  10.594 -0.4337 -1.4093  2.2558
 3027SOL    HW220544   4.466   4.110  10.596 -1.2344  1.2827  1.9563
 3028SOL     OW20545   0.457   4.309   2.788  0.0640  1.4465  0.1481
 3028SOL    HW120546   0.411   4.347   2.714  1.1431  1.2720 -0.6229
 3028SOL    HW220547   0.437   4.375   2.854 -0.4452 -0.6371  2.0599
 3029SOL     OW20548   1.380   4.453   1.433 -0.5339  0.2766  0.3084
 3029SOL    HW120549   1.295   4.487   1.404 -1.5297 -1.7154  0.8269
 3029SOL    HW220550   1.426   4.455   1.349 -0.0515  2.0012  0.6228
 3030SOL     OW20551   4.201   0.768   6.826  0.2982 -0.3944 -0.0464
 3030SOL    HW120552   4.254   0.846   6.808  0.2916 -0.3279  0.2200
 3030SOL    HW220553   4.173   0.803   6.910 -2.7928 -0.7202 -0.9479
 3031SOL     OW20554   4.505   3.508   2.817 -0.0027 -0.5903 -0.4313
 3031SOL    HW120555   4.534   3.522   2.727 -1.2547 -0.6049 -0.8498
 3031SOL    HW220556   4.494   3.600   2.841  0.0370 -0.8127  0.4591
 3032SOL     OW20557   4.625   2.568   6.995  0.5280 -0.1078  0.0269
 3032SOL    HW120558   4.602   2.570   7.088 -1.1172 -0.5341 -0.3616
 3032SOL    HW220559   4.641   2.474   6.996 -1.1603 -0.3972  0.5320
 3033SOL     OW20560   2.994   3.096   2.691 -0.2454 -0.3406 -0.0725
 3033SOL    HW120561   3.082   3.071   2.719  0.2574 -0.0600 -1.3856
 3033SOL    HW220562   2.984   3.182   2.731  0.6313 -0.3000  0.0553
 3034SOL     OW20563   2.437   1.066   7.343 -0.0011  0.6070 -0.1846
 3034SOL    HW120564   2.470   1.152   7.319 -0.4784  0.5330 -1.0983
 3034SOL    HW220565   2.520   1.030   7.374 -0.8256 -1.0960  0.0737
 3035SOL     OW20566   1.626   3.315  10.377 -0.8007 -0.0213  0.4630
 3035SOL    HW120567   1.647   3.261  10.301 -0.7571  1.0726 -0.3036
 3035SOL    HW220568   1.537   3.280  10.385 -1.0271  0.3580 -0.3794
 3036SOL     OW20569   1.151   4.325  17.156  0.5786 -0.0890 -0.5295
 3036SOL    HW120570   1.241   4.310  17.186  0.5242 -0.4241 -0.5331
 3036SOL    HW220571   1.113   4.362  17.235  1.7009  0.3823 -0.2089
 3037SOL     OW20572   0.923   0.015   5.240  0.0421 -0.2422  0.4228
 3037SOL    HW120573   0.967   4.653   5.255 -0.9927 -1.4659 -3.4465
 3037SOL    HW220574   0.886   0.004   5.153  1.1585 -0.4670 -0.0179
 3038SOL     OW20575   3.402   0.830   7.156  0.1484  0.2205  0.6850
 3038SOL    HW120576   3.357   0.766   7.102 -1.9995  1.7962  0.6048
 3038SOL    HW220577   3.356   0.909   7.128 -0.2616 -0.1680  0.2776
 3039SOL     OW20578   2.387   2.104   2.073 -0.0906  0.4209  0.5191
 3039SOL    HW120579   2.446   2.180   2.080  0.0259  0.0588  3.4072
 3039SOL    HW220580   2.309   2.140   2.115 -1.0468 -0.4739 -0.4840
 3040SOL     OW20581   4.063   0.893   7.675 -0.0919  0.2513  0.6315
 3040SOL    HW120582   3.998   0.826   7.698 -0.5141 -0.6462 -3.1136
 3040SOL    HW220583   4.002   0.944   7.621  0.1912  0.3764  0.4349
 3041SOL     OW20584   0.936   4.234   9.493  0.1836 -0.6955 -0.0134
 3041SOL    HW120585   0.882   4.191   9.427 -3.0174 -0.5424  2.5150
 3041SOL    HW220586   0.868   4.256   9.556  1.6318  2.4132  0.4892
 3042SOL     OW20587   4.414   3.304   2.135 -0.5550  0.6371 -0.4050
 3042SOL    HW120588   4.396   3.329   2.045  1.0459  0.3270 -0.8141
 3042SOL    HW220589   4.443   3.391   2.162  0.4330  0.3383 -0.4703
 3043SOL     OW20590   2.917   2.815   2.015  0.3445  0.1555  0.4560
 3043SOL    HW120591   2.854   2.754   1.978 -1.2045  1.1266  1.4841
 3043SOL    HW220592   2.898   2.793   2.106 -2.0575  2.6877  0.5763
 3044SOL     OW20593   2.296   0.411   7.659  0.3029 -0.2061  0.3633
 3044SOL    HW120594   2.205   0.412   7.689  0.4269  0.6243  0.6938
 3044SOL    HW220595   2.289   0.450   7.573  1.2012 -0.8107  0.0094
 3045SOL     OW20596   0.962   1.164   9.003  0.1832 -0.0621 -0.1325
 3045SOL    HW120597   0.947   1.254   9.032  0.3779  0.0768 -0.4584
 3045SOL    HW220598   1.033   1.176   8.940  0.4024  1.5373  0.4096
 3046SOL     OW20599   3.272   3.387   2.536  0.6859  0.0460  0.2314
 3046SOL    HW120600   3.351   3.353   2.577  1.4431 -0.6421 -1.8107
 3046SOL    HW220601   3.287   3.480   2.550 -1.8512  0.6932 -1.2613
 3047SOL     OW20602   2.502   2.625  13.830  0.4187  0.0462 -0.6957
 3047SOL    HW120603   2.457   2.565  13.889  1.1464  1.0281  0.8749
 3047SOL    HW220604   2.429   2.638  13.770  1.0707  0.7631 -1.3329
 3048SOL     OW20605   3.554   2.322   6.129  0.2477  0.4464  0.0504
 3048SOL    HW120606   3.582   2.381   6.059 -1.7949  2.1942  0.6864
 3048SOL    HW220607   3.619   2.253   6.121 -0.0944  0.1753 -0.3765
 3049SOL     OW20608   1.235   3.493  12.968 -0.2792  0.3723 -0.3444
 3049SOL    HW120609   1.269   3.408  12.941  1.1306  0.4680  1.1360
 3049SOL    HW220610   1.303   3.552  12.934  1.2067 -0.5833  0.9941
 3050SOL     OW20611   0.052   4.629  13.543  0.5654 -0.1818 -0.3323
 3050SOL    HW120612   0.007   4.666  13.619 -0.1114  1.1193 -1.3813
 3050SOL    HW220613   0.133   4.679  13.541 -0.6639  1.7820 -0.9505
 3051SOL     OW20614   1.776   2.060  13.227  0.5443 -0.8427  0.2742
 3051SOL    HW120615   1.795   2.148  13.259  0.3272  0.3922 -3.0403
 3051SOL    HW220616   1.744   2.077  13.139  2.7088  2.4011  0.1075
 3052SOL     OW20617   0.025   0.171   5.989 -0.4312  0.3136  0.1247
 3052SOL    HW120618   0.019   0.152   6.083 -0.1315 -1.2232 -0.1690
 3052SOL    HW220619   0.054   0.262   5.984 -0.9041  0.4587  0.0555
 3053SOL     OW20620   3.943   3.325   3.365 -0.1493 -0.5174 -0.2279
 3053SOL    HW120621   3.880   3.270   3.318 -1.7839  1.2994 -0.1540
 3053SOL    HW220622   4.022   3.326   3.310  0.3326  0.4864  0.4941
 3054SOL     OW20623   3.530   1.894  16.701 -0.3373  0.3372  0.4489
 3054SOL    HW120624   3.511   1.984  16.726 -0.2002  0.4274  0.2251
 3054SOL    HW220625   3.446   1.868  16.664  0.9313 -1.5197 -1.1495
 3055SOL     OW20626   4.270   2.915   0.493  0.0600  0.6343  0.0607
 3055SOL    HW120627   4.261   2.821   0.483 -0.7128  0.7249 -0.0945
 3055SOL    HW220628   4.275   2.944   0.401  1.0825 -1.2381 -0.4638
 3056SOL     OW20629   4.428   0.316   0.121 -0.3761  0.5548  0.1930
 3056SOL    HW120630   4.368   0.324   0.195 -1.2920  0.9655 -0.5994
 3056SOL    HW220631   4.426   0.403   0.080  2.6233  0.3812 -0.3534
 3057SOL     OW20632   0.603   2.414   7.426 -0.1076  0.1234 -0.9319
 3057SOL    HW120633   0.546   2.446   7.355  0.8003  1.0823 -1.2212
 3057SOL    HW220634   0.545   2.341   7.451  0.5138  0.5182  1.6458
 3058SOL     OW20635   2.532   2.052   6.751  0.1450 -0.3879  0.3443
 3058SOL    HW120636   2.517   2.030   6.659 -0.8126  1.6657  0.0257
 3058SOL    HW220637   2.599   2.119   6.761  0.1539 -0.0056 -2.2038
 3059SOL     OW20638   2.990   1.943  12.642  0.4297  0.2015 -0.1863
 3059SOL    HW120639   3.074   1.902  12.661  0.1151  0.1017  0.9742
 3059SOL    HW220640   3.014   2.027  12.602  1.8998 -0.5251 -0.8012
 3060SOL     OW20641   3.413   0.072   0.067  1.0171  0.4439 -0.0597
 3060SOL    HW120642   3.341   0.134   0.073  0.3435 -0.3064 -0.4086
 3060SOL    HW220643   3.448   0.091   0.153  1.3608 -0.0464 -0.0914
 3061SOL     OW20644   3.085   3.075  17.197 -0.1733 -0.3558 -0.4125
 3061SOL    HW120645   3.055   3.003  17.141 -3.0741 -0.3484  1.1017
 3061SOL    HW220646   3.006   3.130  17.194 -1.0440 -1.6310 -0.6409
 3062SOL     OW20647   4.069   0.150   5.786 -0.0555  0.5024 -0.7376
 3062SOL    HW120648   4.139   0.129   5.724 -0.2448 -1.0126 -0.4377
 3062SOL    HW220649   4.131   0.147   5.859 -2.1863  0.7429  1.0673
 3063SOL     OW20650   0.816   4.690   2.688 -0.0046  0.1519 -0.2197
 3063SOL    HW120651   0.741   4.654   2.641 -0.1941  0.0757  0.1476
 3063SOL    HW220652   0.774   0.020   2.755 -0.6986 -1.2272  0.4073
 3064SOL     OW20653   0.108   0.772   5.762 -0.0152 -0.1162 -0.5232
 3064SOL    HW120654   0.047   0.745   5.693 -0.4293  0.9318 -0.5642
 3064SOL    HW220655   0.183   0.729   5.720  2.8315  0.6134  3.8600
 3065SOL     OW20656   4.267   0.782   2.840 -1.1205 -0.6197 -0.3698
 3065SOL    HW120657   4.351   0.817   2.868 -2.5747  1.5666  1.2564
 3065SOL    HW220658   4.258   0.841   2.765  2.1900  0.6676  0.2615
 3066SOL     OW20659   3.638   1.518  16.306 -0.2023 -0.1169  0.1600
 3066SOL    HW120660   3.562   1.575  16.318 -0.2950  0.0646 -1.3931
 3066SOL    HW220661   3.690   1.532  16.385 -0.2282 -0.2009  0.1925
 3067SOL     OW20662   4.152   2.421  14.093  0.0114 -0.3895  0.3381
 3067SOL    HW120663   4.123   2.511  14.110 -0.8373 -0.2354 -1.9181
 3067SOL    HW220664   4.246   2.436  14.105 -0.3593  2.0109  0.2871
 3068SOL     OW20665   4.221   1.355   9.720  0.3349 -0.5036  0.4531
 3068SOL    HW120666   4.290   1.415   9.691  0.9929 -1.0817  0.8243
 3068SOL    HW220667   4.269   1.303   9.784  0.2111 -2.3148 -0.9342
 3069SOL     OW20668   1.378   1.615   8.323  0.1324 -0.2654  0.4670
 3069SOL    HW120669   1.367   1.523   8.347 -2.1108 -0.4319 -1.1434
 3069SOL    HW220670   1.386   1.656   8.409  0.7940 -1.5057  0.9854
 3070SOL     OW20671   0.374   1.278   3.118  0.4373  0.1195 -0.8921
 3070SOL    HW120672   0.359   1.212   3.185  1.9854 -0.4096 -1.0600
 3070SOL    HW220673   0.427   1.340   3.169  2.7093 -0.5373 -2.4439
 3071SOL     OW20674   1.327   3.438  13.770  0.2754 -0.9260 -0.2912
 3071SOL    HW120675   1.276   3.514  13.797  1.1979 -0.3886 -0.0633
 3071SOL    HW220676   1.258   3.372  13.758  0.2275 -0.5451 -2.0651
 3072SOL     OW20677   0.652   4.143   2.953  0.0902 -0.6896  0.7280
 3072SOL    HW120678   0.566   4.185   2.957  0.2125 -0.3328 -0.3777
 3072SOL    HW220679   0.705   4.214   2.919  1.8800 -3.4282 -2.2092
 3073SOL     OW20680   4.442   2.198   5.748 -0.8526  0.3147 -0.2661
 3073SOL    HW120681   4.418   2.107   5.766  0.3970  0.1066  0.3671
 3073SOL    HW220682   4.471   2.230   5.834 -3.5547 -0.0531  0.7921
 3074SOL     OW20683   1.412   2.961   0.267 -0.1794  0.4232 -0.1793
 3074SOL    HW120684   1.431   3.006   0.350  0.9381 -0.0004 -0.2092
 3074SOL    HW220685   1.343   2.903   0.299 -0.1076 -1.3272 -3.2806
 3075SOL     OW20686   4.428   3.062  10.026 -0.5608  0.3031 -0.5137
 3075SOL    HW120687   4.482   3.115  10.084 -0.1705 -1.1798  0.4542
 3075SOL    HW220688   4.467   3.101   9.947  2.6996  0.9677  1.4297
 3076SOL     OW20689   0.167   0.469   8.482 -0.0044 -0.2739  0.2873
 3076SOL    HW120690   0.096   0.498   8.540  0.6932  0.2304  0.8851
 3076SOL    HW220691   0.170   0.546   8.426 -0.7282  0.6272  1.4794
 3077SOL     OW20692   1.658   1.351   7.188  0.6071 -0.1163 -0.1530
 3077SOL    HW120693   1.742   1.378   7.150  0.6509 -1.9286 -1.3440
 3077SOL    HW220694   1.691   1.296   7.260  0.5752 -0.2518 -0.2425
 3078SOL     OW20695   0.885   2.312   8.834 -0.6097 -0.4897  0.0950
 3078SOL    HW120696   0.888   2.318   8.929  2.0836  0.2860 -0.0296
 3078SOL    HW220697   0.974   2.279   8.816 -0.1848 -0.0073  1.3221
 3079SOL     OW20698   0.247   1.336   2.360  0.9883  0.3481  0.2584
 3079SOL    HW120699   0.272   1.272   2.427 -2.3610 -2.4519 -1.1282
 3079SOL    HW220700   0.255   1.408   2.421  0.3867 -0.5624  1.4112
 3080SOL     OW20701   4.615   0.569   9.746 -0.5565  0.2519 -0.6584
 3080SOL    HW120702   4.601   0.479   9.717  1.2097 -0.9718  2.2847
 3080SOL    HW220703   4.576   0.614   9.671 -1.3661  0.3084 -0.2029
 3081SOL     OW20704   4.093   1.454   8.011 -0.7104 -0.2984  0.1884
 3081SOL    HW120705   4.121   1.365   8.032 -0.0938 -0.8905 -3.0661
 3081SOL    HW220706   4.170   1.502   8.043  0.0494 -1.4594  0.0828
 3082SOL     OW20707   1.265   3.918   8.829  0.3034 -0.0903  0.0067
 3082SOL    HW120708   1.284   3.828   8.854 -0.2497 -0.9332 -2.6790
 3082SOL    HW220709   1.184   3.930   8.879 -0.3991 -1.2187 -0.8719
 3083SOL     OW20710   1.962   4.613   2.769  0.5468  0.3229  0.1653
 3083SOL    HW120711   1.881   4.655   2.738  0.4571 -0.4797 -0.7144
 3083SOL    HW220712   1.933   4.595   2.859  1.7786  0.8346  0.6588
 3084SOL     OW20713   1.751   1.070   6.717  0.3065 -0.2799  0.8078
 3084SOL    HW120714   1.797   1.154   6.724  4.1661 -2.4046  0.7768
 3084SOL    HW220715   1.666   1.099   6.683  0.2592 -0.5653  0.6851
 3085SOL     OW20716   0.436   0.952   1.051 -0.0438  0.1998  0.5116
 3085SOL    HW120717   0.459   0.862   1.030 -0.1096  0.0625  1.0334
 3085SOL    HW220718   0.396   0.979   0.968  0.9273  1.7760  0.5527
 3086SOL     OW20719   1.024   0.828   7.864  0.1035  0.3210  0.4711
 3086SOL    HW120720   0.967   0.775   7.919 -0.5058 -0.0175 -0.4818
 3086SOL    HW220721   1.002   0.792   7.778 -0.4510 -0.7594  1.0623
 3087SOL     OW20722   0.645   0.170   2.854 -0.0453 -0.0721  0.1219
 3087SOL    HW120723   0.554   0.199   2.843 -0.2983 -0.0808  2.3892
 3087SOL    HW220724   0.676   0.256   2.881  0.2344  0.4606 -1.8854
 3088SOL     OW20725   0.459   3.535   5.465 -0.4389 -0.3825 -0.0258
 3088SOL    HW120726   0.367   3.510   5.457 -0.1133 -1.5430 -0.1911
 3088SOL    HW220727   0.461   3.580   5.550  0.6464 -0.0311 -0.2298
 3089SOL     OW20728   2.351   2.576   8.087 -0.3005  0.2612 -0.0181
 3089SOL    HW120729   2.275   2.573   8.029 -0.7521  2.4583  0.4544
 3089SOL    HW220730   2.354   2.672   8.094 -1.0223  0.2750  0.1135
 3090SOL     OW20731   4.637   3.038   5.428  0.2580 -0.3674  0.7630
 3090SOL    HW120732   4.669   2.948   5.434 -0.5572 -0.7799 -1.0043
 3090SOL    HW220733   4.591   3.045   5.512  3.7710  2.4019  2.4855
 3091SOL     OW20734   3.005   1.343   3.621  0.1838 -0.8862 -0.0643
 3091SOL    HW120735   3.059   1.267   3.599  2.3274  0.8169 -0.6950
 3091SOL    HW220736   3.002   1.380   3.533 -0.2560 -1.1997 -0.1812
 3092SOL     OW20737   2.555   4.047   9.225  0.3607 -0.4327  0.0810
 3092SOL    HW120738   2.526   3.976   9.167  1.2633 -0.6528 -0.1014
 3092SOL    HW220739   2.501   4.022   9.300  0.7807  0.8525  0.8068
 3093SOL     OW20740   1.640   3.790   3.994 -0.1338 -0.9909 -0.0577
 3093SOL    HW120741   1.723   3.799   4.042 -0.2385 -3.2649  0.5243
 3093SOL    HW220742   1.595   3.725   4.049 -0.9545  0.0750  0.5356
 3094SOL     OW20743   2.184   1.788   2.229  0.1341  0.6822 -0.0680
 3094SOL    HW120744   2.131   1.836   2.166 -0.6740 -0.1840 -0.0387
 3094SOL    HW220745   2.153   1.698   2.217 -0.6874  1.0942 -1.0802
 3095SOL     OW20746   1.642   1.905   2.251 -0.3871 -0.1292 -0.2330
 3095SOL    HW120747   1.604   1.990   2.271  0.0324  0.2455 -1.0295
 3095SOL    HW220748   1.729   1.934   2.225  0.2364 -1.3334  0.4974
 3096SOL     OW20749   0.318   0.796   3.887 -0.1468 -0.2769  0.3623
 3096SOL    HW120750   0.303   0.730   3.819 -0.1087  0.7269 -0.6205
 3096SOL    HW220751   0.409   0.819   3.868 -1.5797  3.2662 -2.2995
 3097SOL     OW20752   0.858   1.682   7.188  0.0410  0.1123  0.0267
 3097SOL    HW120753   0.812   1.750   7.237  2.6345  1.4209  0.6504
 3097SOL    HW220754   0.943   1.684   7.232 -0.0313  0.5437  0.1446
 3098SOL     OW20755   4.279   1.466   5.489  0.0126 -0.0609  0.3720
 3098SOL    HW120756   4.315   1.389   5.445  2.2078  1.5739 -0.6732
 3098SOL    HW220757   4.355   1.502   5.534  0.8296 -0.9039 -0.3385
 3099SOL     OW20758   0.029   2.092  17.277  0.1275  0.0260 -0.3824
 3099SOL    HW120759   4.655   2.087  17.270  0.0941  3.0214 -2.2864
 3099SOL    HW220760   0.039   2.158  17.208  0.2010 -0.1969 -0.5856
 3100SOL     OW20761   2.712   1.418   2.776  0.4158  0.1851  0.3695
 3100SOL    HW120762   2.781   1.416   2.710  0.2895  2.0515  0.1944
 3100SOL    HW220763   2.711   1.326   2.803 -1.3227 -0.0494 -0.5152
 3101SOL     OW20764   0.119   0.243   3.736  0.7215  0.3361 -0.2540
 3101SOL    HW120765   0.110   0.148   3.750 -1.6703  0.5866  0.0445
 3101SOL    HW220766   0.159   0.242   3.649  0.0866 -1.5867 -0.5358
 3102SOL     OW20767   3.731   1.288   5.319 -0.1558  0.2368 -0.2836
 3102SOL    HW120768   3.822   1.266   5.339 -0.9012 -0.5870  2.2063
 3102SOL    HW220769   3.720   1.383   5.317  1.0269  0.3212 -2.8335
 3103SOL     OW20770   0.370   3.611   2.200  0.5844  0.3432  0.5795
 3103SOL    HW120771   0.349   3.546   2.267  0.4717  0.3125  0.5131
 3103SOL    HW220772   0.461   3.586   2.188 -0.2274 -1.4624 -1.7504
 3104SOL     OW20773   0.318   4.345  12.249 -0.2480 -0.6976  0.1678
 3104SOL    HW120774   0.302   4.410  12.180  1.2094 -0.4387  0.0912
 3104SOL    HW220775   0.353   4.411  12.309  0.4475 -0.9427  0.0302
 3105SOL     OW20776   3.522   0.844   0.932 -0.0686  0.1180 -0.0292
 3105SOL    HW120777   3.577   0.872   0.859  0.5353  0.8612  0.7012
 3105SOL    HW220778   3.467   0.922   0.918 -0.2595  0.4266  2.3547
 3106SOL     OW20779   3.274   0.354   9.258  0.2525 -0.1832 -0.9253
 3106SOL    HW120780   3.296   0.409   9.183 -1.4372 -1.0128 -2.0258
 3106SOL    HW220781   3.359   0.315   9.279 -0.6153  0.7232  4.4263
 3107SOL     OW20782   1.556   2.587   6.451  0.5017 -0.2014  0.2924
 3107SOL    HW120783   1.590   2.673   6.427  1.5770 -1.1973 -1.7112
 3107SOL    HW220784   1.597   2.542   6.377 -0.3935 -0.2179 -0.1883
 3108SOL     OW20785   3.225   2.183  10.928 -0.6792  0.3907  0.0310
 3108SOL    HW120786   3.201   2.275  10.915 -1.9503  0.1594  0.7480
 3108SOL    HW220787   3.265   2.177  11.014 -0.0891 -0.3401 -0.2930
 3109SOL     OW20788   2.551   2.475   3.601 -0.5384 -0.3808 -0.6386
 3109SOL    HW120789   2.614   2.509   3.537 -1.2252 -1.3889 -1.8526
 3109SOL    HW220790   2.592   2.510   3.680  1.8939 -2.2144 -1.0908
 3110SOL     OW20791   2.188   3.401   9.354  0.6211 -0.0128  0.2175
 3110SOL    HW120792   2.173   3.357   9.438 -2.0986 -1.4801 -1.0395
 3110SOL    HW220793   2.247   3.343   9.306 -0.3994 -0.0038 -1.0650
 3111SOL     OW20794   0.554   1.589   4.720 -0.0492 -0.2928  0.1408
 3111SOL    HW120795   0.488   1.523   4.745 -0.3981 -0.8339 -2.1986
 3111SOL    HW220796   0.496   1.660   4.693  0.9108  0.3916 -0.1112
 3112SOL     OW20797   0.524   3.715   9.964  0.2368 -0.3308  0.2076
 3112SOL    HW120798   0.489   3.649  10.024 -0.7448 -0.1882 -0.2087
 3112SOL    HW220799   0.556   3.777  10.030  0.3879 -1.1909  0.9377
 3113SOL     OW20800   1.685   3.697   5.790  0.0843  0.0517  0.5893
 3113SOL    HW120801   1.767   3.678   5.837  0.3081 -1.8828 -0.5726
 3113SOL    HW220802   1.671   3.628   5.725  0.2449 -1.3722  2.0709
 3114SOL     OW20803   2.776   2.289   3.751  0.4425 -0.2202 -0.4284
 3114SOL    HW120804   2.866   2.307   3.723  0.2149 -0.5529 -1.3653
 3114SOL    HW220805   2.776   2.300   3.846 -0.3395 -1.2226 -0.3169
 3115SOL     OW20806   0.593   0.562   1.189 -0.1886  0.2822 -0.0403
 3115SOL    HW120807   0.629   0.602   1.110 -0.8892 -3.9441 -2.4618
 3115SOL    HW220808   0.665   0.582   1.249 -2.1634 -2.3407  3.2250
 3116SOL     OW20809   2.892   1.796   2.313 -0.9181  0.1759 -0.4586
 3116SOL    HW120810   2.809   1.774   2.355 -0.1858  0.2580  1.0337
 3116SOL    HW220811   2.922   1.708   2.289  0.1941  0.6992 -0.9770
 3117SOL     OW20812   0.637   3.238   9.668  0.1560 -0.2273 -0.2125
 3117SOL    HW120813   0.647   3.310   9.605  0.1995  0.4687  0.5829
 3117SOL    HW220814   0.673   3.169   9.612  2.4436 -0.4583  1.5616
 3118SOL     OW20815   3.709   2.784  13.320  0.4540  0.1574  0.4493
 3118SOL    HW120816   3.801   2.773  13.342  0.1260  0.4092  2.0059
 3118SOL    HW220817   3.672   2.817  13.403  0.8639  0.2125  0.6097
 3119SOL     OW20818   3.090   3.105  13.781 -0.7207 -0.2108 -1.0214
 3119SOL    HW120819   3.062   3.018  13.808  0.6032 -0.2079  0.3512
 3119SOL    HW220820   3.052   3.168  13.843  1.8949 -0.9600  1.3287
 3120SOL     OW20821   1.441   2.471   6.998 -0.9429  0.2318 -0.3281
 3120SOL    HW120822   1.422   2.562   7.020 -0.3698  0.3727 -0.4240
 3120SOL    HW220823   1.449   2.443   7.090 -1.2320 -0.2552 -0.4556
 3121SOL     OW20824   2.330   1.582   2.953  0.0465  0.0416 -0.0636
 3121SOL    HW120825   2.337   1.494   2.914  1.4510 -0.1712  0.6719
 3121SOL    HW220826   2.338   1.568   3.047  2.0093 -0.6090 -0.3188
 3122SOL     OW20827   3.414   2.357   5.606  0.2801  0.2764 -0.3472
 3122SOL    HW120828   3.460   2.426   5.654 -2.7530  1.9855  0.1006
 3122SOL    HW220829   3.350   2.329   5.671  0.4825 -1.7272 -0.9986
 3123SOL     OW20830   4.308   1.259   2.367  0.2051  0.0514 -0.4693
 3123SOL    HW120831   4.255   1.251   2.446  1.6949  0.5893  0.5823
 3123SOL    HW220832   4.260   1.326   2.317 -1.8486 -2.0383 -1.3058
 3124SOL     OW20833   4.283   3.634   6.555  0.0161  0.0591  0.1492
 3124SOL    HW120834   4.192   3.657   6.535  0.4139  1.9526  0.5389
 3124SOL    HW220835   4.327   3.702   6.505 -1.6427  0.6072 -0.5687
 3125SOL     OW20836   2.598   0.484   7.783  0.5099 -0.0290  0.0506
 3125SOL    HW120837   2.574   0.396   7.754 -1.5347  0.3527  0.6129
 3125SOL    HW220838   2.607   0.523   7.696  0.2436 -1.5104 -0.6316
 3126SOL     OW20839   2.574   1.094   6.177 -0.3516 -0.2997 -0.3324
 3126SOL    HW120840   2.539   1.145   6.105  2.4318  0.5936 -1.0491
 3126SOL    HW220841   2.607   1.015   6.134  1.6803  1.5058 -2.1015
 3127SOL     OW20842   1.924   1.010   3.606  0.2977 -0.4183 -0.2740
 3127SOL    HW120843   1.917   1.100   3.575  1.4447 -0.1694  0.1982
 3127SOL    HW220844   1.908   1.024   3.699  0.6043 -0.9250 -0.1495
 3128SOL     OW20845   3.536   4.087   8.423 -0.6845 -0.3950 -0.1005
 3128SOL    HW120846   3.613   4.144   8.422 -1.4578  0.6643  0.1675
 3128SOL    HW220847   3.514   4.070   8.331  1.3477  0.7676 -0.8042
 3129SOL     OW20848   0.508   0.191   3.455  0.6130  0.0836 -0.0105
 3129SOL    HW120849   0.413   0.185   3.448  0.5573 -0.2949  0.9866
 3129SOL    HW220850   0.536   0.213   3.366  0.5297  1.0700  0.2103
 3130SOL     OW20851   3.332   2.239   5.094 -0.1716  0.4622 -0.0807
 3130SOL    HW120852   3.295   2.161   5.135  0.0112  0.8123  0.7443
 3130SOL    HW220853   3.300   2.214   5.008 -1.9925  2.0883  0.1205
 3131SOL     OW20854   3.354   2.158  11.155  0.4646  0.3866  0.5466
 3131SOL    HW120855   3.363   2.149  11.249  2.8188 -1.9538  0.1070
 3131SOL    HW220856   3.413   2.230  11.135 -1.8535  2.7347  2.0683
 3132SOL     OW20857   4.349   2.084   7.337 -0.1125 -0.6136  0.1498
 3132SOL    HW120858   4.388   2.167   7.362 -0.3596 -0.4653  0.0351
 3132SOL    HW220859   4.277   2.078   7.400  0.7673 -4.2042  0.8578
 3133SOL     OW20860   4.116   1.838   1.374  0.4152 -0.1126  0.0605
 3133SOL    HW120861   4.091   1.746   1.384  1.5476 -0.3820  0.3449
 3133SOL    HW220862   4.201   1.821   1.413  0.9108  1.9471 -0.0953
 3134SOL     OW20863   0.160   4.296  14.702  0.5128  0.2663 -0.8075
 3134SOL    HW120864   0.116   4.352  14.638 -0.7173 -0.9651 -1.0609
 3134SOL    HW220865   0.091   4.300  14.769  1.1508 -1.8748 -0.0289
 3135SOL     OW20866   1.680   4.704   8.621  0.1873 -0.3395  0.4431
 3135SOL    HW120867   1.625   0.013   8.692 -0.5745  0.3202 -0.4281
 3135SOL    HW220868   1.735   4.638   8.662  1.8775  0.7061 -0.1360
 3136SOL     OW20869   1.776   0.132   7.681 -0.4107  0.9532 -0.0308
 3136SOL    HW120870   1.785   0.171   7.768  1.0651  0.0543  0.2164
 3136SOL    HW220871   1.681   0.126   7.669 -0.1168  1.2041 -2.4672
 3137SOL     OW20872   2.419   4.573   5.270  0.7771  0.1497 -0.3965
 3137SOL    HW120873   2.452   4.628   5.342 -0.2456 -1.3934  1.2480
 3137SOL    HW220874   2.325   4.589   5.277  0.9454  1.5168 -1.1270
 3138SOL     OW20875   3.250   3.552   8.472  0.4033 -0.3861 -0.3698
 3138SOL    HW120876   3.293   3.577   8.554 -0.9930  0.2262  0.1824
 3138SOL    HW220877   3.211   3.634   8.443  0.5174 -0.6219 -1.1950
 3139SOL     OW20878   3.381   2.751   4.591 -0.8483 -0.4167  0.6780
 3139SOL    HW120879   3.443   2.822   4.611  0.6574 -1.3392 -0.7320
 3139SOL    HW220880   3.325   2.753   4.669 -1.5490  0.2606  0.1555
 3140SOL     OW20881   1.348   0.777  14.324 -0.1247 -0.3661  0.1756
 3140SOL    HW120882   1.378   0.813  14.407  1.2985 -2.8122  0.7231
 3140SOL    HW220883   1.261   0.812  14.304  0.8451  0.9140 -1.7705
 3141SOL     OW20884   3.328   0.759   8.124  0.0042 -0.4041  0.0004
 3141SOL    HW120885   3.364   0.817   8.058  1.6267 -2.5833 -1.0206
 3141SOL    HW220886   3.351   0.676   8.083  0.7865 -0.3573  0.3441
 3142SOL     OW20887   3.274   2.662   4.022  0.2187 -0.5858 -0.4053
 3142SOL    HW120888   3.203   2.600   4.010 -0.0473 -0.3419 -0.0947
 3142SOL    HW220889   3.309   2.617   4.099 -1.3375  0.9067  1.1635
 3143SOL     OW20890   0.331   0.295   6.579 -0.4005  0.3078  0.3230
 3143SOL    HW120891   0.342   0.232   6.651 -0.1318 -0.6270 -0.5244
 3143SOL    HW220892   0.411   0.347   6.581  0.3940 -0.9619  1.8805
 3144SOL     OW20893   3.819   1.768   3.899  0.9471  0.1907  0.6307
 3144SOL    HW120894   3.890   1.736   3.955 -0.4532 -2.3928  0.9517
 3144SOL    HW220895   3.797   1.697   3.838  2.5757 -0.9551  1.3619
 3145SOL     OW20896   2.280   2.400   1.484 -0.0131  0.1282  0.0668
 3145SOL    HW120897   2.215   2.426   1.419  1.2498 -1.0791 -1.6565
 3145SOL    HW220898   2.274   2.305   1.472  0.6586  0.0730  0.1438
 3146SOL     OW20899   1.137   2.755   6.845 -0.4038  0.7179 -0.0913
 3146SOL    HW120900   1.081   2.736   6.770 -0.8894 -1.2776  0.7991
 3146SOL    HW220901   1.111   2.846   6.863 -0.7965  0.4934  0.4736
 3147SOL     OW20902   1.779   1.497   5.594  0.2567 -0.3786 -0.1166
 3147SOL    HW120903   1.746   1.462   5.511 -1.4823  3.1009 -0.8538
 3147SOL    HW220904   1.711   1.554   5.629 -0.3799 -0.9899 -0.3494
 3148SOL     OW20905   2.175   4.021   9.577  0.1361  0.0636  0.7528
 3148SOL    HW120906   2.244   4.086   9.559  2.5976 -2.3466  1.5610
 3148SOL    HW220907   2.153   4.056   9.663 -0.6222  0.3930  0.4259
 3149SOL     OW20908   2.778   1.331   4.897  0.4595 -0.2909 -0.1493
 3149SOL    HW120909   2.714   1.348   4.966 -0.8265 -1.0736 -1.1528
 3149SOL    HW220910   2.781   1.421   4.864  0.1049 -0.2419 -0.0462
 3150SOL     OW20911   2.244   2.733   7.008  0.3048  0.0167 -0.3125
 3150SOL    HW120912   2.281   2.821   7.014 -0.9874  0.4281  1.6381
 3150SOL    HW220913   2.164   2.750   7.058 -0.0516 -0.6618 -0.6500
 3151SOL     OW20914   4.357   3.437  10.701  0.0209 -0.6818  0.8854
 3151SOL    HW120915   4.380   3.520  10.659 -1.0038 -1.3439 -1.0192
 3151SOL    HW220916   4.361   3.470  10.790 -0.1894 -1.2298  1.0959
 3152SOL     OW20917   4.307   0.939   7.569  0.5645  0.0760 -0.5178
 3152SOL    HW120918   4.227   0.939   7.623  0.7731  0.4562 -0.2112
 3152SOL    HW220919   4.354   0.867   7.610 -1.1051 -0.0864  1.1320
 3153SOL     OW20920   3.540   2.114   7.471 -0.3549  0.1146  0.6283
 3153SOL    HW120921   3.531   2.026   7.434  0.8690  2.0671 -4.2903
 3153SOL    HW220922   3.473   2.161   7.421 -0.9175 -0.7702  0.5459
 3154SOL     OW20923   3.152   3.698   1.945  0.3986 -0.0244 -0.3194
 3154SOL    HW120924   3.131   3.654   2.028  0.4758  0.1499 -0.2092
 3154SOL    HW220925   3.245   3.679   1.936  0.6612  1.7927 -1.3433
 3155SOL     OW20926   3.361   3.801   2.358 -0.3254 -0.7430  0.5814
 3155SOL    HW120927   3.317   3.885   2.349 -2.3434 -2.0182 -1.5417
 3155SOL    HW220928   3.451   3.827   2.376 -1.8770  3.9646  1.5370
 3156SOL     OW20929   2.216   2.293   4.042  0.1233  0.0020  0.6756
 3156SOL    HW120930   2.289   2.354   4.055  1.0114 -0.8330 -0.3534
 3156SOL    HW220931   2.142   2.352   4.029  1.5235  1.8369  1.1138
 3157SOL     OW20932   1.091   1.538  12.801  0.1469 -0.5604  0.1531
 3157SOL    HW120933   1.164   1.479  12.782  1.4792  0.9307  0.6448
 3157SOL    HW220934   1.144   1.616  12.818  0.8145 -1.1232  0.6685
 3158SOL     OW20935   3.275   4.583  12.954  0.5848  0.3070  0.0406
 3158SOL    HW120936   3.245   4.618  12.871 -1.1120  0.7891  0.8600
 3158SOL    HW220937   3.352   4.533  12.928  1.4936  1.4560  0.4814
 3159SOL     OW20938   4.017   4.451   9.618 -0.4586 -0.2307 -0.2145
 3159SOL    HW120939   4.107   4.451   9.587 -0.2433 -2.8089  0.3690
 3159SOL    HW220940   4.001   4.536   9.660 -0.0535 -0.3565  0.2054
 3160SOL     OW20941   3.837   2.376   5.850  0.0303  0.1400  0.1906
 3160SOL    HW120942   3.815   2.283   5.852  1.0233 -0.0831  0.9962
 3160SOL    HW220943   3.906   2.374   5.783 -0.3122  0.3342 -0.1657
 3161SOL     OW20944   0.700   0.383   3.560  0.4016 -0.2938  0.5227
 3161SOL    HW120945   0.630   0.342   3.509 -0.2723  1.8290 -0.2734
 3161SOL    HW220946   0.753   0.306   3.581  0.4987 -0.7212 -1.2906
 3162SOL     OW20947   2.342   4.133  17.525 -0.5280  1.1406  0.0976
 3162SOL    HW120948   2.399   4.077  17.577 -1.5732  0.1359  0.1506
 3162SOL    HW220949   2.402   4.165  17.458 -1.7744  3.6001  0.1271
 3163SOL     OW20950   3.884   1.114   8.105  0.4692 -0.5565  0.0945
 3163SOL    HW120951   3.853   1.129   8.194  0.2446  2.1676 -0.4346
 3163SOL    HW220952   3.978   1.108   8.118  0.3624  0.8830  1.5692
 3164SOL     OW20953   3.861   4.603   6.806 -0.2023  0.3014  0.3571
 3164SOL    HW120954   3.845   4.666   6.735 -1.2340  1.1526  1.3592
 3164SOL    HW220955   3.906   4.667   6.861 -1.9029  0.7854  1.1646
 3165SOL     OW20956   1.864   1.744   6.390 -0.4426  0.2420  0.2157
 3165SOL    HW120957   1.910   1.666   6.358 -0.8528 -0.2466  0.8122
 3165SOL    HW220958   1.942   1.769   6.439  0.3716  0.6899 -1.3183
 3166SOL     OW20959   1.576   0.386   7.736 -0.1898  0.5343  0.0480
 3166SOL    HW120960   1.570   0.293   7.757 -0.4230  0.4711 -0.2987
 3166SOL    HW220961   1.489   0.424   7.720 -1.0825 -1.7675 -0.5309
 3167SOL     OW20962   3.399   2.705   8.217 -0.1356  0.2729  0.3207
 3167SOL    HW120963   3.409   2.774   8.283 -1.8877  0.6887  0.1318
 3167SOL    HW220964   3.310   2.720   8.187  0.2959  0.1385 -1.0029
 3168SOL     OW20965   1.825   2.669   5.160 -0.4991  0.3059 -0.4667
 3168SOL    HW120966   1.821   2.764   5.145  1.0831  0.8443  2.4921
 3168SOL    HW220967   1.730   2.657   5.172 -0.0128 -3.3826 -0.3015
 3169SOL     OW20968   2.145   4.422   6.616  0.1372  0.1059 -0.3958
 3169SOL    HW120969   2.200   4.468   6.680  1.2026 -1.9420  0.1578
 3169SOL    HW220970   2.209   4.407   6.546 -0.2667  0.3162 -0.8152
 3170SOL     OW20971   0.241   0.678  11.949  0.0816 -0.3829  0.7275
 3170SOL    HW120972   0.245   0.629  12.031 -2.0497  0.0356  1.1004
 3170SOL    HW220973   0.288   0.758  11.973  0.1829 -0.7751  1.8479
 3171SOL     OW20974   3.487   1.266  11.962  0.4621 -0.0258  0.5656
 3171SOL    HW120975   3.545   1.316  11.904 -0.7847  1.3504  0.5012
 3171SOL    HW220976   3.403   1.273  11.916  1.4585 -1.5235 -1.5233
 3172SOL     OW20977   2.844   0.142   3.602  0.5568 -0.0541 -0.3082
 3172SOL    HW120978   2.868   0.220   3.553  2.1293 -0.2029  0.2060
 3172SOL    HW220979   2.881   0.076   3.544  0.5508 -0.2337 -0.1073
 3173SOL     OW20980   4.085   0.705   8.702  0.0539 -0.0801 -0.1137
 3173SOL    HW120981   4.095   0.778   8.763 -0.5257  0.0827 -0.2171
 3173SOL    HW220982   4.038   0.745   8.629  0.7599  0.6563 -0.1614
 3174SOL     OW20983   0.298   4.243   9.690  0.3275 -0.3964  0.4789
 3174SOL    HW120984   0.361   4.238   9.762  2.1566 -0.4566 -1.1165
 3174SOL    HW220985   0.358   4.293   9.634 -1.3721  1.2296  0.1131
 3175SOL     OW20986   0.948   1.309  12.581  0.3277  0.0043 -0.1036
 3175SOL    HW120987   0.956   1.341  12.491  0.4314 -1.0735 -0.4817
 3175SOL    HW220988   0.989   1.222  12.574  0.0067 -0.0365 -1.5616
 3176SOL     OW20989   2.309   2.907   4.884  0.5729  0.7269 -0.1840
 3176SOL    HW120990   2.370   2.836   4.864  0.9703  0.8572  0.5767
 3176SOL    HW220991   2.258   2.855   4.947 -0.3053  0.3541 -1.1932
 3177SOL     OW20992   3.269   3.571   8.093 -0.3719 -0.5620 -0.1433
 3177SOL    HW120993   3.335   3.552   8.026 -0.3982  1.4886 -0.7461
 3177SOL    HW220994   3.286   3.505   8.160 -1.6768 -0.9716 -0.2041
 3178SOL     OW20995   1.039   2.861   4.453  0.3708  0.5070 -0.2210
 3178SOL    HW120996   1.119   2.912   4.452  0.0578  0.9885 -1.1963
 3178SOL    HW220997   1.018   2.860   4.359 -0.0137  2.5798 -0.1649
 3179SOL     OW20998   0.548   2.706   6.760  0.2149 -0.6782 -0.3064
 3179SOL    HW120999   0.549   2.723   6.855  1.3225 -1.5808 -0.1562
 3179SOL    HW221000   0.494   2.626   6.762  0.0803 -0.5575  0.8552
 3180SOL     OW21001   1.664   2.890   2.601 -0.6228  1.0559  0.1109
 3180SOL    HW121002   1.668   2.970   2.652 -0.1510  0.6018  0.7870
 3180SOL    HW221003   1.588   2.899   2.543  0.3922 -0.3888 -1.4598
 3181SOL     OW21004   4.266   3.481   8.645  0.3762 -0.2551  0.1244
 3181SOL    HW121005   4.209   3.417   8.603  1.1981  0.4060 -2.0126
 3181SOL    HW221006   4.347   3.470   8.596 -0.4664  1.0828 -1.5559
 3182SOL     OW21007   2.685   0.658   4.269 -0.0134 -0.0940  0.3831
 3182SOL    HW121008   2.730   0.677   4.187  0.8255 -3.0709  0.1358
 3182SOL    HW221009   2.735   0.593   4.320  0.3503  0.3881  0.6340
 3183SOL     OW21010   2.115   0.922   4.767  0.2243 -0.3854 -0.4678
 3183SOL    HW121011   2.203   0.937   4.733  0.9069 -2.6991  0.2900
 3183SOL    HW221012   2.080   0.875   4.692 -0.5158  1.0076 -0.9923
 3184SOL     OW21013   3.910   0.587   1.949 -0.3838  0.0222 -0.4867
 3184SOL    HW121014   3.994   0.551   1.979 -1.6032  0.4947  3.5274
 3184SOL    HW221015   3.936   0.678   1.932 -2.2382  0.7736  0.6404
 3185SOL     OW21016   2.993   2.283  12.669 -0.1464  0.0817  0.8387
 3185SOL    HW121017   2.958   2.291  12.758  1.9414  0.9206  1.5928
 3185SOL    HW221018   3.072   2.336  12.663  1.1282 -1.6489  2.2593
 3186SOL     OW21019   2.901   1.727  15.644  0.3732 -0.1777  0.1161
 3186SOL    HW121020   2.848   1.716  15.565 -2.1825  0.9147  1.6599
 3186SOL    HW221021   2.890   1.821  15.662  0.1910 -0.5606  1.9955
 3187SOL     OW21022   2.758   0.356   4.205  0.2511  0.0227 -0.2527
 3187SOL    HW121023   2.777   0.268   4.172 -0.2472 -0.1117 -0.1901
 3187SOL    HW221024   2.673   0.340   4.247  0.8051  2.0962  1.6637
 3188SOL     OW21025   3.981   0.042  12.388 -0.0820  0.3945 -0.2136
 3188SOL    HW121026   4.018   0.058  12.301 -0.0304 -0.2241 -0.3010
 3188SOL    HW221027   3.986   4.669  12.385 -2.8319  0.2157  1.2844
 3189SOL     OW21028   4.261   1.318  16.498 -0.5926 -0.5077 -0.0443
 3189SOL    HW121029   4.194   1.308  16.431 -1.2452  0.5582  0.4562
 3189SOL    HW221030   4.216   1.306  16.581 -0.1977  0.3306  0.2889
 3190SOL     OW21031   1.238   1.981   8.099  0.9105  0.5231  0.1623
 3190SOL    HW121032   1.299   1.908   8.104  0.0847 -0.0338  2.1643
 3190SOL    HW221033   1.242   2.000   8.005 -1.4885 -0.9797 -0.2400
 3191SOL     OW21034   0.104   2.463   5.896 -0.6987  0.0096  0.1458
 3191SOL    HW121035   0.009   2.452   5.890 -0.6794  0.7490 -1.6259
 3191SOL    HW221036   0.112   2.543   5.948  0.8416  0.6825 -1.1085
 3192SOL     OW21037   2.143   1.714  13.224 -0.2227 -0.1622  0.4276
 3192SOL    HW121038   2.172   1.639  13.276  0.1655 -0.0524  0.3636
 3192SOL    HW221039   2.159   1.785  13.285  0.4573  0.6485 -0.7016
 3193SOL     OW21040   3.665   0.122   2.341  0.0505 -0.3888  0.0121
 3193SOL    HW121041   3.711   0.086   2.265 -0.4747 -0.4042 -0.2993
 3193SOL    HW221042   3.576   0.122   2.306 -0.4901  0.9620  1.3828
 3194SOL     OW21043   3.744   4.149  15.560  0.2385 -0.1298 -0.2927
 3194SOL    HW121044   3.709   4.237  15.566  2.4588  0.6871  0.4949
 3194SOL    HW221045   3.676   4.107  15.507 -0.7613  1.3164 -0.1520
 3195SOL     OW21046   3.116   2.129   4.026  0.7682  0.2722 -0.4441
 3195SOL    HW121047   3.045   2.124   4.090  0.3705  0.1763 -0.8892
 3195SOL    HW221048   3.180   2.068   4.063  0.8783  0.5674 -0.1511
 3196SOL     OW21049   2.973   1.256   3.881 -0.1705 -0.6891  0.2584
 3196SOL    HW121050   2.879   1.256   3.898  0.2370  0.9077  2.4138
 3196SOL    HW221051   2.986   1.283   3.790 -1.4787  1.9033  0.8387
 3197SOL     OW21052   1.868   2.471  11.434  0.2071 -0.6557  0.4376
 3197SOL    HW121053   1.902   2.476  11.345 -1.2409 -1.2220 -0.1397
 3197SOL    HW221054   1.788   2.419  11.421  0.5733 -0.7696 -1.3354
 3198SOL     OW21055   0.950   2.061   2.411 -0.1315 -0.3801 -0.5516
 3198SOL    HW121056   0.881   2.127   2.408 -1.2798 -1.5623 -0.4015
 3198SOL    HW221057   0.965   2.013   2.329 -1.7879 -1.7996 -0.0384
 3199SOL     OW21058   0.014   3.939   9.648 -0.1645  0.5656 -0.0136
 3199SOL    HW121059   0.108   3.941   9.627 -0.3358 -0.7979 -0.8989
 3199SOL    HW221060   4.714   4.029   9.621  0.7917  0.9103  0.3439
 3200SOL     OW21061   0.735   1.167   5.408  0.4794 -0.2159 -0.4147
 3200SOL    HW121062   0.797   1.167   5.336  1.8099  3.5099  0.7207
 3200SOL    HW221063   0.796   1.157   5.481  1.0935  0.5511 -0.8254
 3201SOL     OW21064   2.174   4.637  16.165  0.8251 -0.2732 -0.1064
 3201SOL    HW121065   2.266   4.648  16.139  0.1338  0.4073 -2.2461
 3201SOL    HW221066   2.163   4.548  16.198 -0.7442 -0.1093 -0.2076
 3202SOL     OW21067   1.953   2.185   5.223  0.3972 -0.2424  0.2019
 3202SOL    HW121068   1.972   2.162   5.314 -3.8529  1.4593  1.4923
 3202SOL    HW221069   1.985   2.276   5.227 -1.8379  0.4663  1.7270
 3203SOL     OW21070   0.497   2.149   4.815 -0.3363 -0.4643 -0.2008
 3203SOL    HW121071   0.564   2.135   4.882 -2.2644  1.1494  2.0972
 3203SOL    HW221072   0.494   2.060   4.781  0.0062 -0.6496  0.2484
 3204SOL     OW21073   4.562   0.641  10.003  0.1174 -0.1732 -0.4421
 3204SOL    HW121074   4.615   0.620   9.926 -0.0199 -0.6369 -0.4157
 3204SOL    HW221075   4.479   0.673   9.966  0.7299 -0.1418 -1.7958
 3205SOL     OW21076   0.740   4.417  13.848 -0.3042  0.0829  0.0849
 3205SOL    HW121077   0.761   4.329  13.816 -1.6600 -0.0092 -0.5632
 3205SOL    HW221078   0.652   4.427  13.811 -0.1468  0.2064 -0.2583
 3206SOL     OW21079   3.855   1.596   5.148 -0.5042  0.0351 -0.2646
 3206SOL    HW121080   3.931   1.598   5.208  0.6975  1.9298 -1.8575
 3206SOL    HW221081   3.783   1.609   5.209  0.7673  0.8238  1.0959
 3207SOL     OW21082   1.133   3.833   9.836  0.3266  0.4082 -0.5941
 3207SOL    HW121083   1.174   3.894   9.774 -1.5808 -0.6152 -2.8598
 3207SOL    HW221084   1.161   3.871   9.919 -1.2050  1.2095 -0.4306
 3208SOL     OW21085   4.424   3.300   9.793  0.8031 -0.5139  0.2071
 3208SOL    HW121086   4.384   3.280   9.708  0.1318 -0.1096  0.4264
 3208SOL    HW221087   4.355   3.322   9.856 -1.1530 -0.8526 -1.8214
 3209SOL     OW21088   0.503   3.836   6.330  0.0849 -0.1495 -0.0254
 3209SOL    HW121089   0.557   3.865   6.404  0.6600 -1.3825  0.0345
 3209SOL    HW221090   0.441   3.908   6.335 -0.9390 -1.0430  0.0068
 3210SOL     OW21091   1.954   2.533   8.598 -0.1472 -0.3713  0.7540
 3210SOL    HW121092   1.861   2.545   8.583 -0.2300  2.2377  3.4224
 3210SOL    HW221093   1.958   2.438   8.596 -3.1448 -0.4246 -2.3045
 3211SOL     OW21094   4.050   4.141  15.572 -0.4363 -0.0676 -0.4228
 3211SOL    HW121095   4.053   4.218  15.516 -1.4890 -0.7528 -1.4124
 3211SOL    HW221096   3.958   4.113  15.572 -1.0390  1.9467 -0.9968
 3212SOL     OW21097   1.640   2.317   0.163 -0.1494  0.0864  0.3343
 3212SOL    HW121098   1.584   2.276   0.229 -0.6176  2.0083  1.1380
 3212SOL    HW221099   1.721   2.335   0.210 -0.4993 -2.5384  1.9164
 3213SOL     OW21100   0.833   4.411  11.327 -0.4754 -0.3925 -0.4876
 3213SOL    HW121101   0.902   4.347  11.341 -0.6963 -1.3217 -3.5736
 3213SOL    HW221102   0.865   4.463  11.253 -1.0030 -0.9500 -1.1125
 3214SOL     OW21103   4.023   1.472   7.759 -0.3071 -0.5906  0.5172
 3214SOL    HW121104   4.107   1.510   7.733 -0.1800  0.2395  2.1385
 3214SOL    HW221105   4.021   1.496   7.852 -0.4170  1.3564  0.0278
 3215SOL     OW21106   2.424   0.243   1.575 -0.2955 -1.0383  0.5538
 3215SOL    HW121107   2.367   0.169   1.552 -1.6833  0.3965 -0.6638
 3215SOL    HW221108   2.504   0.216   1.530 -0.2563  0.0660 -0.0360
 3216SOL     OW21109   3.249   0.736   5.828  0.0085 -0.0489 -0.1129
 3216SOL    HW121110   3.338   0.703   5.817  0.2286  0.0191  1.4489
 3216SOL    HW221111   3.244   0.783   5.744 -0.5848  1.2357  0.6457
 3217SOL     OW21112   2.043   3.284   1.456 -0.4800 -0.2054 -0.6021
 3217SOL    HW121113   2.130   3.259   1.486 -0.6834 -1.1185 -0.7787
 3217SOL    HW221114   2.020   3.358   1.513 -1.2127 -2.0720  1.4839
 3218SOL     OW21115   3.316   1.058   9.247 -0.0653 -0.1568 -0.1939
 3218SOL    HW121116   3.228   1.086   9.274  0.2325 -1.4548  2.1827
 3218SOL    HW221117   3.368   1.138   9.245  2.0310 -1.5304 -0.2637
 3219SOL     OW21118   2.869   3.109   2.336 -0.6792 -0.6868  0.3227
 3219SOL    HW121119   2.957   3.146   2.333 -0.5657 -0.9767  0.0382
 3219SOL    HW221120   2.865   3.098   2.241 -0.9909  0.2630  0.2228
 3220SOL     OW21121   2.253   2.639   3.902  0.6006 -0.1308 -0.3271
 3220SOL    HW121122   2.212   2.701   3.840  0.8117  3.1054  2.7557
 3220SOL    HW221123   2.282   2.570   3.843 -2.7981 -0.1124 -2.0570
 3221SOL     OW21124   1.985   0.877  12.432  0.3866 -0.0692  0.0557
 3221SOL    HW121125   2.068   0.921  12.451  1.3126 -1.8820  0.2517
 3221SOL    HW221126   1.929   0.937  12.481  0.7007 -0.1879  0.5651
 3222SOL     OW21127   2.596   0.870   6.736  0.1929 -0.2683 -0.2660
 3222SOL    HW121128   2.527   0.819   6.777  2.5627 -1.3827  2.3110
 3222SOL    HW221129   2.537   0.936   6.699 -0.7207 -1.5430 -1.0967
 3223SOL     OW21130   2.571   0.639  16.325 -0.0379 -0.8423  0.1763
 3223SOL    HW121131   2.493   0.637  16.381  0.4023  0.0448  0.8187
 3223SOL    HW221132   2.642   0.665  16.384 -1.5730  0.3352  1.4842
 3224SOL     OW21133   0.841   2.800   1.830 -0.1481 -0.5092  0.1695
 3224SOL    HW121134   0.903   2.801   1.903  2.4779 -2.6500 -2.0355
 3224SOL    HW221135   0.755   2.806   1.873 -0.9230  0.7696 -1.5766
 3225SOL     OW21136   0.089   4.005   5.047 -0.2584 -0.4346  0.2196
 3225SOL    HW121137   0.097   3.911   5.062  1.6715 -0.1335  1.0874
 3225SOL    HW221138   0.098   4.012   4.952 -0.6992 -2.0387  0.0659
 3226SOL     OW21139   3.749   0.406  16.957 -0.5029 -0.1478  0.5897
 3226SOL    HW121140   3.736   0.445  16.871 -0.4568  0.5756  0.9081
 3226SOL    HW221141   3.667   0.424  17.003  0.2470 -0.4941  2.0754
 3227SOL     OW21142   3.381   2.515   1.905  0.4308  0.1441 -0.3017
 3227SOL    HW121143   3.432   2.547   1.830  0.0882  1.1732 -0.0980
 3227SOL    HW221144   3.300   2.561   1.881  0.8657 -0.5723 -3.1902
 3228SOL     OW21145   2.267   2.982   5.734 -0.4818  0.2636 -0.5912
 3228SOL    HW121146   2.259   2.984   5.639  1.4456 -1.7889 -0.7977
 3228SOL    HW221147   2.359   2.958   5.732 -1.0804 -1.9321 -1.9207
 3229SOL     OW21148   1.517   0.820   0.053 -0.0804 -0.3321 -0.5586
 3229SOL    HW121149   1.473   0.765   0.118 -1.6506  0.4261 -0.9880
 3229SOL    HW221150   1.604   0.825   0.091 -0.5062 -0.7229  0.4697
 3230SOL     OW21151   0.788   1.437   6.539  0.2656 -0.5999  0.2834
 3230SOL    HW121152   0.744   1.522   6.539  0.7352 -0.3678  1.6953
 3230SOL    HW221153   0.805   1.428   6.633 -0.4675 -0.7353  0.4040
 3231SOL     OW21154   2.361   2.368   8.684  0.6020 -0.3319  0.0337
 3231SOL    HW121155   2.347   2.458   8.716 -1.4815 -0.3949 -0.6879
 3231SOL    HW221156   2.419   2.330   8.749  2.1370  0.6017 -0.7877
 3232SOL     OW21157   3.778   3.346   4.729  0.0576  0.5896  0.0357
 3232SOL    HW121158   3.793   3.261   4.770 -1.2638 -1.5885 -4.0227
 3232SOL    HW221159   3.870   3.356   4.704 -0.3554  0.5337 -1.5105
 3233SOL     OW21160   4.501   1.524   7.236 -0.3184 -0.1607 -0.4123
 3233SOL    HW121161   4.427   1.566   7.193 -0.2831 -1.1964 -1.4552
 3233SOL    HW221162   4.574   1.546   7.179 -0.8534  1.3732 -0.5113
 3234SOL     OW21163   0.024   1.129   4.287 -0.2559  0.0985  0.0714
 3234SOL    HW121164   4.678   1.075   4.327 -0.4114  2.8643  3.5017
 3234SOL    HW221165   0.010   1.094   4.199  0.3313 -0.3752  0.1698
 3235SOL     OW21166   1.514   1.900   5.235  0.5655 -0.0730  0.2041
 3235SOL    HW121167   1.435   1.900   5.181 -0.4083  3.0316  1.6832
 3235SOL    HW221168   1.516   1.990   5.267  1.4463  0.0197 -0.1119
 3236SOL     OW21169   2.561   1.835   4.642 -0.0406  0.0041 -0.3754
 3236SOL    HW121170   2.562   1.740   4.628 -2.6003 -0.0602 -0.0937
 3236SOL    HW221171   2.503   1.847   4.717  1.6993  0.1280  0.9401
 3237SOL     OW21172   2.455   1.490  13.116 -0.4061 -0.3629 -0.3971
 3237SOL    HW121173   2.368   1.449  13.118  0.7420 -2.7841  0.6837
 3237SOL    HW221174   2.426   1.570  13.072 -3.7815 -0.9389  0.7228
 3238SOL     OW21175   3.627   0.390   6.190  0.0167 -0.3866 -0.6034
 3238SOL    HW121176   3.550   0.415   6.241 -1.3453  0.2761 -2.9933
 3238SOL    HW221177   3.636   0.299   6.216  2.3434  0.6302  2.2202
 3239SOL     OW21178   3.590   1.464   8.897 -0.4170 -0.1601  0.3084
 3239SOL    HW121179   3.584   1.404   8.823 -2.2383 -2.3038  2.1974
 3239SOL    HW221180   3.506   1.509   8.892 -0.0469  0.6126  1.0575
 3240SOL     OW21181   3.108   0.429   1.496 -0.8109 -0.0176 -0.4092
 3240SOL    HW121182   3.115   0.423   1.401 -1.7196 -0.4193 -0.4466
 3240SOL    HW221183   3.083   0.522   1.501 -1.3987 -0.2505  0.9186
 3241SOL     OW21184   2.646   4.559  10.509  0.4918 -0.2076  0.8472
 3241SOL    HW121185   2.637   4.632  10.570  0.4429  1.3591 -1.0652
 3241SOL    HW221186   2.729   4.529  10.546  1.0824 -0.6708 -0.8876
 3242SOL     OW21187   1.909   2.674   3.887 -0.1163 -0.4094 -0.0307
 3242SOL    HW121188   1.913   2.712   3.975  1.3129 -0.2361 -0.1741
 3242SOL    HW221189   1.849   2.724   3.832 -1.3754 -2.7656 -0.7917
 3243SOL     OW21190   3.161   1.006   7.032  0.7116 -0.1057 -0.7194
 3243SOL    HW121191   3.242   1.053   7.013  0.8782 -0.0419  0.1602
 3243SOL    HW221192   3.107   1.085   7.045 -0.5055 -1.2317  1.2000
 3244SOL     OW21193   2.428   0.949   1.045  0.0451  0.5254 -0.4419
 3244SOL    HW121194   2.408   1.015   0.978 -0.9247  2.1936  1.4844
 3244SOL    HW221195   2.463   1.005   1.115 -0.4774 -0.3769  0.5362
 3245SOL     OW21196   4.627   0.443   6.427  0.4031 -0.1303 -0.5003
 3245SOL    HW121197   4.556   0.381   6.447  0.9367  0.1172  2.2014
 3245SOL    HW221198   4.656   0.465   6.516  0.1560  0.1828 -0.4976
 3246SOL     OW21199   4.171   0.969  10.969 -0.0898 -0.1657 -0.2115
 3246SOL    HW121200   4.109   1.021  11.019 -1.4757 -1.5309 -0.5036
 3246SOL    HW221201   4.243   0.943  11.026  1.2223 -0.9656 -2.2065
 3247SOL     OW21202   1.313   0.667  12.673  0.4165 -0.3464  0.7826
 3247SOL    HW121203   1.379   0.711  12.619 -0.0011 -0.5977  0.0646
 3247SOL    HW221204   1.366   0.598  12.712  1.0538 -0.1340  0.2984
 3248SOL     OW21205   4.594   4.317   4.121  0.3874  1.0066  0.0503
 3248SOL    HW121206   4.512   4.310   4.169  0.3785  0.7594 -0.0003
 3248SOL    HW221207   4.575   4.274   4.038  0.0631  0.0696  0.6164
 3249SOL     OW21208   4.226   0.338   9.064  0.3208  0.7097  0.7286
 3249SOL    HW121209   4.231   0.363   9.157 -2.6467  0.3281  0.9726
 3249SOL    HW221210   4.197   0.423   9.030 -1.7850  0.2539  1.3847
 3250SOL     OW21211   2.779   1.579   4.775  0.0603 -0.3059 -0.4817
 3250SOL    HW121212   2.863   1.575   4.729  1.2374  2.5419  1.4482
 3250SOL    HW221213   2.722   1.566   4.700 -1.2457 -1.3787  0.7163
 3251SOL     OW21214   1.810   4.279   8.507  0.1762  0.2674 -0.6982
 3251SOL    HW121215   1.746   4.246   8.444 -1.9686  0.3382  1.4361
 3251SOL    HW221216   1.821   4.209   8.572  0.7336  0.9939 -0.0068
 3252SOL     OW21217   2.372   4.514  10.414 -0.0779 -0.0483 -0.5704
 3252SOL    HW121218   2.461   4.528  10.449 -0.4201 -0.7871  0.5975
 3252SOL    HW221219   2.361   4.419  10.416  1.4008 -0.2275 -0.3278
 3253SOL     OW21220   2.535   0.428   7.285  0.3651  0.0838 -0.5339
 3253SOL    HW121221   2.537   0.524   7.282  1.6795  0.0472 -0.6217
 3253SOL    HW221222   2.486   0.424   7.367  0.2078  0.1481 -0.6240
 3254SOL     OW21223   0.912   0.804  14.032 -0.4455 -0.0849 -0.1581
 3254SOL    HW121224   0.953   0.789  13.947 -0.9769 -0.6310 -0.3261
 3254SOL    HW221225   0.829   0.839  13.999 -0.6148 -0.2862  0.0470
 3255SOL     OW21226   2.150   3.125   4.102 -0.0906  0.0152 -0.4825
 3255SOL    HW121227   2.073   3.127   4.046 -2.1454  1.0217  2.4060
 3255SOL    HW221228   2.127   3.199   4.158 -0.5765  0.6908 -1.5812
 3256SOL     OW21229   0.536   2.606   6.152  0.4488 -0.0408 -0.2661
 3256SOL    HW121230   0.588   2.528   6.134 -0.0430 -0.7295  1.2953
 3256SOL    HW221231   0.485   2.613   6.071 -0.7009 -3.1893  0.1978
 3257SOL     OW21232   1.164   3.999   8.147 -0.2639 -0.2238 -0.4180
 3257SOL    HW121233   1.173   3.992   8.242 -0.1430 -0.2062 -0.4279
 3257SOL    HW221234   1.070   3.980   8.144  0.0335 -2.2595  3.3782
 3258SOL     OW21235   1.899   0.446  11.259  0.3182 -0.4045  0.4501
 3258SOL    HW121236   1.913   0.437  11.165  0.6974 -0.9763  0.5643
 3258SOL    HW221237   1.950   0.520  11.292 -1.2048  1.6658 -1.7841
 3259SOL     OW21238   3.442   0.376   2.788 -0.5275  0.1109 -0.3964
 3259SOL    HW121239   3.465   0.452   2.733  0.6983  1.4459  1.9595
 3259SOL    HW221240   3.386   0.320   2.735  1.4505  0.1049 -2.5016
 3260SOL     OW21241   3.786   1.144   5.682  0.6750  0.2232  0.2821
 3260SOL    HW121242   3.817   1.065   5.637  0.6165  0.3176  0.0802
 3260SOL    HW221243   3.765   1.108   5.768  0.6129  0.4462  0.3580
 3261SOL     OW21244   4.010   0.108   4.718 -0.2913  0.2689 -0.8436
 3261SOL    HW121245   3.984   0.019   4.744 -2.3286  0.3812 -2.4979
 3261SOL    HW221246   4.103   0.105   4.740 -0.2786  0.4866 -0.8760
 3262SOL     OW21247   2.321   3.694   2.980 -0.2458 -0.0990 -0.7511
 3262SOL    HW121248   2.227   3.696   3.001  0.4183  0.5731  2.1090
 3262SOL    HW221249   2.354   3.732   3.061  4.7838 -2.7004 -1.5760
 3263SOL     OW21250   4.033   3.049   6.745  0.1826  0.2477  0.2416
 3263SOL    HW121251   4.099   3.003   6.692  0.5380 -0.3161  1.1658
 3263SOL    HW221252   3.955   3.001   6.716  0.7894 -0.2964 -0.5018
 3264SOL     OW21253   4.678   4.111   6.956 -0.5275  0.2092  0.1331
 3264SOL    HW121254   4.664   4.188   6.901  1.8622  0.3004 -0.3399
 3264SOL    HW221255   4.712   4.058   6.885  1.7691 -0.6814  1.8874
 3265SOL     OW21256   3.145   0.086   3.822  0.4589  0.4383 -0.2332
 3265SOL    HW121257   3.058   0.127   3.824  1.6125  2.8393  0.4170
 3265SOL    HW221258   3.167   0.104   3.913 -0.1925 -2.1575  0.4450
 3266SOL     OW21259   3.217   2.107   4.897 -0.1475 -0.4683  0.2240
 3266SOL    HW121260   3.135   2.136   4.857 -0.2611 -0.5147  0.4223
 3266SOL    HW221261   3.242   2.038   4.836  1.9926 -1.5478  2.3035
 3267SOL     OW21262   0.213   0.091   8.989 -0.2373  0.0277  0.2504
 3267SOL    HW121263   0.252   0.093   8.901  0.5095 -2.2451  0.5286
 3267SOL    HW221264   0.287   0.129   9.038  0.5815  0.3498 -1.2295
 3268SOL     OW21265   1.108   4.681   4.877 -0.7030  0.1003 -0.7266
 3268SOL    HW121266   1.187   4.628   4.884 -0.0491  1.1560 -0.0860
 3268SOL    HW221267   1.059   4.676   4.959  0.1648  0.4692 -0.1910
 3269SOL     OW21268   0.340   2.404   5.005 -0.0438  0.0328 -0.7853
 3269SOL    HW121269   0.409   2.406   5.071 -0.4037 -1.4203 -0.3606
 3269SOL    HW221270   0.324   2.309   5.008  0.1038  0.0666  1.5425
 3270SOL     OW21271   1.400   0.313   6.720  0.3490  0.2397  0.5913
 3270SOL    HW121272   1.361   0.242   6.669 -0.4993  1.3908 -0.4000
 3270SOL    HW221273   1.426   0.271   6.801 -1.7440 -0.8245  0.7002
 3271SOL     OW21274   0.723   2.304   6.167 -0.2687  0.5258 -0.3227
 3271SOL    HW121275   0.742   2.223   6.214 -1.8332 -1.0362 -2.3723
 3271SOL    HW221276   0.740   2.280   6.076 -1.0938  3.1008 -1.1719
 3272SOL     OW21277   1.737   0.044   2.801  0.7784  0.4332  0.0588
 3272SOL    HW121278   1.712   0.017   2.889  0.9987 -2.3988 -0.7434
 3272SOL    HW221279   1.716   0.135   2.821 -0.1122  0.6784 -1.9694
 3273SOL     OW21280   0.312   2.411  16.016 -0.5862  0.1375  0.0207
 3273SOL    HW121281   0.238   2.455  16.057 -0.3194  1.0800 -0.4956
 3273SOL    HW221282   0.351   2.467  15.948 -3.0964  2.9017  0.8650
 3274SOL     OW21283   3.318   0.523   7.656  0.9215  0.2672  0.2685
 3274SOL    HW121284   3.290   0.607   7.693 -3.8135 -0.9432 -0.4983
 3274SOL    HW221285   3.351   0.479   7.734  2.0261 -0.1341 -0.4187
 3275SOL     OW21286   2.258   4.626   2.738 -0.0360 -0.1568  0.3344
 3275SOL    HW121287   2.168   4.602   2.715  0.3609  1.1071 -2.5936
 3275SOL    HW221288   2.250   4.717   2.768 -0.4908 -0.7986  2.1834
 3276SOL     OW21289   0.619   0.311   6.687 -0.6500  0.6273 -0.0892
 3276SOL    HW121290   0.588   0.229   6.651  0.0690 -0.0214  0.7553
 3276SOL    HW221291   0.667   0.356   6.617 -1.2446  0.4453 -0.6074
 3277SOL     OW21292   1.695   0.666   7.070 -0.3948 -0.1287 -0.3313
 3277SOL    HW121293   1.730   0.623   6.993  0.6258  0.3655 -0.1433
 3277SOL    HW221294   1.721   0.758   7.064 -1.3488  0.0074 -2.1624
 3278SOL     OW21295   0.651   1.539   7.077 -0.4508 -0.5411 -0.1091
 3278SOL    HW121296   0.715   1.587   7.130  0.1920 -1.3551 -0.1431
 3278SOL    HW221297   0.609   1.482   7.141  0.6645 -1.8004 -0.5078
 3279SOL     OW21298   3.618   2.507   5.925 -0.5832 -0.4033 -0.5984
 3279SOL    HW121299   3.687   2.448   5.893 -1.3189 -0.5901 -1.8211
 3279SOL    HW221300   3.658   2.593   5.908 -0.0037 -0.6472 -0.4631
 3280SOL     OW21301   1.876   1.024   6.428  0.3969  0.3916  0.2877
 3280SOL    HW121302   1.825   1.084   6.482  0.7073 -0.3340  1.3841
 3280SOL    HW221303   1.848   1.059   6.344 -0.1861 -0.4844  0.1168
 3281SOL     OW21304   0.879   1.110   3.711 -0.3452  0.3781  0.0937
 3281SOL    HW121305   0.865   1.179   3.776  2.9935 -0.1469  1.4130
 3281SOL    HW221306   0.888   1.028   3.759 -1.2964  0.2181 -0.0087
 3282SOL     OW21307   1.638   4.540   1.579 -1.0980  0.1831 -0.3380
 3282SOL    HW121308   1.594   4.503   1.655 -1.7558 -2.0903 -1.8360
 3282SOL    HW221309   1.672   4.624   1.609 -0.1890  0.4875 -2.1908
 3283SOL     OW21310   4.400   1.915   7.622  0.1638 -0.0932 -0.2827
 3283SOL    HW121311   4.449   1.996   7.635 -0.2612  0.3734 -1.5109
 3283SOL    HW221312   4.451   1.850   7.670  0.5451  0.1641 -0.3459
 3284SOL     OW21313   1.972   3.404   2.534  0.2159  0.1438  0.7580
 3284SOL    HW121314   1.964   3.320   2.488  1.1216 -0.5667  1.8819
 3284SOL    HW221315   2.040   3.438   2.476 -0.4600  0.5526  0.2163
 3285SOL     OW21316   1.895   4.040   5.243 -0.3994  0.4767  0.0837
 3285SOL    HW121317   1.838   4.029   5.167 -0.8120 -0.8382  0.5905
 3285SOL    HW221318   1.920   4.132   5.247 -0.3948  0.3676  2.5103
 3286SOL     OW21319   1.085   0.067  15.540  0.0984  1.2899 -0.0800
 3286SOL    HW121320   1.097   0.014  15.461 -1.0163  0.9498 -0.0242
 3286SOL    HW221321   0.990   0.069  15.551 -0.0764  0.6617 -1.4525
 3287SOL     OW21322   1.207   0.349   3.572 -0.3252  0.1241 -0.4224
 3287SOL    HW121323   1.179   0.319   3.485  0.1530  0.1656 -0.5916
 3287SOL    HW221324   1.208   0.264   3.617  1.5583  0.8090  0.8186
 3288SOL     OW21325   4.363   3.850  11.956 -0.1235  0.3200 -0.7692
 3288SOL    HW121326   4.285   3.796  11.967  0.0611  0.4374  1.1279
 3288SOL    HW221327   4.380   3.896  12.038 -0.3826 -1.8887  0.5156
 3289SOL     OW21328   4.717   3.321   4.580  0.0532  0.3620 -1.1028
 3289SOL    HW121329   0.026   3.376   4.652 -1.2056  0.7893 -0.8797
 3289SOL    HW221330   0.011   3.238   4.624 -1.3048 -0.0079 -1.3234
 3290SOL     OW21331   0.166   2.293  16.341  0.5329  0.0634  0.3662
 3290SOL    HW121332   0.134   2.379  16.316 -0.4958 -0.5022 -0.3105
 3290SOL    HW221333   0.104   2.273  16.412  1.7544 -0.8922  1.1566
 3291SOL     OW21334   0.970   3.131  13.648 -0.1355  0.1724 -0.0255
 3291SOL    HW121335   0.969   3.215  13.693 -1.9716 -0.1711  0.5575
 3291SOL    HW221336   0.879   3.104  13.662  0.2566 -0.9860  0.3373
 3292SOL     OW21337   1.847   1.761   4.264 -0.2883  0.0819 -0.4413
 3292SOL    HW121338   1.883   1.838   4.221  0.6792 -1.0023 -1.5671
 3292SOL    HW221339   1.757   1.763   4.231 -0.1533 -1.2198 -0.8928
 3293SOL     OW21340   1.076   3.326   8.441  0.7451 -0.0533  0.1475
 3293SOL    HW121341   1.101   3.416   8.460  1.7658 -0.0781 -1.0592
 3293SOL    HW221342   1.097   3.287   8.526 -1.4086 -1.2664  0.1180
 3294SOL     OW21343   2.566   4.668   7.285 -0.4218  0.3172  0.1787
 3294SOL    HW121344   2.484   4.680   7.333 -0.8872  1.3511 -0.8602
 3294SOL    HW221345   2.608   4.608   7.347  1.7459  1.8584  0.2011
 3295SOL     OW21346   2.853   0.778  10.191  0.7264 -1.0337 -0.0060
 3295SOL    HW121347   2.830   0.840  10.260  0.1100 -1.3348  0.0625
 3295SOL    HW221348   2.847   0.692  10.233  0.1735 -1.5751 -1.1919
 3296SOL     OW21349   1.164   2.001   8.441  0.0382  0.6303 -0.4701
 3296SOL    HW121350   1.127   2.063   8.378 -0.4270 -0.1350 -0.9487
 3296SOL    HW221351   1.135   2.048   8.519 -2.2340 -0.5415 -0.6034
 3297SOL     OW21352   3.298   0.321   5.475  0.3915  0.5590 -0.2516
 3297SOL    HW121353   3.360   0.304   5.404  2.7226  0.2413  1.8879
 3297SOL    HW221354   3.341   0.303   5.558 -2.1500 -0.0962  0.9211
 3298SOL     OW21355   0.028   2.662   9.430 -0.4647 -0.4140 -0.1918
 3298SOL    HW121356   0.039   2.683   9.337 -0.7841  0.7292  0.0250
 3298SOL    HW221357   4.719   2.750   9.453 -0.7646 -0.5857  0.0537
 3299SOL     OW21358   2.226   3.921  14.852 -0.1383 -0.1850  0.4930
 3299SOL    HW121359   2.281   3.859  14.900  2.1469  0.2917 -1.5324
 3299SOL    HW221360   2.259   3.915  14.763 -1.2631 -0.6713  0.1026
 3300SOL     OW21361   0.431   0.808   9.061 -0.4445 -0.5606  0.1487
 3300SOL    HW121362   0.371   0.847   9.125  2.6251  0.8610  2.1378
 3300SOL    HW221363   0.478   0.884   9.028 -1.6687  0.2981  0.3823
 3301SOL     OW21364   2.155   4.207  10.127 -0.0761  0.0848 -0.1670
 3301SOL    HW121365   2.126   4.197  10.037  0.0302 -1.1041 -0.0736
 3301SOL    HW221366   2.159   4.115  10.152 -1.7551 -0.2294 -1.0014
 3302SOL     OW21367   3.453   1.692  11.196 -0.0716  0.2812  0.7321
 3302SOL    HW121368   3.406   1.726  11.273 -0.7918 -1.3254  1.0191
 3302SOL    HW221369   3.523   1.645  11.242 -1.0314 -1.6911  0.1848
 3303SOL     OW21370   0.852   1.416  13.769 -0.0247 -0.2115 -0.1183
 3303SOL    HW121371   0.786   1.353  13.742  0.0102 -0.8326  1.2517
 3303SOL    HW221372   0.871   1.457  13.685  0.5468 -2.2911 -0.9829
 3304SOL     OW21373   0.809   1.544   2.592 -0.1739  0.0879 -0.5733
 3304SOL    HW121374   0.882   1.485   2.571 -0.4975 -0.7984  0.7883
 3304SOL    HW221375   0.775   1.505   2.672 -0.6471  0.9917 -0.3348
 3305SOL     OW21376   2.008   3.656   9.810  0.1908  0.2728 -0.6471
 3305SOL    HW121377   1.968   3.712   9.743  1.3533  2.0900  0.1710
 3305SOL    HW221378   2.006   3.696   9.897  0.1330 -1.6980  0.2603
 3306SOL     OW21379   3.688   3.516   0.342  0.0891 -0.2836 -0.3255
 3306SOL    HW121380   3.665   3.581   0.275 -0.8242  0.2310  0.5022
 3306SOL    HW221381   3.738   3.452   0.290 -0.0324 -0.3968 -0.3001
 3307SOL     OW21382   0.267   2.906  12.153  0.4163 -0.2628  0.1542
 3307SOL    HW121383   0.197   2.945  12.205  0.1485  1.5292 -1.5589
 3307SOL    HW221384   0.299   2.835  12.209  1.7931 -0.2611 -0.6376
 3308SOL     OW21385   0.083   0.347   2.114 -0.2707  0.1114 -0.0420
 3308SOL    HW121386   0.014   0.378   2.055  0.4343 -0.1908 -1.0226
 3308SOL    HW221387   0.157   0.397   2.079 -0.7744  1.5682  0.9480
 3309SOL     OW21388   1.563   3.294  13.203  0.2515 -0.4765  0.0679
 3309SOL    HW121389   1.510   3.216  13.215  0.4557 -0.4291  1.2623
 3309SOL    HW221390   1.504   3.370  13.199 -0.5049 -0.9951  1.4148
 3310SOL     OW21391   1.119   1.707   7.339 -0.3428  0.0428  0.0086
 3310SOL    HW121392   1.197   1.713   7.394 -0.3902 -1.9699  0.3085
 3310SOL    HW221393   1.074   1.635   7.384  1.2577 -0.7253  0.3792
 3311SOL     OW21394   3.770   2.317   3.325  0.0898 -0.3498  0.0676
 3311SOL    HW121395   3.836   2.386   3.324 -0.4501  0.1680  0.7463
 3311SOL    HW221396   3.692   2.364   3.294  0.0210  0.5977  1.7224
 3312SOL     OW21397   1.356   2.793   2.146  0.4763  0.3449 -0.4207
 3312SOL    HW121398   1.449   2.779   2.167  0.1056  0.2990  1.1812
 3312SOL    HW221399   1.320   2.711   2.181  0.4344  0.3118 -0.5429
 3313SOL     OW21400   2.548   2.212  10.274  0.1835  0.1813  0.0198
 3313SOL    HW121401   2.473   2.217  10.215  1.4871 -0.0944 -1.6516
 3313SOL    HW221402   2.504   2.222  10.358 -2.0394  0.4564 -1.1998
 3314SOL     OW21403   0.885   4.399   1.933 -0.1584  0.1192  0.4805
 3314SOL    HW121404   0.971   4.437   1.948  1.0955 -2.3222 -0.4555
 3314SOL    HW221405   0.815   4.436   1.988 -2.2819 -0.7304 -1.6374
 3315SOL     OW21406   1.875   4.004   6.361  0.1518  0.1553 -0.1674
 3315SOL    HW121407   1.875   3.967   6.273 -2.5349  0.7204 -0.4038
 3315SOL    HW221408   1.865   3.923   6.411 -1.3730 -1.2895 -2.8360
 3316SOL     OW21409   3.829   4.040   4.856 -0.1566  0.3769 -0.8754
 3316SOL    HW121410   3.750   4.083   4.888  0.2841  0.2450  0.3691
 3316SOL    HW221411   3.848   3.997   4.939 -5.2001  3.0805  1.6328
 3317SOL     OW21412   0.385   2.642   3.084 -0.1049  0.7423  0.5271
 3317SOL    HW121413   0.342   2.609   3.162  0.2400  1.2497  0.9334
 3317SOL    HW221414   0.357   2.733   3.084 -1.3810  0.3440 -0.2959
 3318SOL     OW21415   2.623   1.814   6.905 -0.0774 -0.1394 -0.0580
 3318SOL    HW121416   2.691   1.752   6.878  1.4773  1.5154  0.0297
 3318SOL    HW221417   2.608   1.871   6.830  1.5295 -1.0138 -1.0543
 3319SOL     OW21418   0.165   3.262   6.446 -0.0657  0.0713  0.0675
 3319SOL    HW121419   0.143   3.334   6.387 -1.0310  0.6381  1.1261
 3319SOL    HW221420   0.118   3.289   6.524  0.2061 -1.2399  0.6703
 3320SOL     OW21421   0.962   4.295   1.669 -0.3695 -0.0501  0.1983
 3320SOL    HW121422   0.926   4.312   1.756 -2.4914  1.5866 -0.9838
 3320SOL    HW221423   0.896   4.241   1.625 -0.4437  1.3580 -1.4069
 3321SOL     OW21424   4.438   1.589   1.461 -0.7823  0.1862  0.1312
 3321SOL    HW121425   4.517   1.561   1.507 -1.7458 -1.4337  0.8156
 3321SOL    HW221426   4.402   1.505   1.431  2.2827 -1.4644  1.0564
 3322SOL     OW21427   3.259   1.494  13.455  0.1916 -0.1531 -0.4896
 3322SOL    HW121428   3.177   1.538  13.433 -0.6531 -1.8187 -0.5795
 3322SOL    HW221429   3.241   1.468  13.545  0.3220 -0.3341 -0.5160
 3323SOL     OW21430   1.266   0.349  10.954  0.5890  0.1679 -0.4338
 3323SOL    HW121431   1.236   0.399  11.030 -1.4229 -1.5156 -0.0871
 3323SOL    HW221432   1.276   0.418  10.890 -1.1982  0.1432 -0.7366
 3324SOL     OW21433   4.705   1.782  12.086  0.3083 -0.4049  0.3401
 3324SOL    HW121434   0.061   1.742  12.123  0.7848  0.1928 -0.0104
 3324SOL    HW221435   4.706   1.867  12.132  0.6334 -0.0130 -0.3985
 3325SOL     OW21436   3.277   1.851   3.647  0.3322 -0.5368 -0.3903
 3325SOL    HW121437   3.229   1.925   3.683  1.3426 -0.7107  1.3391
 3325SOL    HW221438   3.337   1.912   3.605  0.7427 -1.0736 -0.5871
 3326SOL     OW21439   3.758   4.123   2.706  0.0885  0.0602  0.0580
 3326SOL    HW121440   3.737   4.193   2.768  0.6774  2.2772 -2.2433
 3326SOL    HW221441   3.742   4.153   2.617 -0.3739  0.3655  0.2442
 3327SOL     OW21442   4.146   3.252   3.202 -0.1385  0.2619  0.5059
 3327SOL    HW121443   4.131   3.216   3.115  1.0090 -1.2947  0.9484
 3327SOL    HW221444   4.240   3.264   3.195 -0.1006  0.2353  0.9743
 3328SOL     OW21445   0.106   0.335   2.384  0.4854  0.1423 -0.0529
 3328SOL    HW121446   0.021   0.371   2.412 -0.3999 -0.2706 -2.2205
 3328SOL    HW221447   0.103   0.337   2.288  0.7928 -1.6072 -0.0959
 3329SOL     OW21448   3.428   0.529   7.965 -0.5076  0.1999  0.6506
 3329SOL    HW121449   3.379   0.447   7.975 -0.6699 -0.1749 -3.2478
 3329SOL    HW221450   3.501   0.501   7.910 -1.3914 -1.4457  0.3198
 3330SOL     OW21451   1.443   2.866   3.978 -0.1177 -0.0647 -0.2222
 3330SOL    HW121452   1.487   2.912   3.907  0.6601  2.2339  1.7584
 3330SOL    HW221453   1.514   2.837   4.036 -0.9655  2.0197  1.8739
 3331SOL     OW21454   3.457   3.530   7.869  0.0781 -0.2400  0.0830
 3331SOL    HW121455   3.364   3.510   7.858 -0.3756  1.3210  1.0652
 3331SOL    HW221456   3.470   3.589   7.795 -2.0291  1.7002  1.2595
 3332SOL     OW21457   0.138   3.478  14.330  0.6670 -0.1168  0.6264
 3332SOL    HW121458   0.134   3.385  14.309 -1.8489 -0.1379  1.1669
 3332SOL    HW221459   0.074   3.486  14.401  1.0872 -2.1615  1.2239
 3333SOL     OW21460   0.181   0.559   2.963 -0.5851 -0.2902 -0.2553
 3333SOL    HW121461   0.266   0.564   2.919 -0.7713  1.2047 -0.4518
 3333SOL    HW221462   0.168   0.651   2.987  0.1218  0.1735 -1.6763
 3334SOL     OW21463   3.593   2.109  17.310 -0.0681  0.2429 -0.1610
 3334SOL    HW121464   3.638   2.185  17.347  3.4521 -0.8094 -2.2161
 3334SOL    HW221465   3.594   2.043  17.380 -1.6499 -1.4250 -1.6865
 3335SOL     OW21466   3.262   2.559   6.736  0.1290  0.4943 -0.7569
 3335SOL    HW121467   3.355   2.536   6.733  0.3697  1.4912 -0.8139
 3335SOL    HW221468   3.228   2.471   6.755 -2.1562  1.5917  0.2880
 3336SOL     OW21469   3.089   0.479  12.053 -0.0573 -0.3810 -0.2326
 3336SOL    HW121470   3.130   0.401  12.090 -1.1687 -0.7740  0.1557
 3336SOL    HW221471   3.007   0.434  12.031 -0.2697 -0.1750  0.1534
 3337SOL     OW21472   1.462   4.257  12.486 -0.8072 -0.6254 -0.1643
 3337SOL    HW121473   1.527   4.188  12.501 -0.5792 -0.1918  0.8205
 3337SOL    HW221474   1.383   4.237  12.536 -0.4433  1.4573  1.2459
 3338SOL     OW21475   2.326   4.280   8.115  0.6095 -0.1930 -0.0451
 3338SOL    HW121476   2.334   4.250   8.205  0.9819 -1.1196 -0.3852
 3338SOL    HW221477   2.361   4.202   8.073  0.4681 -0.4332  0.2912
 3339SOL     OW21478   1.407   3.031  12.454 -0.1968  0.1720 -0.2989
 3339SOL    HW121479   1.496   3.063  12.446  0.1155 -0.4179  0.7891
 3339SOL    HW221480   1.400   3.007  12.547 -0.2274  1.2996 -0.0178
 3340SOL     OW21481   0.656   3.958   4.819 -0.2322  0.6275 -0.3471
 3340SOL    HW121482   0.742   3.916   4.817 -0.0899  0.9112 -0.1255
 3340SOL    HW221483   0.635   3.963   4.912 -0.0347  2.1476 -0.3890
 3341SOL     OW21484   4.022   3.511   5.022 -0.5845 -0.8321 -0.2231
 3341SOL    HW121485   4.109   3.510   5.060 -0.2690 -1.4811 -0.9702
 3341SOL    HW221486   3.970   3.566   5.081 -0.3551 -1.3584  0.4836
 3342SOL     OW21487   0.671   0.663  10.916  0.2308  0.0536  0.0745
 3342SOL    HW121488   0.585   0.629  10.891  0.7170 -0.7853 -0.4682
 3342SOL    HW221489   0.657   0.754  10.891 -2.0636 -1.0903 -2.7955
 3343SOL     OW21490   1.774   3.227   1.294  0.5888 -0.4380 -0.7322
 3343SOL    HW121491   1.754   3.134   1.287 -0.2368 -0.3810  0.7663
 3343SOL    HW221492   1.862   3.233   1.332 -0.7558  1.8999  2.0611
 3344SOL     OW21493   3.347   0.249   2.315  0.0196  0.1270 -0.8581
 3344SOL    HW121494   3.367   0.164   2.277 -2.2219 -1.0290  0.5279
 3344SOL    HW221495   3.381   0.320   2.260  1.8825 -1.1194 -1.2968
 3345SOL     OW21496   3.352   0.642   2.377 -0.0958  0.6016  0.5150
 3345SOL    HW121497   3.308   0.726   2.365 -2.7080 -0.6162  1.3835
 3345SOL    HW221498   3.331   0.621   2.468  0.6826  0.0703  0.5705
 3346SOL     OW21499   1.219   4.090   2.994 -0.6033 -0.0878 -0.2948
 3346SOL    HW121500   1.314   4.094   2.996 -0.5228 -1.3399 -0.9532
 3346SOL    HW221501   1.204   4.023   2.927  0.3811  0.2255 -0.8341
 3347SOL     OW21502   1.035   4.370  15.874  0.2328 -0.1141  0.2178
 3347SOL    HW121503   1.020   4.277  15.894 -0.8372  0.2244  1.0134
 3347SOL    HW221504   1.070   4.371  15.785  2.3548 -0.8989  1.0466
 3348SOL     OW21505   0.678   3.766  11.898  0.1647  0.3807  0.4600
 3348SOL    HW121506   0.631   3.781  11.816 -0.1571 -1.5663  0.2854
 3348SOL    HW221507   0.625   3.690  11.923  1.4186 -1.8362 -3.5527
 3349SOL     OW21508   4.340   1.053   2.035  0.4107 -0.2845 -0.5426
 3349SOL    HW121509   4.342   1.149   2.040 -0.2652 -0.1859 -2.2169
 3349SOL    HW221510   4.403   1.039   1.964  0.3326 -0.3986 -0.5903
 3350SOL     OW21511   0.302   1.588  10.648  0.4415 -0.3044 -0.8407
 3350SOL    HW121512   0.223   1.541  10.622  0.6833 -0.0261 -2.0816
 3350SOL    HW221513   0.283   1.631  10.731 -0.8985  1.3783 -2.0236
 3351SOL     OW21514   4.231   4.245   9.325  0.0521  0.3979 -0.5041
 3351SOL    HW121515   4.152   4.206   9.365  0.7077  0.1001  0.5197
 3351SOL    HW221516   4.290   4.175   9.351  0.9336  2.9604  4.3743
 3352SOL     OW21517   1.579   3.329   7.300  0.2557 -0.2326  0.1083
 3352SOL    HW121518   1.628   3.363   7.375 -1.7015  1.4311  0.6338
 3352SOL    HW221519   1.607   3.390   7.232  1.1368 -3.2635 -2.2133
 3353SOL     OW21520   1.554   0.893   5.420  0.0376  0.2429  0.0156
 3353SOL    HW121521   1.600   0.817   5.384 -0.4058 -0.1384  0.2614
 3353SOL    HW221522   1.569   0.881   5.514  0.7882  3.4477  0.3248
 3354SOL     OW21523   1.219   4.319   4.370 -0.4815 -0.1482  0.5311
 3354SOL    HW121524   1.189   4.238   4.410 -1.9659  0.2453  0.2348
 3354SOL    HW221525   1.312   4.313   4.393  0.1783  1.8093 -1.5780
 3355SOL     OW21526   1.150   3.346   3.042 -0.6731  0.2736  0.5555
 3355SOL    HW121527   1.156   3.357   3.137  0.1849  1.2645  0.3831
 3355SOL    HW221528   1.171   3.432   3.007 -0.7371  0.2532  0.4667
 3356SOL     OW21529   0.634   3.206   5.943 -0.0262 -0.1166  0.1219
 3356SOL    HW121530   0.631   3.278   6.007  1.0701 -0.7896  0.9291
 3356SOL    HW221531   0.608   3.134   6.000  2.7778 -1.1728  0.1024
 3357SOL     OW21532   4.699   0.133   3.384 -0.2654  0.0331  0.3479
 3357SOL    HW121533   4.608   0.110   3.406 -0.5610  1.8556  1.0733
 3357SOL    HW221534   4.680   0.199   3.317 -1.8925 -1.3864 -0.6022
 3358SOL     OW21535   0.323   4.194  16.997 -0.1192  0.2131 -0.0873
 3358SOL    HW121536   0.366   4.131  17.055 -2.3574 -2.1261 -0.9415
 3358SOL    HW221537   0.405   4.242  16.984  0.0570 -0.3104 -0.9521
 3359SOL     OW21538   2.985   0.760   5.625  0.0106  0.0422  0.5129
 3359SOL    HW121539   3.052   0.783   5.561 -0.2237 -2.2898 -0.5732
 3359SOL    HW221540   3.011   0.670   5.643 -0.0346 -0.7212 -3.3361
 3360SOL     OW21541   1.901   0.554   3.616 -0.6348  0.0835 -0.2864
 3360SOL    HW121542   1.931   0.628   3.563  0.7250 -0.3041 -0.0611
 3360SOL    HW221543   1.829   0.512   3.569 -0.5306 -1.6963  1.1691
 3361SOL     OW21544   0.509   3.285  13.324  0.5999  0.0459  0.1418
 3361SOL    HW121545   0.519   3.267  13.231  3.7777  1.4362  0.1970
 3361SOL    HW221546   0.414   3.292  13.334  0.5350 -1.2101  0.3750
 3362SOL     OW21547   1.651   3.014   9.384  0.8903 -0.2285 -0.3267
 3362SOL    HW121548   1.586   2.945   9.399  0.2422  0.5537  0.5451
 3362SOL    HW221549   1.719   2.965   9.339  0.8933  0.1178 -0.6958
 3363SOL     OW21550   2.709   2.289  14.845 -0.6632  0.1344  0.0174
 3363SOL    HW121551   2.634   2.290  14.905  0.2950  0.0598  1.2129
 3363SOL    HW221552   2.676   2.219  14.788 -0.2322 -1.9359  2.2730
 3364SOL     OW21553   4.043   2.606   4.672 -0.0439  0.1178 -0.6099
 3364SOL    HW121554   4.063   2.573   4.759  1.5081  0.1056 -0.9795
 3364SOL    HW221555   4.085   2.548   4.608 -0.0345  0.1719 -0.6525
 3365SOL     OW21556   2.696   2.069   0.250 -0.3695  0.2666  0.1028
 3365SOL    HW121557   2.686   1.980   0.219  1.2502  0.6937 -1.6868
 3365SOL    HW221558   2.612   2.113   0.239 -1.2788 -1.7413 -0.7591
 3366SOL     OW21559   4.043   1.579  16.015 -0.1545  0.0840  0.2724
 3366SOL    HW121560   4.136   1.569  16.034 -0.4193  0.2219  1.6369
 3366SOL    HW221561   4.007   1.495  16.045  0.5452 -0.8692 -1.5483
 3367SOL     OW21562   2.426   3.798   5.942 -0.3358 -0.1736 -0.2592
 3367SOL    HW121563   2.441   3.891   5.962  1.8324 -1.1812  2.7766
 3367SOL    HW221564   2.506   3.778   5.894  0.1452 -0.3491  0.6124
 3368SOL     OW21565   3.970   0.617  14.664  0.2356 -0.1938 -0.0659
 3368SOL    HW121566   3.942   0.577  14.582 -0.8537 -1.2700  0.8431
 3368SOL    HW221567   4.059   0.648  14.643 -0.5166  1.3719 -0.9681
 3369SOL     OW21568   0.769   0.239   8.498  0.2794  0.1020  0.4553
 3369SOL    HW121569   0.812   0.155   8.517  1.1573  1.1870  3.2496
 3369SOL    HW221570   0.702   0.244   8.565 -2.5963 -0.2498 -2.4205
 3370SOL     OW21571   1.361   0.169  14.690  0.0187 -0.4821 -0.8549
 3370SOL    HW121572   1.280   0.136  14.729  0.1907 -1.3008 -1.1947
 3370SOL    HW221573   1.410   0.215  14.758 -0.5377 -1.2513  0.0728
 3371SOL     OW21574   2.675   0.920  15.602 -0.4291 -0.3721  0.1666
 3371SOL    HW121575   2.638   0.995  15.555  0.9493  0.9310  1.1564
 3371SOL    HW221576   2.674   0.846  15.541 -0.8257 -0.6976  0.5686
 3372SOL     OW21577   3.140   3.805   6.734 -0.4073  0.4660 -0.6124
 3372SOL    HW121578   3.118   3.865   6.662 -1.3771  1.4750  0.5171
 3372SOL    HW221579   3.190   3.861   6.793 -0.9936  1.6851 -1.2674
 3373SOL     OW21580   2.217   4.211   0.920 -0.2152  0.0494 -0.0612
 3373SOL    HW121581   2.182   4.122   0.931 -1.2701  0.2948 -1.5081
 3373SOL    HW221582   2.137   4.261   0.903 -0.7325 -0.3018  1.2458
 3374SOL     OW21583   4.648   4.676   5.546  0.4481 -0.6215 -0.2402
 3374SOL    HW121584   4.588   4.707   5.478  1.1331  1.9848  0.3302
 3374SOL    HW221585   4.673   4.586   5.525  1.7124 -0.0983 -0.9804
 3375SOL     OW21586   4.566   0.979   4.432 -0.3081  0.0226  0.1922
 3375SOL    HW121587   4.629   0.990   4.503 -0.3700 -1.1980  0.4305
 3375SOL    HW221588   4.563   0.884   4.441  1.4495 -0.3994 -3.3956
 3376SOL     OW21589   0.127   0.324   5.646  0.4330 -0.5847 -0.0886
 3376SOL    HW121590   0.032   0.325   5.650  0.5266  0.7694  1.7972
 3376SOL    HW221591   0.146   0.239   5.688 -1.0168 -0.6853  0.3510
 3377SOL     OW21592   0.002   2.484   0.776  0.1181  0.0928 -0.2028
 3377SOL    HW121593   0.043   2.403   0.746 -0.1716 -0.0688 -0.1583
 3377SOL    HW221594   0.007   2.530   0.692 -1.3906 -0.1111 -0.3948
 3378SOL     OW21595   0.747   3.744  12.188 -0.2683 -0.3475  0.0466
 3378SOL    HW121596   0.708   3.829  12.208 -0.7377 -0.3484 -0.8743
 3378SOL    HW221597   0.751   3.714  12.278  1.0480 -1.9544 -0.5469
 3379SOL     OW21598   1.626   1.932   4.193 -0.4238  0.0834  0.4283
 3379SOL    HW121599   1.547   1.878   4.197  0.7427 -1.8294 -2.4704
 3379SOL    HW221600   1.635   1.926   4.098 -0.7486  3.9659  0.1724
 3380SOL     OW21601   0.743   0.928   5.164  1.0129 -0.5745  0.0255
 3380SOL    HW121602   0.762   0.843   5.205 -1.1654 -0.5006  1.1572
 3380SOL    HW221603   0.681   0.966   5.226  3.2738 -0.4140  2.2012
 3381SOL     OW21604   2.512   2.255   6.422  0.3745  0.3301 -0.7442
 3381SOL    HW121605   2.546   2.169   6.447  1.1360  0.9661  0.4393
 3381SOL    HW221606   2.596   2.300   6.436  0.3302  0.1797  0.0506
 3382SOL     OW21607   2.395   1.674   2.057  0.0174  0.7479 -0.5792
 3382SOL    HW121608   2.309   1.694   2.094  0.1632  0.3953 -0.0397
 3382SOL    HW221609   2.371   1.588   2.021  1.1762  0.8495 -1.5940
 3383SOL     OW21610   2.668   0.378  12.246 -0.1586 -0.3138 -0.2930
 3383SOL    HW121611   2.701   0.455  12.292  1.6032  0.7925 -3.3754
 3383SOL    HW221612   2.576   0.399  12.233 -0.9131 -4.1569 -1.1908
 3384SOL     OW21613   3.061   0.629   8.447 -0.5444 -0.4789 -0.1824
 3384SOL    HW121614   3.098   0.688   8.513  1.3999 -0.9529 -0.8578
 3384SOL    HW221615   2.974   0.615   8.485 -1.0193  0.1230 -1.0354
 3385SOL     OW21616   2.541   3.872   6.799  0.3423  0.1555  1.1798
 3385SOL    HW121617   2.489   3.796   6.824  1.3428 -0.0819  2.5338
 3385SOL    HW221618   2.470   3.919   6.754  1.7276  1.1325  0.0090
 3386SOL     OW21619   2.556   1.292   0.609 -0.0195 -0.3177  0.4682
 3386SOL    HW121620   2.644   1.329   0.603  0.0405 -0.5057  0.1964
 3386SOL    HW221621   2.515   1.353   0.670 -0.2101 -0.5498  0.5729
 3387SOL     OW21622   0.602   4.289  11.368  0.0956 -0.5750  0.0877
 3387SOL    HW121623   0.619   4.235  11.292  1.5484  1.4717 -1.0362
 3387SOL    HW221624   0.672   4.352  11.349  1.3057 -2.1113 -0.5349
 3388SOL     OW21625   1.152   2.272  10.629 -0.2158  0.1422 -0.1629
 3388SOL    HW121626   1.165   2.263  10.724  2.2203 -0.8470 -0.6113
 3388SOL    HW221627   1.182   2.363  10.623  0.2957 -0.1737 -2.2823
 3389SOL     OW21628   1.168   2.913  12.022  0.0523  0.4001  0.3138
 3389SOL    HW121629   1.245   2.951  11.981 -0.1137 -0.9980 -1.3134
 3389SOL    HW221630   1.190   2.916  12.115 -0.0579  0.5731  0.3335
 3390SOL     OW21631   1.719   2.407   3.053  0.2655  0.0820 -0.3508
 3390SOL    HW121632   1.726   2.416   3.148 -1.0405 -0.7620 -0.1821
 3390SOL    HW221633   1.627   2.413   3.028 -0.1383 -0.2980  1.0433
 3391SOL     OW21634   3.810   4.459   7.016 -0.7479 -0.0132  0.3819
 3391SOL    HW121635   3.829   4.519   6.944 -0.9997  2.0358  2.0104
 3391SOL    HW221636   3.741   4.414   6.967 -0.0877 -1.7723  1.0994
 3392SOL     OW21637   1.476   1.565   9.892  0.4520 -0.1330 -0.1436
 3392SOL    HW121638   1.383   1.573   9.913  0.2080 -0.2385 -1.1832
 3392SOL    HW221639   1.500   1.526   9.976 -0.0582 -0.2022 -0.0352
 3393SOL     OW21640   1.034   0.945   4.113  0.1368 -0.1400 -0.4668
 3393SOL    HW121641   1.088   1.008   4.162 -1.7460  2.5022 -1.7669
 3393SOL    HW221642   1.059   0.960   4.022  0.5229  1.3413 -0.1249
 3394SOL     OW21643   3.527   2.253   8.395 -0.0420 -0.1146 -0.2393
 3394SOL    HW121644   3.580   2.313   8.343 -1.4177 -1.0128 -2.6824
 3394SOL    HW221645   3.445   2.303   8.396 -0.1952 -0.3655 -0.0764
 3395SOL     OW21646   0.185   3.830   7.653 -0.5671  0.5196 -0.1551
 3395SOL    HW121647   0.215   3.915   7.684 -0.0262  0.9069 -1.7409
 3395SOL    HW221648   0.093   3.849   7.632 -0.6794  1.6605  1.3971
 3396SOL     OW21649   0.012   4.598   8.710  0.5867  0.1388  0.0208
 3396SOL    HW121650   0.034   4.504   8.707 -1.3301 -0.2531 -1.8138
 3396SOL    HW221651   0.017   4.619   8.617 -2.6206  0.5238 -0.0518
 3397SOL     OW21652   4.311   0.541  10.325  0.4690  0.1927  0.2046
 3397SOL    HW121653   4.282   0.555  10.416  0.3271 -1.9194  0.4946
 3397SOL    HW221654   4.398   0.506  10.343  1.7133  1.1787 -4.0931
 3398SOL     OW21655   4.079   3.334   2.551 -0.0943 -0.2953 -0.3792
 3398SOL    HW121656   4.085   3.421   2.590  2.1338 -0.7508  0.3390
 3398SOL    HW221657   4.027   3.351   2.473 -2.4236  1.0343  1.4683
 3399SOL     OW21658   0.820   3.604  10.303  0.4532 -0.3200 -0.0381
 3399SOL    HW121659   0.726   3.614  10.320 -0.0743 -0.5844 -2.7885
 3399SOL    HW221660   0.828   3.509  10.294  0.9774 -0.2138 -0.6359
 3400SOL     OW21661   0.929   4.065   4.041 -0.3996 -0.1126 -0.1098
 3400SOL    HW121662   0.856   4.003   4.046 -1.0907  0.8621  2.0153
 3400SOL    HW221663   1.005   4.007   4.046  0.7934  1.3588 -1.1976
 3401SOL     OW21664   4.051   1.945   3.019  0.8376  0.0515 -0.0904
 3401SOL    HW121665   4.056   1.869   2.960 -0.9232  0.5487 -0.8785
 3401SOL    HW221666   4.011   2.014   2.966 -2.4759 -1.3396  0.6335
 3402SOL     OW21667   0.159   2.232   9.278  0.2701  0.4384 -0.1793
 3402SOL    HW121668   0.239   2.200   9.320 -0.1682 -0.4438 -0.0150
 3402SOL    HW221669   0.171   2.210   9.186  0.4141 -0.1787 -0.0176
 3403SOL     OW21670   2.868   0.750   3.453  0.1984  0.2562  0.4049
 3403SOL    HW121671   2.905   0.679   3.505  1.3369  1.3990  1.1659
 3403SOL    HW221672   2.932   0.818   3.474  1.7014 -0.9473 -0.3692
 3404SOL     OW21673   1.888   0.957   2.701 -0.2996 -0.0513 -0.5947
 3404SOL    HW121674   1.981   0.955   2.681 -0.4099  1.2147 -1.2633
 3404SOL    HW221675   1.855   1.022   2.638  2.0079  2.5857  0.9223
 3405SOL     OW21676   3.844   2.485   8.171  0.4927 -0.1196  0.0298
 3405SOL    HW121677   3.767   2.446   8.213 -0.5258  1.4082 -0.3916
 3405SOL    HW221678   3.807   2.564   8.132 -0.3866  1.2098  3.5882
 3406SOL     OW21679   4.152   3.541  12.587  0.2227  0.0394 -0.2184
 3406SOL    HW121680   4.146   3.633  12.612 -0.9254 -0.6077  1.8698
 3406SOL    HW221681   4.061   3.513  12.593  0.5096 -0.4421  1.9771
 3407SOL     OW21682   0.651   0.128  17.686 -0.4035  0.6267 -0.3030
 3407SOL    HW121683   0.707   0.112  17.610 -1.0283  0.5733 -0.7547
 3407SOL    HW221684   0.596   0.194  17.644 -0.3277  0.1429 -1.1699
 3408SOL     OW21685   0.216   4.211   9.016 -0.2142  0.0465  0.0389
 3408SOL    HW121686   0.149   4.250   9.073 -0.3192  3.2450 -2.2765
 3408SOL    HW221687   0.206   4.118   9.035 -3.6554  0.3870 -0.0564
 3409SOL     OW21688   3.377   3.513   4.460 -0.0552 -0.4699 -0.1697
 3409SOL    HW121689   3.398   3.429   4.501  2.2375 -0.3315 -1.0506
 3409SOL    HW221690   3.464   3.541   4.430  0.3938 -1.5883  0.0803
 3410SOL     OW21691   1.366   1.096  13.600 -0.3371  0.1396 -0.2073
 3410SOL    HW121692   1.422   1.153  13.653  0.7344 -0.6650 -0.4845
 3410SOL    HW221693   1.283   1.086  13.646  0.4060 -1.5269  0.7434
 3411SOL     OW21694   1.627   3.183   7.831 -0.0217  0.4306  1.0082
 3411SOL    HW121695   1.581   3.234   7.764 -1.2411  0.8048  2.1127
 3411SOL    HW221696   1.685   3.249   7.868 -0.1233  0.9610  0.2185
 3412SOL     OW21697   1.002   1.403   4.279 -0.1346 -0.3065 -0.2602
 3412SOL    HW121698   1.039   1.379   4.194 -1.7088 -0.3965 -0.9227
 3412SOL    HW221699   0.910   1.381   4.267 -0.5882  1.6119 -0.2313
 3413SOL     OW21700   3.609   0.844   2.490  0.3050 -0.0309  0.4468
 3413SOL    HW121701   3.534   0.904   2.489 -0.3519 -0.8660 -0.6131
 3413SOL    HW221702   3.671   0.886   2.431  0.4459 -1.8481 -0.7187
 3414SOL     OW21703   3.545   3.526   5.684 -0.1157 -0.4989 -0.6438
 3414SOL    HW121704   3.587   3.599   5.639 -0.4071 -0.7750 -1.3680
 3414SOL    HW221705   3.478   3.504   5.619  0.3943  3.0353 -2.3225
 3415SOL     OW21706   0.037   4.317   8.679  0.1754  0.1338 -0.1013
 3415SOL    HW121707   0.108   4.253   8.683  0.1191  0.0841  0.0873
 3415SOL    HW221708   4.686   4.271   8.719 -1.9066  3.6089  0.1478
 3416SOL     OW21709   3.166   4.510   0.434  0.3280  0.6274 -0.4337
 3416SOL    HW121710   3.158   4.551   0.348  1.7194  0.4628 -0.6459
 3416SOL    HW221711   3.243   4.454   0.418  0.3097 -0.0791  1.9800
 3417SOL     OW21712   4.506   2.700   4.883  0.2417 -0.1895  0.0216
 3417SOL    HW121713   4.600   2.716   4.896  0.1579  0.1042  0.2408
 3417SOL    HW221714   4.501   2.608   4.856 -2.2436 -0.1925  0.5033
 3418SOL     OW21715   1.214   3.572   8.509  0.4980  0.0394 -0.3019
 3418SOL    HW121716   1.295   3.523   8.525  0.1314 -0.8913 -1.2535
 3418SOL    HW221717   1.205   3.608   8.597  1.0065 -0.4126 -0.0669
 3419SOL     OW21718   1.880   0.762   8.683  0.1108  0.0007  0.2399
 3419SOL    HW121719   1.932   0.839   8.705  3.8686 -2.1216 -1.4062
 3419SOL    HW221720   1.896   0.710   8.762 -2.2732  1.1942  1.5230
 3420SOL     OW21721   0.088   2.686   6.047  0.4583 -0.5791 -0.1782
 3420SOL    HW121722   0.144   2.689   6.125 -1.2368  0.4373  1.0083
 3420SOL    HW221723   0.049   2.774   6.046  1.2031 -0.2132  2.5937
 3421SOL     OW21724   0.988   3.201   3.445 -0.2253 -0.0904 -0.2099
 3421SOL    HW121725   1.007   3.281   3.395  0.1793  0.1287  0.3052
 3421SOL    HW221726   0.902   3.183   3.407 -0.5940  1.5101 -0.1470
 3422SOL     OW21727   2.455   0.346   3.621  0.3448  0.0350 -0.3825
 3422SOL    HW121728   2.494   0.286   3.557  1.0904 -1.4368  1.4574
 3422SOL    HW221729   2.398   0.290   3.672 -0.0615  0.0446 -0.8209
 3423SOL     OW21730   4.529   2.351   3.273 -0.0212  0.1872  0.3708
 3423SOL    HW121731   4.581   2.307   3.205 -0.3044 -0.5096  0.6041
 3423SOL    HW221732   4.553   2.312   3.357  0.8928 -1.4209 -0.6340
 3424SOL     OW21733   1.378   0.608  14.058 -0.0848  0.3026  0.5352
 3424SOL    HW121734   1.364   0.572  13.970 -0.8323 -2.0176  1.5855
 3424SOL    HW221735   1.369   0.703  14.050 -0.7423  0.0781 -1.3706
 3425SOL     OW21736   4.214   1.072   8.455  0.8674  0.3416 -0.5900
 3425SOL    HW121737   4.282   1.019   8.497 -1.9106 -1.7496  1.3038
 3425SOL    HW221738   4.149   1.007   8.428  1.1134 -0.4592  0.7160
 3426SOL     OW21739   0.068   1.608   3.648  0.1628  0.4519  0.2775
 3426SOL    HW121740   0.146   1.572   3.689  0.0281  1.9590  1.8510
 3426SOL    HW221741   0.079   1.702   3.664 -0.6579  0.7372 -0.7999
 3427SOL     OW21742   3.570   1.149   5.502  0.1015  0.4181 -0.1647
 3427SOL    HW121743   3.621   1.194   5.434  0.1049  0.4625 -0.1321
 3427SOL    HW221744   3.638   1.151   5.570 -1.3219 -0.7085  1.2854
 3428SOL     OW21745   4.639   0.586   8.195  0.3924  0.3296  0.0642
 3428SOL    HW121746   0.011   0.602   8.204  0.4797 -0.5925  0.8965
 3428SOL    HW221747   4.626   0.494   8.221  3.5435 -0.1339  0.0493
 3429SOL     OW21748   2.158   2.859  10.910 -0.0613  1.2532 -0.2651
 3429SOL    HW121749   2.078   2.824  10.950 -0.2517  0.4664 -1.3109
 3429SOL    HW221750   2.215   2.843  10.984  1.9516 -0.1575 -2.1129
 3430SOL     OW21751   2.297   4.182   8.378 -0.4377  0.1275 -0.7272
 3430SOL    HW121752   2.271   4.131   8.455  1.3517 -2.8465 -2.1334
 3430SOL    HW221753   2.218   4.236   8.369 -0.6328  0.3002  1.8611
 3431SOL     OW21754   0.678   0.913   6.733  0.9163 -0.1417 -0.2538
 3431SOL    HW121755   0.697   0.875   6.647  0.2229  1.3689 -1.0875
 3431SOL    HW221756   0.762   0.891   6.774 -0.7992 -2.4679  1.9520
 3432SOL     OW21757   3.459   2.115  13.963  0.7123 -0.0195  0.2541
 3432SOL    HW121758   3.496   2.035  14.002  0.3853  1.5993  3.8690
 3432SOL    HW221759   3.533   2.175  13.971  0.4161  0.2083  1.2442
 3433SOL     OW21760   0.638   3.004   4.486 -0.5514 -0.4597  0.1231
 3433SOL    HW121761   0.544   3.020   4.492 -0.4113  0.0862  0.8847
 3433SOL    HW221762   0.636   2.910   4.499  0.4270 -0.4415  0.3863
 3434SOL     OW21763   2.233   4.223   3.414  1.2222  0.3318 -0.4212
 3434SOL    HW121764   2.204   4.136   3.386  0.4999  0.5362 -0.3086
 3434SOL    HW221765   2.324   4.216   3.387  1.1488  1.8774 -1.0285
 3435SOL     OW21766   1.657   2.468  15.127  0.6204  0.0066  0.1369
 3435SOL    HW121767   1.732   2.475  15.186 -1.3884 -2.4467  2.9533
 3435SOL    HW221768   1.639   2.561  15.111  2.6149  0.3581 -0.0008
 3436SOL     OW21769   0.772   0.913   0.780  0.1201  0.1619  0.0062
 3436SOL    HW121770   0.710   0.929   0.708  0.6665 -2.4004 -1.0387
 3436SOL    HW221771   0.787   1.002   0.812 -0.8828 -0.3765  1.9516
 3437SOL     OW21772   0.453   0.720  15.232  0.4886 -0.0509  0.3633
 3437SOL    HW121773   0.420   0.780  15.165  0.2305 -0.0106  0.5255
 3437SOL    HW221774   0.380   0.706  15.292  0.2006 -3.5161 -0.7506
 3438SOL     OW21775   0.388   0.712   4.150  0.6322  0.4589  0.2319
 3438SOL    HW121776   0.359   0.766   4.077 -2.0827 -1.8073 -0.3935
 3438SOL    HW221777   0.305   0.667   4.167  1.4423 -0.7126  1.0993
 3439SOL     OW21778   2.475   3.332   4.672 -0.5786  0.7443  0.6456
 3439SOL    HW121779   2.380   3.338   4.662 -0.7752 -1.7303  1.0979
 3439SOL    HW221780   2.488   3.276   4.748 -1.4679  0.8975  0.9138
 3440SOL     OW21781   2.863   2.461   7.107  0.3897  0.0910 -0.1975
 3440SOL    HW121782   2.884   2.491   7.018 -2.2396 -0.0991 -0.8847
 3440SOL    HW221783   2.949   2.434   7.140 -0.0262  0.3006  1.0356
 3441SOL     OW21784   2.152   2.547   3.033  0.3999  0.5143  0.4884
 3441SOL    HW121785   2.163   2.636   3.066  0.8641  0.1961  1.1844
 3441SOL    HW221786   2.135   2.570   2.941  0.2217 -1.5741 -0.0209
 3442SOL     OW21787   1.439   2.154  12.237  0.3678  0.2027  0.0783
 3442SOL    HW121788   1.450   2.060  12.251 -0.9758  0.0365 -0.0015
 3442SOL    HW221789   1.480   2.176  12.153 -0.0362 -2.3388 -0.7845
 3443SOL     OW21790   0.310   1.052   8.713  0.0712  0.0204 -0.1267
 3443SOL    HW121791   0.391   1.034   8.761 -0.5321  0.1172  0.9258
 3443SOL    HW221792   0.314   1.146   8.695  1.0841 -0.9198 -4.6761
 3444SOL     OW21793   4.375   2.200   7.090  0.3692  0.6208 -0.3206
 3444SOL    HW121794   4.292   2.238   7.118  0.5681  0.2621  0.7454
 3444SOL    HW221795   4.397   2.136   7.158 -0.0778 -0.7280 -1.4445
 3445SOL     OW21796   2.143   2.416   7.979  0.2678 -0.1248  0.0188
 3445SOL    HW121797   2.109   2.465   7.904  1.8060 -1.1650 -1.3558
 3445SOL    HW221798   2.210   2.358   7.941 -0.7135 -0.5728 -1.0277
 3446SOL     OW21799   2.111   3.952   4.017 -0.1988  0.0251  0.0836
 3446SOL    HW121800   2.157   3.877   3.980  0.5189  0.7175 -0.4358
 3446SOL    HW221801   2.185   4.011   4.032  1.0031 -1.5951  0.4139
 3447SOL     OW21802   1.915   2.204   2.007 -0.2303 -0.4910 -0.3003
 3447SOL    HW121803   1.826   2.235   2.024 -0.5264 -0.1519 -2.3772
 3447SOL    HW221804   1.943   2.166   2.090  2.7676 -0.6282 -1.3549
 3448SOL     OW21805   4.334   2.255  16.196 -0.4551  0.0078 -0.5225
 3448SOL    HW121806   4.276   2.217  16.261  1.6032 -1.9282  0.1897
 3448SOL    HW221807   4.403   2.188  16.193 -1.3378 -0.8074 -2.8218
 3449SOL     OW21808   3.324   2.951   2.088 -0.4464  0.5311 -0.6291
 3449SOL    HW121809   3.229   2.942   2.093 -0.1591 -1.9012  0.1354
 3449SOL    HW221810   3.345   2.943   1.995 -1.4616 -3.5203 -0.5100
 3450SOL     OW21811   0.044   2.831   4.571  0.0878 -0.0032 -0.1048
 3450SOL    HW121812   0.012   2.852   4.659  0.6578 -2.1062  0.5879
 3450SOL    HW221813   4.721   2.897   4.518 -2.2381 -0.9725  0.6565
 3451SOL     OW21814   1.061   1.495   0.354  0.4059 -0.3832 -0.3104
 3451SOL    HW121815   1.121   1.431   0.316  0.9132  0.4467 -0.9318
 3451SOL    HW221816   1.037   1.543   0.274 -2.0697  0.9170  1.2209
 3452SOL     OW21817   4.411   1.226   8.314 -0.8930  0.1796  0.0034
 3452SOL    HW121818   4.339   1.259   8.262 -2.3226 -3.0475 -0.1012
 3452SOL    HW221819   4.352   1.180   8.374 -2.0638  0.3848 -0.9973
 3453SOL     OW21820   0.906   0.237   7.730 -0.2793 -0.0620  0.1419
 3453SOL    HW121821   0.862   0.234   7.815 -2.0733  0.2089 -0.7862
 3453SOL    HW221822   0.976   0.300   7.749 -0.1019 -0.1403 -0.2547
 3454SOL     OW21823   1.620   1.721   2.627 -0.0828  0.0517 -0.4796
 3454SOL    HW121824   1.547   1.660   2.635 -0.7198  0.9736  0.6730
 3454SOL    HW221825   1.690   1.660   2.652 -0.5349 -1.1075 -2.0344
 3455SOL     OW21826   2.492   2.351   4.179 -0.4286  0.1158 -0.0498
 3455SOL    HW121827   2.546   2.370   4.103 -1.2948  0.6942 -0.5252
 3455SOL    HW221828   2.504   2.258   4.198  0.3474 -0.0150 -1.1705
 3456SOL     OW21829   2.191   3.273  14.674 -0.0220  0.2259 -1.0271
 3456SOL    HW121830   2.260   3.260  14.609 -0.0755  0.7887 -1.2038
 3456SOL    HW221831   2.191   3.369  14.685  0.9704 -0.0523  1.3377
 3457SOL     OW21832   1.003   2.248   7.931 -0.7715 -0.3859  0.2765
 3457SOL    HW121833   0.929   2.196   7.900 -1.3980 -0.2059  1.4757
 3457SOL    HW221834   0.955   2.299   7.996  0.5388  0.3965  0.6228
 3458SOL     OW21835   3.275   0.098   1.356 -0.4781  0.0820  0.4026
 3458SOL    HW121836   3.243   0.018   1.315 -2.0346  0.6552  0.4934
 3458SOL    HW221837   3.250   0.082   1.447  1.1717 -0.1268  0.8255
 3459SOL     OW21838   4.233   4.144   5.980  0.4281  0.3512 -0.1098
 3459SOL    HW121839   4.163   4.209   5.984 -0.1752 -0.3147  0.3030
 3459SOL    HW221840   4.293   4.174   5.912  1.4323  0.7124  0.9403
 3460SOL     OW21841   2.493   3.952   7.075 -0.1338 -0.1183  0.0588
 3460SOL    HW121842   2.498   3.945   6.979  0.2637  1.5045 -0.0453
 3460SOL    HW221843   2.402   3.980   7.078 -0.3353 -0.5761 -1.4297
 3461SOL     OW21844   4.515   3.828  11.720 -0.0411 -0.1224 -0.3033
 3461SOL    HW121845   4.423   3.802  11.724  0.7118 -2.8393 -0.9637
 3461SOL    HW221846   4.526   3.798  11.811  2.3223  0.7584 -0.3004
 3462SOL     OW21847   2.695   1.707   4.991 -0.5792 -0.1626 -0.0492
 3462SOL    HW121848   2.752   1.779   4.965 -0.7530 -0.5386 -1.4790
 3462SOL    HW221849   2.704   1.655   4.911  4.4258  0.4506  0.1368
 3463SOL     OW21850   2.279   2.055   8.396  0.4719  0.1242 -0.1092
 3463SOL    HW121851   2.346   2.100   8.344  0.3622  0.4637  0.0450
 3463SOL    HW221852   2.322   1.981   8.440 -1.7383 -0.8331  0.4484
 3464SOL     OW21853   0.269   1.847   8.941 -0.2333  0.0517 -0.0472
 3464SOL    HW121854   0.253   1.903   9.017  0.1506 -0.8383  0.6924
 3464SOL    HW221855   0.259   1.757   8.972 -0.3911  1.1309  3.0441
 3465SOL     OW21856   4.449   2.666  12.739  0.2377 -0.0151  0.2336
 3465SOL    HW121857   4.385   2.596  12.735 -0.0114  0.1724  1.0364
 3465SOL    HW221858   4.400   2.732  12.787  2.9253  1.5737  0.8254
 3466SOL     OW21859   4.263   2.325   5.049  0.1039  0.3029 -0.2726
 3466SOL    HW121860   4.271   2.415   5.079 -1.4313 -0.5902  2.7887
 3466SOL    HW221861   4.342   2.289   5.089  0.4715  0.5617 -0.7621
 3467SOL     OW21862   0.499   0.131   2.444  0.0986 -0.1487 -0.7407
 3467SOL    HW121863   0.473   0.085   2.364 -0.9509 -0.0986 -0.4251
 3467SOL    HW221864   0.425   0.192   2.450 -0.4738 -0.8809 -0.4079
 3468SOL     OW21865   2.214   0.857  13.648 -0.2489  0.1663  0.2728
 3468SOL    HW121866   2.130   0.815  13.629 -0.1507  0.0035  0.2063
 3468SOL    HW221867   2.285   0.803  13.614 -0.0248  0.5745  0.0843
 3469SOL     OW21868   4.387   4.063   0.134 -0.3354 -0.3024 -0.0335
 3469SOL    HW121869   4.366   4.134   0.073  0.4492  0.0686  0.1338
 3469SOL    HW221870   4.344   4.000   0.076  0.9735 -0.8266 -0.4423
 3470SOL     OW21871   0.048   2.971   6.053  0.0038 -0.7171  0.1638
 3470SOL    HW121872   0.134   2.996   6.089 -0.9958  1.2746  1.1838
 3470SOL    HW221873   4.719   2.993   6.132 -1.0618 -1.8300 -0.2200
 3471SOL     OW21874   0.816   0.104  15.350  0.4141  0.0707  0.3227
 3471SOL    HW121875   0.873   0.156  15.293  0.7248 -1.3410 -0.6597
 3471SOL    HW221876   0.749   0.173  15.352  1.8463  1.5167 -1.2855
 3472SOL     OW21877   3.012   1.714   7.480 -0.5054 -0.2486 -0.9735
 3472SOL    HW121878   2.954   1.645   7.512  0.3388 -1.5141 -2.1648
 3472SOL    HW221879   3.000   1.789   7.538 -2.4834 -0.9904 -0.4348
 3473SOL     OW21880   3.481   2.202  11.381 -0.5977 -0.2611 -0.0816
 3473SOL    HW121881   3.500   2.289  11.346 -0.2157 -0.2980  0.0344
 3473SOL    HW221882   3.474   2.216  11.476 -3.1246  2.3259 -0.6500
 3474SOL     OW21883   4.656   2.462  10.621  0.2352  0.0836 -0.4698
 3474SOL    HW121884   4.696   2.385  10.663 -1.2980 -1.0688 -1.1239
 3474SOL    HW221885   4.660   2.520  10.697  1.1431 -1.4041  0.6307
 3475SOL     OW21886   2.386   3.660   3.389 -0.1711 -0.0460 -0.0077
 3475SOL    HW121887   2.436   3.579   3.388 -0.0323  0.0380  0.5593
 3475SOL    HW221888   2.298   3.635   3.416  0.0080 -0.7804 -0.1130
 3476SOL     OW21889   1.994   3.569   5.708 -0.0449  0.3510 -0.3451
 3476SOL    HW121890   2.026   3.487   5.744 -0.2298  0.4885  0.1279
 3476SOL    HW221891   2.059   3.629   5.744  0.4936  0.7357 -1.9419
 3477SOL     OW21892   3.185   3.869   5.801  0.1010 -0.1864 -0.6004
 3477SOL    HW121893   3.141   3.953   5.785 -1.5986 -0.7767  0.9505
 3477SOL    HW221894   3.146   3.844   5.884 -1.3730  3.1154 -0.2834
 3478SOL     OW21895   3.886   0.705   7.236  0.3629 -0.0446 -0.5342
 3478SOL    HW121896   3.809   0.733   7.188 -1.7303 -0.1924  2.7238
 3478SOL    HW221897   3.846   0.644   7.299  0.3818  1.7160  1.1902
 3479SOL     OW21898   2.357   1.629   7.939  0.1701 -0.2361 -0.1798
 3479SOL    HW121899   2.281   1.652   7.885 -0.3726 -0.9132  0.3159
 3479SOL    HW221900   2.400   1.715   7.945 -0.4046  0.1065 -0.9647
 3480SOL     OW21901   3.921   3.606   5.518  0.3915 -0.5349 -0.2775
 3480SOL    HW121902   3.931   3.595   5.613  2.4581  2.2242 -0.1952
 3480SOL    HW221903   3.860   3.534   5.504 -1.3202  0.7815  0.4129
 3481SOL     OW21904   0.673   3.274  16.420  0.1539  0.3661  0.3880
 3481SOL    HW121905   0.607   3.322  16.369 -0.4396  1.1119  1.8586
 3481SOL    HW221906   0.625   3.266  16.502 -1.9297  0.5711 -0.8008
 3482SOL     OW21907   4.236   3.198   2.297 -0.1929 -0.1078 -0.1239
 3482SOL    HW121908   4.280   3.266   2.247  0.7277  0.7359  1.8313
 3482SOL    HW221909   4.224   3.132   2.228  0.7643 -1.2430  0.7984
 3483SOL     OW21910   2.189   3.868  12.036 -0.5251 -0.0469 -0.0147
 3483SOL    HW121911   2.127   3.921  12.087 -2.1321 -2.7783  0.8878
 3483SOL    HW221912   2.251   3.833  12.100  0.3233  0.0746 -0.7834
 3484SOL     OW21913   0.477   2.556   4.435 -0.2305  0.7260 -0.6410
 3484SOL    HW121914   0.397   2.578   4.483  1.1797 -1.2970  2.6669
 3484SOL    HW221915   0.458   2.594   4.350  2.4130 -0.7096 -1.8831
 3485SOL     OW21916   0.008   3.850  17.013 -0.3487  0.2588 -0.5830
 3485SOL    HW121917   4.684   3.919  17.060  2.1898  0.2149  1.9542
 3485SOL    HW221918   0.090   3.890  16.985 -0.3004 -0.2803 -1.2263
 3486SOL     OW21919   1.834   2.261  14.486  0.6974 -0.3455 -0.3009
 3486SOL    HW121920   1.796   2.292  14.569 -1.1497 -1.6758 -0.6413
 3486SOL    HW221921   1.897   2.195  14.515 -0.4784 -1.5119 -0.3960
 3487SOL     OW21922   0.477   0.081   7.865 -0.5525 -0.5486 -0.2734
 3487SOL    HW121923   0.416   0.108   7.933  1.9447  0.8487  1.4144
 3487SOL    HW221924   0.507   0.159   7.819 -0.7207 -0.1448  0.3115
 3488SOL     OW21925   1.415   4.010   5.212 -0.3264  0.1901 -0.4255
 3488SOL    HW121926   1.444   3.990   5.301  0.2626 -0.3929 -0.7482
 3488SOL    HW221927   1.484   3.973   5.156 -0.3793 -1.9737  0.9093
 3489SOL     OW21928   3.092   4.263   6.869  0.2125 -0.1831  0.1276
 3489SOL    HW121929   3.036   4.282   6.944 -0.6746 -4.4164  0.5258
 3489SOL    HW221930   3.144   4.344   6.865 -2.7426  1.7013  0.2597
 3490SOL     OW21931   1.377   4.454  14.518 -0.2146 -0.6384 -0.0322
 3490SOL    HW121932   1.368   4.491  14.430 -1.2585 -2.6889 -0.8059
 3490SOL    HW221933   1.409   4.529  14.567 -0.6284 -0.6334  0.2215
 3491SOL     OW21934   0.114   3.662   4.588 -0.1915 -0.0686 -0.0313
 3491SOL    HW121935   0.082   3.592   4.645  0.7231 -0.4135  0.0518
 3491SOL    HW221936   0.143   3.736   4.640  0.2853  1.1985 -2.1084
 3492SOL     OW21937   4.030   3.490  14.300 -0.2653  0.2725  0.1912
 3492SOL    HW121938   4.062   3.496  14.390 -0.2871 -2.0975  0.3626
 3492SOL    HW221939   4.072   3.568  14.262  0.5410 -0.3295 -0.1490
 3493SOL     OW21940   2.394   0.597  13.746  0.2191 -0.0312  0.0262
 3493SOL    HW121941   2.415   0.609  13.653  0.5223 -0.4013  0.0496
 3493SOL    HW221942   2.337   0.522  13.730 -0.5656  0.6479 -0.3599
 3494SOL     OW21943   0.635   4.041   4.540  0.0887 -0.3467  0.3071
 3494SOL    HW121944   0.634   4.033   4.635  0.7059 -1.7887  0.1984
 3494SOL    HW221945   0.696   4.115   4.538 -0.4290  0.0515 -0.6015
 3495SOL     OW21946   3.544   2.637   4.166  0.0631  0.6332 -0.0277
 3495SOL    HW121947   3.499   2.585   4.232  0.4572 -0.5927 -0.7378
 3495SOL    HW221948   3.576   2.711   4.217 -1.4593  0.9325  0.4769
 3496SOL     OW21949   4.031   0.525   4.669 -0.4723 -0.0381  0.2388
 3496SOL    HW121950   3.958   0.539   4.609  0.3327  2.1166 -0.2328
 3496SOL    HW221951   4.098   0.495   4.608  0.3208  1.8173  0.1978
 3497SOL     OW21952   0.950   2.473   7.771 -0.0390 -0.3611  0.1225
 3497SOL    HW121953   0.963   2.543   7.707  0.1534 -0.4151  0.1015
 3497SOL    HW221954   0.855   2.477   7.780 -0.0506 -0.1130 -0.1036
 3498SOL     OW21955   2.303   0.448  14.914  0.0710  0.3712  0.3600
 3498SOL    HW121956   2.262   0.511  14.856 -1.5260  0.4046  1.5041
 3498SOL    HW221957   2.372   0.423  14.854  0.7678 -0.3394  1.4523
 3499SOL     OW21958   2.740   0.721   0.230 -0.1903  0.0437 -0.0549
 3499SOL    HW121959   2.703   0.779   0.296 -1.6196  1.3978 -2.0328
 3499SOL    HW221960   2.698   0.752   0.150 -2.2835 -0.5811  0.7867
 3500SOL     OW21961   3.120   3.270   5.116  0.1872  0.0490 -0.2738
 3500SOL    HW121962   3.179   3.195   5.108 -0.5889 -0.7574  1.5531
 3500SOL    HW221963   3.041   3.227   5.148  1.3068 -1.2201  0.7816
 3501SOL     OW21964   3.658   3.640   4.411  0.0432 -0.0079  0.3638
 3501SOL    HW121965   3.723   3.705   4.383  0.7791 -1.8777 -2.2667
 3501SOL    HW221966   3.718   3.565   4.409 -0.2441 -0.3483  4.5470
 3502SOL     OW21967   2.171   1.323   1.424 -0.1405  0.1532 -0.8819
 3502SOL    HW121968   2.239   1.291   1.483 -1.3697 -1.0696 -0.1235
 3502SOL    HW221969   2.110   1.249   1.431 -0.5321  0.6415  0.7641
 3503SOL     OW21970   1.174   4.071   6.410  0.6300 -0.3177  0.5525
 3503SOL    HW121971   1.129   4.136   6.464 -0.0648  0.1983 -0.6371
 3503SOL    HW221972   1.135   4.096   6.326 -0.3070  0.5907  1.2432
 3504SOL     OW21973   0.943   1.559   4.504  0.0392  0.6012 -0.4658
 3504SOL    HW121974   0.944   1.514   4.419 -0.3910 -0.2489 -0.0214
 3504SOL    HW221975   1.022   1.611   4.491  1.0211 -0.0756  2.9525
 3505SOL     OW21976   1.425   2.874   9.693  0.0510 -0.0378  0.2469
 3505SOL    HW121977   1.443   2.781   9.704 -2.7712 -0.6471 -0.3930
 3505SOL    HW221978   1.393   2.875   9.603 -0.6741  0.5832  0.5149
 3506SOL     OW21979   0.657   0.464   8.291 -0.1236 -0.6087 -0.2458
 3506SOL    HW121980   0.622   0.519   8.220 -1.6302  0.6099  1.4563
 3506SOL    HW221981   0.649   0.510   8.374  2.4116 -1.1301  0.2878
 3507SOL     OW21982   2.988   0.854   4.342 -0.1630 -0.5262  0.1291
 3507SOL    HW121983   3.068   0.832   4.294  0.3747  2.1981 -0.2523
 3507SOL    HW221984   2.982   0.781   4.403  1.1213  0.8425  1.8872
 3508SOL     OW21985   0.168   3.038   3.292  0.3716  0.5571 -0.3424
 3508SOL    HW121986   0.161   3.133   3.284  0.0136  0.6072  0.5510
 3508SOL    HW221987   0.224   3.015   3.218 -0.8892 -0.0707 -1.1091
 3509SOL     OW21988   1.658   1.554  10.325 -0.6054  0.1586  0.3226
 3509SOL    HW121989   1.566   1.541  10.302 -0.4041 -0.5612 -0.0471
 3509SOL    HW221990   1.654   1.551  10.421  1.3974 -0.5601  0.3866
 3510SOL     OW21991   0.501   0.832   5.813 -0.0933  0.1293  0.2369
 3510SOL    HW121992   0.553   0.752   5.798  0.0708  0.5561 -1.4331
 3510SOL    HW221993   0.457   0.815   5.896  1.2285 -1.2926  0.6730
 3511SOL     OW21994   2.447   2.422   1.864  0.0408  0.1827  0.5553
 3511SOL    HW121995   2.394   2.343   1.877  0.9337 -0.9157 -2.4800
 3511SOL    HW221996   2.528   2.377   1.843  0.1226 -0.2936  1.8852
 3512SOL     OW21997   1.476   2.572   6.166 -0.0898 -0.8385 -0.2719
 3512SOL    HW121998   1.540   2.643   6.167 -0.9327 -0.0573 -1.7801
 3512SOL    HW221999   1.411   2.611   6.108 -1.7257  0.7206  2.6233
 3513SOL     OW22000   1.862   4.103   7.578  0.2728  0.2750  0.3664
 3513SOL    HW122001   1.951   4.120   7.608 -0.0455 -0.9065  1.9809
 3513SOL    HW222002   1.872   4.008   7.584  0.5591  0.2379 -0.6959
 3514SOL     OW22003   0.527   1.442   7.286 -0.3542 -0.2246  0.2315
 3514SOL    HW122004   0.527   1.462   7.380  1.7738 -0.0954  0.1963
 3514SOL    HW222005   0.483   1.358   7.299 -0.4592 -0.1802  0.1672
 3515SOL     OW22006   4.341   4.591   7.290 -0.4054 -0.3564  0.5276
 3515SOL    HW122007   4.367   4.549   7.208 -0.1058 -0.2435  0.5683
 3515SOL    HW222008   4.247   4.572   7.285 -0.2389 -1.1458  0.4784
 3516SOL     OW22009   1.767   1.384   6.505 -0.9491 -0.6698  0.5356
 3516SOL    HW122010   1.730   1.471   6.487  1.2035  0.3006  0.8565
 3516SOL    HW222011   1.850   1.408   6.546 -0.0431 -2.4225 -0.3134
 3517SOL     OW22012   1.180   2.971   4.011  0.1038 -0.0450 -0.4419
 3517SOL    HW122013   1.180   3.053   3.961 -0.9595 -1.3641 -2.6037
 3517SOL    HW222014   1.253   2.920   3.977  0.3205  1.2670 -1.9394
 3518SOL     OW22015   4.659   3.152  17.373 -0.2816  0.4361 -0.7937
 3518SOL    HW122016   4.602   3.075  17.379 -0.0158  0.1723 -1.6828
 3518SOL    HW222017   4.602   3.214  17.329 -0.2891  0.1392 -1.1988
 3519SOL     OW22018   4.025   3.616  14.779  0.4812  0.3920 -0.2960
 3519SOL    HW122019   4.082   3.550  14.819 -0.9873 -0.4146  0.4857
 3519SOL    HW222020   3.962   3.553  14.742  2.2472 -1.1273 -0.7311
 3520SOL     OW22021   3.934   1.750   5.875  0.5762  0.5789 -0.6057
 3520SOL    HW122022   3.885   1.723   5.797 -0.6142 -0.0675  0.3681
 3520SOL    HW222023   3.975   1.829   5.840 -0.4812  0.9427 -1.0428
 3521SOL     OW22024   3.019   3.635   8.188 -0.5167  0.9558 -0.0391
 3521SOL    HW122025   3.099   3.646   8.136  0.7585 -2.2757  1.2922
 3521SOL    HW222026   3.045   3.666   8.275  0.6217 -0.1408  0.0165
 3522SOL     OW22027   0.676   2.477  17.075  0.7063  0.2050 -0.3826
 3522SOL    HW122028   0.662   2.568  17.049  1.2909  0.6121  0.7125
 3522SOL    HW222029   0.630   2.471  17.159 -0.2009 -0.6662 -0.9542
 3523SOL     OW22030   3.977   3.291  14.854  0.0653 -0.0246  1.1832
 3523SOL    HW122031   3.908   3.332  14.801  0.1800 -0.9065  0.3423
 3523SOL    HW222032   3.927   3.217  14.887 -0.3408  0.1120  0.8798
 3524SOL     OW22033   3.453   3.074   7.477  0.0473 -0.6567 -0.3090
 3524SOL    HW122034   3.436   3.122   7.396  0.2918 -0.5399 -0.2928
 3524SOL    HW222035   3.364   3.043   7.493 -1.0555  2.3773 -0.5041
 3525SOL     OW22036   4.651   0.887   8.261 -0.3517  0.1459 -0.4391
 3525SOL    HW122037   4.640   0.890   8.356  0.1251  0.3159 -0.3849
 3525SOL    HW222038   4.671   0.794   8.250 -1.2060  0.0506 -1.1264
 3526SOL     OW22039   3.551   2.908   5.520  0.6526  0.0477  0.1075
 3526SOL    HW122040   3.623   2.857   5.483  0.1906  0.7365 -1.7375
 3526SOL    HW222041   3.477   2.875   5.468  1.1973  0.8347 -1.1600
 3527SOL     OW22042   0.911   2.663   1.607  0.4053  0.7350  0.1094
 3527SOL    HW122043   0.990   2.646   1.659 -1.1686 -3.4689  1.1477
 3527SOL    HW222044   0.864   2.703   1.680 -4.3647 -0.6771 -2.1379
 3528SOL     OW22045   3.623   2.329   7.897  0.0668 -0.4404 -0.0764
 3528SOL    HW122046   3.604   2.253   7.842 -0.0766 -0.8696  0.5704
 3528SOL    HW222047   3.566   2.404   7.880 -1.3251 -0.9759  2.3066
 3529SOL     OW22048   0.842   4.188   8.780  0.0226 -0.2154 -0.5206
 3529SOL    HW122049   0.860   4.280   8.766 -2.9394  0.8317  2.5980
 3529SOL    HW222050   0.924   4.139   8.772 -0.7614 -1.3840 -1.5821
 3530SOL     OW22051   2.017   1.209   2.400 -0.2408  0.2370 -0.0053
 3530SOL    HW122052   1.952   1.236   2.465  0.6697  1.6759  0.3095
 3530SOL    HW222053   1.989   1.128   2.358 -0.2461 -0.0125  0.4785
 3531SOL     OW22054   3.688   4.561   9.275  0.1774  0.2783  0.0914
 3531SOL    HW122055   3.750   4.494   9.305  0.0222  0.3251  0.5219
 3531SOL    HW222056   3.648   4.590   9.357 -1.6776  1.4024 -1.2427
 3532SOL     OW22057   3.227   2.931  12.827 -0.2674 -0.1061  0.6784
 3532SOL    HW122058   3.304   2.987  12.823  0.6316 -1.2850  1.4702
 3532SOL    HW222059   3.154   2.992  12.816  0.1158  0.5094  1.5838
 3533SOL     OW22060   3.860   3.789   6.217 -0.6483  0.6862  0.2872
 3533SOL    HW122061   3.833   3.698   6.224  2.5766 -0.2368  0.5658
 3533SOL    HW222062   3.871   3.794   6.122 -0.3931 -0.1617  0.2737
 3534SOL     OW22063   0.063   1.526  10.116 -0.9972 -0.1498  0.2058
 3534SOL    HW122064   0.138   1.470  10.097 -0.4164  0.3729  0.9780
 3534SOL    HW222065   4.722   1.457  10.136  0.2348 -1.4899 -0.5405
 3535SOL     OW22066   4.141   0.239   1.717  0.0367 -0.4412 -0.3206
 3535SOL    HW122067   4.145   0.148   1.747  0.3737 -0.1691  0.4508
 3535SOL    HW222068   4.051   0.236   1.686  0.8661 -2.0450 -2.5514
 3536SOL     OW22069   2.488   3.152  15.559 -0.4666 -0.2743  0.3609
 3536SOL    HW122070   2.419   3.117  15.616  0.0065 -0.2732  0.9345
 3536SOL    HW222071   2.442   3.137  15.476 -0.5476 -0.8074  0.5014
 3537SOL     OW22072   3.658   3.483   9.649 -0.0890 -0.1027 -0.0107
 3537SOL    HW122073   3.613   3.429   9.714 -0.8525  0.0323 -0.4314
 3537SOL    HW222074   3.697   3.412   9.598  1.9991 -1.0296  2.8828
 3538SOL     OW22075   2.522   3.634  14.785  0.1493  0.1296 -0.0616
 3538SOL    HW122076   2.606   3.679  14.772 -0.1315  0.1053 -2.0390
 3538SOL    HW222077   2.494   3.688  14.858  3.0269  0.3354  0.8867
 3539SOL     OW22078   3.814   3.812   8.319  0.3206  0.3163 -0.3309
 3539SOL    HW122079   3.830   3.905   8.301  0.4243  0.5510  0.9482
 3539SOL    HW222080   3.776   3.785   8.235  1.4729  0.8056 -1.0113
 3540SOL     OW22081   2.401   0.282   6.832 -0.5719  0.0067  0.0900
 3540SOL    HW122082   2.324   0.232   6.857 -0.0472 -0.7989  0.0922
 3540SOL    HW222083   2.411   0.252   6.741 -0.0721  2.1456 -0.5694
 3541SOL     OW22084   1.294   1.715   5.046  0.7720  1.6562  0.5675
 3541SOL    HW122085   1.283   1.810   5.049  0.6323  1.5659  2.7911
 3541SOL    HW222086   1.229   1.685   4.981  1.0096 -2.3835  2.2035
 3542SOL     OW22087   3.013   2.220   6.727 -0.1127  1.1381 -0.1538
 3542SOL    HW122088   3.086   2.175   6.686 -0.6989  0.5762 -0.5752
 3542SOL    HW222089   3.056   2.304   6.745  2.4331  0.1631 -1.7465
 3543SOL     OW22090   2.748   2.687  11.967 -0.3283  0.0885 -0.3658
 3543SOL    HW122091   2.822   2.628  11.978 -1.7824 -2.1290 -2.3237
 3543SOL    HW222092   2.703   2.645  11.893 -0.6715  1.2841 -0.8390
 3544SOL     OW22093   3.271   3.834   4.998 -0.0279  0.0816  0.4276
 3544SOL    HW122094   3.287   3.766   4.933  1.2801 -0.7175  1.5758
 3544SOL    HW222095   3.308   3.903   4.943 -0.8520  0.2046  0.0295
 3545SOL     OW22096   1.033   1.048   3.468  0.0037  0.3242  0.1010
 3545SOL    HW122097   0.978   1.036   3.545  1.7774 -0.1595  1.2902
 3545SOL    HW222098   1.013   1.132   3.426  0.7319  0.9950  1.0748
 3546SOL     OW22099   2.143   4.169   9.829 -0.1841 -0.4957 -0.3520
 3546SOL    HW122100   2.085   4.208   9.764 -0.6178  0.4540  0.5989
 3546SOL    HW222101   2.208   4.239   9.821 -0.3631 -0.2384  0.4978
 3547SOL     OW22102   4.378   3.840   8.140 -0.4050 -0.0763 -0.2277
 3547SOL    HW122103   4.456   3.797   8.106 -0.7952 -0.4629 -0.6389
 3547SOL    HW222104   4.429   3.882   8.209  1.8113 -1.5217 -0.9702
 3548SOL     OW22105   0.424   1.602   2.275 -0.3939  0.0379  0.1425
 3548SOL    HW122106   0.411   1.531   2.213  1.0911  1.3566 -1.7070
 3548SOL    HW222107   0.510   1.582   2.313  0.1951 -1.1540 -1.8146
 3549SOL     OW22108   2.813   2.011   3.787 -0.6736  0.1421 -0.1816
 3549SOL    HW122109   2.761   2.089   3.772 -0.9071  0.1503  0.6473
 3549SOL    HW222110   2.788   1.974   3.703 -0.0057  0.3481 -0.4705
 3550SOL     OW22111   1.921   3.568  14.509 -0.3791  0.1102 -0.1009
 3550SOL    HW122112   1.981   3.508  14.463  2.3097  2.1319  0.8239
 3550SOL    HW222113   1.992   3.614  14.553 -0.8407  0.9380 -0.2303
 3551SOL     OW22114   0.092   4.064  13.997 -0.6545  0.0504 -0.2199
 3551SOL    HW122115   0.089   4.084  14.090  0.9426 -0.4710 -0.0666
 3551SOL    HW222116   0.147   3.986  14.003  0.0876  0.4946 -1.2717
 3552SOL     OW22117   0.066   0.964   8.704 -0.0374  0.0456 -0.2563
 3552SOL    HW122118   0.031   0.968   8.793  0.3759  0.7978 -0.1270
 3552SOL    HW222119   0.159   0.987   8.705 -0.0236  0.0533 -1.3785
 3553SOL     OW22120   1.616   3.472   6.088 -0.3246  0.4245  0.4372
 3553SOL    HW122121   1.700   3.429   6.108 -2.1843 -4.1425 -1.4767
 3553SOL    HW222122   1.638   3.565   6.087  2.0136 -0.1377 -2.1480
 3554SOL     OW22123   2.300   3.848  14.596 -0.5178  0.0665  0.1910
 3554SOL    HW122124   2.248   3.846  14.516  2.9339 -0.6080 -2.0154
 3554SOL    HW222125   2.381   3.813  14.560 -1.4432 -2.3060  0.4188
 3555SOL     OW22126   2.541   2.213  15.038  0.1245 -0.3676 -0.0678
 3555SOL    HW122127   2.529   2.247  15.126 -0.2460  1.9976 -1.0279
 3555SOL    HW222128   2.560   2.121  15.053  0.7067 -0.6842 -2.6752
 3556SOL     OW22129   0.814   0.507   2.623 -0.3420  0.1374  0.1957
 3556SOL    HW122130   0.880   0.458   2.573 -2.7100 -1.7312 -1.1526
 3556SOL    HW222131   0.752   0.438   2.647 -1.1636  0.2324 -1.6640
 3557SOL     OW22132   3.047   3.189   5.648  0.0601  0.3034 -0.0660
 3557SOL    HW122133   3.140   3.168   5.639  0.0411 -0.1869  0.8919
 3557SOL    HW222134   3.061   3.281   5.674  0.0089 -0.5520  2.9724
 3558SOL     OW22135   2.139   2.645   4.699 -0.2158 -0.5018  0.0640
 3558SOL    HW122136   2.201   2.678   4.634 -1.2944 -0.2463 -0.8272
 3558SOL    HW222137   2.076   2.716   4.710 -1.4018 -1.4286 -0.7591
 3559SOL     OW22138   0.902   2.945   7.429  0.1636 -0.1122  0.3521
 3559SOL    HW122139   0.942   2.967   7.344  1.7651  1.2127  1.4473
 3559SOL    HW222140   0.834   2.883   7.403 -1.0757  1.1184  0.7057
 3560SOL     OW22141   1.875   4.084  17.048 -0.1922 -0.3219  0.0482
 3560SOL    HW122142   1.854   4.074  16.955 -0.7859 -0.6495  0.2197
 3560SOL    HW222143   1.856   3.995  17.078  1.5634 -0.5326  0.5667
 3561SOL     OW22144   0.784   1.469   3.057 -0.5499  0.5315  0.1440
 3561SOL    HW122145   0.761   1.398   2.996  0.6892  0.1721  0.0917
 3561SOL    HW222146   0.759   1.445   3.146 -0.5256 -0.4414 -0.1139
 3562SOL     OW22147   2.049   3.199   7.660  0.4440  0.2936  0.2107
 3562SOL    HW122148   2.128   3.149   7.639  0.9986 -0.0931  3.2685
 3562SOL    HW222149   1.982   3.132   7.676  0.6038 -0.0007 -0.3588
 3563SOL     OW22150   0.197   1.564   7.133 -0.6529  0.2626  0.4043
 3563SOL    HW122151   0.137   1.595   7.066  3.1299  1.5247 -2.3710
 3563SOL    HW222152   0.218   1.473   7.110 -1.1374  0.3993 -0.5615
 3564SOL     OW22153   2.658   2.918   3.729  0.1111  0.0425  0.2597
 3564SOL    HW122154   2.580   2.970   3.710 -0.3518  0.2109  2.5746
 3564SOL    HW222155   2.712   2.988   3.766  1.1045  0.5709 -2.1999
 3565SOL     OW22156   0.459   2.647   2.100  0.7192  0.3212 -0.0383
 3565SOL    HW122157   0.470   2.552   2.103  2.0931  0.4527 -1.5030
 3565SOL    HW222158   0.439   2.673   2.190 -1.3493 -2.9033  0.4482
 3566SOL     OW22159   4.627   4.241   1.174 -0.6762 -0.0462  0.2422
 3566SOL    HW122160   4.660   4.324   1.206 -0.8739 -0.3461  1.2295
 3566SOL    HW222161   4.698   4.192   1.133 -1.1041 -0.2089 -0.3015
 3567SOL     OW22162   3.731   1.500   7.250 -0.5803 -0.0932  0.0342
 3567SOL    HW122163   3.814   1.472   7.289  0.4248 -0.9169 -2.6369
 3567SOL    HW222164   3.673   1.428   7.274 -3.8764  2.3291 -0.6580
 3568SOL     OW22165   3.426   1.140   1.795 -0.0708  0.2489 -0.3277
 3568SOL    HW122166   3.378   1.065   1.760  0.6754 -0.4118  0.0410
 3568SOL    HW222167   3.436   1.096   1.880 -1.2135  1.4542  0.4399
 3569SOL     OW22168   1.736   1.989  12.305 -0.1238  0.4926 -0.6683
 3569SOL    HW122169   1.820   1.951  12.332 -1.2199 -2.3333 -1.1670
 3569SOL    HW222170   1.774   2.076  12.291 -1.9150  1.5130  0.8738
 3570SOL     OW22171   1.483   2.765  11.648  0.2164  0.0680 -0.0266
 3570SOL    HW122172   1.558   2.732  11.698  1.0070  0.6032 -0.8631
 3570SOL    HW222173   1.453   2.842  11.697 -0.6006 -0.5321  0.4187
 3571SOL     OW22174   4.367   4.119  11.863 -0.1465 -0.9728  0.0811
 3571SOL    HW122175   4.356   4.029  11.893  3.9702 -1.1772  0.9369
 3571SOL    HW222176   4.288   4.158  11.902  0.3903  1.1883 -0.9551
 3572SOL     OW22177   2.468   4.483   2.079  0.0292  0.1367  0.0170
 3572SOL    HW122178   2.522   4.430   2.138  1.0863  1.2388  0.0512
 3572SOL    HW222179   2.470   4.569   2.122 -2.7112  0.5373 -0.6827
 3573SOL     OW22180   1.212   1.554   2.382  0.0619 -0.2457  0.1706
 3573SOL    HW122181   1.154   1.615   2.429 -0.4109 -1.2463  0.9032
 3573SOL    HW222182   1.292   1.606   2.376 -0.8694  1.4004  1.9186
 3574SOL     OW22183   1.913   2.791   6.364 -0.2192 -0.0504 -0.2067
 3574SOL    HW122184   2.008   2.781   6.367 -0.2650 -0.0760  1.3107
 3574SOL    HW222185   1.890   2.809   6.455  0.6875 -1.3888  0.2852
 3575SOL     OW22186   0.457   0.169   5.892  0.2354  0.1802  0.4827
 3575SOL    HW122187   0.489   0.198   5.806 -1.0076  2.3595  0.7557
 3575SOL    HW222188   0.366   0.144   5.878  0.9516 -2.7045  0.9343
 3576SOL     OW22189   3.473   3.784   4.277 -0.2329  0.2710 -0.6943
 3576SOL    HW122190   3.529   3.742   4.342 -0.6401  0.1401 -0.4283
 3576SOL    HW222191   3.538   3.818   4.215  0.9841 -0.1888  0.3298
 3577SOL     OW22192   3.852   3.143  16.797 -0.2413 -0.2309  0.1016
 3577SOL    HW122193   3.826   3.209  16.734  2.6824  2.3332  1.5765
 3577SOL    HW222194   3.840   3.184  16.883  1.2231  2.0638 -0.7862
 3578SOL     OW22195   4.318   2.983  10.754  0.5107  0.2356  0.3273
 3578SOL    HW122196   4.248   2.978  10.819 -2.5066  2.8314 -2.7738
 3578SOL    HW222197   4.342   2.891  10.742  0.9052  0.7314 -2.5807
 3579SOL     OW22198   4.451   2.094   0.719  0.1035 -0.3804 -0.2690
 3579SOL    HW122199   4.394   2.077   0.644  0.3750 -3.4274  0.2123
 3579SOL    HW222200   4.501   2.012   0.719  0.2309 -0.2973  2.6240
 3580SOL     OW22201   1.603   0.563   1.335  0.1802  0.1060  0.4320
 3580SOL    HW122202   1.602   0.552   1.240  1.8968 -1.4121  0.5827
 3580SOL    HW222203   1.688   0.519   1.345  1.3828  2.5072  0.6085
 3581SOL     OW22204   1.330   0.368   5.038  0.0629  0.1685  0.2329
 3581SOL    HW122205   1.392   0.410   5.097  0.3516 -1.0071  0.7728
 3581SOL    HW222206   1.254   0.418   5.066 -0.3512  0.0561 -0.6737
 3582SOL     OW22207   1.905   4.317   5.153  0.3357  0.8781 -0.5296
 3582SOL    HW122208   1.912   4.402   5.110 -0.9124  1.2649  0.0139
 3582SOL    HW222209   1.814   4.287   5.147 -0.4244  2.3292  3.6376
 3583SOL     OW22210   1.354   3.956  10.227 -0.7932  0.2601  0.4160
 3583SOL    HW122211   1.414   3.884  10.243 -2.4968 -1.2778 -0.0915
 3583SOL    HW222212   1.343   3.974  10.320  0.5381 -2.4465  1.1080
 3584SOL     OW22213   3.546   2.449  10.582 -0.1785  0.0397  0.0092
 3584SOL    HW122214   3.497   2.527  10.555 -1.0751 -0.8280 -0.8481
 3584SOL    HW222215   3.620   2.447  10.521  0.2445 -1.6964  0.5891
 3585SOL     OW22216   1.162   3.915  11.911 -0.0562 -0.0024 -0.1330
 3585SOL    HW122217   1.249   3.914  11.951 -1.3303  0.5456  2.6649
 3585SOL    HW222218   1.113   3.889  11.989  0.0279  1.5752  0.4478
 3586SOL     OW22219   2.961   0.383   2.136 -0.6085  0.1963 -0.4113
 3586SOL    HW122220   3.012   0.332   2.072  1.2802  2.2477 -0.5253
 3586SOL    HW222221   3.033   0.401   2.196  0.8398 -0.8034 -1.8320
 3587SOL     OW22222   2.436   2.730   2.242 -0.1308 -0.2545  0.1266
 3587SOL    HW122223   2.432   2.822   2.218  1.9409 -0.4761 -1.0695
 3587SOL    HW222224   2.474   2.700   2.160 -2.2018 -0.7696 -0.6441
 3588SOL     OW22225   4.509   3.695   7.044 -0.3853  0.4618  0.4228
 3588SOL    HW122226   4.455   3.698   6.965 -1.0648 -0.9706  0.8250
 3588SOL    HW222227   4.443   3.675   7.111  1.0104 -1.7022  1.1409
 3589SOL     OW22228   1.132   4.000   5.201 -0.2312 -1.1781  0.1349
 3589SOL    HW122229   1.106   3.918   5.242 -0.4419 -0.9482  0.4608
 3589SOL    HW222230   1.227   4.009   5.210 -0.2908  0.1973 -0.5418
 3590SOL     OW22231   2.530   0.014   2.186  0.1350 -0.8605 -0.6147
 3590SOL    HW122232   2.608   0.066   2.204 -0.6514  0.5012 -1.1810
 3590SOL    HW222233   2.479   0.022   2.267  0.1941 -0.0124 -0.6682
 3591SOL     OW22234   3.145   3.546   6.794  0.4792 -0.0614 -0.0486
 3591SOL    HW122235   3.128   3.639   6.781 -1.4818 -0.5938 -1.2391
 3591SOL    HW222236   3.130   3.546   6.889  3.1565 -0.3215  0.3620
 3592SOL     OW22237   0.952   0.336   7.491 -0.3215 -0.2077 -0.4371
 3592SOL    HW122238   0.930   0.343   7.584  1.3645 -0.4219 -0.0354
 3592SOL    HW222239   0.910   0.252   7.471 -2.8926  0.9762 -0.0435
 3593SOL     OW22240   4.291   1.951   4.091 -0.2123  1.0108  0.2213
 3593SOL    HW122241   4.291   1.873   4.034  1.9767  2.4512 -1.7416
 3593SOL    HW222242   4.204   1.989   4.080 -1.1048 -0.1458  3.1334
 3594SOL     OW22243   0.459   0.567   9.225 -0.5071  0.2244  0.5313
 3594SOL    HW122244   0.526   0.537   9.164  2.4481 -0.3613  4.0707
 3594SOL    HW222245   0.440   0.651   9.184  0.9158 -0.4238 -1.4234
 3595SOL     OW22246   3.562   0.624   8.465  0.4831  0.1515  0.4605
 3595SOL    HW122247   3.538   0.714   8.442 -1.5669 -0.4935  0.0264
 3595SOL    HW222248   3.628   0.607   8.398  0.4115  1.8908 -0.0344
 3596SOL     OW22249   3.378   0.767  15.599  0.5136  0.1019 -0.0468
 3596SOL    HW122250   3.390   0.846  15.652  0.1380  0.5086 -0.5587
 3596SOL    HW222251   3.296   0.735  15.637  0.3998 -1.3419 -1.5108
 3597SOL     OW22252   4.332   0.838   8.078 -0.1120 -0.2646 -0.0474
 3597SOL    HW122253   4.313   0.931   8.095 -0.8407 -0.4368  0.0888
 3597SOL    HW222254   4.249   0.795   8.099 -0.4165  0.9519  1.2372
 3598SOL     OW22255   3.779   2.674  15.321 -0.2428  0.0228  0.2660
 3598SOL    HW122256   3.812   2.735  15.387  2.4851 -2.6080  1.3204
 3598SOL    HW222257   3.852   2.613  15.318  1.8094  2.5583 -1.5635
 3599SOL     OW22258   3.367   1.568  11.733 -0.0174  0.0968 -0.2418
 3599SOL    HW122259   3.349   1.478  11.762 -0.6949  0.0802 -0.7185
 3599SOL    HW222260   3.277   1.592  11.709 -0.3629 -1.9810 -1.1066
 3600SOL     OW22261   3.236   1.425   5.183  0.8274 -0.3249 -0.3789
 3600SOL    HW122262   3.197   1.411   5.097 -0.7902 -1.4657  0.5366
 3600SOL    HW222263   3.167   1.380   5.232  1.2532 -0.3745  0.1816
 3601SOL     OW22264   2.994   1.556   6.195  0.1298 -0.1247 -0.0428
 3601SOL    HW122265   3.054   1.508   6.138  1.1541  0.7708  0.2729
 3601SOL    HW222266   2.913   1.508   6.184 -0.6154  1.8229 -3.0742
 3602SOL     OW22267   3.410   3.843   7.742  0.7200 -0.2460 -0.0472
 3602SOL    HW122268   3.348   3.899   7.695  2.1089  0.7091 -0.7101
 3602SOL    HW222269   3.345   3.811   7.805  1.3649 -0.3942  0.5455
 3603SOL     OW22270   0.201   2.139   3.501 -0.9536  0.2546 -0.4749
 3603SOL    HW122271   0.162   2.113   3.418 -0.4301  0.5886 -0.8211
 3603SOL    HW222272   0.126   2.183   3.541  1.1419  0.8899  2.7208
 3604SOL     OW22273   2.352   2.919   3.469 -0.3154 -0.0736  0.0972
 3604SOL    HW122274   2.388   2.830   3.474  2.8887  1.2544  0.5019
 3604SOL    HW222275   2.271   2.898   3.514 -0.3758  0.8660  0.4107
 3605SOL     OW22276   3.475   1.112   3.246  0.8799 -0.4175 -0.0033
 3605SOL    HW122277   3.556   1.143   3.286  1.0627  1.6770 -2.0162
 3605SOL    HW222278   3.499   1.019   3.237  0.3433 -0.4545 -0.9688
 3606SOL     OW22279   0.356   0.026   0.230 -0.1706  0.0141 -0.3266
 3606SOL    HW122280   0.279   0.083   0.236 -0.0756  0.0592  0.4515
 3606SOL    HW222281   0.335   4.664   0.191  1.7818 -1.1126  1.0697
 3607SOL     OW22282   0.050   1.880   3.715  0.0016  0.1316 -0.5102
 3607SOL    HW122283   0.084   1.888   3.804 -1.4994 -2.0992  0.2530
 3607SOL    HW222284   0.099   1.945   3.665  1.5022  0.8001  1.8288
 3608SOL     OW22285   0.099   1.436  10.534 -0.3985 -0.2086  0.6331
 3608SOL    HW122286   0.086   1.509  10.474  0.4853  0.5198  1.3267
 3608SOL    HW222287   0.024   1.377  10.526 -0.8229  0.5488 -0.8145
 3609SOL     OW22288   4.322   2.338   3.844  0.0241  0.2961  0.7385
 3609SOL    HW122289   4.271   2.372   3.917  1.1384 -0.4009  1.8470
 3609SOL    HW222290   4.397   2.302   3.892  1.2804  1.8588 -0.0569
 3610SOL     OW22291   0.418   1.887   5.424  0.1284 -0.5012  0.0911
 3610SOL    HW122292   0.326   1.915   5.430  1.1595  2.9143 -0.4066
 3610SOL    HW222293   0.429   1.848   5.511 -1.9585  0.9625  1.0035
 3611SOL     OW22294   2.107   0.392   4.932 -0.7009 -0.3643  0.7442
 3611SOL    HW122295   2.047   0.443   4.878  2.2319 -0.6177 -2.7221
 3611SOL    HW222296   2.116   0.312   4.881 -1.2295  0.6369 -0.9157
 3612SOL     OW22297   4.182   2.892  13.357  0.1618  0.3145  0.2282
 3612SOL    HW122298   4.175   2.977  13.401  2.1729 -0.6124  2.3650
 3612SOL    HW222299   4.238   2.848  13.421 -0.3324 -1.7569 -0.7496
 3613SOL     OW22300   3.687   4.185   5.394 -0.2390 -0.7732  0.1409
 3613SOL    HW122301   3.618   4.203   5.459 -0.1276 -2.4079  0.7170
 3613SOL    HW222302   3.670   4.249   5.325  0.3864 -0.5948  0.1533
 3614SOL     OW22303   1.901   3.836   9.634  0.2602  0.6108  0.0340
 3614SOL    HW122304   1.901   3.931   9.633 -1.1916  0.6232  0.2214
 3614SOL    HW222305   1.878   3.829   9.542  2.0407 -1.2492 -0.2769
 3615SOL     OW22306   3.254   3.791   4.428  0.0499 -0.5782 -0.6396
 3615SOL    HW122307   3.318   3.808   4.359  0.5247 -0.2292 -0.1134
 3615SOL    HW222308   3.303   3.731   4.484 -0.2491  0.8446  1.1423
 3616SOL     OW22309   0.705   4.437   4.851  0.3121 -0.1800 -0.0069
 3616SOL    HW122310   0.659   4.354   4.839 -0.6905 -0.0871  3.1186
 3616SOL    HW222311   0.643   4.474   4.914  0.7626 -0.1109  0.3961
 3617SOL     OW22312   3.893   1.100   3.933 -0.4875 -0.0169  0.4777
 3617SOL    HW122313   3.950   1.071   4.004 -0.1610 -0.8189 -0.1190
 3617SOL    HW222314   3.813   1.120   3.983  0.7772  0.9306  2.1479
 3618SOL     OW22315   1.941   4.368   0.880 -0.7293  0.1883 -0.3362
 3618SOL    HW122316   1.931   4.393   0.972 -2.1786 -0.4557 -0.3164
 3618SOL    HW222317   1.917   4.450   0.836  2.0533  2.6693  2.7716
 3619SOL     OW22318   2.951   0.513   6.925  0.2011 -0.0576 -0.7403
 3619SOL    HW122319   2.892   0.576   6.883 -1.4453 -1.2101 -0.1740
 3619SOL    HW222320   2.894   0.467   6.987  0.3095  1.3351  0.4142
 3620SOL     OW22321   0.181   4.173   3.943  0.3434  0.1140  0.4700
 3620SOL    HW122322   0.182   4.125   4.026 -0.7081  0.6588  0.7939
 3620SOL    HW222323   0.185   4.102   3.878 -0.7303  0.4187  0.0714
 3621SOL     OW22324   2.326   0.959   1.576 -0.2451 -0.4044  0.2273
 3621SOL    HW122325   2.410   0.925   1.604 -0.9200 -0.7232  1.8613
 3621SOL    HW222326   2.278   0.903   1.637  0.8488 -0.5907  0.9109
 3622SOL     OW22327   2.904   3.350   8.150  0.1373 -0.3305  0.3845
 3622SOL    HW122328   2.847   3.348   8.227 -0.2766 -0.3271  0.0756
 3622SOL    HW222329   2.902   3.444   8.135 -0.0843  0.2543  4.0002
 3623SOL     OW22330   2.048   1.740   8.452 -0.1558 -0.4878  0.1906
 3623SOL    HW122331   2.086   1.683   8.519  1.2828 -0.7468 -0.8464
 3623SOL    HW222332   2.083   1.700   8.373 -1.6494 -0.6645 -0.3861
 3624SOL     OW22333   1.454   1.624   2.933 -0.5186  0.2354  0.5786
 3624SOL    HW122334   1.442   1.552   2.994 -0.4876  0.2993  0.6607
 3624SOL    HW222335   1.524   1.674   2.976 -0.6333  0.0604  0.9664
 3625SOL     OW22336   4.281   3.103  15.538  0.3880 -0.4418 -0.1086
 3625SOL    HW122337   4.239   3.173  15.488  1.2928  0.7813  0.8208
 3625SOL    HW222338   4.247   3.025  15.495  0.7243 -2.2887  2.9262
 3626SOL     OW22339   1.826   2.255   8.326  0.1274  0.9511  0.1469
 3626SOL    HW122340   1.857   2.339   8.294 -0.1306 -0.1495 -2.9832
 3626SOL    HW222341   1.748   2.285   8.372 -0.4661  0.8935 -0.8227
 3627SOL     OW22342   1.610   2.525   3.784 -0.1074 -0.1829 -0.2052
 3627SOL    HW122343   1.577   2.598   3.836 -0.1489  1.6737 -2.8237
 3627SOL    HW222344   1.700   2.552   3.768 -0.5392  1.6349  0.4942
 3628SOL     OW22345   1.000   1.667   5.917  0.2226 -0.2830 -0.6215
 3628SOL    HW122346   1.052   1.664   5.837  3.2485  0.4630  1.3264
 3628SOL    HW222347   1.036   1.599   5.973 -0.2941  0.8490  1.0778
 3629SOL     OW22348   3.507   4.208   1.481 -0.5136 -0.0347  0.5997
 3629SOL    HW122349   3.571   4.268   1.519 -1.0679  0.4169  0.8194
 3629SOL    HW222350   3.555   4.162   1.412  0.3290  1.0427  0.4763
 3630SOL     OW22351   3.419   1.622   5.861 -0.1469  0.3986  0.0789
 3630SOL    HW122352   3.491   1.633   5.801 -1.0281  0.3897 -0.9793
 3630SOL    HW222353   3.417   1.527   5.872  1.0730  0.5125  1.3082
 3631SOL     OW22354   1.050   2.048  15.010  0.0630 -0.5331 -0.3407
 3631SOL    HW122355   0.978   2.001  14.969 -0.1566 -0.4514 -0.0443
 3631SOL    HW222356   1.039   2.018  15.099  0.0815 -0.5964 -0.3600
 3632SOL     OW22357   4.542   4.344  13.758 -0.3897 -0.1948 -0.5549
 3632SOL    HW122358   4.504   4.257  13.748  0.4221 -0.3696 -2.1268
 3632SOL    HW222359   4.583   4.358  13.672  0.2214 -0.2433 -0.2700
 3633SOL     OW22360   0.424   3.295   6.533  0.3131 -0.5213 -0.5882
 3633SOL    HW122361   0.331   3.281   6.517  0.3956 -0.4197 -1.1593
 3633SOL    HW222362   0.467   3.272   6.450 -1.7801 -1.9121 -1.2869
 3634SOL     OW22363   3.216   3.074   7.717 -0.0350 -0.0078 -0.4132
 3634SOL    HW122364   3.141   3.057   7.774 -0.5226  0.1874 -0.9970
 3634SOL    HW222365   3.178   3.142   7.662  1.2690  1.8376  1.0109
 3635SOL     OW22366   1.933   3.033  14.002  0.2238 -0.0286  0.2778
 3635SOL    HW122367   1.964   3.045  13.912 -0.6793 -1.0567 -0.1560
 3635SOL    HW222368   1.887   3.117  14.004 -0.7851 -0.6244  1.5118
 3636SOL     OW22369   1.288   0.102   7.350 -0.9729  0.3619 -0.1832
 3636SOL    HW122370   1.239   0.075   7.272  0.2538  2.3237 -1.6451
 3636SOL    HW222371   1.295   0.197   7.338 -0.6655  0.2595 -0.8595
 3637SOL     OW22372   1.055   4.164   3.622  0.2926 -0.3300 -0.5156
 3637SOL    HW122373   1.092   4.151   3.709 -1.4643  0.4378  0.3482
 3637SOL    HW222374   1.135   4.145   3.573  0.0806  1.7426 -1.6962
 3638SOL     OW22375   3.479   2.579  12.871  0.1541 -0.0636  0.0204
 3638SOL    HW122376   3.386   2.599  12.869 -0.1737 -1.4197  2.3947
 3638SOL    HW222377   3.505   2.656  12.921 -1.0386  0.7509 -0.5976
 3639SOL     OW22378   2.225   0.367   6.286  0.1612  0.1938  0.8210
 3639SOL    HW122379   2.303   0.422   6.296  0.4854 -0.4598  1.9019
 3639SOL    HW222380   2.216   0.360   6.191  1.7798  1.1310  0.5903
 3640SOL     OW22381   1.822   3.080   8.246 -0.1375 -0.5843 -0.1461
 3640SOL    HW122382   1.868   3.152   8.202 -1.5556  1.6930  2.1428
 3640SOL    HW222383   1.894   3.025   8.276  0.2388 -0.6037 -1.0680
 3641SOL     OW22384   1.460   3.316  12.579  0.0986  0.3679  0.0399
 3641SOL    HW122385   1.403   3.248  12.616  2.3025 -0.7209  1.4836
 3641SOL    HW222386   1.542   3.284  12.618  0.4517  1.0104 -0.1785
 3642SOL     OW22387   0.617   3.318   4.562  0.5249 -0.6220 -0.3626
 3642SOL    HW122388   0.588   3.228   4.571  1.4072 -1.0380 -1.7763
 3642SOL    HW222389   0.704   3.314   4.601  0.3318 -0.4172  0.0896
 3643SOL     OW22390   0.480   2.912   4.979  0.1046 -0.6742 -0.1704
 3643SOL    HW122391   0.512   2.880   4.895 -1.8936  0.3632 -1.2951
 3643SOL    HW222392   0.471   2.826   5.021  0.4606 -0.8432 -0.4344
 3644SOL     OW22393   0.693   3.505  12.009 -0.1720 -0.0423 -0.1701
 3644SOL    HW122394   0.717   3.560  12.083  1.3858  0.4833 -1.0684
 3644SOL    HW222395   0.726   3.421  12.041  0.7766 -0.3885 -2.0489
 3645SOL     OW22396   2.301   0.296   4.590 -0.0914 -0.3509 -0.2075
 3645SOL    HW122397   2.256   0.296   4.675 -1.3257 -1.2140 -0.8454
 3645SOL    HW222398   2.297   0.203   4.568 -0.5636  0.0174 -1.6663
 3646SOL     OW22399   1.367   0.309   8.827 -0.2805  0.0887 -0.0301
 3646SOL    HW122400   1.351   0.403   8.840 -2.8357 -0.2372 -0.8651
 3646SOL    HW222401   1.339   0.295   8.736  1.6182  1.2993 -0.7851
 3647SOL     OW22402   3.678   1.549   5.354 -0.1935  0.1333 -0.0789
 3647SOL    HW122403   3.722   1.607   5.416 -2.5339  2.5686 -0.7232
 3647SOL    HW222404   3.590   1.548   5.391  0.6696  0.5360  1.9962
 3648SOL     OW22405   0.749   2.309  12.366  0.3194 -0.2512  0.0119
 3648SOL    HW122406   0.767   2.297  12.460 -0.1632 -0.3517  0.0904
 3648SOL    HW222407   0.731   2.403  12.368  2.8110  0.2561 -1.5523
 3649SOL     OW22408   2.406   3.216   2.362 -0.1227  0.1347 -0.1322
 3649SOL    HW122409   2.483   3.264   2.393  1.3480 -0.8454 -2.3271
 3649SOL    HW222410   2.382   3.257   2.279  1.9996  1.9565  0.1516
 3650SOL     OW22411   4.248   0.364   4.572 -0.3747  0.1872 -0.0276
 3650SOL    HW122412   4.311   0.295   4.591 -2.3898 -1.7030 -0.2401
 3650SOL    HW222413   4.279   0.445   4.611 -1.5346  0.2293  0.8011
 3651SOL     OW22414   3.634   1.893  14.301 -0.0513 -0.2248 -0.0429
 3651SOL    HW122415   3.722   1.860  14.319 -0.4617 -1.2373  0.1528
 3651SOL    HW222416   3.593   1.886  14.387 -1.1732 -1.2270 -0.6641
 3652SOL     OW22417   0.105   4.394   3.584 -0.5520 -0.0574  0.0338
 3652SOL    HW122418   0.104   4.344   3.666  0.3839 -0.9012 -0.4705
 3652SOL    HW222419   0.147   4.325   3.533  1.8414  0.4506  1.3241
 3653SOL     OW22420   0.694   3.969   8.762  0.5888 -0.4702  0.1234
 3653SOL    HW122421   0.744   4.051   8.757 -1.2288  0.5874 -0.4387
 3653SOL    HW222422   0.713   3.933   8.849  0.7638 -0.3797  0.1233
 3654SOL     OW22423   1.238   1.952  16.388 -0.0356  0.4006  0.1062
 3654SOL    HW122424   1.173   2.021  16.373 -2.0467 -1.7521 -1.1633
 3654SOL    HW222425   1.214   1.893  16.316 -0.0123  1.0234 -0.4075
 3655SOL     OW22426   1.935   2.036   4.137 -0.0630 -0.1362 -0.2138
 3655SOL    HW122427   2.020   2.070   4.164 -1.3551  1.4833  1.7496
 3655SOL    HW222428   1.919   2.065   4.047  2.1725  1.7444  0.0051
 3656SOL     OW22429   3.475   1.733  16.420 -0.0196 -0.2562  0.4585
 3656SOL    HW122430   3.446   1.741  16.329  1.1562 -1.5853 -0.0248
 3656SOL    HW222431   3.550   1.792  16.425  0.0682 -0.3661  0.4378
 3657SOL     OW22432   0.398   4.000   9.122  0.5038  0.3126 -0.1639
 3657SOL    HW122433   0.456   3.924   9.112 -0.9281 -0.6546 -1.0551
 3657SOL    HW222434   0.310   3.964   9.127  0.3746  0.5752 -0.4951
 3658SOL     OW22435   3.254   1.493  10.785 -0.0371 -0.3206 -1.0091
 3658SOL    HW122436   3.229   1.585  10.780  0.6980  0.0423  1.9871
 3658SOL    HW222437   3.172   1.445  10.781 -0.9791  1.1421  1.0195
 3659SOL     OW22438   3.989   2.555   0.644 -0.0411 -0.1279 -0.0308
 3659SOL    HW122439   4.033   2.479   0.680  0.6547  0.6615  0.7973
 3659SOL    HW222440   3.907   2.508   0.626 -0.1683 -0.0323  0.2939
 3660SOL     OW22441   2.589   3.987   1.971 -0.2611  0.0936  0.3185
 3660SOL    HW122442   2.685   3.980   1.966 -0.5176 -0.7841 -3.4250
 3660SOL    HW222443   2.579   4.076   2.005 -0.4905  0.2269 -0.0988
 3661SOL     OW22444   1.431   0.156   6.976  0.5760 -0.0138 -0.8056
 3661SOL    HW122445   1.500   0.141   7.041  1.9260  2.2044 -1.7079
 3661SOL    HW222446   1.383   0.227   7.017 -1.5664 -0.2265 -2.9615
 3662SOL     OW22447   3.638   1.153   3.679  0.0321 -0.4175  0.5977
 3662SOL    HW122448   3.721   1.154   3.632 -0.2610  0.1381  0.0713
 3662SOL    HW222449   3.593   1.209   3.615  1.7385 -2.1197 -2.0985
 3663SOL     OW22450   0.813   2.536   6.522  0.0235 -0.4191  0.0014
 3663SOL    HW122451   0.807   2.577   6.608  0.1918 -1.2920  0.4193
 3663SOL    HW222452   0.908   2.531   6.524  0.0196 -0.9948 -1.1159
 3664SOL     OW22453   0.079   4.039   8.377  0.3526  0.2838  0.2063
 3664SOL    HW122454   0.131   4.056   8.455 -1.8902 -0.6876  1.9228
 3664SOL    HW222455   0.002   3.989   8.407  0.7564  0.7111  1.9435
 3665SOL     OW22456   2.002   3.159   2.431 -0.3602 -0.1236  0.1354
 3665SOL    HW122457   1.960   3.073   2.436  0.2272 -0.5473 -1.8264
 3665SOL    HW222458   2.092   3.130   2.442  0.1616  0.4130 -2.5151
 3666SOL     OW22459   3.676   4.318   2.906 -0.5108 -0.0470 -0.1858
 3666SOL    HW122460   3.675   4.390   2.969 -0.6656 -1.2990  1.2385
 3666SOL    HW222461   3.607   4.345   2.847 -1.2005 -2.3080 -0.4323
 3667SOL     OW22462   1.326   2.109   7.598 -0.4093  0.2211 -0.9174
 3667SOL    HW122463   1.392   2.119   7.667 -1.3060  0.5855 -0.1229
 3667SOL    HW222464   1.366   2.046   7.538  1.9107 -0.8786  1.7847
 3668SOL     OW22465   0.657   4.411   3.207 -0.3811  0.1438 -0.2961
 3668SOL    HW122466   0.656   4.496   3.252  0.4905 -0.4168  0.7616
 3668SOL    HW222467   0.696   4.441   3.124 -1.0621  2.2735  0.1640
 3669SOL     OW22468   1.452   1.702   3.403 -0.5737 -0.6020  0.0857
 3669SOL    HW122469   1.496   1.694   3.318  1.0519  0.5786  0.8348
 3669SOL    HW222470   1.494   1.630   3.449  0.5452  0.6141  0.9473
 3670SOL     OW22471   1.372   2.012   6.203 -0.5216 -0.2743  0.3567
 3670SOL    HW122472   1.320   2.052   6.272  1.2282  0.6182  1.1586
 3670SOL    HW222473   1.419   2.093   6.181 -2.8935  1.0567  0.2006
 3671SOL     OW22474   0.297   1.467   6.596  0.2491 -0.1586  0.2562
 3671SOL    HW122475   0.204   1.449   6.595 -0.1048  1.7426 -2.1751
 3671SOL    HW222476   0.307   1.524   6.672  3.1139 -0.3537  0.0616
 3672SOL     OW22477   1.195   1.719   4.409 -0.4376  0.2803 -0.1233
 3672SOL    HW122478   1.238   1.793   4.452 -1.6718  1.2526 -0.5969
 3672SOL    HW222479   1.216   1.729   4.316 -0.8577  0.6150 -0.1830
 3673SOL     OW22480   3.424   1.853  14.513 -0.1732  0.4019 -1.1606
 3673SOL    HW122481   3.340   1.869  14.468 -0.2387 -1.0571 -1.5448
 3673SOL    HW222482   3.405   1.787  14.579 -0.1751 -0.6183 -2.1858
 3674SOL     OW22483   3.713   3.430   5.907  0.9135  0.1319 -0.2153
 3674SOL    HW122484   3.703   3.484   5.985  0.3824 -0.9407  0.4584
 3674SOL    HW222485   3.646   3.471   5.852 -1.3467 -0.6179  1.9640
 3675SOL     OW22486   3.391   3.152   6.079 -0.3827  0.5123  0.2048
 3675SOL    HW122487   3.436   3.131   5.997  2.8271 -0.8351  2.3062
 3675SOL    HW222488   3.345   3.070   6.097  1.3110 -0.1780  1.3428
 3676SOL     OW22489   4.610   3.629   8.614 -0.3796 -0.3044 -0.3087
 3676SOL    HW122490   4.623   3.651   8.522  0.5871 -2.3687 -0.6601
 3676SOL    HW222491   4.559   3.705   8.644 -1.1944 -0.4246 -1.4066
 3677SOL     OW22492   4.139   3.988  17.651 -0.1169 -0.2255  0.0429
 3677SOL    HW122493   4.072   3.965  17.587  0.8588 -1.4468 -0.5260
 3677SOL    HW222494   4.151   4.082  17.639 -0.9643 -0.2058 -0.7118
 3678SOL     OW22495   4.036   4.605   3.899 -0.5439  0.3858 -0.5620
 3678SOL    HW122496   4.004   4.695   3.888  0.3201  0.8617  0.7611
 3678SOL    HW222497   4.119   4.633   3.938 -0.8163  0.0289  0.2750
 3679SOL     OW22498   2.892   1.108   5.025  0.4954  0.1422  0.1144
 3679SOL    HW122499   2.967   1.113   4.966  0.1171 -1.6625 -0.5081
 3679SOL    HW222500   2.854   1.195   5.013 -0.3791 -0.1002  1.0771
 3680SOL     OW22501   0.153   0.839   3.035 -0.3780 -0.2955 -0.6096
 3680SOL    HW122502   0.083   0.850   2.971  0.1477  0.8684 -0.9746
 3680SOL    HW222503   0.226   0.889   3.000 -1.6456  1.7700 -0.3114
 3681SOL     OW22504   1.034   0.746   9.545 -1.0867 -0.2262  0.5819
 3681SOL    HW122505   1.108   0.733   9.605 -0.1008  1.2387 -0.3201
 3681SOL    HW222506   0.968   0.679   9.561  0.7402 -2.1215  0.1746
 3682SOL     OW22507   4.356   1.441   2.659  0.2348  0.3022  0.3694
 3682SOL    HW122508   4.329   1.349   2.657  1.6995 -0.1480  1.2237
 3682SOL    HW222509   4.276   1.478   2.695 -1.0804 -0.4594 -1.7433
 3683SOL     OW22510   3.930   2.778   1.387 -0.5058  0.2775 -0.5106
 3683SOL    HW122511   3.838   2.783   1.361 -1.1211  0.6945  1.8096
 3683SOL    HW222512   3.956   2.698   1.340  0.2383  1.3746 -1.9899
 3684SOL     OW22513   2.073   0.037   1.704 -0.2324  0.1670 -0.0187
 3684SOL    HW122514   2.008   4.705   1.749 -1.3671  1.6895  0.1395
 3684SOL    HW222515   2.056   0.121   1.745  1.9988 -0.4235  2.1589
 3685SOL     OW22516   3.857   3.319   0.240  0.3351  0.0107  1.2975
 3685SOL    HW122517   3.858   3.276   0.154 -1.4475 -0.1709  1.3555
 3685SOL    HW222518   3.873   3.246   0.300  0.9382 -0.2617  0.8038
 3686SOL     OW22519   4.643   2.011   9.656 -0.4633 -0.1226 -0.1762
 3686SOL    HW122520   4.577   1.973   9.599  0.1350  0.8420 -1.5193
 3686SOL    HW222521   4.666   2.089   9.606 -1.1191  0.8835  1.1006
 3687SOL     OW22522   1.004   0.208  16.177  0.0214  0.0918 -0.5687
 3687SOL    HW122523   1.002   0.159  16.095 -0.7172  0.8559 -1.0076
 3687SOL    HW222524   0.912   0.197  16.201  0.5196 -1.6712  0.5612
 3688SOL     OW22525   3.464   0.180   6.486 -0.0183 -0.4728  0.0353
 3688SOL    HW122526   3.472   0.270   6.519  2.3804 -1.0310  0.9303
 3688SOL    HW222527   3.472   0.197   6.393 -1.8820  1.0701  0.1494
 3689SOL     OW22528   1.614   1.847   3.955  0.1020 -0.0075 -0.0396
 3689SOL    HW122529   1.658   1.762   3.951  0.6367  0.1732  1.7834
 3689SOL    HW222530   1.590   1.855   3.863 -2.6969 -2.1902  0.5260
 3690SOL     OW22531   3.625   3.684   7.461  0.1737 -0.7532  0.4038
 3690SOL    HW122532   3.580   3.767   7.446  1.3407 -0.3620 -0.9148
 3690SOL    HW222533   3.672   3.687   7.378  0.4928  0.5647  0.6467
 3691SOL     OW22534   1.516   4.255   2.942 -0.5930 -0.1614 -0.3789
 3691SOL    HW122535   1.487   4.296   2.861  0.7870  1.7841  0.1049
 3691SOL    HW222536   1.590   4.311   2.964  0.0709 -1.7262  1.3886
 3692SOL     OW22537   2.523   3.850   2.198  0.2116  0.4407 -0.9719
 3692SOL    HW122538   2.545   3.883   2.111 -1.9122  1.3358 -1.1576
 3692SOL    HW222539   2.600   3.796   2.216 -0.8728 -1.4378 -1.9078
 3693SOL     OW22540   2.360   1.346   6.675 -0.2401 -0.6506  0.3321
 3693SOL    HW122541   2.285   1.302   6.715 -0.6277 -0.7691 -0.5217
 3693SOL    HW222542   2.388   1.292   6.601  2.8429  0.1603  0.9092
 3694SOL     OW22543   4.673   0.447  10.362  0.1279  0.1882  0.2517
 3694SOL    HW122544   0.006   0.380  10.402 -0.7399 -0.4173  0.4517
 3694SOL    HW222545   4.701   0.524  10.411  1.2065  0.3165 -0.5873
 3695SOL     OW22546   4.361   2.364   5.335  0.3855  0.5527  0.3461
 3695SOL    HW122547   4.353   2.449   5.292  3.2089  0.4811 -0.2609
 3695SOL    HW222548   4.449   2.364   5.371  0.3773 -0.5506  0.3534
 3696SOL     OW22549   4.476   1.354   1.901  0.5106 -0.0972  0.4984
 3696SOL    HW122550   4.390   1.352   1.858  0.1122  0.6329  1.2690
 3696SOL    HW222551   4.474   1.412   1.977  2.6022 -0.8757  1.1443
 3697SOL     OW22552   0.892   2.557   0.789 -0.0100  0.2252 -0.1537
 3697SOL    HW122553   0.914   2.502   0.713 -0.0243  1.4868 -1.0694
 3697SOL    HW222554   0.881   2.497   0.862 -0.1742  0.0803 -0.2950
 3698SOL     OW22555   3.115   3.032   5.906  0.3383 -0.1311  0.1843
 3698SOL    HW122556   3.023   3.008   5.900  0.3464 -0.5602  1.8777
 3698SOL    HW222557   3.150   2.989   5.983  0.3960  0.0910  0.2826
 3699SOL     OW22558   1.598   4.048  13.806 -0.0542  0.3530 -0.0010
 3699SOL    HW122559   1.688   4.016  13.811  0.0091  0.7150  1.4018
 3699SOL    HW222560   1.611   4.140  13.784  0.1348  0.5385  0.8587
 3700SOL     OW22561   4.500   0.891  10.714  0.1923  0.0291  0.1629
 3700SOL    HW122562   4.499   0.813  10.659 -1.8280 -0.8445  1.4284
 3700SOL    HW222563   4.514   0.852  10.800 -0.6295  1.1998  0.8381
 3701SOL     OW22564   4.379   3.730  14.660 -0.0678  0.0177  0.3514
 3701SOL    HW122565   4.400   3.757  14.749  0.0310 -1.7037  0.8558
 3701SOL    HW222566   4.299   3.780  14.647  0.3118  0.4347 -0.3874
 3702SOL     OW22567   2.003   1.463   6.643  0.5141  0.6126  0.1885
 3702SOL    HW122568   2.049   1.400   6.698  0.8319  0.7642  0.0964
 3702SOL    HW222569   1.992   1.535   6.706  0.6674  0.6615  0.1599
 3703SOL     OW22570   1.943   1.830  12.403 -0.1380  0.3956  0.2447
 3703SOL    HW122571   2.033   1.815  12.373 -0.1598  0.1945  0.2808
 3703SOL    HW222572   1.951   1.896  12.472  0.4587  1.5078 -0.8869
 3704SOL     OW22573   3.042   0.394   3.469 -0.0446 -0.2019 -0.3095
 3704SOL    HW122574   3.092   0.473   3.493 -1.4052  0.1899  1.2794
 3704SOL    HW222575   2.952   0.426   3.465 -0.3587 -1.0236  0.0448
 3705SOL     OW22576   2.499   4.582   7.992 -0.7926  0.2890 -0.3097
 3705SOL    HW122577   2.407   4.560   8.004 -0.3301 -0.6368  1.4878
 3705SOL    HW222578   2.502   4.624   8.078  0.2041 -0.7924  0.1943
 3706SOL     OW22579   3.744   2.618   4.960 -0.3786  0.5171 -0.1206
 3706SOL    HW122580   3.828   2.622   5.007 -0.7088 -1.2939  0.6513
 3706SOL    HW222581   3.738   2.709   4.932 -1.6490  0.3329 -0.4134
 3707SOL     OW22582   2.299   1.372  12.087 -0.4271 -0.4798 -0.0402
 3707SOL    HW122583   2.259   1.310  12.148 -1.4217 -0.9873 -1.2235
 3707SOL    HW222584   2.225   1.429  12.068 -0.4145 -0.2573  0.5868
 3708SOL     OW22585   3.101   3.964   4.610 -0.2548  0.5452 -0.0321
 3708SOL    HW122586   3.007   3.945   4.599 -0.8153  2.6910  1.2028
 3708SOL    HW222587   3.139   3.890   4.563 -0.4337  0.5452 -0.1789
 3709SOL     OW22588   2.146   3.835  14.389  0.2086  0.3563  0.3139
 3709SOL    HW122589   2.107   3.810  14.304  0.2004  0.6431  0.2347
 3709SOL    HW222590   2.148   3.929  14.374  1.1285 -0.0042 -1.8258
 3710SOL     OW22591   0.343   3.569   8.829 -0.2274  0.1348 -0.3392
 3710SOL    HW122592   0.390   3.517   8.895  0.8198 -2.5670 -3.2133
 3710SOL    HW222593   0.302   3.622   8.897  0.4147 -1.4834  1.3343
 3711SOL     OW22594   0.022   4.715   5.199 -0.0182 -0.2921 -0.1332
 3711SOL    HW122595   0.064   0.006   5.283  1.2924  1.4749 -1.0710
 3711SOL    HW222596   4.670   4.663   5.233  0.1286  0.0938  0.7596
 3712SOL     OW22597   1.580   3.435   3.852  0.5203  0.0525  1.0102
 3712SOL    HW122598   1.582   3.516   3.802 -0.2359 -1.9365 -2.2554
 3712SOL    HW222599   1.527   3.381   3.793  0.1089  0.0609  1.3782
 3713SOL     OW22600   0.608   2.802   5.263  0.3144  0.5470  0.6814
 3713SOL    HW122601   0.633   2.762   5.346 -0.2224 -0.6984  0.2325
 3713SOL    HW222602   0.520   2.767   5.247 -0.2363  1.6937  1.1214
 3714SOL     OW22603   3.008   2.182   8.526  1.0344  0.7340  0.2113
 3714SOL    HW122604   2.930   2.216   8.482  1.8583 -0.9752 -2.5925
 3714SOL    HW222605   2.975   2.168   8.614  0.0506  0.4194 -0.2079
 3715SOL     OW22606   3.143   3.360   4.773  0.3578  0.1637  0.1734
 3715SOL    HW122607   3.109   3.449   4.771 -3.0322 -1.2371 -3.1680
 3715SOL    HW222608   3.062   3.311   4.785 -0.1848  0.3792 -2.6396
 3716SOL     OW22609   2.253   0.850   6.161 -0.0216  0.2728  0.2167
 3716SOL    HW122610   2.186   0.810   6.217  0.4549  2.4945  2.3900
 3716SOL    HW222611   2.195   0.858   6.085 -0.5548  2.2179  0.8456
 3717SOL     OW22612   2.796   4.154  11.534  0.1751 -0.2599 -0.0277
 3717SOL    HW122613   2.892   4.148  11.537  0.3262  2.0663 -0.4583
 3717SOL    HW222614   2.800   4.208  11.455 -0.7730 -0.5481 -0.2614
 3718SOL     OW22615   1.204   4.358   4.101 -0.6033  0.5402  1.0647
 3718SOL    HW122616   1.205   4.359   4.196  2.0152  1.8025  1.0329
 3718SOL    HW222617   1.112   4.364   4.074 -0.4612 -3.3987 -0.2333
 3719SOL     OW22618   1.951   1.501   5.982  0.1158  0.4067 -0.2016
 3719SOL    HW122619   1.858   1.481   5.974  0.0818  0.6170 -0.3477
 3719SOL    HW222620   1.952   1.518   6.076  2.7975 -2.2606  0.2462
 3720SOL     OW22621   4.632   1.505  13.740 -0.2027  0.1008  0.0611
 3720SOL    HW122622   4.560   1.522  13.678 -0.0637 -0.0050 -0.1310
 3720SOL    HW222623   4.597   1.437  13.798 -0.4642  0.1173 -0.0744
 3721SOL     OW22624   4.199   3.203   6.895  0.4271 -0.3787 -0.2288
 3721SOL    HW122625   4.200   3.282   6.841 -1.9610  0.7383  1.3235
 3721SOL    HW222626   4.141   3.148   6.842 -1.5114 -0.4604  1.9407
 3722SOL     OW22627   1.379   2.458  15.197 -0.0122  0.2002  0.2407
 3722SOL    HW122628   1.472   2.478  15.194 -0.9776  4.6918 -1.3380
 3722SOL    HW222629   1.350   2.550  15.201 -1.4232 -0.1872 -0.8439
 3723SOL     OW22630   1.906   2.579   1.652  0.0905  0.0790  0.2087
 3723SOL    HW122631   1.844   2.529   1.600 -1.2450  1.0633  0.8650
 3723SOL    HW222632   1.931   2.519   1.722  0.2297  1.6199  1.4892
 3724SOL     OW22633   2.299   0.267   5.225 -0.4556 -0.5883  0.1794
 3724SOL    HW122634   2.309   0.317   5.306 -1.4735 -1.0358  0.5810
 3724SOL    HW222635   2.367   0.306   5.170 -0.2845  0.9281  1.4836
 3725SOL     OW22636   3.098   1.254   2.968  0.2315  0.0647  0.8067
 3725SOL    HW122637   3.054   1.185   3.018 -1.5858  1.6593  1.4001
 3725SOL    HW222638   3.164   1.278   3.034  0.7377  1.2934 -0.1597
 3726SOL     OW22639   1.972   0.256   7.493  0.0784  0.2297  0.0478
 3726SOL    HW122640   1.878   0.268   7.480  0.1666 -0.8125 -1.6091
 3726SOL    HW222641   1.985   0.169   7.454 -1.5856 -0.4371  0.9600
 3727SOL     OW22642   2.858   2.500   9.971  0.5843 -0.1004 -0.5794
 3727SOL    HW122643   2.896   2.444  10.039  0.6179 -0.3524 -0.8112
 3727SOL    HW222644   2.932   2.514   9.912  1.0804 -0.5916 -0.0786
 3728SOL     OW22645   0.402   4.575   6.836  0.4539 -0.0285  0.2092
 3728SOL    HW122646   0.478   4.523   6.862  1.3711  0.2580 -1.9059
 3728SOL    HW222647   0.341   4.502   6.822 -1.0533  0.9610  1.5703
 3729SOL     OW22648   0.055   2.859   4.870  0.2410  0.4744 -0.9502
 3729SOL    HW122649   0.090   2.774   4.844 -2.5480 -0.9520 -0.0543
 3729SOL    HW222650   0.058   2.847   4.965 -0.3712  1.7147 -0.7712
 3730SOL     OW22651   1.095   4.718   6.164  0.6379  0.2809  0.5456
 3730SOL    HW122652   1.182   0.015   6.199  0.1040 -1.8016  2.9995
 3730SOL    HW222653   1.070   4.649   6.225  0.3113  0.8877  1.1024
 3731SOL     OW22654   4.195   0.536   1.668  0.5373  0.2958 -0.3726
 3731SOL    HW122655   4.130   0.513   1.602 -0.1090  1.8818 -0.2908
 3731SOL    HW222656   4.175   0.476   1.740  0.6376 -1.5729 -1.9009
 3732SOL     OW22657   3.455   2.030   3.105  0.1058 -0.1226 -0.7084
 3732SOL    HW122658   3.364   2.027   3.135 -0.1369 -0.7321 -1.5264
 3732SOL    HW222659   3.450   2.035   3.010  0.4856 -1.4715 -0.7892
 3733SOL     OW22660   1.315   2.269   8.325 -0.5305 -0.4476  0.8239
 3733SOL    HW122661   1.240   2.306   8.372  0.6369  1.2927  1.2879
 3733SOL    HW222662   1.294   2.176   8.323 -1.3034 -0.2408 -0.9549
 3734SOL     OW22663   3.991   1.670   2.577  0.2261  0.8860  0.3243
 3734SOL    HW122664   3.989   1.575   2.593 -0.9746  1.2337  2.2284
 3734SOL    HW222665   3.927   1.695   2.644  0.2630  0.8037  0.3910
 3735SOL     OW22666   0.702   0.254   5.139  0.2146  0.2876 -0.3422
 3735SOL    HW122667   0.748   0.324   5.093 -0.7964  1.7050  0.7991
 3735SOL    HW222668   0.728   0.178   5.086  0.2368 -0.1378  0.2737
 3736SOL     OW22669   3.512   2.066   8.010  0.7892  0.0747  0.1786
 3736SOL    HW122670   3.454   2.139   7.989  0.7754  0.4700  1.5800
 3736SOL    HW222671   3.537   2.050   7.919 -0.5392 -1.7124  0.1225
 3737SOL     OW22672   0.134   3.548   3.390 -0.2077  0.1163  0.1189
 3737SOL    HW122673   0.051   3.548   3.438  0.1670  0.4949  0.7624
 3737SOL    HW222674   0.181   3.612   3.443  0.7200 -0.0921 -0.4388
 3738SOL     OW22675   3.842   0.131   5.936 -0.1527  0.2592  0.0293
 3738SOL    HW122676   3.911   0.156   5.875  0.7902 -1.0600  0.5646
 3738SOL    HW222677   3.806   0.058   5.887 -0.3148 -1.1552  2.2483
 3739SOL     OW22678   3.153   0.421   2.304  0.1952  1.2241  0.2150
 3739SOL    HW122679   3.207   0.494   2.274 -2.2634  2.9740  0.0257
 3739SOL    HW222680   3.222   0.355   2.312 -0.1606  0.8077 -0.1769
 3740SOL     OW22681   2.508   0.020   5.837 -0.1063  0.0028 -0.1000
 3740SOL    HW122682   2.447   0.074   5.887  1.7486  3.0698 -1.1643
 3740SOL    HW222683   2.561   0.084   5.790  0.0866  0.7608  1.1692
 3741SOL     OW22684   1.593   3.548  13.781 -0.4893 -0.0789 -0.2953
 3741SOL    HW122685   1.638   3.568  13.863  2.0412  1.7528 -2.1378
 3741SOL    HW222686   1.505   3.516  13.803 -1.2769  0.9299 -1.9719
 3742SOL     OW22687   1.405   1.815   9.776  0.4010  0.3871  0.8166
 3742SOL    HW122688   1.443   1.736   9.814 -0.4117  0.6856  2.2226
 3742SOL    HW222689   1.386   1.789   9.685  0.5981 -1.3988  1.2897
 3743SOL     OW22690   1.177   0.140   5.923  0.4183 -0.3767 -0.0275
 3743SOL    HW122691   1.109   0.150   5.857  0.0191 -1.9118  0.1532
 3743SOL    HW222692   1.128   0.117   6.002 -0.5763 -0.7600 -0.7566
 3744SOL     OW22693   2.725   3.349  16.141 -0.4736  0.0034  0.4558
 3744SOL    HW122694   2.791   3.418  16.153 -0.1874 -0.0501 -0.8125
 3744SOL    HW222695   2.756   3.320  16.056  1.0767  2.1969  0.2730
 3745SOL     OW22696   2.983   2.117   8.088  0.3276  0.1069  0.2358
 3745SOL    HW122697   2.923   2.165   8.145  0.3495 -0.7142  0.9324
 3745SOL    HW222698   3.002   2.185   8.023  0.6451 -0.7794 -0.6030
 3746SOL     OW22699   2.920   2.783   9.739 -0.0792  0.2051  1.0019
 3746SOL    HW122700   2.854   2.827   9.686  0.8839  2.6839  1.8195
 3746SOL    HW222701   2.968   2.732   9.674 -1.1508 -0.1455  0.5011
 3747SOL     OW22702   1.380   2.165   4.513 -0.0308  0.3045 -0.7940
 3747SOL    HW122703   1.343   2.234   4.459 -0.7782  2.1600  2.0752
 3747SOL    HW222704   1.472   2.172   4.487  0.2108 -0.4407 -0.1364
 3748SOL     OW22705   4.704   4.499   1.272 -0.6702  0.6136 -0.0994
 3748SOL    HW122706   4.713   4.573   1.212  0.0117 -0.4639 -1.3308
 3748SOL    HW222707   0.071   4.467   1.283 -0.3073  1.5699 -0.2546
 3749SOL     OW22708   4.023   3.118  16.406 -0.0772 -0.4357  0.3731
 3749SOL    HW122709   4.001   3.038  16.454  0.7085  0.1279  1.6754
 3749SOL    HW222710   4.115   3.097  16.391 -0.1759  0.4859 -1.4220
 3750SOL     OW22711   3.688   1.711   2.737  0.7792 -0.1058  0.4920
 3750SOL    HW122712   3.638   1.630   2.726  0.6088 -0.0054  0.5224
 3750SOL    HW222713   3.626   1.774   2.698 -0.4207 -2.1091 -0.8226
 3751SOL     OW22714   1.835   3.421   6.437 -0.2301 -0.0281 -0.3827
 3751SOL    HW122715   1.835   3.365   6.515  0.5010 -1.1265 -1.1693
 3751SOL    HW222716   1.769   3.487   6.456 -0.6510 -0.0948 -1.6369
 3752SOL     OW22717   0.893   0.229   9.092  0.2949 -0.7954 -0.3795
 3752SOL    HW122718   0.974   0.181   9.105  0.5855 -0.4602 -0.9999
 3752SOL    HW222719   0.925   0.308   9.048 -0.3561  0.2963  1.0860
 3753SOL     OW22720   3.243   1.653   3.866  0.1672  0.3669  0.3645
 3753SOL    HW122721   3.173   1.697   3.818 -1.5235  0.2965  2.7471
 3753SOL    HW222722   3.262   1.723   3.930 -1.9083  1.9321 -0.7327
 3754SOL     OW22723   3.147   4.356   5.344 -0.1351  0.2638  0.0279
 3754SOL    HW122724   3.151   4.299   5.268 -0.0680  0.5628 -0.1901
 3754SOL    HW222725   3.227   4.322   5.385 -0.3778  1.6334  1.6638
 3755SOL     OW22726   1.150   2.706   3.127 -0.4639 -0.4481  0.0169
 3755SOL    HW122727   1.233   2.664   3.147 -1.0051 -1.3078  0.4627
 3755SOL    HW222728   1.100   2.659   3.193  0.8228 -1.3033  0.3807
 3756SOL     OW22729   2.043   2.073   8.651  0.6823  0.3609 -0.0174
 3756SOL    HW122730   2.082   2.156   8.624  1.6388 -0.1459 -0.2048
 3756SOL    HW222731   2.099   2.010   8.605  2.6679  1.2399  1.2080
 3757SOL     OW22732   1.777   2.493   6.265  0.2975 -0.1168 -0.5716
 3757SOL    HW122733   1.802   2.577   6.227 -1.2406  0.6782  0.2104
 3757SOL    HW222734   1.753   2.445   6.185  0.8981  0.3021 -1.0088
 3758SOL     OW22735   1.541   2.026   3.084 -0.1671  0.2865  0.9362
 3758SOL    HW122736   1.569   1.964   3.017 -1.6433  1.3088 -0.6510
 3758SOL    HW222737   1.586   2.007   3.166  0.5359 -1.7875  0.0497
 3759SOL     OW22738   1.208   4.058  16.618 -0.0238 -0.0334 -0.0424
 3759SOL    HW122739   1.138   4.075  16.681  0.3761  0.0372  0.3821
 3759SOL    HW222740   1.200   3.962  16.620 -0.4182 -0.0317 -2.0774
 3760SOL     OW22741   2.442   4.359   9.157 -0.2767  0.2271 -0.0794
 3760SOL    HW122742   2.366   4.417   9.146 -0.4499  0.1474  0.6978
 3760SOL    HW222743   2.398   4.278   9.132 -0.6358 -0.0345  1.3906
 3761SOL     OW22744   1.661   0.890   5.692 -1.3004 -0.6757 -0.3547
 3761SOL    HW122745   1.667   0.802   5.728  0.9033 -0.0269  0.8999
 3761SOL    HW222746   1.730   0.925   5.748 -0.0106 -2.6402 -0.7172
 3762SOL     OW22747   1.090   3.076   3.660 -0.1081  0.6984  0.3714
 3762SOL    HW122748   1.064   3.107   3.573 -2.2678  0.9720  1.0980
 3762SOL    HW222749   1.129   3.152   3.703 -3.4263  2.2387  0.6380
 3763SOL     OW22750   3.939   3.712  17.218  0.3316 -0.3826  0.3011
 3763SOL    HW122751   3.857   3.758  17.237  2.0791  2.6565  0.5331
 3763SOL    HW222752   4.001   3.781  17.192 -2.0391  2.2406  1.5789
 3764SOL     OW22753   0.345   1.633   6.830 -0.0991  0.1138 -0.3079
 3764SOL    HW122754   0.390   1.568   6.885  4.6609  0.3248 -4.0599
 3764SOL    HW222755   0.271   1.636   6.892  0.7434 -4.0335  0.9207
 3765SOL     OW22756   0.581   4.140   8.117 -0.3714 -0.2101  0.0299
 3765SOL    HW122757   0.590   4.228   8.081 -1.0711 -0.3916 -0.5743
 3765SOL    HW222758   0.544   4.164   8.202 -2.4549  0.8897 -1.2015
 3766SOL     OW22759   2.947   0.120   6.375 -0.4046  0.4408 -0.3442
 3766SOL    HW122760   2.955   0.146   6.467 -1.1338 -0.7049  0.0351
 3766SOL    HW222761   3.022   0.162   6.333  0.4573 -3.9045 -3.1475
 3767SOL     OW22762   4.251   2.206   9.235  0.2538  0.1246  0.2000
 3767SOL    HW122763   4.186   2.201   9.164 -1.6811  0.2485  1.9723
 3767SOL    HW222764   4.277   2.114   9.244 -1.0596 -0.2744  0.0301
 3768SOL     OW22765   0.393   2.285   5.835  0.3662  0.2369 -0.2023
 3768SOL    HW122766   0.349   2.270   5.752 -1.9997  1.3299  0.8538
 3768SOL    HW222767   0.472   2.233   5.819  0.9234 -0.0461  3.5429
 3769SOL     OW22768   1.172   4.463  16.573 -0.6258  0.1549 -0.5856
 3769SOL    HW122769   1.113   4.388  16.583  0.5811 -0.7755 -0.3100
 3769SOL    HW222770   1.212   4.484  16.658 -3.2862  0.7641  0.5102
 3770SOL     OW22771   2.085   0.529  15.156  0.1554  0.2915 -0.3787
 3770SOL    HW122772   2.035   0.527  15.237  0.4005  0.7878 -0.2122
 3770SOL    HW222773   2.013   0.525  15.093  1.1713  0.6767 -1.5577
 3771SOL     OW22774   0.253   0.045   4.802 -0.5740  0.0697  0.0562
 3771SOL    HW122775   0.252   0.054   4.898 -0.2028  1.9764 -0.1222
 3771SOL    HW222776   0.259   4.672   4.794  0.2753  0.0078  1.4088
 3772SOL     OW22777   0.447   4.207   5.664 -0.0498 -0.1910 -0.7705
 3772SOL    HW122778   0.496   4.189   5.584  1.2106  3.5270 -0.7927
 3772SOL    HW222779   0.483   4.151   5.732 -0.1610  0.3947 -0.2323
 3773SOL     OW22780   1.929   3.256   8.086 -0.0045  0.1305  0.0915
 3773SOL    HW122781   1.973   3.321   8.141  1.4174 -0.4047 -0.3967
 3773SOL    HW222782   1.869   3.310   8.035 -1.8319  1.4769  3.6233
 3774SOL     OW22783   1.233   1.465   2.019  0.0576  0.0410 -0.7350
 3774SOL    HW122784   1.180   1.544   2.011 -0.1211 -0.0592 -0.5015
 3774SOL    HW222785   1.166   1.398   2.009  1.3614 -1.3184 -0.2906
 3775SOL     OW22786   2.041   4.209   4.482  0.0666 -0.2619 -0.0121
 3775SOL    HW122787   2.129   4.246   4.468 -0.5901  1.4208  0.3437
 3775SOL    HW222788   2.005   4.257   4.556  0.3209  0.0387 -0.0804
 3776SOL     OW22789   4.660   0.869   0.122  0.3033  0.1853 -0.5442
 3776SOL    HW122790   4.647   0.810   0.047  1.4076 -3.6562  2.3197
 3776SOL    HW222791   0.031   0.858   0.141  0.0784 -2.6043 -1.0331
 3777SOL     OW22792   2.369   0.847  16.277  0.1534 -0.7321 -0.4120
 3777SOL    HW122793   2.440   0.912  16.278 -0.9931  0.5033  0.3030
 3777SOL    HW222794   2.398   0.799  16.354  2.0024 -0.1241 -0.7237
 3778SOL     OW22795   1.869   0.327   7.154  0.5685  0.1582 -0.0511
 3778SOL    HW122796   1.860   0.299   7.063  3.1593  0.2840 -0.3581
 3778SOL    HW222797   1.798   0.289   7.205 -0.6114 -0.8929 -2.4883
 3779SOL     OW22798   2.457   2.230   4.466  0.1670  0.0950 -0.2817
 3779SOL    HW122799   2.514   2.249   4.541 -0.2040 -0.8423  0.2327
 3779SOL    HW222800   2.498   2.291   4.404  4.2805  0.5394  2.8723
 3780SOL     OW22801   2.527   2.867   6.884  0.1013  0.0535  0.5730
 3780SOL    HW122802   2.511   2.775   6.863 -0.6691 -0.2204  2.2834
 3780SOL    HW222803   2.448   2.898   6.929  0.5727  1.9567  0.0984
 3781SOL     OW22804   2.081   0.944   7.273 -0.5183 -0.3015 -0.1588
 3781SOL    HW122805   2.085   0.925   7.366  0.1916  0.9815  0.0597
 3781SOL    HW222806   2.022   0.874   7.243  0.9418 -0.3166 -3.0446
 3782SOL     OW22807   0.025   4.057   4.456 -0.3025  0.3072  0.0969
 3782SOL    HW122808   0.075   4.086   4.380  0.4170 -1.3509 -0.0686
 3782SOL    HW222809   4.664   4.101   4.438 -1.5769 -2.3237 -0.4267
 3783SOL     OW22810   1.560   1.952   9.576  0.6390 -0.4957 -0.2236
 3783SOL    HW122811   1.553   2.047   9.582  2.1715 -0.5488  2.4524
 3783SOL    HW222812   1.494   1.913   9.633 -0.3999  3.4779  1.2747
 3784SOL     OW22813   1.379   2.874   6.450  0.2439  0.1408 -1.2044
 3784SOL    HW122814   1.419   2.817   6.516 -0.5181  0.5921 -0.3578
 3784SOL    HW222815   1.438   2.949   6.441 -0.8901  0.9390 -2.0784
 3785SOL     OW22816   1.535   3.953   6.080 -0.5469  0.3032 -0.1614
 3785SOL    HW122817   1.484   3.958   5.999 -0.4436 -0.2641 -0.2623
 3785SOL    HW222818   1.604   4.012   6.051 -0.2584  0.3861  0.6803
 3786SOL     OW22819   2.409   1.212   1.562 -0.5906  0.0006 -0.0797
 3786SOL    HW122820   2.400   1.124   1.599  2.9448 -1.5172 -2.8510
 3786SOL    HW222821   2.492   1.209   1.514 -1.0710  2.0611 -1.0332
 3787SOL     OW22822   4.470   3.951   4.727 -0.2653 -0.6779 -0.0605
 3787SOL    HW122823   4.493   3.906   4.646 -2.4629  0.6059 -1.3791
 3787SOL    HW222824   4.531   4.024   4.715 -0.2252 -0.8668 -0.9730
 3788SOL     OW22825   2.162   3.239  16.317 -0.7909  0.0069  0.2816
 3788SOL    HW122826   2.142   3.191  16.237  1.4475 -0.2879 -0.1148
 3788SOL    HW222827   2.135   3.330  16.308  0.5624  0.3906  0.0547
 3789SOL     OW22828   3.088   1.629   5.337 -0.5726  0.3537  0.3678
 3789SOL    HW122829   3.126   1.617   5.424 -0.9869  1.6668  0.7419
 3789SOL    HW222830   3.038   1.552   5.309 -1.3405  0.6453  0.9188
 3790SOL     OW22831   1.034   1.964   6.587 -0.4372  0.4529 -0.1404
 3790SOL    HW122832   1.014   1.872   6.571 -0.7703  0.1652  2.0314
 3790SOL    HW222833   0.979   1.981   6.663 -0.4648  1.0613 -0.2958
 3791SOL     OW22834   2.051   1.620  12.900 -0.5488  1.1919 -0.3358
 3791SOL    HW122835   1.999   1.637  12.979 -2.0632 -0.3331 -0.9964
 3791SOL    HW222836   2.013   1.537  12.872  1.8806  0.6547 -2.0407
 3792SOL     OW22837   1.811   3.832   6.556 -0.4336  0.4816 -0.3112
 3792SOL    HW122838   1.764   3.750   6.541 -0.5455  0.3931  0.4858
 3792SOL    HW222839   1.853   3.816   6.641  0.9118  2.0069 -0.6842
 3793SOL     OW22840   2.362   3.478   8.947 -0.2607  0.3509 -0.3174
 3793SOL    HW122841   2.272   3.511   8.947 -0.1890  0.5501 -0.3630
 3793SOL    HW222842   2.397   3.523   9.024  1.9625 -3.6534  1.0217
 3794SOL     OW22843   0.969   2.888  13.914 -0.1616 -0.3329 -0.2831
 3794SOL    HW122844   0.945   2.868  14.005 -0.8696  2.5537  0.1531
 3794SOL    HW222845   0.889   2.870  13.865  0.1262  1.2025 -1.2947
 3795SOL     OW22846   1.879   1.384   3.863 -0.0805 -0.3782  0.6995
 3795SOL    HW122847   1.958   1.342   3.831  0.9277  1.3047  0.9581
 3795SOL    HW222848   1.818   1.319   3.828  1.0500  0.1188 -2.1886
 3796SOL     OW22849   0.679   1.048   7.836 -0.8059  0.3944 -0.0881
 3796SOL    HW122850   0.695   1.038   7.930 -1.3827  0.7640  0.0480
 3796SOL    HW222851   0.589   1.018   7.825 -0.8766  0.2973  0.7282
 3797SOL     OW22852   4.515   1.240   3.427  0.0681  0.0482 -0.0798
 3797SOL    HW122853   4.583   1.232   3.360  0.1597  0.7657 -0.0724
 3797SOL    HW222854   4.525   1.159   3.477 -1.2339  0.1433  0.3311
 3798SOL     OW22855   0.543   2.054  13.775 -0.3249  0.0058  0.7005
 3798SOL    HW122856   0.621   1.998  13.772 -0.5851 -0.3817  1.0904
 3798SOL    HW222857   0.575   2.136  13.739 -0.4759 -0.4901 -0.5504
 3799SOL     OW22858   1.135   0.081  13.573  0.1945 -0.4340  0.3001
 3799SOL    HW122859   1.174   4.717  13.556 -0.1164  0.0532 -2.9992
 3799SOL    HW222860   1.200   0.143  13.604  0.3108 -0.2585 -0.2809
 3800SOL     OW22861   1.141   1.975   7.272  0.2917  0.4316 -0.3321
 3800SOL    HW122862   1.065   1.996   7.327 -1.1846 -2.0844 -1.4125
 3800SOL    HW222863   1.166   1.887   7.300 -0.0708  0.3986 -0.1066
 3801SOL     OW22864   3.045   1.065   0.846 -0.1719 -0.0258 -0.0520
 3801SOL    HW122865   2.972   1.017   0.885  0.3849  1.0452  2.2899
 3801SOL    HW222866   3.098   0.987   0.825  2.9884  1.7605  1.4279
 3802SOL     OW22867   4.367   4.151   1.228 -0.7344 -0.4285  0.2351
 3802SOL    HW122868   4.462   4.147   1.214 -0.6146  0.1712  0.9116
 3802SOL    HW222869   4.371   4.105   1.312  0.9466  1.0305  0.9464
 3803SOL     OW22870   0.452   3.266   5.200  0.3295  0.0021  0.0266
 3803SOL    HW122871   0.387   3.202   5.227 -0.7412  1.3142  0.5168
 3803SOL    HW222872   0.533   3.223   5.229 -1.2652 -0.7087  3.3350
 3804SOL     OW22873   1.022   0.262   1.962 -0.1437 -0.0443  0.4593
 3804SOL    HW122874   0.994   0.230   2.048  0.6970  3.1054  1.9121
 3804SOL    HW222875   1.004   0.352   1.990 -0.5040  0.6098 -1.8688
 3805SOL     OW22876   0.529   3.299   6.783  0.1736 -0.2971 -0.3773
 3805SOL    HW122877   0.476   3.245   6.840 -0.0592 -0.3180 -0.6165
 3805SOL    HW222878   0.508   3.291   6.690  2.1662 -0.6885 -0.8019
 3806SOL     OW22879   0.956   0.090   7.307  0.3855 -0.0526  0.5949
 3806SOL    HW122880   1.016   0.073   7.234 -0.2875 -0.5974  0.1658
 3806SOL    HW222881   1.009   0.058   7.380  0.4737 -2.1661 -0.3750
 3807SOL     OW22882   1.546   3.659   3.450  0.3184 -0.2910  0.1808
 3807SOL    HW122883   1.587   3.604   3.383  1.5762  0.9908 -0.1020
 3807SOL    HW222884   1.455   3.666   3.422  0.6689 -1.9666 -1.3800
 3808SOL     OW22885   2.076   4.415   8.437  0.4655 -0.2194 -1.1956
 3808SOL    HW122886   2.008   4.381   8.495  1.6388  2.2881  1.6605
 3808SOL    HW222887   2.028   4.432   8.356 -0.9465  0.1919 -0.2691
 3809SOL     OW22888   0.681   0.629  15.400  0.2503  0.5925  0.4620
 3809SOL    HW122889   0.604   0.669  15.360  0.3749  2.3262  1.9886
 3809SOL    HW222890   0.639   0.609  15.483 -3.6003  2.0929 -1.1658
 3810SOL     OW22891   1.383   0.544   3.593 -0.3396  0.3941  0.5261
 3810SOL    HW122892   1.392   0.553   3.498  1.9628  0.1375  0.7172
 3810SOL    HW222893   1.324   0.470   3.603  0.3292 -0.0938  0.8350
 3811SOL     OW22894   2.282   4.135  15.008 -0.1638  0.5898 -0.2261
 3811SOL    HW122895   2.265   4.072  14.938  1.1125  1.7495 -1.5768
 3811SOL    HW222896   2.318   4.070  15.069  0.0329  0.5702 -0.3640
 3812SOL     OW22897   2.894   0.210   6.671 -0.4082  0.2402  0.0191
 3812SOL    HW122898   2.941   0.135   6.707  0.0471  0.1391 -0.8058
 3812SOL    HW222899   2.816   0.204   6.727 -0.1080 -1.8864  0.2178
 3813SOL     OW22900   1.831   3.327   9.245 -0.9960  0.3003 -0.3376
 3813SOL    HW122901   1.798   3.271   9.315 -0.9253  0.2227 -0.3667
 3813SOL    HW222902   1.882   3.268   9.190  0.3734  0.1375  1.0822
 3814SOL     OW22903   3.277   1.318  11.803  0.1176 -0.1872  0.4987
 3814SOL    HW122904   3.276   1.310  11.707 -0.7916 -0.5351  0.5391
 3814SOL    HW222905   3.212   1.253  11.830 -0.8683  0.9164  0.7499
 3815SOL     OW22906   4.241   0.573   2.591  0.2773  0.7942  0.5932
 3815SOL    HW122907   4.211   0.638   2.527  1.4873 -0.3868 -1.1638
 3815SOL    HW222908   4.153   0.543   2.612  1.6008 -2.5484  1.4290
 3816SOL     OW22909   4.343   3.746   5.312 -0.6170 -0.2297  0.6025
 3816SOL    HW122910   4.325   3.657   5.284  0.5071 -0.5388  0.8486
 3816SOL    HW222911   4.423   3.765   5.262 -0.5396  0.0057  0.8140
 3817SOL     OW22912   1.880   1.403   8.295 -0.1205  0.0355 -0.0369
 3817SOL    HW122913   1.950   1.398   8.230 -1.4044  2.2625 -1.5858
 3817SOL    HW222914   1.910   1.340   8.361 -0.1166 -0.2785 -0.3406
 3818SOL     OW22915   3.040   2.666   4.278 -0.5413  0.7343  0.4576
 3818SOL    HW122916   3.005   2.755   4.275 -0.7524  0.6576  0.7336
 3818SOL    HW222917   3.134   2.678   4.265 -0.8094  2.3053 -0.0306
 3819SOL     OW22918   2.589   4.125   4.343 -0.2723 -0.2289 -0.0466
 3819SOL    HW122919   2.589   4.036   4.379  1.1552  0.5398  1.8515
 3819SOL    HW222920   2.627   4.108   4.257 -1.6937 -2.7910 -0.1704
 3820SOL     OW22921   1.074   1.794  16.160 -0.0627 -0.4124  0.2779
 3820SOL    HW122922   1.110   1.708  16.181  1.1955  0.7600  2.9100
 3820SOL    HW222923   1.127   1.820  16.085 -0.6240 -3.6705 -1.2148
 3821SOL     OW22924   3.583   2.377   2.377 -0.4003 -0.1965  0.3525
 3821SOL    HW122925   3.623   2.462   2.391  2.0794 -1.5144  1.2234
 3821SOL    HW222926   3.504   2.380   2.431  1.4884  0.1128  3.0716
 3822SOL     OW22927   2.002   0.709   6.262 -0.2869 -0.0409  0.2443
 3822SOL    HW122928   1.953   0.703   6.180 -0.1872  0.3648  0.1507
 3822SOL    HW222929   1.947   0.677   6.333 -2.1548 -1.9761 -2.1005
 3823SOL     OW22930   0.116   0.751   4.638  0.1188  0.6099 -0.0077
 3823SOL    HW122931   0.193   0.785   4.593 -0.9053  3.4485  0.3676
 3823SOL    HW222932   0.137   0.658   4.645  1.5432  0.8930 -0.6389
 3824SOL     OW22933   3.228   4.481   7.281  0.1977  0.3378 -0.0562
 3824SOL    HW122934   3.142   4.440   7.269 -0.8721  2.2757  0.9843
 3824SOL    HW222935   3.216   4.525   7.366  0.2861 -1.1413  0.7241
 3825SOL     OW22936   0.496   1.402   6.898 -0.3442  0.1288  0.5099
 3825SOL    HW122937   0.558   1.343   6.857  0.6013  1.0244  0.6320
 3825SOL    HW222938   0.552   1.448   6.962  0.4161 -1.4668  0.9855
 3826SOL     OW22939   4.506   3.278   6.218  0.9927  0.1723  0.3081
 3826SOL    HW122940   4.414   3.276   6.243  0.9486 -1.9945 -0.0283
 3826SOL    HW222941   4.552   3.330   6.285 -0.5837  0.7060  0.9767
 3827SOL     OW22942   2.288   0.306  15.212  0.1210 -0.5541 -0.8374
 3827SOL    HW122943   2.299   0.218  15.176 -1.2734 -0.3361 -1.7976
 3827SOL    HW222944   2.195   0.311  15.234 -0.1044 -0.7321 -1.7166
 3828SOL     OW22945   0.874   1.406   0.721  0.8099  0.7809  0.1675
 3828SOL    HW122946   0.855   1.333   0.779 -0.3214  0.1380 -1.0171
 3828SOL    HW222947   0.965   1.391   0.697  1.0669  1.9559  0.3684
 3829SOL     OW22948   4.248   0.767  13.371 -0.3447  0.0573 -0.6482
 3829SOL    HW122949   4.180   0.736  13.430  1.1857 -0.5692  0.7967
 3829SOL    HW222950   4.193   0.828  13.322 -2.0170 -0.8769  0.0907
 3830SOL     OW22951   2.169   3.921   1.297  0.5737 -0.9036  0.3047
 3830SOL    HW122952   2.244   3.907   1.239  0.3006 -0.5316 -0.1432
 3830SOL    HW222953   2.104   3.955   1.236 -0.2367 -0.6563  1.3073
 3831SOL     OW22954   2.293   3.349  12.786  0.6293 -0.1998  0.1809
 3831SOL    HW122955   2.371   3.402  12.800  1.1609 -1.0866  0.5406
 3831SOL    HW222956   2.314   3.265  12.827  1.2746 -0.3210 -0.3907
 3832SOL     OW22957   0.723   3.337   3.386  0.2147 -0.2215  0.5177
 3832SOL    HW122958   0.754   3.384   3.309 -1.2045 -1.6620 -0.9298
 3832SOL    HW222959   0.739   3.410   3.445  1.6681  1.0926 -1.5471
 3833SOL     OW22960   2.812   3.229   8.743 -0.6184  0.0020  0.5795
 3833SOL    HW122961   2.751   3.291   8.783  0.5635  1.6965 -0.2302
 3833SOL    HW222962   2.834   3.277   8.663 -0.5206  1.8619  1.7236
 3834SOL     OW22963   1.574   1.555  12.835 -0.1702  0.3843  0.3841
 3834SOL    HW122964   1.486   1.582  12.860  0.2972  1.6493  0.6517
 3834SOL    HW222965   1.557   1.553  12.741  0.2673 -1.3558  0.3470
 3835SOL     OW22966   0.756   2.854  13.737 -0.4100  0.1069 -0.1484
 3835SOL    HW122967   0.788   2.840  13.648  0.0693 -0.0229  0.0431
 3835SOL    HW222968   0.740   2.949  13.740  0.5645  0.2345  1.2399
 3836SOL     OW22969   2.290   3.478   1.715  0.4475 -0.0075  0.5141
 3836SOL    HW122970   2.302   3.557   1.767  1.0982  1.3610 -1.7417
 3836SOL    HW222971   2.205   3.504   1.680  0.7362  1.6307  1.0700
 3837SOL     OW22972   0.983   0.329   9.733  0.6704 -0.7339 -0.5309
 3837SOL    HW122973   1.057   0.331   9.794 -0.5183  0.3308  0.8607
 3837SOL    HW222974   1.031   0.305   9.653 -0.9837  2.3740 -2.4647
 3838SOL     OW22975   0.653   3.074   5.280  0.3650  0.0496  0.6580
 3838SOL    HW122976   0.622   2.984   5.267 -0.6724  1.0844 -4.1219
 3838SOL    HW222977   0.728   3.050   5.335  0.3264 -2.2869 -0.2758
 3839SOL     OW22978   2.210   2.268  15.471 -0.0296 -0.0931  0.0438
 3839SOL    HW122979   2.254   2.351  15.451 -1.6462  0.6953 -0.2346
 3839SOL    HW222980   2.184   2.275  15.563  2.7061  1.7412  0.6881
 3840SOL     OW22981   0.867   3.367   0.936 -0.3563 -0.5219  0.3132
 3840SOL    HW122982   0.848   3.276   0.956 -1.5536 -0.0176  1.5071
 3840SOL    HW222983   0.779   3.405   0.935 -0.4130 -0.6699 -0.5321
 3841SOL     OW22984   2.389   3.138  15.313  0.3594  0.6224  0.3700
 3841SOL    HW122985   2.332   3.166  15.241  0.1554  0.2741  0.3966
 3841SOL    HW222986   2.402   3.045  15.299  0.2012  0.8353 -1.1769
 3842SOL     OW22987   1.585   0.698   0.542 -0.0336  0.1002  0.3727
 3842SOL    HW122988   1.497   0.703   0.579 -0.2564 -2.9265  0.2700
 3842SOL    HW222989   1.623   0.619   0.582  1.1738 -1.0201 -2.9174
 3843SOL     OW22990   1.314   0.638   0.576  0.6707  0.2385 -0.3761
 3843SOL    HW122991   1.289   0.571   0.513  1.5675  2.4591 -3.0888
 3843SOL    HW222992   1.244   0.702   0.565  0.5444  0.0802 -0.4854
 3844SOL     OW22993   1.299   3.393   2.269  0.1498  0.2449 -0.0256
 3844SOL    HW122994   1.377   3.390   2.325 -0.3813 -1.4588  0.6353
 3844SOL    HW222995   1.281   3.487   2.270  0.8438  0.3086  4.9679
 3845SOL     OW22996   0.548   0.393  13.742  0.4091  0.1121 -0.2474
 3845SOL    HW122997   0.597   0.408  13.823  2.1549  1.3560 -1.5515
 3845SOL    HW222998   0.598   0.318  13.710  0.0618  0.0369 -0.6184
 3846SOL     OW22999   0.948   0.358   8.227  0.2776  0.5474 -0.0499
 3846SOL    HW123000   0.981   0.413   8.156  0.0298  1.1403  0.2972
 3846SOL    HW223001   0.854   0.367   8.211 -0.1061  0.0698  1.9146
 3847SOL     OW23002   2.178   2.086  10.449 -0.4256 -0.4389  0.8118
 3847SOL    HW123003   2.154   1.993  10.450 -0.1736 -0.5388 -1.9870
 3847SOL    HW223004   2.093   2.130  10.443 -0.8313 -1.5398 -1.3388
 3848SOL     OW23005   1.109   3.401   0.069  0.3017 -0.3074 -0.0359
 3848SOL    HW123006   1.200   3.374   0.073  0.8327  0.9614 -3.4271
 3848SOL    HW223007   1.076   3.353   0.145  0.5312  0.4188  0.5242
 3849SOL     OW23008   1.365   1.159   1.327 -0.5331 -0.3143 -0.2345
 3849SOL    HW123009   1.333   1.196   1.410 -2.3458 -1.3737 -0.4635
 3849SOL    HW223010   1.308   1.083   1.319  0.8265 -1.0810 -2.2801
 3850SOL     OW23011   3.336   3.732   1.583  0.1738 -0.6045  0.0006
 3850SOL    HW123012   3.431   3.722   1.597 -0.5771 -1.9814  4.0460
 3850SOL    HW223013   3.345   3.797   1.513 -0.5227 -0.2595  0.2341
 3851SOL     OW23014   0.950   2.924  13.392  0.3243  0.4490 -0.0106
 3851SOL    HW123015   0.910   2.842  13.361  2.0015 -1.1888  2.2141
 3851SOL    HW223016   0.879   2.953  13.450  0.1708  1.9751 -0.9649
 3852SOL     OW23017   0.116   1.711   7.430 -0.2134  0.6615 -0.0743
 3852SOL    HW123018   0.152   1.696   7.342 -0.6895  0.8909 -0.3057
 3852SOL    HW223019   0.202   1.708   7.473 -0.1588 -2.8573 -0.4927
 3853SOL     OW23020   3.337   4.269  14.777  0.7013 -0.5173 -0.5820
 3853SOL    HW123021   3.285   4.189  14.784  1.6530 -0.9611  1.5059
 3853SOL    HW223022   3.424   4.240  14.803 -0.4079 -2.7422  0.6052
 3854SOL     OW23023   0.964   4.110  16.759 -0.1688 -0.3836  0.5536
 3854SOL    HW123024   0.885   4.123  16.811 -1.6197  1.2975 -2.0356
 3854SOL    HW223025   1.005   4.193  16.784 -0.0665 -1.0129  2.4710
 3855SOL     OW23026   3.628   3.576   0.621  0.5831  0.0705 -0.4615
 3855SOL    HW123027   3.561   3.516   0.654 -0.0703  0.7377 -0.5660
 3855SOL    HW223028   3.649   3.549   0.532  0.6182 -1.9944  0.1658
 3856SOL     OW23029   2.476   0.941   7.670 -0.2511  0.1066 -0.1956
 3856SOL    HW123030   2.554   0.935   7.615 -0.9352 -1.0331 -1.0512
 3856SOL    HW223031   2.512   0.990   7.743  0.5950 -1.6941  0.5845
 3857SOL     OW23032   4.691   2.241   6.758 -0.0089  0.4227 -0.6856
 3857SOL    HW123033   0.013   2.165   6.795  0.6796  0.7529 -0.8282
 3857SOL    HW223034   4.677   2.288   6.841  2.3238  0.9715 -0.5988
 3858SOL     OW23035   3.797   0.520   4.495 -0.4343 -0.2998 -0.2275
 3858SOL    HW123036   3.763   0.462   4.426 -0.5523 -2.8298  1.9311
 3858SOL    HW223037   3.739   0.596   4.486 -0.4518 -0.0737  1.9292
 3859SOL     OW23038   2.113   2.198  12.036  0.3628 -0.2984  0.1674
 3859SOL    HW123039   2.199   2.229  12.006 -0.3731  1.1624 -0.4652
 3859SOL    HW223040   2.068   2.231  11.958  0.7170 -1.0047 -0.3409
 3860SOL     OW23041   2.332   1.022   4.650  0.0963  0.4237  0.7102
 3860SOL    HW123042   2.291   1.096   4.606 -1.5178 -0.8690  0.0450
 3860SOL    HW223043   2.423   1.036   4.625  0.3608 -1.4050  0.6131
 3861SOL     OW23044   2.172   2.603   9.958  0.1788  0.0502 -0.1292
 3861SOL    HW123045   2.191   2.534  10.021  0.4267 -0.5274 -0.8371
 3861SOL    HW223046   2.219   2.570   9.881  1.3471 -3.1379  1.9947
 3862SOL     OW23047   1.052   1.497   8.637 -0.3316 -0.0761  0.1638
 3862SOL    HW123048   1.087   1.552   8.566  2.5529 -0.0658  1.5881
 3862SOL    HW223049   1.107   1.522   8.711  2.0265  1.3672 -2.0515
 3863SOL     OW23050   1.974   1.257   4.401 -0.8887 -0.3206  0.2604
 3863SOL    HW123051   1.977   1.183   4.341 -0.3203 -0.5542  0.5734
 3863SOL    HW223052   1.954   1.330   4.343  0.9563 -0.7297 -0.8772
 3864SOL     OW23053   4.599   1.194  11.549 -0.0444 -0.2666  0.2971
 3864SOL    HW123054   4.685   1.166  11.518 -0.9849 -1.6922 -1.0386
 3864SOL    HW223055   4.603   1.282  11.586  1.2060  0.1861 -0.9501
 3865SOL     OW23056   3.588   1.277   2.245  0.5811  0.7224  0.2186
 3865SOL    HW123057   3.621   1.320   2.166 -1.5697 -1.4276 -1.8778
 3865SOL    HW223058   3.497   1.308   2.240  1.2352  2.6962  0.8450
 3866SOL     OW23059   1.434   2.436  10.538  0.3143 -0.4025 -0.0400
 3866SOL    HW123060   1.341   2.415  10.548  0.2600  0.0720  0.4393
 3866SOL    HW223061   1.465   2.360  10.489 -0.8263 -0.8700 -0.0579
 3867SOL     OW23062   3.928   4.399   1.015 -0.2215 -0.1767 -0.0216
 3867SOL    HW123063   3.859   4.461   0.989 -0.5941 -0.4452  0.3227
 3867SOL    HW223064   3.879   4.317   1.019 -0.2681 -0.0923  1.0269
 3868SOL     OW23065   1.770   4.099   3.836  0.0945 -0.1473  0.2721
 3868SOL    HW123066   1.703   4.167   3.832  0.1357 -0.1797 -1.0916
 3868SOL    HW223067   1.774   4.083   3.930  1.9873 -2.0506 -0.1228
 3869SOL     OW23068   4.692   0.510   5.158 -0.2842  0.1118 -0.0449
 3869SOL    HW123069   4.660   0.589   5.115  0.8885  0.2518 -0.6372
 3869SOL    HW223070   0.048   0.489   5.108 -0.7194 -1.5237 -0.0295
 3870SOL     OW23071   1.848   2.415   2.801  0.2461  0.1518  0.0157
 3870SOL    HW123072   1.818   2.485   2.742 -1.6464  1.9841  3.1661
 3870SOL    HW223073   1.793   2.419   2.879 -0.3660  1.2641 -0.4700
 3871SOL     OW23074   0.066   2.805   7.667  0.4187 -0.0121  0.1904
 3871SOL    HW123075   4.700   2.777   7.639  0.6501  0.7389 -1.2910
 3871SOL    HW223076   0.064   2.895   7.634  0.3097  0.6167  1.9185
 3872SOL     OW23077   3.696   4.099   2.185  0.5151  0.0045 -0.1397
 3872SOL    HW123078   3.751   4.069   2.113 -2.3782 -2.4086 -1.3789
 3872SOL    HW223079   3.622   4.133   2.135 -0.3181 -0.8274  0.5241
 3873SOL     OW23080   2.588   4.469   5.856 -0.8683 -0.1337  0.2410
 3873SOL    HW123081   2.681   4.471   5.878 -0.7377  0.3893 -0.3584
 3873SOL    HW223082   2.576   4.564   5.861 -0.5279 -0.1691  1.6024
 3874SOL     OW23083   0.805   3.137   1.546 -0.4868  0.1810 -0.0576
 3874SOL    HW123084   0.806   3.220   1.497  0.4546  1.3772  1.9659
 3874SOL    HW223085   0.803   3.170   1.636  0.1071 -1.2855  0.4803
 3875SOL     OW23086   0.109   1.922   5.967 -0.0205  0.2372  0.2808
 3875SOL    HW123087   0.065   1.915   5.882  2.3855 -0.8958 -0.8611
 3875SOL    HW223088   0.123   2.016   5.955 -0.9611  0.1810 -1.2463
 3876SOL     OW23089   4.413   3.019   1.689  0.4239 -0.2431 -0.7915
 3876SOL    HW123090   4.454   2.969   1.761 -1.8029 -0.6498  0.1948
 3876SOL    HW223091   4.410   2.958   1.616 -0.3855 -1.2649  0.0810
 3877SOL     OW23092   2.292   2.837   6.060 -0.2901 -0.1935 -0.2544
 3877SOL    HW123093   2.205   2.834   6.021  1.3131 -1.3526 -3.7110
 3877SOL    HW223094   2.329   2.759   6.019  0.9228  0.9741 -1.3799
 3878SOL     OW23095   2.936   0.631  15.899 -0.7921  0.4161  0.0855
 3878SOL    HW123096   2.924   0.547  15.942  0.7115  0.8740  1.4059
 3878SOL    HW223097   3.014   0.614  15.844  1.9688  1.4438  3.7115
 3879SOL     OW23098   1.184   0.385   4.550 -0.2823 -0.0261 -0.2355
 3879SOL    HW123099   1.258   0.359   4.605 -0.5761  0.4922  0.4006
 3879SOL    HW223100   1.158   0.469   4.589 -0.2692  0.6253 -1.6525
 3880SOL     OW23101   0.703   1.841   3.922  0.0142 -0.0394 -0.3794
 3880SOL    HW123102   0.662   1.831   4.008  2.3869 -0.6597  0.6705
 3880SOL    HW223103   0.790   1.851   3.962 -1.0161  0.5790  1.7350
 3881SOL     OW23104   1.941   0.566   0.926  0.1220 -0.6286 -0.1041
 3881SOL    HW123105   1.931   0.631   0.857  0.9143 -0.5684 -0.1653
 3881SOL    HW223106   2.006   0.603   0.986 -1.4854 -1.7475  2.3197
 3882SOL     OW23107   4.113   4.246  17.158  0.3695  0.3701 -0.3295
 3882SOL    HW123108   4.113   4.292  17.074  0.5825  0.5617 -0.2237
 3882SOL    HW223109   4.026   4.205  17.153  0.6770 -0.5361  2.1196
 3883SOL     OW23110   2.450   2.915  10.833  0.0961 -0.0984 -0.3696
 3883SOL    HW123111   2.384   2.863  10.788 -1.0365 -0.4979  1.7503
 3883SOL    HW223112   2.488   2.853  10.895  1.9496 -0.4688 -1.8540
 3884SOL     OW23113   1.833   4.468   2.377 -0.2974 -0.1737  0.0848
 3884SOL    HW123114   1.827   4.552   2.423  1.5570 -0.5291  0.9716
 3884SOL    HW223115   1.774   4.421   2.437 -0.1288 -0.8241 -0.2689
 3885SOL     OW23116   2.996   3.543   0.575  0.1601  0.2574  0.0317
 3885SOL    HW123117   3.036   3.512   0.656 -0.6199  0.1194  0.3644
 3885SOL    HW223118   2.903   3.524   0.590  1.0930 -2.6597  2.2231
 3886SOL     OW23119   3.630   2.892   2.608 -0.0591 -0.4042  0.4038
 3886SOL    HW123120   3.584   2.954   2.551  1.4328  2.1155  1.9502
 3886SOL    HW223121   3.704   2.875   2.549 -0.2752  0.3914 -0.1002
 3887SOL     OW23122   0.819   3.250   3.721 -0.1554  0.7623 -0.2635
 3887SOL    HW123123   0.900   3.283   3.682  0.4996 -0.5330  0.0018
 3887SOL    HW223124   0.857   3.171   3.760 -0.5856  1.1005  0.8239
 3888SOL     OW23125   2.197   3.004   2.070 -0.3430 -0.5502 -0.3303
 3888SOL    HW123126   2.181   3.014   1.977 -1.3928 -1.1695 -0.2237
 3888SOL    HW223127   2.264   2.935   2.068  0.7779  0.5119  0.9684
 3889SOL     OW23128   3.260   3.973   3.747  0.2480 -0.0304  0.1769
 3889SOL    HW123129   3.218   3.910   3.806  2.5265 -2.0029 -0.3095
 3889SOL    HW223130   3.319   4.028   3.799 -0.2281  1.1305 -0.5077
 3890SOL     OW23131   2.405   3.657   4.611  0.3406  0.1401  0.4565
 3890SOL    HW123132   2.322   3.613   4.592 -0.6601  1.1231  2.5522
 3890SOL    HW223133   2.390   3.739   4.564 -2.6546 -0.8113 -0.2296
 3891SOL     OW23134   0.163   0.224   0.241  0.6423  0.3236 -0.4187
 3891SOL    HW123135   0.197   0.312   0.257 -0.9292  0.3440  2.9072
 3891SOL    HW223136   0.069   0.239   0.253  0.6127 -1.4992  1.6041
 3892SOL     OW23137   2.489   1.109   1.895 -0.2826 -0.2242 -0.0586
 3892SOL    HW123138   2.514   1.080   1.807 -0.7723  1.0032 -0.6017
 3892SOL    HW223139   2.526   1.037   1.946 -0.3152  1.3137  2.1214
 3893SOL     OW23140   3.240   2.155   7.087  0.2911  0.1576  0.5145
 3893SOL    HW123141   3.199   2.071   7.065 -0.5156  0.3035  1.4284
 3893SOL    HW223142   3.331   2.138   7.064  0.4716  1.6602  0.1614
 3894SOL     OW23143   4.174   1.254  10.342  0.3379  0.4346 -0.0483
 3894SOL    HW123144   4.194   1.271  10.249 -0.5359 -0.3921 -0.3862
 3894SOL    HW223145   4.238   1.189  10.370  0.4433  1.4728  2.0940
 3895SOL     OW23146   0.666   0.161  15.631  0.3668  0.2255 -0.0470
 3895SOL    HW123147   0.610   0.151  15.555  0.4778  1.6409 -0.3113
 3895SOL    HW223148   0.753   0.144  15.596  0.9052 -1.2112  1.9655
 3896SOL     OW23149   3.213   0.564   1.848 -0.3091  0.3436 -0.4597
 3896SOL    HW123150   3.264   0.534   1.923 -2.0195 -1.4291  0.0026
 3896SOL    HW223151   3.258   0.647   1.834  2.0021 -0.7462  0.5414
 3897SOL     OW23152   2.603   3.421   9.694  0.0582 -0.3227 -0.5652
 3897SOL    HW123153   2.563   3.388   9.774  1.4248  1.1588  0.7349
 3897SOL    HW223154   2.689   3.378   9.689  0.4182  0.2903  0.2962
 3898SOL     OW23155   1.659   4.607   4.785  0.5152 -0.1022  0.4461
 3898SOL    HW123156   1.648   4.587   4.692  1.0132  0.2048  0.3210
 3898SOL    HW223157   1.605   4.687   4.790  0.9393  0.1809  0.5217
 3899SOL     OW23158   4.169   3.449   6.753  0.7098  0.7220  0.6391
 3899SOL    HW123159   4.077   3.426   6.763  0.2779  1.9400 -0.6050
 3899SOL    HW223160   4.175   3.486   6.665  2.2482  0.6942  0.7360
 3900SOL     OW23161   4.387   3.787   4.933  0.2771  0.0388  0.1035
 3900SOL    HW123162   4.296   3.769   4.907  0.1147 -1.0038  1.4428
 3900SOL    HW223163   4.420   3.835   4.857 -1.0901 -0.3581 -0.7467
 3901SOL     OW23164   2.949   2.068   2.921  0.2930 -0.1818 -0.1380
 3901SOL    HW123165   2.928   2.047   2.830 -1.0439  0.7848 -0.0446
 3901SOL    HW223166   2.946   2.164   2.918  0.7718 -0.1726 -0.3456
 3902SOL     OW23167   3.164   4.558   0.177 -0.1803  0.4592  0.2932
 3902SOL    HW123168   3.225   4.548   0.103  0.4109 -1.6648  1.0454
 3902SOL    HW223169   3.086   4.519   0.137  1.6097 -1.9003 -0.9322
 3903SOL     OW23170   2.989   2.227   2.548  0.2203  0.2623  0.0356
 3903SOL    HW123171   3.054   2.157   2.555 -1.0049 -0.9229 -0.3443
 3903SOL    HW223172   3.040   2.301   2.579 -1.6796  1.0627  1.2552
 3904SOL     OW23173   4.163   2.984   7.634  0.3166 -0.6057  0.1750
 3904SOL    HW123174   4.117   3.063   7.664  1.4873  0.5084 -0.9238
 3904SOL    HW223175   4.091   2.938   7.590  0.3201 -1.4757  1.0834
 3905SOL     OW23176   4.177   1.883   4.588 -0.2347 -0.7416 -0.1749
 3905SOL    HW123177   4.197   1.862   4.496  0.6800 -1.5204  0.2086
 3905SOL    HW223178   4.141   1.796   4.607  0.8146 -0.8053  1.5090
 3906SOL     OW23179   3.810   3.067  11.898 -0.2238 -0.0148 -0.0689
 3906SOL    HW123180   3.750   3.025  11.836  2.0045 -0.5411 -1.8928
 3906SOL    HW223181   3.777   3.155  11.913 -1.8056 -0.9795  2.0464
 3907SOL     OW23182   3.073   2.633   1.096 -0.5662 -0.0853  0.5550
 3907SOL    HW123183   2.988   2.655   1.058  1.1990  0.5446 -3.0368
 3907SOL    HW223184   3.067   2.538   1.104  0.0575 -0.3518 -2.2363
 3908SOL     OW23185   3.096   3.859   3.984 -0.7150 -0.1139 -0.1009
 3908SOL    HW123186   3.098   3.894   4.073  1.3075  0.0623 -0.2163
 3908SOL    HW223187   3.137   3.774   3.999 -1.6923  0.5665  6.2912
 3909SOL     OW23188   4.457   0.478  11.145  0.0200 -0.4980  0.0671
 3909SOL    HW123189   4.533   0.467  11.202 -0.6327 -1.0033  0.8384
 3909SOL    HW223190   4.432   0.567  11.167  1.1777 -0.9542  3.2083
 3910SOL     OW23191   2.939   4.688   1.232  0.3841 -0.3843  0.0070
 3910SOL    HW123192   2.938   4.674   1.137 -1.3106  0.3140 -0.0859
 3910SOL    HW223193   3.010   4.632   1.262 -0.6355 -0.7923  1.6561
 3911SOL     OW23194   3.824   1.407  12.146 -0.1566  0.1888 -0.1940
 3911SOL    HW123195   3.740   1.452  12.156  0.1549  1.1801 -1.9088
 3911SOL    HW223196   3.829   1.373  12.235  2.4446 -1.3323 -0.9202
 3912SOL     OW23197   0.762   4.000  11.325  0.4349  0.4230  0.4379
 3912SOL    HW123198   0.782   3.999  11.418 -0.6852  0.2552  0.6803
 3912SOL    HW223199   0.855   3.992  11.303  0.3010  2.5537 -0.9442
 3913SOL     OW23200   0.962   1.849   2.159  0.0569  0.2150  0.2434
 3913SOL    HW123201   0.947   1.770   2.107  0.0622 -1.0370  2.1487
 3913SOL    HW223202   1.058   1.848   2.159  0.0231 -2.6644  1.9702
 3914SOL     OW23203   4.138   1.616   8.646 -0.0426 -0.4155  0.6493
 3914SOL    HW123204   4.171   1.528   8.632  1.4573  0.6009 -2.2036
 3914SOL    HW223205   4.108   1.638   8.558  2.1874  0.5032  0.1106
 3915SOL     OW23206   1.083   3.326   7.312  0.0739 -0.5645  0.4100
 3915SOL    HW123207   1.025   3.373   7.371 -1.2241 -0.2474 -1.1323
 3915SOL    HW223208   1.171   3.342   7.348  0.2371 -0.1016 -0.1872
 3916SOL     OW23209   1.204   3.597  13.979 -0.0825 -0.0646  0.2773
 3916SOL    HW123210   1.198   3.692  13.991  0.0572  0.1988 -1.7669
 3916SOL    HW223211   1.213   3.569  14.070 -0.9220  0.7535  0.6155
 3917SOL     OW23212   1.967   1.393   1.070 -0.0516  0.2826 -0.1183
 3917SOL    HW123213   1.921   1.404   1.153  1.0231  2.9847  0.1283
 3917SOL    HW223214   1.993   1.301   1.076  4.5503  1.6412  0.4977
 3918SOL     OW23215   0.654   1.094   4.000  0.2772  0.0583 -0.1972
 3918SOL    HW123216   0.643   1.016   3.946  1.8875 -1.0215  1.0440
 3918SOL    HW223217   0.642   1.070   4.092 -0.9791  1.6906  0.0812
 3919SOL     OW23218   0.659   2.322   9.888 -0.0750  0.6485  0.8804
 3919SOL    HW123219   0.652   2.416   9.901  1.8823  1.0389 -0.8444
 3919SOL    HW223220   0.577   2.292   9.927 -0.6400  1.2308  0.1324
 3920SOL     OW23221   0.766   4.114   9.260 -0.7221  0.4725 -0.3874
 3920SOL    HW123222   0.843   4.132   9.207 -1.4791  1.1099 -1.2636
 3920SOL    HW223223   0.705   4.142   9.192 -2.5978 -1.2983  0.5722
 3921SOL     OW23224   0.625   4.259   5.190  0.0917 -0.2625 -0.3770
 3921SOL    HW123225   0.684   4.202   5.141  1.4687  0.5790  0.2997
 3921SOL    HW223226   0.636   4.336   5.135 -0.4220 -0.3276 -0.5713
 3922SOL     OW23227   2.506   0.815  12.868 -0.8868  0.0324 -0.4386
 3922SOL    HW123228   2.569   0.883  12.891  0.4358 -0.3295 -2.9814
 3922SOL    HW223229   2.556   0.764  12.803  1.7285  1.1725  0.6803
 3923SOL     OW23230   4.428   2.039   2.788 -0.3301 -0.1668 -0.4645
 3923SOL    HW123231   4.456   1.949   2.798 -0.8162 -0.2488  0.1574
 3923SOL    HW223232   4.365   2.051   2.859  0.9242 -2.2868  0.9832
 3924SOL     OW23233   3.460   4.109  16.927  0.2676  0.1268 -0.0128
 3924SOL    HW123234   3.496   4.023  16.908 -0.2887 -0.2409  0.6084
 3924SOL    HW223235   3.379   4.093  16.975  0.6129 -0.1110  0.4809
 3925SOL     OW23236   3.232   0.211   3.572  0.1253 -0.1097  0.4228
 3925SOL    HW123237   3.192   0.170   3.649  0.3662 -1.4406 -0.1537
 3925SOL    HW223238   3.159   0.252   3.527  1.4325  2.0590  0.2917
 3926SOL     OW23239   2.640   2.104   7.106 -1.2273  0.8523  0.0592
 3926SOL    HW123240   2.644   2.073   7.197  3.8169 -0.4186 -0.5475
 3926SOL    HW223241   2.735   2.113   7.097 -1.0210 -0.2748  1.0454
 3927SOL     OW23242   2.335   1.365   7.636 -0.3986  0.3510  0.0729
 3927SOL    HW123243   2.418   1.347   7.679 -0.5051  1.6096  0.8185
 3927SOL    HW223244   2.279   1.357   7.714  1.9552 -0.3553  1.6941
 3928SOL     OW23245   0.376   3.806   7.461 -0.0811 -0.3371  0.4967
 3928SOL    HW123246   0.375   3.878   7.524 -0.6861  0.5388 -0.5105
 3928SOL    HW223247   0.320   3.830   7.388  1.0151  0.6241 -0.0161
 3929SOL     OW23248   3.189   4.287  15.602 -0.1676  0.7711 -0.0936
 3929SOL    HW123249   3.121   4.320  15.544 -1.7847 -1.8579  0.2680
 3929SOL    HW223250   3.196   4.352  15.672  0.8105  1.4407 -0.8224
 3930SOL     OW23251   2.849   1.914  12.393 -0.5422  0.1621  0.0633
 3930SOL    HW123252   2.776   1.951  12.442 -1.1208 -1.1904  0.2039
 3930SOL    HW223253   2.932   1.937  12.436  0.6368 -2.9875 -0.5215
 3931SOL     OW23254   0.335   3.929   2.897 -0.0414 -0.4109 -0.2327
 3931SOL    HW123255   0.314   3.909   2.806 -1.8809 -0.9687  0.3203
 3931SOL    HW223256   0.418   3.973   2.882 -0.0157 -1.0152 -1.8137
 3932SOL     OW23257   0.347   2.662   9.242 -0.6077 -0.5325  0.9610
 3932SOL    HW123258   0.384   2.679   9.328 -0.2270  2.2676  0.2475
 3932SOL    HW223259   0.275   2.724   9.244 -0.1218  0.1322 -1.5011
 3933SOL     OW23260   1.467   4.299  13.484  0.6180 -0.5442  0.1219
 3933SOL    HW123261   1.518   4.313  13.564  2.1843  0.6743 -1.0873
 3933SOL    HW223262   1.485   4.206  13.472 -0.6675 -0.4068 -2.7211
 3934SOL     OW23263   0.316   2.754   5.611 -0.5281  1.1475  0.7355
 3934SOL    HW123264   0.338   2.763   5.519 -0.7851 -2.3058  0.3127
 3934SOL    HW223265   0.248   2.687   5.603 -0.9880  1.8441 -0.9440
 3935SOL     OW23266   1.246   1.101   2.244  0.1419  0.5577 -0.1076
 3935SOL    HW123267   1.198   1.019   2.257  0.5402 -0.2545 -3.7332
 3935SOL    HW223268   1.196   1.160   2.300  0.0798 -1.1920  1.7099
 3936SOL     OW23269   1.588   0.942  10.733  0.3878  0.1425  0.2479
 3936SOL    HW123270   1.606   0.936  10.639  1.4081 -0.6120  0.4881
 3936SOL    HW223271   1.638   0.867  10.766 -0.1321  0.9293  2.8002
 3937SOL     OW23272   0.233   2.313   2.766 -0.2297  1.0929  0.1020
 3937SOL    HW123273   0.152   2.358   2.788 -0.6357  0.3899  0.0532
 3937SOL    HW223274   0.192   2.243   2.715 -0.2139  1.2372 -0.1045
 3938SOL     OW23275   2.872   3.184   4.791  0.0845  0.3285 -0.1850
 3938SOL    HW123276   2.827   3.213   4.712 -2.6121 -0.6206  0.9907
 3938SOL    HW223277   2.887   3.090   4.779  0.2009  0.0099  2.3193
 3939SOL     OW23278   2.120   4.323   1.264  0.2797  0.4088 -0.0351
 3939SOL    HW123279   2.104   4.324   1.359 -0.1973 -0.0126 -0.1123
 3939SOL    HW223280   2.141   4.414   1.242  2.2684 -0.1186 -0.3166
 3940SOL     OW23281   1.808   2.088   6.148 -0.5346  0.4890  0.6463
 3940SOL    HW123282   1.832   2.175   6.117  1.2458  0.1661  1.1400
 3940SOL    HW223283   1.890   2.040   6.151  0.1234  1.7068  2.4085
 3941SOL     OW23284   1.801   4.128  16.779 -0.5892 -0.0787 -0.2689
 3941SOL    HW123285   1.854   4.059  16.739 -0.5320  1.1165 -2.2835
 3941SOL    HW223286   1.714   4.093  16.757 -1.1570  1.1861 -0.0594
 3942SOL     OW23287   2.839   0.959   1.520 -0.1201 -0.0359 -0.4206
 3942SOL    HW123288   2.868   1.029   1.580  0.1200 -0.9862  0.5786
 3942SOL    HW223289   2.921   0.926   1.483  0.3348  0.6459 -0.0297
 3943SOL     OW23290   2.078   4.685   2.074  0.4083  0.2334 -0.6234
 3943SOL    HW123291   2.065   0.017   2.152 -1.4939  2.5065 -2.5047
 3943SOL    HW223292   2.167   4.709   2.051  0.5708 -0.4564 -0.7381
 3944SOL     OW23293   1.954   4.670  14.150 -0.3074 -0.5338 -0.1639
 3944SOL    HW123294   2.036   4.656  14.197 -1.6458 -1.3182  1.9178
 3944SOL    HW223295   1.982   4.616  14.076 -0.6569  1.2776 -1.6100
 3945SOL     OW23296   1.238   0.912  16.943 -0.7898 -0.1306  0.3295
 3945SOL    HW123297   1.201   0.826  16.961 -1.4920 -0.0264 -0.5941
 3945SOL    HW223298   1.188   0.964  17.006  0.5940  1.3516  0.2185
 3946SOL     OW23299   3.103   3.296   7.602  0.1112  0.2483 -1.0198
 3946SOL    HW123300   3.161   3.306   7.527 -0.2135 -1.6244 -1.5215
 3946SOL    HW223301   3.018   3.302   7.560  0.1486 -1.0745 -1.2741
 3947SOL     OW23302   1.597   4.011   5.459 -0.0847  0.7606 -0.2936
 3947SOL    HW123303   1.558   3.926   5.477  0.7917  0.4658  0.1702
 3947SOL    HW223304   1.621   4.034   5.549 -1.1174  3.5529 -0.7286
 3948SOL     OW23305   2.027   3.107   0.156 -0.3297 -0.3666  0.5539
 3948SOL    HW123306   2.021   3.109   0.060  0.1440 -3.4485  0.4468
 3948SOL    HW223307   2.080   3.186   0.165  2.8292 -2.1129 -2.3944
 3949SOL     OW23308   3.531   0.547   7.453  0.3710 -0.1120 -0.2859
 3949SOL    HW123309   3.470   0.508   7.515  0.3633  0.9621  0.3736
 3949SOL    HW223310   3.484   0.528   7.372  1.5829  1.5592 -1.3751
 3950SOL     OW23311   3.591   2.840  16.460  0.6755 -0.0006 -0.6734
 3950SOL    HW123312   3.685   2.859  16.455  0.5674  0.4594 -0.9138
 3950SOL    HW223313   3.571   2.862  16.551  0.8674 -0.8024 -0.4370
 3951SOL     OW23314   3.012   0.659   1.652 -0.5171  0.0050 -0.2332
 3951SOL    HW123315   3.053   0.746   1.653  1.5772 -1.0086 -0.2255
 3951SOL    HW223316   3.031   0.633   1.742 -2.4538  0.4180  0.3025
 3952SOL     OW23317   1.154   4.698   7.148 -0.2718 -0.0674  0.1535
 3952SOL    HW123318   1.149   4.715   7.054 -0.6396  1.3180  0.4151
 3952SOL    HW223319   1.205   4.618   7.151 -2.3706 -1.3289  2.1265
 3953SOL     OW23320   4.505   1.872   5.266 -0.0834  0.1557 -0.0158
 3953SOL    HW123321   4.472   1.909   5.348 -2.9209 -1.0782 -0.5940
 3953SOL    HW223322   4.452   1.922   5.204 -1.2237 -1.7965 -0.5973
 3954SOL     OW23323   0.149   1.277  13.304  0.8565 -0.3650  0.0609
 3954SOL    HW123324   0.205   1.209  13.266  0.2789 -0.4565 -0.6157
 3954SOL    HW223325   0.084   1.220  13.346 -1.5196 -0.2920 -3.5349
 3955SOL     OW23326   0.837   2.741   7.793 -0.3244  0.3211  0.3139
 3955SOL    HW123327   0.788   2.806   7.742 -0.0708  0.2736  0.0124
 3955SOL    HW223328   0.914   2.731   7.738  0.2014  1.7742  0.7937
 3956SOL     OW23329   4.138   4.383   5.658  0.2409 -0.0428  0.2317
 3956SOL    HW123330   4.067   4.330   5.695  0.7909 -0.1226  1.1857
 3956SOL    HW223331   4.205   4.316   5.668  0.1536 -0.5275 -2.5813
 3957SOL     OW23332   0.350   4.081   4.436  0.2534  0.4356  0.0128
 3957SOL    HW123333   0.334   4.136   4.513  3.6942  0.7894  0.4644
 3957SOL    HW223334   0.441   4.064   4.456 -0.6800 -1.2186  2.8662
 3958SOL     OW23335   4.593   3.392   4.215 -0.1788  0.3724 -0.2709
 3958SOL    HW123336   4.546   3.325   4.165  0.9969  0.6609 -1.7435
 3958SOL    HW223337   4.678   3.349   4.224  0.6356  2.1016  0.4527
 3959SOL     OW23338   2.629   0.122   0.588 -0.1382  0.3242  0.3052
 3959SOL    HW123339   2.644   0.216   0.600 -1.3808  0.3743  1.4667
 3959SOL    HW223340   2.614   0.117   0.494  3.0678 -3.0708  0.0041
 3960SOL     OW23341   0.056   1.555  13.353 -0.4118 -0.0167  0.5874
 3960SOL    HW123342   4.690   1.525  13.379 -1.5138 -0.2849 -3.4986
 3960SOL    HW223343   0.097   1.468  13.353 -1.5900 -0.5859  2.1036
 3961SOL     OW23344   3.117   2.713   2.667  0.1670 -0.0328 -0.2484
 3961SOL    HW123345   3.031   2.749   2.644  0.2271  0.9862  1.0956
 3961SOL    HW223346   3.147   2.756   2.747  0.0515 -1.7299  0.6921
 3962SOL     OW23347   2.349   4.628   3.784  0.2694 -0.3337  0.0233
 3962SOL    HW123348   2.330   4.641   3.691 -0.5294 -2.9346 -0.1926
 3962SOL    HW223349   2.299   4.551   3.812  3.2801 -1.8929  1.1390
 3963SOL     OW23350   3.909   2.018   2.732  0.5508 -0.1757  0.8584
 3963SOL    HW123351   3.862   1.939   2.705 -0.1873  0.2184  0.9800
 3963SOL    HW223352   3.913   2.059   2.646 -1.8639  1.6139  1.5761
 3964SOL     OW23353   4.381   3.344  14.530  0.2652  0.1669  0.4213
 3964SOL    HW123354   4.371   3.364  14.623 -0.0374  1.9826 -0.0159
 3964SOL    HW223355   4.357   3.251  14.524  1.8821 -0.1446 -1.3092
 3965SOL     OW23356   3.144   1.384   4.399  0.2386 -0.3994  0.7419
 3965SOL    HW123357   3.180   1.333   4.327  1.2761  2.1138 -0.5336
 3965SOL    HW223358   3.230   1.415   4.430  0.7679 -0.2197 -0.8993
 3966SOL     OW23359   4.398   2.503   0.670  0.2099 -0.5570 -0.0069
 3966SOL    HW123360   4.482   2.461   0.653 -0.5149 -0.3170 -4.0897
 3966SOL    HW223361   4.374   2.465   0.755  1.1977 -0.6719  0.2207
 3967SOL     OW23362   2.717   0.922   4.370  0.0947  0.5168  0.0389
 3967SOL    HW123363   2.683   0.843   4.329  2.7460 -1.3876  1.5314
 3967SOL    HW223364   2.812   0.920   4.360  0.1357  2.4739  0.0509
 3968SOL     OW23365   0.598   0.921   2.500  0.1645 -0.1198  0.4734
 3968SOL    HW123366   0.585   0.835   2.459 -0.8600 -0.0035  0.5667
 3968SOL    HW223367   0.511   0.959   2.496  0.6958  0.9839 -0.5120
 3969SOL     OW23368   1.850   2.890   8.618  0.0388  0.3947 -0.2041
 3969SOL    HW123369   1.760   2.876   8.589  0.2523 -0.9932 -0.1882
 3969SOL    HW223370   1.899   2.872   8.538 -0.2790  0.0287 -0.3190
 3970SOL     OW23371   1.917   2.763   9.750  0.1417 -0.3621  0.3972
 3970SOL    HW123372   1.841   2.765   9.693 -0.1436 -3.6214  0.6552
 3970SOL    HW223373   1.977   2.712   9.695  0.6189  1.2874 -0.5762
 3971SOL     OW23374   3.016   3.129   2.998  0.8510  0.6496 -0.3099
 3971SOL    HW123375   3.023   3.156   3.089  1.4809 -1.0592  0.1495
 3971SOL    HW223376   2.921   3.116   2.989  0.9521  0.8873 -1.7195
 3972SOL     OW23377   0.889   3.252   7.516 -0.2696  0.6568 -0.3716
 3972SOL    HW123378   0.820   3.253   7.450 -3.0047  0.2656  2.4602
 3972SOL    HW223379   0.841   3.282   7.593 -0.9575 -1.2510 -0.0570
 3973SOL     OW23380   4.483   2.301   2.851 -0.8666  0.6440 -0.0307
 3973SOL    HW123381   4.427   2.342   2.784 -0.3774  0.9937 -0.2232
 3973SOL    HW223382   4.474   2.207   2.834 -1.1804  0.4294  1.3521
 3974SOL     OW23383   1.769   4.510  17.318  0.0629 -0.4851 -0.1089
 3974SOL    HW123384   1.813   4.426  17.307 -1.2855 -1.1390 -0.4374
 3974SOL    HW223385   1.770   4.528  17.224  3.1877 -1.5240 -0.2752
 3975SOL     OW23386   0.375   0.205   3.126 -0.2911 -0.6990 -0.1544
 3975SOL    HW123387   0.470   0.208   3.135 -0.4241 -0.7130  1.1853
 3975SOL    HW223388   0.352   0.120   3.162 -3.6286 -0.3707 -1.4641
 3976SOL     OW23389   2.408   3.247   5.928 -0.5577 -0.2885  0.4087
 3976SOL    HW123390   2.323   3.290   5.931 -0.7846 -0.6123 -1.5456
 3976SOL    HW223391   2.388   3.154   5.922 -1.8678  0.1657 -2.2438
 3977SOL     OW23392   1.901   1.386   7.070  0.6634  0.1369 -0.1418
 3977SOL    HW123393   1.940   1.465   7.105  0.0149 -0.5293  2.1108
 3977SOL    HW223394   1.977   1.329   7.079  0.9018  0.4884  0.0350
 3978SOL     OW23395   3.733   2.913   7.885  0.1907  0.1440 -0.8221
 3978SOL    HW123396   3.690   2.981   7.832 -0.7506 -0.4425 -0.8133
 3978SOL    HW223397   3.702   2.836   7.837 -0.5674  1.7646 -2.9464
 3979SOL     OW23398   3.850   3.499   8.183 -0.3377  0.4566 -0.1389
 3979SOL    HW123399   3.777   3.559   8.167 -1.6959 -1.1261  0.1676
 3979SOL    HW223400   3.917   3.559   8.216  0.7147 -1.5410  1.3484
 3980SOL     OW23401   1.698   4.715   6.533 -0.2511  0.2340  0.3481
 3980SOL    HW123402   1.693   0.014   6.439 -2.5452  1.6411  0.8086
 3980SOL    HW223403   1.702   4.619   6.530 -0.1312  0.2298  0.7085
 3981SOL     OW23404   3.183   0.190   4.135  0.2243 -0.5841 -0.4889
 3981SOL    HW123405   3.265   0.240   4.131  0.0671 -0.2856  0.0911
 3981SOL    HW223406   3.120   0.257   4.161  2.4401  1.5469 -0.6498
 3982SOL     OW23407   4.440   4.222   8.528  0.3417 -0.2894  0.0272
 3982SOL    HW123408   4.481   4.251   8.609 -0.6811 -0.0052  0.4353
 3982SOL    HW223409   4.437   4.307   8.485  1.3115  0.0135  0.5689
 3983SOL     OW23410   3.888   3.666   0.746 -0.4278  0.2973 -0.1096
 3983SOL    HW123411   3.961   3.618   0.707  1.2151  2.5038  0.2595
 3983SOL    HW223412   3.805   3.641   0.706  1.1084 -2.6852 -1.4841
 3984SOL     OW23413   2.634   0.764   0.642 -0.0356 -0.1823 -0.1929
 3984SOL    HW123414   2.572   0.761   0.569  0.5449 -0.9501 -0.6593
 3984SOL    HW223415   2.627   0.858   0.655 -1.9502 -0.7096  2.6978
 3985SOL     OW23416   3.878   1.873   4.823  0.2116  0.1143  0.0945
 3985SOL    HW123417   3.848   1.950   4.871  1.2829  0.3140  0.4263
 3985SOL    HW223418   3.970   1.872   4.847  0.5142  2.2735 -0.9147
 3986SOL     OW23419   0.497   1.629   5.331  0.4603  0.1191 -0.1426
 3986SOL    HW123420   0.448   1.711   5.333  0.7075  0.3201 -2.4134
 3986SOL    HW223421   0.459   1.588   5.409 -2.6639  0.0780 -1.6638
 3987SOL     OW23422   0.331   0.517   8.095  0.0927  0.1459 -0.2265
 3987SOL    HW123423   0.344   0.585   8.028 -1.8133  0.8142  0.0670
 3987SOL    HW223424   0.240   0.497   8.072 -0.2862 -0.2620  1.6844
 3988SOL     OW23425   2.581   2.955   7.809 -0.2850 -0.2877 -0.6684
 3988SOL    HW123426   2.510   2.891   7.809  0.9176 -1.6253 -1.4375
 3988SOL    HW223427   2.526   3.017   7.856  3.7329  2.4289  0.5151
 3989SOL     OW23428   1.147   2.520   8.028 -0.4024  0.6500 -0.4235
 3989SOL    HW123429   1.080   2.477   7.974 -0.2243 -1.2646  0.8878
 3989SOL    HW223430   1.183   2.596   7.981 -0.2565 -0.0713 -1.4761
 3990SOL     OW23431   2.139   4.108   5.534  0.5647  0.0214  0.0678
 3990SOL    HW123432   2.047   4.081   5.542  0.1578  1.8422  1.6703
 3990SOL    HW223433   2.135   4.187   5.479  1.8623 -0.1988 -0.3353
 3991SOL     OW23434   2.777   0.363   5.523  0.3928 -0.1836  0.2706
 3991SOL    HW123435   2.789   0.327   5.435 -1.1038  1.3858 -0.5771
 3991SOL    HW223436   2.849   0.319   5.568  1.1349  1.3264  0.5458
 3992SOL     OW23437   1.877   2.200   0.010 -0.4763  0.5046 -0.0924
 3992SOL    HW123438   1.786   2.216   0.036 -0.8109  0.5284 -1.2766
 3992SOL    HW223439   1.897   2.288  17.669 -1.2141  0.7045 -0.0038
 3993SOL     OW23440   4.209   4.280   0.725  0.3617  0.0345 -0.2725
 3993SOL    HW123441   4.247   4.330   0.798 -0.7305 -1.1935  1.1350
 3993SOL    HW223442   4.239   4.191   0.741 -1.6843 -0.6182 -0.0468
 3994SOL     OW23443   3.378   1.098   1.100  0.2825 -0.3631  0.8514
 3994SOL    HW123444   3.298   1.046   1.114  1.3117 -1.8320  1.2495
 3994SOL    HW223445   3.399   1.079   1.009  0.0476 -0.9575  0.9207
 3995SOL     OW23446   3.950   2.655  11.984  0.3906 -0.3972 -0.1690
 3995SOL    HW123447   3.993   2.605  12.054 -0.2129  1.5015  1.5270
 3995SOL    HW223448   3.940   2.741  12.023 -0.9052 -1.5867  2.0675
 3996SOL     OW23449   2.070   1.700   5.820 -0.1656 -0.1831 -0.5521
 3996SOL    HW123450   2.007   1.638   5.858  1.7329 -0.3064  2.3836
 3996SOL    HW223451   1.998   1.758   5.793 -1.5161 -1.3363  0.5448
 3997SOL     OW23452   3.202   2.316   5.766  0.1855  0.3700 -0.0543
 3997SOL    HW123453   3.148   2.317   5.845 -1.3106 -0.4592 -1.0666
 3997SOL    HW223454   3.162   2.397   5.733 -0.6186  0.7623  1.8868
 3998SOL     OW23455   2.078   3.558   2.318 -0.0462  0.2493  0.4830
 3998SOL    HW123456   2.030   3.504   2.255  0.0848  0.7718 -0.0591
 3998SOL    HW223457   2.136   3.604   2.259 -2.1163  2.5191  0.2269
 3999SOL     OW23458   0.353   4.520   6.559  0.0566 -0.2847  0.0386
 3999SOL    HW123459   0.358   4.558   6.471  1.9144 -1.1687 -0.2414
 3999SOL    HW223460   0.434   4.468   6.560 -0.6496 -1.3889 -0.0840
 4000SOL     OW23461   1.164   3.203   8.665 -0.1969  0.4562 -0.2022
 4000SOL    HW123462   1.145   3.111   8.645  5.7298 -1.0539  0.8238
 4000SOL    HW223463   1.152   3.211   8.759 -0.7975 -1.1015 -0.1541
 4001SOL     OW23464   4.217   2.383   5.628 -0.4746  0.3670  0.3533
 4001SOL    HW123465   4.283   2.321   5.661  1.4644  2.1115 -0.2055
 4001SOL    HW223466   4.256   2.471   5.635 -3.6627  1.7834  0.1476
 4002SOL     OW23467   4.696   2.207   3.855 -0.3524  0.1915  0.8083
 4002SOL    HW123468   4.630   2.188   3.922 -0.0517 -0.4052  0.9361
 4002SOL    HW223469   0.039   2.259   3.904 -0.2947  0.3353  0.5796
 4003SOL     OW23470   3.815   0.017   2.155  0.7035  0.1386 -0.0750
 4003SOL    HW123471   3.907   0.043   2.161  0.3876  1.1429  0.2897
 4003SOL    HW223472   3.802   4.713   2.063  0.8785 -1.3258  0.3021
 4004SOL     OW23473   2.333   2.581  14.243  0.1537 -0.3385  0.2732
 4004SOL    HW123474   2.402   2.646  14.224 -0.5223  0.5517  0.8602
 4004SOL    HW223475   2.357   2.518  14.175 -1.2867  0.2672 -0.7994
 4005SOL     OW23476   2.401   2.274   8.043  0.4897  0.1560  0.1847
 4005SOL    HW123477   2.362   2.188   8.026 -0.8554  0.4180  1.8374
 4005SOL    HW223478   2.345   2.313   8.111  0.5384 -0.5568  0.6317
 4006SOL     OW23479   0.140   0.564   4.248 -0.1684 -0.6239  0.3553
 4006SOL    HW123480   0.070   0.624   4.276 -0.6449 -0.7748 -0.4996
 4006SOL    HW223481   0.109   0.488   4.296  0.0863 -0.6380  0.4977
 4007SOL     OW23482   4.589   2.409  10.350  0.4927 -0.0782  0.4552
 4007SOL    HW123483   4.648   2.425  10.276  0.7765  0.9586  0.9083
 4007SOL    HW223484   4.630   2.447  10.428 -3.2807  2.9421  0.9318
 4008SOL     OW23485   3.572   4.406  12.860 -0.9049  0.2044  0.2216
 4008SOL    HW123486   3.576   4.487  12.911  2.2004 -1.2796  2.3297
 4008SOL    HW223487   3.629   4.349  12.912 -0.7813  1.6071  1.6456
 4009SOL     OW23488   1.675   3.161  10.612  0.5227  0.0591  0.4317
 4009SOL    HW123489   1.676   3.215  10.533 -0.5893 -0.5902 -0.0306
 4009SOL    HW223490   1.767   3.136  10.620  0.2500 -1.2469 -0.4783
 4010SOL     OW23491   1.128   3.744   4.350 -0.6781 -0.5130  0.5891
 4010SOL    HW123492   1.043   3.789   4.348 -0.1425  0.5322  0.9580
 4010SOL    HW223493   1.133   3.715   4.441  0.4322 -1.5009  0.2025
 4011SOL     OW23494   3.302   2.281   3.378 -0.2796 -0.0897 -0.1946
 4011SOL    HW123495   3.329   2.190   3.384 -0.4638 -0.1902 -0.8463
 4011SOL    HW223496   3.241   2.282   3.451 -0.6795 -3.4058 -0.5070
 4012SOL     OW23497   1.812   1.964   8.002 -0.0639  0.2894 -0.6059
 4012SOL    HW123498   1.738   1.930   7.952  1.5552 -1.1596 -2.0116
 4012SOL    HW223499   1.814   2.052   7.965 -0.8223  0.4332 -0.3045
 4013SOL     OW23500   3.591   1.338   4.458 -0.6528  0.0371 -0.1261
 4013SOL    HW123501   3.675   1.382   4.442  0.1759 -1.9404 -1.1859
 4013SOL    HW223502   3.600   1.291   4.541 -1.1392 -0.4909 -0.3756
 4014SOL     OW23503   2.840   3.985  10.866 -0.0030 -0.0078  0.0488
 4014SOL    HW123504   2.786   3.929  10.922  0.0538  1.0400  1.1385
 4014SOL    HW223505   2.820   4.077  10.882 -0.2714 -0.2773  1.2546
 4015SOL     OW23506   0.903   2.764   5.649 -0.0612 -0.0127 -0.2862
 4015SOL    HW123507   0.867   2.819   5.580 -2.4852  0.0035  1.0011
 4015SOL    HW223508   0.888   2.820   5.726  0.5929 -0.1070 -0.0914
 4016SOL     OW23509   1.826   1.536  11.846  0.3693  0.1319  0.2834
 4016SOL    HW123510   1.773   1.616  11.846  0.6325  0.3094  0.7584
 4016SOL    HW223511   1.893   1.555  11.781 -0.1990 -1.1807 -0.6997
 4017SOL     OW23512   2.316   1.915   0.228  0.1100 -0.7257  0.2117
 4017SOL    HW123513   2.321   1.829   0.187 -0.0994  0.7151 -2.8124
 4017SOL    HW223514   2.290   1.975   0.159  2.0070  1.3306  1.2781
 4018SOL     OW23515   2.194   0.580  14.699  0.1810  0.4363  0.1337
 4018SOL    HW123516   2.107   0.590  14.661  0.3923  2.0312  0.0819
 4018SOL    HW223517   2.246   0.559  14.621  1.4168  3.6551  0.0942
 4019SOL     OW23518   2.930   2.451   8.952 -0.6378  0.2555  0.2606
 4019SOL    HW123519   2.951   2.359   8.967 -0.2919 -0.1088 -2.5184
 4019SOL    HW223520   3.013   2.478   8.913 -0.6570 -0.0976 -0.0246
 4020SOL     OW23521   1.954   0.298   3.352  0.4825 -0.0973  0.9016
 4020SOL    HW123522   1.867   0.270   3.380  0.1198  0.1116 -0.0062
 4020SOL    HW223523   1.935   0.365   3.286  1.2748 -0.8754 -0.1131
 4021SOL     OW23524   4.599   3.138   9.086 -0.8576  0.0859 -0.3491
 4021SOL    HW123525   4.518   3.088   9.087 -1.5712  1.1988 -1.8953
 4021SOL    HW223526   4.662   3.077   9.124 -1.9313 -0.1163  1.0759
 4022SOL     OW23527   0.776   2.513  12.020  0.0382  0.4020  0.6711
 4022SOL    HW123528   0.805   2.439  12.074 -1.5110  0.2981  1.3555
 4022SOL    HW223529   0.854   2.556  11.984 -0.0671  0.1802  0.1745
 4023SOL     OW23530   4.338   1.563   8.130  0.1216 -0.1257  0.4180
 4023SOL    HW123531   4.337   1.557   8.226 -4.8206  0.4114  0.3779
 4023SOL    HW223532   4.432   1.548   8.121  0.6307  1.9388  2.1968
 4024SOL     OW23533   2.068   3.011  13.723  0.2424 -0.1010  0.4941
 4024SOL    HW123534   2.032   3.065  13.653 -3.2000 -1.3749  1.2608
 4024SOL    HW223535   2.120   3.071  13.777 -1.4814  1.2687  0.6420
 4025SOL     OW23536   4.049   2.634   0.240 -0.0868 -0.6133 -0.0724
 4025SOL    HW123537   4.097   2.635   0.323 -1.0595  3.3816  0.4464
 4025SOL    HW223538   4.023   2.542   0.228  0.2457 -0.9074  1.4604
 4026SOL     OW23539   3.278   4.209   8.404 -0.2102 -0.3859  0.1404
 4026SOL    HW123540   3.369   4.197   8.429  0.1506  0.5799 -0.7185
 4026SOL    HW223541   3.259   4.296   8.439  1.1853  1.0066 -2.5230
 4027SOL     OW23542   3.453   0.052   5.794  0.3051  0.1627 -0.4731
 4027SOL    HW123543   3.442   4.694   5.845 -0.7519  0.8936  0.4394
 4027SOL    HW223544   3.520   0.097   5.846  1.8341 -0.2285 -2.1013
 4028SOL     OW23545   0.362   4.467   4.265  0.3947 -0.8375 -0.5466
 4028SOL    HW123546   0.423   4.404   4.303  2.3330  2.4721  1.7824
 4028SOL    HW223547   0.406   4.500   4.187  1.6576 -2.6529 -0.6233
 4029SOL     OW23548   1.307   1.589   6.983  0.1764 -0.5284 -0.5183
 4029SOL    HW123549   1.260   1.610   7.064 -0.7682 -3.5288 -0.2735
 4029SOL    HW223550   1.395   1.572   7.016  0.4381  0.6101 -0.6430
 4030SOL     OW23551   4.330   1.778   6.600  0.1158  0.0806  0.5509
 4030SOL    HW123552   4.369   1.865   6.591 -1.6487  0.6171 -1.9594
 4030SOL    HW223553   4.263   1.778   6.531  0.8427  0.5109 -0.1617
 4031SOL     OW23554   3.928   3.492   6.230  0.3595 -0.1750 -0.4915
 4031SOL    HW123555   3.892   3.412   6.192 -0.7294  1.0127 -1.9536
 4031SOL    HW223556   3.877   3.500   6.310 -0.5286 -1.2847 -0.9409
 4032SOL     OW23557   1.381   2.759   3.515  0.2307 -0.0591  0.3891
 4032SOL    HW123558   1.305   2.800   3.474  0.4722  0.0233  0.0237
 4032SOL    HW223559   1.357   2.666   3.512  1.9473 -0.4157 -2.8102
 4033SOL     OW23560   0.323   4.115  12.357  0.1287 -0.7008  0.1860
 4033SOL    HW123561   0.320   4.196  12.306  0.1953 -0.3063  0.8089
 4033SOL    HW223562   0.232   4.085  12.352 -0.8632  2.3448 -0.7423
 4034SOL     OW23563   4.109   2.730   6.880 -0.2947 -0.3130 -0.4258
 4034SOL    HW123564   4.148   2.683   6.954 -1.3059  2.9026  2.1463
 4034SOL    HW223565   4.064   2.796   6.932  1.3734  1.4910 -1.2594
 4035SOL     OW23566   3.508   4.188   2.028 -0.2487 -0.2206  0.1946
 4035SOL    HW123567   3.476   4.164   1.942 -2.2502  1.3197  0.5041
 4035SOL    HW223568   3.447   4.258   2.051 -0.7813 -1.2916  2.1091
 4036SOL     OW23569   1.403   1.450   7.912 -0.7191 -0.5712  0.3620
 4036SOL    HW123570   1.363   1.396   7.981  1.1991  0.5565  2.3830
 4036SOL    HW223571   1.427   1.381   7.850 -0.0719  2.0991 -2.3525
 4037SOL     OW23572   2.981   1.284  12.242 -0.1231  0.2615  0.4907
 4037SOL    HW123573   3.035   1.324  12.310  1.4483 -1.2534  0.1293
 4037SOL    HW223574   2.911   1.348  12.228  0.3148  0.8766  1.0997
 4038SOL     OW23575   0.775   4.391   2.564  0.4656  0.9064  0.6563
 4038SOL    HW123576   0.712   4.320   2.554  0.8490  0.8874 -1.5687
 4038SOL    HW223577   0.716   4.465   2.545  0.8540  1.3155  1.0356
 4039SOL     OW23578   0.182   1.715   9.368  0.1407 -0.1795  0.3501
 4039SOL    HW123579   0.189   1.790   9.427  0.4346  1.0369 -1.2404
 4039SOL    HW223580   0.193   1.762   9.285 -2.2326 -0.8497 -0.3364
 4040SOL     OW23581   0.466   2.789  13.081 -0.0970 -0.1672 -0.5195
 4040SOL    HW123582   0.523   2.753  13.012  1.2337 -0.0869  0.5391
 4040SOL    HW223583   0.472   2.883  13.065 -3.1870 -0.1398 -1.4640
 4041SOL     OW23584   4.440   0.769   9.191 -0.7747  0.0472  0.2572
 4041SOL    HW123585   4.485   0.813   9.263  0.0893 -3.1563  1.6682
 4041SOL    HW223586   4.514   0.717   9.160 -1.8623  0.6153 -3.2525
 4042SOL     OW23587   1.111   0.996   6.318 -0.0475 -0.2373  0.4410
 4042SOL    HW123588   1.172   1.018   6.388 -1.5286  1.2840  1.2296
 4042SOL    HW223589   1.056   1.074   6.319 -0.2515 -0.3802  0.2183
 4043SOL     OW23590   0.643   0.710  17.669 -0.4812  0.4795 -0.6684
 4043SOL    HW123591   0.613   0.768   0.048  1.2310  1.6212 -0.8800
 4043SOL    HW223592   0.569   0.650  17.671  1.2399 -1.5709  2.6220
 4044SOL     OW23593   0.623   2.453  14.181  0.2050  0.1294  0.1657
 4044SOL    HW123594   0.587   2.369  14.153 -1.4844 -0.1690  3.2363
 4044SOL    HW223595   0.688   2.458  14.111  0.0472 -1.5512 -0.1200
 4045SOL     OW23596   3.497   3.349   7.315 -0.3587  0.0874 -0.1912
 4045SOL    HW123597   3.559   3.329   7.385 -1.2484 -0.9426  0.2996
 4045SOL    HW223598   3.539   3.421   7.267  2.0030 -0.9527  0.2997
 4046SOL     OW23599   1.706   4.699   3.614 -0.1215 -0.1239  0.1689
 4046SOL    HW123600   1.758   4.630   3.572 -0.9272 -1.3614  1.1728
 4046SOL    HW223601   1.734   0.052   3.562 -1.5864 -0.7885 -1.6028
 4047SOL     OW23602   1.126   2.772   4.921  0.3730  0.1494  0.3347
 4047SOL    HW123603   1.038   2.810   4.928  0.6190  0.4970  1.5458
 4047SOL    HW223604   1.115   2.731   4.835  0.2966 -0.0598  0.4452
 4048SOL     OW23605   1.576   3.237   1.847 -0.0825 -0.1254 -0.6701
 4048SOL    HW123606   1.512   3.293   1.889 -0.6512  1.6249 -3.9028
 4048SOL    HW223607   1.591   3.168   1.912 -0.8124 -1.3034 -1.7532
 4049SOL     OW23608   2.031   0.338   0.177  0.2170 -0.4910 -0.3006
 4049SOL    HW123609   1.969   0.305   0.112 -0.6309  3.4774 -1.4912
 4049SOL    HW223610   2.073   0.406   0.123  0.9366 -0.3402  0.4369
 4050SOL     OW23611   2.321   4.239   2.563 -0.0425  0.7690 -0.3127
 4050SOL    HW123612   2.393   4.302   2.554  0.9009 -0.4866 -1.4971
 4050SOL    HW223613   2.247   4.272   2.513 -0.4356 -2.2133 -1.6818
 4051SOL     OW23614   2.239   4.358   7.278  0.2912  0.5355  0.6591
 4051SOL    HW123615   2.194   4.438   7.251 -2.0264 -1.3041 -0.8907
 4051SOL    HW223616   2.295   4.396   7.346  0.8608 -0.7473  0.9070
 4052SOL     OW23617   2.238   4.700   0.128 -0.4675  0.2818  0.2777
 4052SOL    HW123618   2.235   4.661   0.216 -1.4454 -0.1046  0.0747
 4052SOL    HW223619   2.145   4.702   0.108 -0.3484 -0.5203 -0.3667
 4053SOL     OW23620   0.052   4.383   9.173  0.0017  0.1648 -0.1236
 4053SOL    HW123621   0.075   4.454   9.112  0.1397 -0.0853 -0.3589
 4053SOL    HW223622   4.678   4.389   9.170  0.0775  2.3028  1.4286
 4054SOL     OW23623   0.133   3.235  15.674  0.5227  0.3121  0.3498
 4054SOL    HW123624   0.178   3.315  15.646  0.0178  1.0328  1.6213
 4054SOL    HW223625   0.051   3.273  15.704  1.1801  0.0649  2.4298
 4055SOL     OW23626   1.525   0.772   1.024 -0.8369  0.4291 -0.2404
 4055SOL    HW123627   1.447   0.726   0.994 -0.2084 -0.0703 -1.1291
 4055SOL    HW223628   1.516   0.842   0.959  1.7831  1.7497  0.8051
 4056SOL     OW23629   4.618   0.266   7.210 -0.0079  0.3208 -0.1109
 4056SOL    HW123630   4.613   0.211   7.132 -1.8029  1.5697 -0.8699
 4056SOL    HW223631   4.549   0.234   7.269 -0.1240 -0.1603 -0.5155
 4057SOL     OW23632   3.175   3.746  10.573 -0.4534 -0.4601 -0.0490
 4057SOL    HW123633   3.119   3.758  10.650  1.5554  0.2216  1.3340
 4057SOL    HW223634   3.206   3.658  10.595  2.6853  1.2063  2.2046
 4058SOL     OW23635   1.197   2.384  16.565  0.4786  0.5954 -0.1082
 4058SOL    HW123636   1.150   2.441  16.503  1.4565  2.0320  0.4690
 4058SOL    HW223637   1.182   2.298  16.525 -2.1369  0.9642  0.1094
 4059SOL     OW23638   0.995   4.076   7.049 -0.3037 -0.2849 -0.2315
 4059SOL    HW123639   1.077   4.121   7.026 -0.1882 -0.8479 -0.9136
 4059SOL    HW223640   1.022   3.987   7.069  0.9828  0.2726  0.5557
 4060SOL     OW23641   2.142   0.228  14.911 -0.1363 -0.3043 -0.2256
 4060SOL    HW123642   2.196   0.303  14.935 -0.3699 -0.5079  0.9266
 4060SOL    HW223643   2.129   0.242  14.817  0.5953 -1.8230 -0.5579
 4061SOL     OW23644   1.973   0.294   0.988 -0.4739 -0.1977  0.5061
 4061SOL    HW123645   1.975   0.389   0.972 -0.4651  0.1913  2.7843
 4061SOL    HW223646   2.029   0.264   0.917  0.3774  2.8016 -0.0935
 4062SOL     OW23647   2.369   2.356   3.340  0.2240  0.2669 -0.2018
 4062SOL    HW123648   2.436   2.357   3.409 -1.2262 -0.1212  1.1956
 4062SOL    HW223649   2.421   2.395   3.270  2.0607 -0.4193  0.7829
 4063SOL     OW23650   3.065   0.126   5.014  0.1248 -0.4774  0.0091
 4063SOL    HW123651   3.058   0.056   5.079  4.5854 -1.4573 -0.5919
 4063SOL    HW223652   3.110   0.082   4.942  0.6202  1.1666 -0.6694
 4064SOL     OW23653   2.504   1.680   3.735  0.4487  0.1380  0.3445
 4064SOL    HW123654   2.505   1.731   3.816  2.6421  1.3751 -0.4613
 4064SOL    HW223655   2.593   1.644   3.739 -0.2770 -1.3951  2.8267
 4065SOL     OW23656   1.351   4.122   2.054 -0.5663 -0.1318 -0.5694
 4065SOL    HW123657   1.331   4.204   2.099  0.4125 -1.6821  2.6319
 4065SOL    HW223658   1.402   4.156   1.981  3.3946 -1.4132  1.6184
 4066SOL     OW23659   3.969   2.327   4.125 -0.4373  0.3024  0.4671
 4066SOL    HW123660   3.952   2.345   4.033  0.4629  1.9800  0.6307
 4066SOL    HW223661   4.050   2.374   4.141  0.7537 -1.7030  0.2702
 4067SOL     OW23662   3.541   3.937  15.009 -0.1143  0.7229 -0.1766
 4067SOL    HW123663   3.456   3.949  15.053 -0.5529  2.6180 -1.5607
 4067SOL    HW223664   3.532   3.997  14.935 -2.2387 -0.6521 -1.0545
 4068SOL     OW23665   1.136   4.348   0.942  0.5521 -0.5779  0.3936
 4068SOL    HW123666   1.048   4.319   0.921  0.3336  1.4112 -1.4160
 4068SOL    HW223667   1.176   4.357   0.856  0.8263 -0.1239  0.5690
 4069SOL     OW23668   1.938   2.761  12.760  0.3693 -0.2301 -0.5056
 4069SOL    HW123669   2.020   2.773  12.712 -0.1227  3.3506 -0.3879
 4069SOL    HW223670   1.954   2.687  12.818  0.0385  0.7771  0.8503
 4070SOL     OW23671   1.613   2.782   8.521 -0.3232 -0.0244 -0.3233
 4070SOL    HW123672   1.663   2.745   8.448  0.4377  2.0989 -0.8729
 4070SOL    HW223673   1.550   2.711   8.533  0.0586 -0.1005  1.1866
 4071SOL     OW23674   4.087   2.405   6.530  0.2668 -0.0955 -0.7032
 4071SOL    HW123675   4.055   2.430   6.617 -0.1319  0.1444 -0.9179
 4071SOL    HW223676   4.049   2.318   6.519  0.2953 -0.3569  1.2460
 4072SOL     OW23677   4.138   3.919   7.045 -0.3535 -0.1377  0.3557
 4072SOL    HW123678   4.211   3.979   7.062  1.5048 -2.0508 -0.8563
 4072SOL    HW223679   4.111   3.897   7.134  0.6904  0.8243  0.9065
 4073SOL     OW23680   3.060   2.610   9.596  0.4213  0.1006 -0.3274
 4073SOL    HW123681   3.028   2.523   9.572  0.4758  0.3066 -1.1682
 4073SOL    HW223682   3.135   2.575   9.644 -1.2378 -1.9722  0.7355
 4074SOL     OW23683   1.596   3.703   7.689 -0.0607 -0.2163 -0.4116
 4074SOL    HW123684   1.657   3.747   7.749 -1.5830  0.5053  0.6229
 4074SOL    HW223685   1.515   3.726   7.734  0.8147  2.0385  0.0363
 4075SOL     OW23686   1.140   4.555   2.412 -0.3175  0.0507  0.2906
 4075SOL    HW123687   1.087   4.630   2.438 -0.2757  1.1072 -2.6592
 4075SOL    HW223688   1.210   4.593   2.358 -1.2664  0.1222 -0.8936
 4076SOL     OW23689   2.523   1.368   7.826  0.2291  0.2734  0.5768
 4076SOL    HW123690   2.485   1.444   7.870 -0.4803  0.6985 -0.7965
 4076SOL    HW223691   2.614   1.389   7.846  0.7849 -0.9512 -0.6602
 4077SOL     OW23692   1.431   1.054   8.973  0.0615 -0.7298  0.4003
 4077SOL    HW123693   1.459   1.139   8.940 -1.8685 -0.0344  0.5615
 4077SOL    HW223694   1.508   0.999   8.958 -1.1124 -1.7656 -1.7952
 4078SOL     OW23695   2.707   4.668  14.454  0.3638  0.0663  0.0972
 4078SOL    HW123696   2.622   4.698  14.484  0.2132  0.2112 -0.4821
 4078SOL    HW223697   2.755   4.663  14.537 -0.9271 -1.0883  0.7835
 4079SOL     OW23698   1.986   4.529  12.779  0.0423 -0.7424  0.2854
 4079SOL    HW123699   2.063   4.558  12.730 -0.5222  0.3452  0.0441
 4079SOL    HW223700   1.923   4.556  12.712  2.5978  1.7886 -1.1041
 4080SOL     OW23701   0.873   2.918  16.944  0.2983 -0.0007  0.6462
 4080SOL    HW123702   0.805   2.958  16.999 -1.6588 -1.0467 -1.0345
 4080SOL    HW223703   0.895   2.848  17.005  3.1991  0.0034 -0.3828
 4081SOL     OW23704   0.343   4.062   4.945  0.1223  0.1818 -0.0411
 4081SOL    HW123705   0.273   4.078   5.009 -1.3509 -0.7710 -1.3923
 4081SOL    HW223706   0.388   3.988   4.985  0.9728  0.3549 -0.6927
 4082SOL     OW23707   2.839   1.519   3.982  0.4268  0.3513  0.0645
 4082SOL    HW123708   2.900   1.479   4.044  2.5263  0.6147 -1.8318
 4082SOL    HW223709   2.757   1.512   4.030  0.1995 -0.4075 -0.4351
 4083SOL     OW23710   3.970   1.155   4.675  0.3087 -0.0564 -0.9619
 4083SOL    HW123711   4.031   1.095   4.717 -1.2851 -1.3527 -0.5181
 4083SOL    HW223712   3.986   1.149   4.580  1.9705 -2.2664 -0.5446
 4084SOL     OW23713   4.042   2.199  13.402 -0.6287 -0.1462 -0.3418
 4084SOL    HW123714   4.083   2.124  13.360  1.3651  0.1189  1.1321
 4084SOL    HW223715   4.048   2.182  13.496 -0.1708  2.9358  0.1961
 4085SOL     OW23716   4.188   3.571  16.481 -0.0454 -0.0390 -0.0744
 4085SOL    HW123717   4.238   3.650  16.502 -0.3863  0.8697 -2.6435
 4085SOL    HW223718   4.109   3.610  16.443  0.7820 -0.3519 -2.1282
 4086SOL     OW23719   1.189   0.768  15.207  0.0868 -0.0472  0.0130
 4086SOL    HW123720   1.275   0.810  15.212  1.2469 -2.4197 -0.1249
 4086SOL    HW223721   1.124   0.827  15.245 -0.9443 -0.4801 -1.0609
 4087SOL     OW23722   1.671   0.010   1.008 -0.0782 -0.2607  0.0853
 4087SOL    HW123723   1.637   0.070   1.075  0.1429  0.4566 -0.4533
 4087SOL    HW223724   1.594   4.675   1.001 -0.0693 -0.4104  1.1334
 4088SOL     OW23725   2.204   4.558   6.155  0.0650  0.1193 -0.2989
 4088SOL    HW123726   2.262   4.482   6.146  0.1151  0.0072  0.9222
 4088SOL    HW223727   2.209   4.606   6.072  0.2904  0.2022 -0.2383
 4089SOL     OW23728   3.363   3.004   4.059  0.3729 -0.2139 -0.0657
 4089SOL    HW123729   3.399   2.919   4.034  2.5179  1.1013 -1.5035
 4089SOL    HW223730   3.301   3.002   4.132  1.3602 -0.4426  0.7646
 4090SOL     OW23731   3.071   0.232  13.292  0.4427 -1.1254 -0.0338
 4090SOL    HW123732   3.019   0.163  13.332 -0.0236 -0.2624  0.8443
 4090SOL    HW223733   3.142   0.181  13.252 -0.8940 -1.6751 -1.7249
 4091SOL     OW23734   3.277   4.161   8.118 -0.0263 -0.1149 -0.0300
 4091SOL    HW123735   3.348   4.097   8.111 -0.3237 -0.4687  0.1476
 4091SOL    HW223736   3.257   4.164   8.212  1.0866  4.6421  0.0350
 4092SOL     OW23737   1.052   4.098   9.130  0.0358 -0.2622  0.5120
 4092SOL    HW123738   1.036   4.087   9.037 -0.1037 -0.1713  0.5250
 4092SOL    HW223739   1.116   4.169   9.127  0.5641 -0.7702 -0.4137
 4093SOL     OW23740   0.985   3.645   1.167  0.3014  0.2329 -0.4620
 4093SOL    HW123741   0.998   3.661   1.260 -1.8122 -2.2207  0.2555
 4093SOL    HW223742   0.986   3.738   1.142  2.4146 -0.0653 -1.4227
 4094SOL     OW23743   3.366   4.699  12.110  0.3216 -0.1380  0.3115
 4094SOL    HW123744   3.368   4.672  12.018  1.4660 -0.6700  0.4902
 4094SOL    HW223745   3.456   4.694  12.142  0.1045  0.4751  1.0312
 4095SOL     OW23746   2.911   1.850   4.882  0.5865  0.1617  0.0308
 4095SOL    HW123747   2.899   1.776   4.822  1.5728  0.0395 -0.0148
 4095SOL    HW223748   2.975   1.802   4.935  0.5761  0.2444  0.1177
 4096SOL     OW23749   4.684   3.005   8.694 -0.6356 -0.3388 -0.1072
 4096SOL    HW123750   4.698   2.984   8.787  0.3137  1.9201  0.2576
 4096SOL    HW223751   0.008   3.089   8.690 -0.8710 -0.2507 -0.8964
 4097SOL     OW23752   4.616   1.589   7.486 -0.0106 -0.3812 -0.9186
 4097SOL    HW123753   4.590   1.581   7.394  1.0769 -1.7303 -1.1134
 4097SOL    HW223754   4.699   1.636   7.480 -0.1658 -0.0098 -0.0853
 4098SOL     OW23755   3.070   0.179  13.600  0.0151 -0.5894 -0.0795
 4098SOL    HW123756   2.989   0.230  13.595  0.8731  0.6851 -0.8679
 4098SOL    HW223757   3.044   0.098  13.554 -0.3474 -0.5290  0.0204
 4099SOL     OW23758   4.564   1.824   9.142  0.1019  0.3181  0.6233
 4099SOL    HW123759   4.654   1.856   9.144  0.2592 -0.0964  0.2184
 4099SOL    HW223760   4.574   1.747   9.198  1.4982  0.3019  0.3408
 4100SOL     OW23761   3.881   3.673   5.244 -0.3199  0.1016 -0.9377
 4100SOL    HW123762   3.932   3.753   5.252  0.5062 -0.6131  1.1656
 4100SOL    HW223763   3.916   3.629   5.322 -3.4584  1.0588  1.0156
 4101SOL     OW23764   2.330   0.447   9.243  0.1052  0.5158 -0.2327
 4101SOL    HW123765   2.368   0.499   9.314  0.1403  0.3627 -0.1411
 4101SOL    HW223766   2.352   0.358   9.267 -2.6188  0.1621  0.9557
 4102SOL     OW23767   0.956   1.088   1.111 -0.4732 -0.1709 -0.6056
 4102SOL    HW123768   0.976   0.997   1.131  0.0249  0.3617  1.2597
 4102SOL    HW223769   1.033   1.098   1.054  1.9530 -2.5773  2.2705
 4103SOL     OW23770   4.520   2.420   4.903  0.7156  0.4351 -0.3243
 4103SOL    HW123771   4.527   2.352   4.836  0.7090 -2.2225  2.3180
 4103SOL    HW223772   4.613   2.420   4.925  0.7601 -1.6517 -0.4518
 4104SOL     OW23773   3.616   2.369  12.971 -0.1520  0.2530  0.3988
 4104SOL    HW123774   3.621   2.413  13.056 -0.7792  2.0096 -0.4803
 4104SOL    HW223775   3.554   2.424  12.925  0.6253  0.5228 -0.3259
 4105SOL     OW23776   1.833   0.687   3.161 -0.2525  0.4505 -0.2239
 4105SOL    HW123777   1.787   0.698   3.077  0.5580  2.2404 -0.4438
 4105SOL    HW223778   1.887   0.764   3.180 -1.9367  1.3582  0.8513
 4106SOL     OW23779   3.385   2.656   2.629  0.4638  0.0716  0.3910
 4106SOL    HW123780   3.377   2.603   2.550  0.3312  1.3207 -0.4272
 4106SOL    HW223781   3.293   2.671   2.651  0.4559 -0.6879  0.8721
 4107SOL     OW23782   3.541   2.948   7.097  0.7136 -0.1944  0.3695
 4107SOL    HW123783   3.619   2.963   7.151  0.8238  0.9744 -0.1235
 4107SOL    HW223784   3.465   2.973   7.150  0.4114 -4.0672  1.7942
 4108SOL     OW23785   2.603   2.562   7.044 -0.1254 -0.1584  0.2146
 4108SOL    HW123786   2.692   2.571   7.080  0.4124  0.1668 -1.2072
 4108SOL    HW223787   2.580   2.472   7.067 -0.1248 -0.1778  0.1374
 4109SOL     OW23788   4.661   3.409   1.560  0.3033  0.1693  0.0751
 4109SOL    HW123789   4.600   3.356   1.510  0.5759 -1.6291  1.6362
 4109SOL    HW223790   0.015   3.431   1.505  1.2846 -4.6469 -0.4709
 4110SOL     OW23791   3.307   2.715   4.323 -0.6137  0.4232  0.2092
 4110SOL    HW123792   3.319   2.712   4.418 -0.5964 -1.9185  0.1480
 4110SOL    HW223793   3.386   2.761   4.295  0.6096 -0.7536  1.6877
 4111SOL     OW23794   3.933   3.681  15.089  0.1525 -0.0629  0.3995
 4111SOL    HW123795   3.837   3.691  15.087  0.1317 -0.4840 -0.9485
 4111SOL    HW223796   3.954   3.688  14.996  1.2136  0.7853  0.7151
 4112SOL     OW23797   2.610   2.398   9.098 -0.0566 -0.3448 -0.9519
 4112SOL    HW123798   2.658   2.364   9.022  0.0302  0.1349 -1.1059
 4112SOL    HW223799   2.538   2.437   9.050  0.5343  1.1838 -0.6085
 4113SOL     OW23800   2.601   2.536   8.152  0.1179 -0.2827  0.2282
 4113SOL    HW123801   2.510   2.522   8.126 -0.0885  2.6147 -0.6582
 4113SOL    HW223802   2.584   2.608   8.213  1.7991 -1.8374  2.5036
 4114SOL     OW23803   3.125   2.395   2.985 -0.1926 -0.1504  0.0420
 4114SOL    HW123804   3.203   2.350   3.015  0.1490 -0.5105 -1.3677
 4114SOL    HW223805   3.153   2.486   2.997 -1.0641  0.2256 -0.7615
 4115SOL     OW23806   4.442   4.678   8.751 -0.8634  0.6560 -0.0727
 4115SOL    HW123807   4.440   0.030   8.811 -2.0609  0.5189  0.0760
 4115SOL    HW223808   4.534   4.679   8.726 -1.3637  3.2015 -1.7219
 4116SOL     OW23809   2.059   4.707   8.315  0.5113 -0.4062 -0.2920
 4116SOL    HW123810   2.067   4.619   8.352 -1.0496 -0.9615 -1.2419
 4116SOL    HW223811   2.001   4.698   8.239  0.5272  2.2306 -0.6478
 4117SOL     OW23812   3.476   0.132  13.224 -0.5037  1.0351  0.7617
 4117SOL    HW123813   3.559   0.098  13.257 -0.8576  2.7552  3.4074
 4117SOL    HW223814   3.494   0.225  13.240 -0.8799  0.6622  3.2811
 4118SOL     OW23815   0.195   0.105   2.076 -0.6964  0.4418  0.5010
 4118SOL    HW123816   0.134   0.170   2.111 -1.3466  0.5567 -0.8678
 4118SOL    HW223817   0.144   0.037   2.032 -0.0041  0.0888  0.2462
 4119SOL     OW23818   4.158   1.190   7.766  0.1808 -0.1517 -0.0537
 4119SOL    HW123819   4.230   1.241   7.802  0.0207  0.5091 -0.6617
 4119SOL    HW223820   4.084   1.248   7.786 -2.1558 -2.8693 -0.7217
 4120SOL     OW23821   4.417   1.891   6.208  0.3338 -0.6405 -0.3528
 4120SOL    HW123822   4.470   1.833   6.263  2.2924  0.2841 -1.2675
 4120SOL    HW223823   4.472   1.969   6.214  3.7161 -3.1315  1.0014
 4121SOL     OW23824   3.986   1.860   4.235 -0.5035  0.0121 -0.8902
 4121SOL    HW123825   4.005   1.900   4.320  0.5976 -0.7226 -0.7930
 4121SOL    HW223826   3.990   1.937   4.178 -2.1358  0.9388  0.2360
 4122SOL     OW23827   3.562   3.108   5.876 -0.5653 -0.0005  0.0902
 4122SOL    HW123828   3.618   3.157   5.816 -1.4686  1.0866  0.1356
 4122SOL    HW223829   3.630   3.065   5.928 -1.6936 -0.2583  1.3559
 4123SOL     OW23830   3.791   4.597   8.763 -0.3071  0.1147 -0.1685
 4123SOL    HW123831   3.886   4.606   8.765 -0.2236 -0.9709  0.7410
 4123SOL    HW223832   3.757   4.620   8.850 -0.4833  0.3326 -0.2947
 4124SOL     OW23833   4.089   0.432   8.692  0.0682  0.1160  0.0233
 4124SOL    HW123834   4.081   0.525   8.715  2.6468 -0.0905  1.7342
 4124SOL    HW223835   4.178   0.422   8.659  0.8502  2.6265  1.4124
 4125SOL     OW23836   1.467   2.450   2.970 -0.0001 -0.6393  0.2516
 4125SOL    HW123837   1.420   2.484   3.045  0.7642  0.6411  0.1423
 4125SOL    HW223838   1.484   2.535   2.929  0.3436 -0.9576 -0.2699
 4126SOL     OW23839   0.103   1.611   3.974 -1.0663 -0.5308  0.7879
 4126SOL    HW123840   0.152   1.531   3.992  1.8015  1.1664  0.4312
 4126SOL    HW223841   0.036   1.577   3.915 -0.2477  0.9461 -0.9921
 4127SOL     OW23842   1.010   4.208  11.268  0.1484 -0.3242 -0.4129
 4127SOL    HW123843   1.083   4.172  11.317  0.7525  1.7687  0.2541
 4127SOL    HW223844   0.988   4.144  11.201 -0.0962 -0.3243 -0.3309
 4128SOL     OW23845   1.602   4.483   7.163 -0.0484  0.0391 -0.0379
 4128SOL    HW123846   1.657   4.453   7.235  0.7993  2.8991  0.4959
 4128SOL    HW223847   1.629   4.435   7.084 -1.4984 -1.2519  0.2709
 4129SOL     OW23848   1.479   1.949   7.419 -0.8955 -0.1307  0.1219
 4129SOL    HW123849   1.498   1.930   7.327  1.3076 -0.2389  0.6067
 4129SOL    HW223850   1.456   1.863   7.453  1.3313 -0.2387  1.3699
 4130SOL     OW23851   3.113   1.954   2.336  0.4933 -0.5411  0.1328
 4130SOL    HW123852   3.035   1.901   2.351 -0.2378  0.1904 -1.0685
 4130SOL    HW223853   3.099   2.021   2.403 -0.7125 -0.6441 -0.0130
 4131SOL     OW23854   2.970   0.739   9.204  0.4860  0.3284 -0.0610
 4131SOL    HW123855   2.897   0.703   9.254  0.3347 -1.2369 -1.4502
 4131SOL    HW223856   2.949   0.833   9.205  1.3123  0.4934  1.4864
 4132SOL     OW23857   0.171   2.208   5.986 -0.1719 -0.6058  0.0364
 4132SOL    HW123858   0.149   2.301   5.983  0.5897 -0.3950  0.9209
 4132SOL    HW223859   0.245   2.216   5.925  0.8531 -2.5111  1.0179
 4133SOL     OW23860   2.650   2.671   4.273  0.1744  0.2038 -0.3218
 4133SOL    HW123861   2.576   2.681   4.212 -3.5763 -0.1393  4.1648
 4133SOL    HW223862   2.704   2.595   4.252 -1.1069 -0.9396  0.4780
 4134SOL     OW23863   1.092   2.358   4.836  0.4773  0.0495 -0.2284
 4134SOL    HW123864   1.035   2.369   4.760  1.3824 -1.1033 -1.0827
 4134SOL    HW223865   1.029   2.350   4.907 -0.3705  3.1219 -0.6631
 4135SOL     OW23866   1.635   1.102   3.343 -0.5817  0.5126 -0.0474
 4135SOL    HW123867   1.613   1.036   3.408  2.9522  1.3172  1.9780
 4135SOL    HW223868   1.557   1.105   3.287 -0.8615  2.0128  0.4036
 4136SOL     OW23869   1.023   1.696   3.969 -0.0643  0.0141 -0.5766
 4136SOL    HW123870   0.974   1.699   4.051 -1.1298  1.4021 -1.2514
 4136SOL    HW223871   1.061   1.612   3.993  0.8664  0.2147 -1.3727
 4137SOL     OW23872   0.656   4.554   5.319 -0.1425 -0.2818  0.2372
 4137SOL    HW123873   0.705   4.498   5.379  0.4709 -0.1549 -0.1438
 4137SOL    HW223874   0.649   4.629   5.378  1.2840  0.3927 -0.4451
 4138SOL     OW23875   1.345   3.237   5.313  0.0319 -0.0217 -0.5143
 4138SOL    HW123876   1.433   3.273   5.296  0.2203  0.1847  0.8918
 4138SOL    HW223877   1.327   3.299   5.384  3.2714  2.4903 -1.8257
 4139SOL     OW23878   3.988   3.223   5.378 -0.4501  0.0758 -0.3510
 4139SOL    HW123879   4.069   3.255   5.417 -1.5876  0.1274  1.9756
 4139SOL    HW223880   3.929   3.296   5.396 -1.3670 -0.3970 -1.4856
 4140SOL     OW23881   2.000   3.933   0.908  0.3521  0.4024  0.2707
 4140SOL    HW123882   2.014   4.000   0.975  2.4678 -0.0551  0.2700
 4140SOL    HW223883   1.912   3.904   0.934  0.6393 -0.7129 -0.0084
 4141SOL     OW23884   2.216   0.639  12.039  0.1115 -0.0803 -0.1418
 4141SOL    HW123885   2.161   0.665  11.965 -2.2180  2.0083  2.3058
 4141SOL    HW223886   2.291   0.698  12.032  0.8688 -1.1039 -0.5143
 4142SOL     OW23887   4.314   4.034   0.661  0.1800 -0.2756  0.3804
 4142SOL    HW123888   4.393   3.988   0.689 -1.1219 -2.6028  0.1930
 4142SOL    HW223889   4.245   3.968   0.665 -0.8462  0.7043 -1.0144
 4143SOL     OW23890   2.325   0.101   2.015 -0.2969 -0.0491  0.8697
 4143SOL    HW123891   2.337   0.185   1.970  1.1970  0.2985  1.9183
 4143SOL    HW223892   2.393   0.088   2.081  2.0668  4.7162 -0.6664
 4144SOL     OW23893   1.541   3.947  15.405  0.5866  0.1898  1.0993
 4144SOL    HW123894   1.585   3.975  15.324 -1.4074 -1.0632 -0.4446
 4144SOL    HW223895   1.495   3.866  15.380 -0.6369  0.3645  2.8402
 4145SOL     OW23896   1.013   2.704   2.457 -0.9024  0.4153  0.0793
 4145SOL    HW123897   0.999   2.704   2.362 -2.4124  2.4670  0.3000
 4145SOL    HW223898   1.066   2.625   2.464 -1.7541 -0.1824 -0.0869
 4146SOL     OW23899   3.179   1.228   6.397  0.3935 -0.4658  0.5343
 4146SOL    HW123900   3.240   1.302   6.394  3.0681 -2.7644 -1.0449
 4146SOL    HW223901   3.097   1.272   6.418  0.0467 -0.4829 -0.7437
 4147SOL     OW23902   1.641   2.278   8.873 -0.4165 -1.0040  0.4967
 4147SOL    HW123903   1.599   2.232   8.946 -0.5788 -0.2449  0.8856
 4147SOL    HW223904   1.646   2.370   8.899 -0.2338 -0.9521  0.2788
 4148SOL     OW23905   4.059   2.767  17.390 -0.6232  0.3086 -0.0120
 4148SOL    HW123906   4.043   2.862  17.387  0.8198  0.6139  2.0016
 4148SOL    HW223907   4.146   2.768  17.430  0.0309  3.6130 -1.5081
 4149SOL     OW23908   1.086   2.219   3.928 -0.1035 -0.1121 -0.0624
 4149SOL    HW123909   1.042   2.293   3.887 -0.9902 -1.6932 -1.9329
 4149SOL    HW223910   1.119   2.254   4.011  0.6671 -0.1785 -0.3475
 4150SOL     OW23911   4.034   3.588  17.427  0.4303  0.1919  0.3094
 4150SOL    HW123912   4.010   3.495  17.420  1.1792  0.0624 -0.6118
 4150SOL    HW223913   3.989   3.629  17.354  1.4928 -1.0015 -1.0359
 4151SOL     OW23914   2.929   4.033   7.357 -0.4811 -0.4756 -0.0343
 4151SOL    HW123915   2.836   4.008   7.358 -0.7111  0.4138  1.0286
 4151SOL    HW223916   2.960   3.993   7.438  0.9970 -1.6641 -1.1989
 4152SOL     OW23917   0.737   3.958   2.756 -0.3791 -0.5226 -0.1735
 4152SOL    HW123918   0.831   3.966   2.743 -0.2768 -0.4124  0.6051
 4152SOL    HW223919   0.721   4.026   2.821  0.6090  0.1189 -0.5970
 4153SOL     OW23920   4.512   4.595   5.271 -0.5127 -0.2922 -0.2933
 4153SOL    HW123921   4.452   4.617   5.200  1.6024  3.1959 -0.9883
 4153SOL    HW223922   4.467   4.520   5.310 -1.3437 -0.5051 -1.6666
 4154SOL     OW23923   3.004   0.777   7.128  0.3404  0.5272  0.1818
 4154SOL    HW123924   3.074   0.712   7.124 -0.3481 -0.0826 -1.9843
 4154SOL    HW223925   3.054   0.856   7.104 -0.9570  1.1293 -0.5878
 4155SOL     OW23926   0.106   1.926   9.177  0.1203  0.2081 -0.6722
 4155SOL    HW123927   0.177   1.933   9.240 -0.1913  1.7894 -0.5057
 4155SOL    HW223928   0.110   2.010   9.133 -0.3043  0.5728 -0.0242
 4156SOL     OW23929   0.546   3.677   3.923  0.0948 -0.0807 -0.1023
 4156SOL    HW123930   0.481   3.614   3.892 -0.3510  1.7061 -2.8189
 4156SOL    HW223931   0.537   3.748   3.859  1.7004  0.1918 -0.0129
 4157SOL     OW23932   1.929   4.314   0.323 -0.3284  0.3576  0.0413
 4157SOL    HW123933   1.880   4.305   0.241 -0.0553 -0.6809 -0.0184
 4157SOL    HW223934   1.899   4.239   0.375 -0.8261  0.5366  0.0077
 4158SOL     OW23935   1.477   4.030   4.356 -0.0304 -0.4583 -0.4360
 4158SOL    HW123936   1.401   4.018   4.298  0.7175  1.7676 -1.8664
 4158SOL    HW223937   1.479   4.125   4.356  0.9015 -0.4776 -0.4814
 4159SOL     OW23938   0.259   3.744  14.749 -0.2808 -0.1549  0.3716
 4159SOL    HW123939   0.232   3.760  14.658  2.3823 -1.1653 -0.5851
 4159SOL    HW223940   0.241   3.830  14.787 -0.5987 -1.0142  2.1934
 4160SOL     OW23941   4.698   3.361  16.739  0.2498  0.1163  0.3522
 4160SOL    HW123942   0.037   3.352  16.666 -1.0989  2.2561 -1.0275
 4160SOL    HW223943   0.012   3.424  16.802 -0.2636  0.7348  0.0247
 4161SOL     OW23944   2.347   0.728   0.200 -0.2697  0.5565  0.3770
 4161SOL    HW123945   2.259   0.763   0.215 -0.4176  0.2163  0.3196
 4161SOL    HW223946   2.349   0.728   0.105 -0.0099 -2.2280  0.3838
 4162SOL     OW23947   3.818   3.042   7.458  0.0125 -0.3195 -0.1021
 4162SOL    HW123948   3.867   3.112   7.415 -0.1094 -2.0300 -3.0238
 4162SOL    HW223949   3.778   3.092   7.529 -0.1963  0.2450 -0.6112
 4163SOL     OW23950   1.923   1.245   9.278  0.3325 -0.2981 -0.0058
 4163SOL    HW123951   1.829   1.259   9.270  0.1541 -0.6804  1.3595
 4163SOL    HW223952   1.930   1.209   9.367  1.9536 -0.3286 -0.1365
 4164SOL     OW23953   2.018   0.841  12.950 -0.3112 -0.5780  0.0345
 4164SOL    HW123954   2.086   0.871  12.889  0.0018  1.1407  1.2077
 4164SOL    HW223955   1.945   0.832  12.889 -0.1912 -2.4230  0.1802
 4165SOL     OW23956   4.351   1.024   6.849 -0.2548 -0.3470  0.0452
 4165SOL    HW123957   4.312   1.061   6.928 -1.0735  0.1254 -0.5700
 4165SOL    HW223958   4.416   0.967   6.889  0.7646 -0.1591 -1.3659
 4166SOL     OW23959   0.287   3.380   3.028 -0.8861 -0.5279 -0.8945
 4166SOL    HW123960   0.354   3.406   3.091 -2.0762  0.9239 -0.2347
 4166SOL    HW223961   0.235   3.325   3.087 -3.1486  0.0896 -2.3109
 4167SOL     OW23962   3.657   1.913   4.485 -0.2325  0.0965  0.1895
 4167SOL    HW123963   3.571   1.876   4.466  0.6262 -2.5277  1.4370
 4167SOL    HW223964   3.632   2.005   4.496 -0.2237 -0.2215  2.9920
 4168SOL     OW23965   3.463   3.079  11.483 -0.3665  0.0967 -0.5590
 4168SOL    HW123966   3.433   3.154  11.431 -0.2631 -0.0678 -0.8537
 4168SOL    HW223967   3.517   3.041  11.414  0.8845  2.1956 -0.7317
 4169SOL     OW23968   0.048   0.890   9.441 -0.0724  0.6999 -0.2230
 4169SOL    HW123969   4.703   0.955   9.416 -0.9242  0.4395  1.3548
 4169SOL    HW223970   0.097   0.931   9.512 -1.2506  0.9268  0.4545
 4170SOL     OW23971   0.803   1.814   0.749  0.2665 -0.8994 -0.5121
 4170SOL    HW123972   0.816   1.743   0.686 -0.2190  1.4132 -3.1991
 4170SOL    HW223973   0.769   1.885   0.695 -1.3692 -1.6999 -0.5404
 4171SOL     OW23974   0.649   4.473   4.539  0.1051 -0.4136 -0.0360
 4171SOL    HW123975   0.555   4.492   4.546 -0.1356 -1.3100 -0.8850
 4171SOL    HW223976   0.661   4.473   4.444 -1.1243 -0.1468 -0.1907
 4172SOL     OW23977   4.091   0.200  10.605  0.2852  0.7693  0.4860
 4172SOL    HW123978   4.060   0.144  10.677 -1.8610  2.2286  0.7310
 4172SOL    HW223979   4.094   0.282  10.655 -4.1579  0.8658  0.6250
 4173SOL     OW23980   4.546   1.453  13.388 -0.0065  0.0296  0.1225
 4173SOL    HW123981   4.579   1.374  13.432 -2.0820 -1.2682 -0.6708
 4173SOL    HW223982   4.475   1.472  13.449  0.0452 -0.6516  0.3881
 4174SOL     OW23983   1.054   2.742   9.292 -0.0565  0.5812  0.9164
 4174SOL    HW123984   1.064   2.798   9.216 -2.8093  0.8635  0.7660
 4174SOL    HW223985   1.134   2.765   9.338  0.0366  1.1264  0.4687
 4175SOL     OW23986   4.634   1.417  14.496 -0.2986  0.3762 -0.2365
 4175SOL    HW123987   4.634   1.344  14.558  1.3707  1.0491  0.5482
 4175SOL    HW223988   4.562   1.385  14.441 -1.1317  1.4905  0.1964
 4176SOL     OW23989   1.215   1.210   5.819  0.1416 -0.1390 -0.3603
 4176SOL    HW123990   1.188   1.224   5.728 -2.2128 -2.3705 -0.0252
 4176SOL    HW223991   1.283   1.143   5.818 -1.2012 -1.4616 -3.7619
 4177SOL     OW23992   0.088   1.716   7.900  0.3364  0.4795 -0.3013
 4177SOL    HW123993   0.067   1.803   7.935  1.3478 -0.0012  1.5202
 4177SOL    HW223994   0.146   1.677   7.965 -0.7954 -1.2648 -0.3426
 4178SOL     OW23995   2.748   1.518   0.344  0.1912  0.4594  0.2967
 4178SOL    HW123996   2.678   1.483   0.399  0.8892  1.2669  1.6942
 4178SOL    HW223997   2.803   1.440   0.340  0.2947  0.5649 -0.3179
 4179SOL     OW23998   3.469   3.793   0.288  0.2407  0.2750 -0.6876
 4179SOL    HW123999   3.511   3.844   0.356  2.0371  0.2668 -1.8053
 4179SOL    HW224000   3.542   3.782   0.227  0.5548 -0.0122 -0.2555
 4180SOL     OW24001   1.231   4.252  14.571  0.1672  0.0693  0.4996
 4180SOL    HW124002   1.281   4.332  14.558 -0.2399 -0.1477 -2.2753
 4180SOL    HW224003   1.241   4.206  14.488  4.6558 -1.1770  1.7372
 4181SOL     OW24004   4.141   1.960   3.503  0.2358 -0.1000  0.3968
 4181SOL    HW124005   4.161   2.028   3.568  0.4564 -0.0656  0.2929
 4181SOL    HW224006   4.081   2.011   3.448 -0.4432 -2.7935 -1.3622
 4182SOL     OW24007   3.032   1.555   8.114 -0.2030  0.2320  0.2680
 4182SOL    HW124008   3.037   1.650   8.110  0.0295  0.2357  0.5644
 4182SOL    HW224009   3.010   1.535   8.023 -1.3692  1.3066  0.3178
 4183SOL     OW24010   4.051   3.043   2.976 -0.1853  0.5162  0.0378
 4183SOL    HW124011   4.042   2.969   3.036  0.6828  0.0940 -0.3616
 4183SOL    HW224012   4.144   3.062   2.981  0.1624 -0.7805 -1.5655
 4184SOL     OW24013   0.125   3.344   4.070  0.2338 -0.3422  0.1786
 4184SOL    HW124014   0.143   3.436   4.053  0.6598 -0.8062 -1.7869
 4184SOL    HW224015   0.192   3.337   4.137 -2.0441 -0.9288  2.4134
 4185SOL     OW24016   0.162   3.615  14.106 -0.5964 -0.8569 -0.1477
 4185SOL    HW124017   0.160   3.572  14.191 -1.9502 -2.0055 -0.7512
 4185SOL    HW224018   0.230   3.567  14.059  0.1706  1.3100 -1.2189
 4186SOL     OW24019   1.640   3.576  12.473  0.5457 -0.0442 -0.2786
 4186SOL    HW124020   1.610   3.637  12.540  1.8297  0.7531 -0.4154
 4186SOL    HW224021   1.674   3.635  12.405 -2.0895  1.7003 -0.0720
 4187SOL     OW24022   4.554   3.671   4.190 -0.3034 -0.7941  0.6913
 4187SOL    HW124023   4.561   3.575   4.187  0.3445 -0.7535  0.9245
 4187SOL    HW224024   4.622   3.702   4.130 -0.4701  0.1052  0.9794
 4188SOL     OW24025   1.096   3.285   1.970  0.9271  0.1110 -0.1871
 4188SOL    HW124026   1.189   3.265   1.980  0.8977  0.3093  0.4548
 4188SOL    HW224027   1.057   3.205   1.935  0.2846 -0.8788  2.8631
 4189SOL     OW24028   2.134   4.361   5.814  0.1913 -0.2716  0.0696
 4189SOL    HW124029   2.162   4.447   5.845 -0.3502 -0.5745  1.3810
 4189SOL    HW224030   2.149   4.367   5.720 -0.4609  1.1787  0.0615
 4190SOL     OW24031   2.906   0.146   1.418 -0.1598 -0.9147 -0.3403
 4190SOL    HW124032   2.913   0.071   1.359  3.8973 -1.0864  0.3637
 4190SOL    HW224033   2.961   0.211   1.373 -0.5095 -1.8945 -2.1912
 4191SOL     OW24034   0.463   3.964   5.401  0.4767  0.1396 -0.0550
 4191SOL    HW124035   0.527   4.033   5.419  0.4569 -0.5916  2.7823
 4191SOL    HW224036   0.400   4.003   5.340  2.3116  1.4536 -1.1454
 4192SOL     OW24037   1.151   4.530   1.337 -0.3941 -0.0800  0.6681
 4192SOL    HW124038   1.148   4.620   1.304  0.2272 -0.6102 -0.8168
 4192SOL    HW224039   1.065   4.496   1.314 -0.9082  1.4276  0.3224
 4193SOL     OW24040   1.141   0.960   3.850  0.7068 -0.4585  0.0590
 4193SOL    HW124041   1.193   0.903   3.794 -1.7119 -3.1528  0.5181
 4193SOL    HW224042   1.171   1.050   3.840  1.6138 -0.9626 -1.6742
 4194SOL     OW24043   4.367   1.795   1.873  0.5552  0.0437  0.1829
 4194SOL    HW124044   4.388   1.749   1.954  0.5596  1.1874  0.8217
 4194SOL    HW224045   4.451   1.789   1.828 -1.2915 -0.1720 -3.2548
 4195SOL     OW24046   3.213   1.111  14.148  0.0292  0.5722 -0.2656
 4195SOL    HW124047   3.193   1.205  14.151 -0.0348  0.6738 -4.3826
 4195SOL    HW224048   3.271   1.105  14.224  0.7713 -1.1645 -0.9923
 4196SOL     OW24049   0.917   3.423   2.835 -0.4775 -0.0773  0.2614
 4196SOL    HW124050   0.976   3.387   2.901  2.1938  2.4603 -0.7241
 4196SOL    HW224051   0.973   3.475   2.777 -0.6561 -0.9635 -0.7093
 4197SOL     OW24052   2.147   4.536  14.302 -0.3135  0.4962  0.0262
 4197SOL    HW124053   2.136   4.443  14.320  1.9247 -0.0104 -1.1896
 4197SOL    HW224054   2.241   4.543  14.317 -0.0791 -1.0220 -0.6842
 4198SOL     OW24055   3.830   0.725   3.172  0.5402 -0.2311 -0.5780
 4198SOL    HW124056   3.879   0.650   3.206 -0.7013 -0.1587  1.3248
 4198SOL    HW224057   3.811   0.691   3.085  1.3848 -1.6577 -0.2041
 4199SOL     OW24058   2.506   3.150   4.855 -0.0929  0.1245 -0.1500
 4199SOL    HW124059   2.454   3.073   4.877  1.8182 -1.3083 -0.6805
 4199SOL    HW224060   2.593   3.113   4.870 -0.8990 -1.4208  0.7068
 4200SOL     OW24061   0.806   4.001  12.246  0.0384 -0.0641 -0.1449
 4200SOL    HW124062   0.846   4.087  12.232  1.2847 -0.6752 -0.3830
 4200SOL    HW224063   0.789   4.010  12.340  0.4339  0.9833 -0.1715
 4201SOL     OW24064   2.794   3.702   5.361 -0.0350 -0.0551  0.2042
 4201SOL    HW124065   2.700   3.697   5.341 -0.2197  0.1867  1.0286
 4201SOL    HW224066   2.834   3.634   5.306  0.9568 -0.9204  2.0109
 4202SOL     OW24067   4.282   1.544  13.907 -0.4213 -0.0781 -0.3076
 4202SOL    HW124068   4.367   1.560  13.949 -0.5107  0.8901 -0.4803
 4202SOL    HW224069   4.230   1.553  13.986 -0.4208  0.7498 -0.3953
 4203SOL     OW24070   1.916   2.351  12.587  0.5269  0.3980 -0.7368
 4203SOL    HW124071   2.003   2.380  12.616  0.6749 -1.5396  0.7882
 4203SOL    HW224072   1.862   2.420  12.625  0.2185  1.0984 -2.4911
 4204SOL     OW24073   2.157   2.188  13.748  0.3390 -0.5555  0.2380
 4204SOL    HW124074   2.162   2.154  13.658  1.0847 -1.1026  0.4950
 4204SOL    HW224075   2.077   2.242  13.745  0.3977 -0.4643  0.3111
 4205SOL     OW24076   0.647   2.690   8.803 -0.0552  0.3725 -0.2077
 4205SOL    HW124077   0.705   2.709   8.729 -1.3281 -0.2646 -1.3646
 4205SOL    HW224078   0.709   2.704   8.875 -1.5701  0.7111  1.0156
 4206SOL     OW24079   1.500   1.258  12.405  0.1982 -0.5165 -0.1359
 4206SOL    HW124080   1.463   1.186  12.355 -0.2145  0.9970 -1.9973
 4206SOL    HW224081   1.582   1.274  12.358  0.6933  1.5271  1.3883
 4207SOL     OW24082   1.297   3.340   0.926  0.0733  0.1595  0.4603
 4207SOL    HW124083   1.254   3.264   0.888  0.2212  0.7925 -0.9662
 4207SOL    HW224084   1.233   3.364   0.994 -1.0657  0.6829 -0.7971
 4208SOL     OW24085   3.319   4.450   6.911 -0.1172 -0.1967  0.3574
 4208SOL    HW124086   3.375   4.463   6.987  2.5147 -0.7967 -1.4899
 4208SOL    HW224087   3.267   4.530   6.922  2.4564  1.4133  0.9575
 4209SOL     OW24088   4.271   3.281   8.277  0.4357 -0.5790  0.0138
 4209SOL    HW124089   4.290   3.193   8.243  2.0046  0.3198 -1.4592
 4209SOL    HW224090   4.182   3.280   8.312  0.0290  0.8706 -0.9752
 4210SOL     OW24091   2.066   0.086   6.455 -0.0915 -0.1851 -0.5917
 4210SOL    HW124092   2.156   0.084   6.421 -0.4710 -2.2798 -1.4418
 4210SOL    HW224093   2.013   0.028   6.401  1.2698 -0.9496 -1.1167
 4211SOL     OW24094   4.187   0.987   5.351 -0.2330  0.1582 -0.5514
 4211SOL    HW124095   4.178   0.927   5.426 -1.0639  0.8866 -0.0683
 4211SOL    HW224096   4.156   0.932   5.279 -0.6145 -0.5095  0.1235
 4212SOL     OW24097   2.569   0.199   3.993 -0.2675 -0.2044  0.1510
 4212SOL    HW124098   2.538   0.258   4.062 -0.1626  0.3842 -0.3137
 4212SOL    HW224099   2.635   0.148   4.042  0.3726  1.1760  0.7292
 4213SOL     OW24100   3.462   3.833   0.895 -0.1570 -0.2514 -0.6112
 4213SOL    HW124101   3.503   3.747   0.908 -0.4614 -0.0871  1.4741
 4213SOL    HW224102   3.387   3.803   0.844 -0.3198 -0.8702 -0.0113
 4214SOL     OW24103   3.089   1.224   9.093 -0.0485 -0.6359 -0.2428
 4214SOL    HW124104   3.158   1.258   9.036 -1.1726 -0.8048 -1.7062
 4214SOL    HW224105   3.114   1.248   9.182  2.2366  0.6046 -1.2374
 4215SOL     OW24106   3.833   3.116   3.761  0.7289  0.4856 -0.1635
 4215SOL    HW124107   3.877   3.190   3.804  0.4863  0.7235 -0.3277
 4215SOL    HW224108   3.812   3.059   3.836 -0.3481  2.1122  0.7831
 4216SOL     OW24109   3.732   2.623   2.447  0.1413 -0.2149  0.2957
 4216SOL    HW124110   3.814   2.617   2.399 -1.8777 -1.4020 -3.0163
 4216SOL    HW224111   3.765   2.616   2.536  0.2515  0.8933  0.3387
 4217SOL     OW24112   0.341   2.134   4.339  0.3956 -0.4045 -0.4345
 4217SOL    HW124113   0.270   2.198   4.333 -1.2758 -2.2583 -0.3884
 4217SOL    HW224114   0.357   2.131   4.245 -0.0488  2.1076 -0.5856
 4218SOL     OW24115   2.010   4.384   3.719  0.5725 -0.1709  0.1114
 4218SOL    HW124116   1.960   4.406   3.798 -0.2035 -1.1895 -0.0997
 4218SOL    HW224117   2.029   4.292   3.738 -1.1228 -0.7041 -0.8319
 4219SOL     OW24118   1.332   2.204   7.246 -0.1212  0.3318  0.1540
 4219SOL    HW124119   1.298   2.116   7.261 -0.9972  0.3968 -1.4162
 4219SOL    HW224120   1.404   2.211   7.308 -2.7152  3.6146  2.8376
 4220SOL     OW24121   4.610   2.726   8.734 -0.2142  0.1830 -0.1602
 4220SOL    HW124122   4.655   2.671   8.670  0.2119 -0.3687  0.6017
 4220SOL    HW224123   4.656   2.809   8.741 -0.3263  0.5462 -3.7475
 4221SOL     OW24124   0.467   1.871   6.764 -0.3410  0.0309 -0.5101
 4221SOL    HW124125   0.425   1.798   6.810  0.1531 -0.2918 -0.5761
 4221SOL    HW224126   0.491   1.831   6.680  1.8817  1.7183 -0.6788
 4222SOL     OW24127   2.803   4.515   5.364 -0.1155  0.1613  0.2095
 4222SOL    HW124128   2.838   4.472   5.286 -1.1616 -0.0030 -0.1666
 4222SOL    HW224129   2.713   4.485   5.355 -0.2363 -0.0359  2.1423
 4223SOL     OW24130   2.161   0.058   8.916  0.4103  0.0957  0.1368
 4223SOL    HW124131   2.143   0.018   8.831  1.4713  0.0219 -0.0554
 4223SOL    HW224132   2.137   0.149   8.899  3.1107  0.7023 -0.4194
 4224SOL     OW24133   0.244   2.256  15.615 -0.5455 -0.1550 -0.6821
 4224SOL    HW124134   0.276   2.331  15.564  1.0537 -0.9315 -0.8112
 4224SOL    HW224135   0.153   2.281  15.600 -0.6537  0.7650  1.4851
 4225SOL     OW24136   4.087   0.660   3.347  0.5320  0.1511  0.1271
 4225SOL    HW124137   4.105   0.736   3.402  2.7230  1.8316 -2.8489
 4225SOL    HW224138   4.108   0.684   3.257 -2.5963 -0.2630 -0.7026
 4226SOL     OW24139   0.548   3.779  11.643 -0.6367  0.3154 -0.0690
 4226SOL    HW124140   0.550   3.810  11.553  1.2468 -0.8119 -0.4096
 4226SOL    HW224141   0.526   3.686  11.630 -1.5693  0.5575 -0.2343
 4227SOL     OW24142   0.976   2.693  11.926  0.0858  0.1907 -0.1385
 4227SOL    HW124143   1.010   2.676  11.838 -0.3071 -1.8546  0.1145
 4227SOL    HW224144   1.042   2.742  11.974  0.8337 -0.1523 -0.8204
 4228SOL     OW24145   2.336   2.063   3.641  0.1188 -0.2241 -0.1490
 4228SOL    HW124146   2.373   2.151   3.650 -1.7655  0.6573 -1.0307
 4228SOL    HW224147   2.416   2.010   3.647  0.3012  0.0671 -0.0200
 4229SOL     OW24148   3.303   2.065   8.718  0.2119 -0.3594  0.2236
 4229SOL    HW124149   3.254   1.987   8.744  1.1251 -1.0177 -0.0374
 4229SOL    HW224150   3.323   2.041   8.627 -1.2522  0.9396 -0.4538
 4230SOL     OW24151   0.541   2.277   8.247 -0.0954  0.2427  0.3273
 4230SOL    HW124152   0.473   2.228   8.293 -0.3178 -1.9897 -2.3602
 4230SOL    HW224153   0.606   2.208   8.235 -1.8528 -1.1756 -1.0328
 4231SOL     OW24154   4.181   2.753   5.234 -0.0838 -0.1872 -0.0868
 4231SOL    HW124155   4.154   2.662   5.242 -0.6974 -0.1876 -2.0011
 4231SOL    HW224156   4.098   2.793   5.207 -1.5828 -1.5061  2.6159
 4232SOL     OW24157   1.869   0.835   2.047 -0.1998  0.2373  0.3554
 4232SOL    HW124158   1.800   0.885   2.091 -2.0271  1.2127 -3.5768
 4232SOL    HW224159   1.857   0.743   2.070  0.3056 -0.3875 -1.8565
 4233SOL     OW24160   0.191   3.938   4.627  0.7056  0.6705  0.6209
 4233SOL    HW124161   0.270   3.944   4.573  1.0503 -0.7437  0.9623
 4233SOL    HW224162   0.133   3.994   4.576  1.6835  1.0750 -0.0348
 4234SOL     OW24163   0.089   0.015  16.906  0.0414 -0.3407  0.4444
 4234SOL    HW124164   0.058   4.651  16.880  0.9790  0.4011 -3.1311
 4234SOL    HW224165   0.008   0.057  16.933 -1.0144 -1.7279 -0.6189
 4235SOL     OW24166   0.451   2.192   7.548  0.8042  0.2318 -0.1966
 4235SOL    HW124167   0.478   2.099   7.549 -0.2101 -0.0327  1.2129
 4235SOL    HW224168   0.435   2.223   7.637 -0.5227  0.1675 -0.4141
 4236SOL     OW24169   3.985   3.317   8.337 -0.0270  0.6432 -0.0178
 4236SOL    HW124170   3.930   3.325   8.415  0.8840 -0.6606  0.7499
 4236SOL    HW224171   3.928   3.358   8.271  0.1814 -1.5654 -1.5825
 4237SOL     OW24172   3.181   0.622  15.728 -0.2266 -0.0449  0.0989
 4237SOL    HW124173   3.110   0.598  15.669 -1.1423  0.2029  1.0962
 4237SOL    HW224174   3.226   0.538  15.732  1.2217  0.7753  1.3387
 4238SOL     OW24175   2.748   2.942   4.223  0.2043 -0.0220 -0.3796
 4238SOL    HW124176   2.704   2.857   4.218 -1.2712  0.8087 -1.4504
 4238SOL    HW224177   2.797   2.926   4.305 -0.2596 -2.9299 -0.6618
 4239SOL     OW24178   2.271   1.995   7.146  0.6204  0.0264 -0.0899
 4239SOL    HW124179   2.301   2.065   7.089  1.8813  0.7651  1.4874
 4239SOL    HW224180   2.338   1.926   7.139 -0.8282 -1.3096 -0.8316
 4240SOL     OW24181   4.335   2.667  14.745 -0.3528  0.1626  0.8487
 4240SOL    HW124182   4.430   2.661  14.739 -0.3378  1.6252 -0.3505
 4240SOL    HW224183   4.321   2.584  14.791 -3.7958  0.5953  0.5764
 4241SOL     OW24184   0.947   0.538   0.956 -0.9865  0.5435 -0.4142
 4241SOL    HW124185   0.879   0.584   0.907 -1.7195  2.1309  2.0567
 4241SOL    HW224186   0.904   0.479   1.017  0.7073 -1.5011 -1.2067
 4242SOL     OW24187   3.917   1.879   0.886 -0.3414  0.0167  0.3465
 4242SOL    HW124188   3.942   1.858   0.976 -0.4301 -2.4878 -0.2272
 4242SOL    HW224189   3.853   1.808   0.874 -1.0215  0.5551  0.7840
 4243SOL     OW24190   2.588   2.267   4.997 -0.1118  0.1338 -0.5298
 4243SOL    HW124191   2.497   2.254   5.025 -0.5466 -1.9421 -2.8450
 4243SOL    HW224192   2.636   2.200   5.046  2.4192  0.1253 -3.0518
 4244SOL     OW24193   2.155   3.974   6.060  0.5461  0.2683 -0.1546
 4244SOL    HW124194   2.062   3.971   6.079  0.5530 -1.4259 -0.3844
 4244SOL    HW224195   2.181   4.040   6.125 -1.0271 -0.5641  1.3007
 4245SOL     OW24196   3.951   0.931  14.147 -0.1260  0.0039  0.6723
 4245SOL    HW124197   3.997   0.856  14.183 -0.1071 -0.4323 -0.2583
 4245SOL    HW224198   3.983   0.908  14.060 -2.9380 -2.2890  0.2538
 4246SOL     OW24199   1.791   1.761  12.765 -0.0559  0.0722 -0.7571
 4246SOL    HW124200   1.821   1.719  12.845 -0.2513 -1.7936 -1.6653
 4246SOL    HW224201   1.711   1.801  12.800  1.0824  1.4112  0.3258
 4247SOL     OW24202   4.625   3.029  11.174  0.3019  0.0185  0.2275
 4247SOL    HW124203   4.533   3.054  11.166  0.1243 -1.0774 -1.1526
 4247SOL    HW224204   4.658   3.106  11.219 -1.8832  1.5475 -0.7943
 4248SOL     OW24205   0.344   0.414  16.400 -0.1619 -0.3430  0.0723
 4248SOL    HW124206   0.303   0.471  16.465  0.2674 -1.5107  1.3837
 4248SOL    HW224207   0.276   0.414  16.333 -1.2742 -1.1407  1.2061
 4249SOL     OW24208   2.136   2.704  13.957 -0.2489 -0.3857  0.0200
 4249SOL    HW124209   2.116   2.763  14.030  0.9279 -0.3643  0.3293
 4249SOL    HW224210   2.120   2.623  14.004 -0.6379 -1.1411 -1.4269
 4250SOL     OW24211   0.648   4.623   4.087  0.3770  0.4995 -0.1304
 4250SOL    HW124212   0.698   4.554   4.131  3.0561  1.8773 -0.9848
 4250SOL    HW224213   0.637   4.689   4.155  2.7964  0.8523 -0.0742
 4251SOL     OW24214   0.902   4.231   4.839  0.1506  0.0261 -0.2458
 4251SOL    HW124215   0.850   4.311   4.848  0.3528 -0.0521  1.6539
 4251SOL    HW224216   0.886   4.208   4.748  0.8893  2.7161 -1.0498
 4252SOL     OW24217   1.467   0.761   3.985  1.1282  0.3916 -0.5230
 4252SOL    HW124218   1.390   0.705   3.995  0.4905  1.1584 -1.1118
 4252SOL    HW224219   1.532   0.698   3.953  0.3798 -1.4948  1.6797
 4253SOL     OW24220   2.544   3.251   7.509  0.5071 -0.5114 -0.1893
 4253SOL    HW124221   2.452   3.226   7.515  0.1222  1.3579  1.5466
 4253SOL    HW224222   2.545   3.337   7.550  1.5220 -1.4508  1.7161
 4254SOL     OW24223   1.248   1.988   5.158  0.0057  0.2483  0.1564
 4254SOL    HW124224   1.177   1.952   5.212  0.5870 -1.6971 -0.3479
 4254SOL    HW224225   1.240   2.082   5.172  1.0304  0.4918 -0.9568
 4255SOL     OW24226   0.020   2.487   9.014 -0.2752 -0.3431  0.0491
 4255SOL    HW124227   0.001   2.439   9.095 -1.3652 -0.1713 -0.1025
 4255SOL    HW224228   4.655   2.524   8.999  0.1704  0.5620 -0.2889
 4256SOL     OW24229   1.438   4.094   4.821 -0.0811 -0.1099 -0.6276
 4256SOL    HW124230   1.378   4.133   4.757  0.4416  3.4675  1.0885
 4256SOL    HW224231   1.470   4.171   4.869 -0.1740 -0.1446 -0.5103
 4257SOL     OW24232   0.670   2.586   3.687  0.1922 -0.4702 -0.2919
 4257SOL    HW124233   0.750   2.635   3.668  1.7576 -2.1328  2.1271
 4257SOL    HW224234   0.624   2.656   3.733  0.0253 -0.6892 -0.1243
 4258SOL     OW24235   1.291   0.945   9.189 -0.0646  0.1180  0.2035
 4258SOL    HW124236   1.216   1.002   9.172  1.5620  2.3814  0.5787
 4258SOL    HW224237   1.347   0.971   9.116 -0.9564  0.6013 -0.3137
 4259SOL     OW24238   3.047   1.104   5.578 -0.0705 -0.7278  0.4490
 4259SOL    HW124239   3.027   1.049   5.502 -1.1796  1.2673 -0.7212
 4259SOL    HW224240   3.129   1.073   5.616 -0.3387  0.6535  2.1881
 4260SOL     OW24241   3.647   1.367   0.374 -0.3157  0.1104  0.3293
 4260SOL    HW124242   3.615   1.425   0.444 -0.0475 -0.4658  0.9284
 4260SOL    HW224243   3.672   1.428   0.305 -1.9854  0.8580  0.3821
 4261SOL     OW24244   1.796   3.330   3.579  0.0156  0.8538  0.0608
 4261SOL    HW124245   1.736   3.399   3.608  0.7376  1.0344  1.1238
 4261SOL    HW224246   1.742   3.283   3.515 -0.7300 -0.7704  1.8664
 4262SOL     OW24247   1.301   3.489  15.398 -0.1796  0.4285  0.4251
 4262SOL    HW124248   1.377   3.547  15.393  1.1325 -1.1446  1.9551
 4262SOL    HW224249   1.257   3.530  15.324 -0.6977  1.7871  1.4783
 4263SOL     OW24250   0.018   2.322  17.105  0.3115  0.3209 -1.6485
 4263SOL    HW124251   4.678   2.391  17.082 -1.5750 -0.0479  2.3236
 4263SOL    HW224252   0.050   2.297  17.019  0.4095  1.2141 -1.8666
 4264SOL     OW24253   1.952   2.079   3.576  0.0405  0.5811  0.0239
 4264SOL    HW124254   1.912   2.040   3.654  0.3764  2.9960  1.4055
 4264SOL    HW224255   1.875   2.119   3.535  0.3917 -1.7290 -2.8546
 4265SOL     OW24256   3.356   3.528  14.340  0.0498 -0.0939  0.0086
 4265SOL    HW124257   3.339   3.510  14.248  1.4862  0.4408 -0.3659
 4265SOL    HW224258   3.300   3.466  14.386  0.6328  0.0306  0.8926
 4266SOL     OW24259   1.583   1.877   4.489 -0.2062 -0.0918  0.0229
 4266SOL    HW124260   1.494   1.878   4.523 -0.0435  0.6087  0.4532
 4266SOL    HW224261   1.579   1.816   4.416 -2.8524  0.4733 -0.2901
 4267SOL     OW24262   2.214   1.377  16.448  1.3144 -0.6237  0.2157
 4267SOL    HW124263   2.285   1.431  16.413  0.9445 -1.0586 -1.2294
 4267SOL    HW224264   2.253   1.292  16.470  0.9578 -0.5995  0.9326
 4268SOL     OW24265   1.768   0.257   8.881  0.6267 -0.0152  0.2162
 4268SOL    HW124266   1.756   0.309   8.961  1.1849 -0.1960  0.4141
 4268SOL    HW224267   1.748   0.174   8.923 -0.8003 -0.3737 -1.1638
 4269SOL     OW24268   2.752   3.329   2.846 -0.5602 -0.1963  0.5832
 4269SOL    HW124269   2.761   3.407   2.901 -0.2268  0.2048 -0.0343
 4269SOL    HW224270   2.680   3.286   2.891 -0.2417  1.1975  2.4102
 4270SOL     OW24271   1.218   1.298   5.387 -0.3019 -0.4567  0.3957
 4270SOL    HW124272   1.310   1.282   5.405  0.0836 -0.9254 -1.9218
 4270SOL    HW224273   1.204   1.378   5.438  1.6126  1.2955 -1.7741
 4271SOL     OW24274   1.340   4.151   1.335 -0.2302  0.4114 -0.8623
 4271SOL    HW124275   1.279   4.145   1.261  1.0188 -1.8485 -1.7205
 4271SOL    HW224276   1.276   4.170   1.404  2.2197  0.9203  1.2243
 4272SOL     OW24277   2.014   1.941  13.096 -0.2811  0.7830 -0.1403
 4272SOL    HW124278   2.040   1.852  13.120 -0.1615  0.5391 -1.1482
 4272SOL    HW224279   1.932   1.955  13.143 -0.8524 -1.0545 -0.5919
 4273SOL     OW24280   2.369   1.904   4.819 -0.1228  0.1648 -0.0458
 4273SOL    HW124281   2.293   1.957   4.795  1.6137  1.6976 -2.1951
 4273SOL    HW224282   2.369   1.934   4.910 -0.5606 -0.9962  0.3345
 4274SOL     OW24283   0.207   0.642  11.300  0.0611 -0.2516  0.5160
 4274SOL    HW124284   0.249   0.719  11.263 -0.0694  0.5694  2.0858
 4274SOL    HW224285   0.280   0.597  11.343  0.8552 -0.2510 -0.8317
 4275SOL     OW24286   2.645   4.674   1.895  0.5108 -0.0900 -0.0190
 4275SOL    HW124287   2.569   4.676   1.836  0.5223 -2.2388 -0.1213
 4275SOL    HW224288   2.600   4.641   1.973  0.2161  2.7831  0.9988
 4276SOL     OW24289   1.701   1.481   2.728  0.5133  0.4666 -0.1615
 4276SOL    HW124290   1.643   1.421   2.775  0.6528  2.3474  2.3984
 4276SOL    HW224291   1.777   1.474   2.785  1.2103  2.5913 -0.8139
 4277SOL     OW24292   1.835   1.683   8.212  0.3719 -0.1558 -0.2018
 4277SOL    HW124293   1.835   1.590   8.232 -3.5002  0.1699  1.1675
 4277SOL    HW224294   1.792   1.686   8.126  0.1956  0.3544 -0.1007
 4278SOL     OW24295   2.664   1.679   8.034  0.7028  0.2842  0.1313
 4278SOL    HW124296   2.623   1.737   7.970 -0.7990 -0.1405  0.7081
 4278SOL    HW224297   2.749   1.718   8.051  0.2703  0.2129  2.3769
 4279SOL     OW24298   1.279   4.705   8.624  0.2940  0.4500 -0.2488
 4279SOL    HW124299   1.212   4.647   8.588  0.0238  0.4780  0.2118
 4279SOL    HW224300   1.348   4.641   8.643  0.8120  0.9390 -0.5119
 4280SOL     OW24301   2.259   3.055  15.701  0.3155 -0.0623  0.4032
 4280SOL    HW124302   2.169   3.026  15.685  0.5479 -1.1243  1.0502
 4280SOL    HW224303   2.250   3.082  15.792  0.3154 -2.8576  1.2155
 4281SOL     OW24304   0.075   2.178  17.581 -0.2523 -0.5305  0.5093
 4281SOL    HW124305   0.031   2.100  17.547 -1.1403 -0.1621  0.7874
 4281SOL    HW224306   0.052   2.169  17.673  0.8927 -1.3391  0.7100
 4282SOL     OW24307   0.977   4.511   5.808 -0.1104  0.4230 -0.1478
 4282SOL    HW124308   0.985   4.495   5.714  1.5171  1.0722 -0.1177
 4282SOL    HW224309   1.064   4.531   5.843  1.1876 -0.2418 -3.0234
 4283SOL     OW24310   2.035   1.410  12.335  0.5557  0.6527 -0.2864
 4283SOL    HW124311   1.959   1.373  12.290  0.7889 -2.4746  1.8511
 4283SOL    HW224312   2.100   1.344  12.311 -0.2249  0.4333 -1.7826
 4284SOL     OW24313   1.153   1.598   8.161 -0.0130  0.4432 -0.4588
 4284SOL    HW124314   1.083   1.611   8.225  0.2613 -0.4245  0.0127
 4284SOL    HW224315   1.225   1.597   8.223  0.4898  1.5439 -1.0249
 4285SOL     OW24316   2.975   4.481   9.312 -0.9023  0.1283  0.8094
 4285SOL    HW124317   2.990   4.392   9.279  0.0619 -0.2664  2.3495
 4285SOL    HW224318   3.027   4.472   9.392  0.2725 -1.3211 -0.1173
 4286SOL     OW24319   3.020   1.523   1.865 -0.4420 -0.3351 -0.6549
 4286SOL    HW124320   3.047   1.462   1.934 -0.4541  0.1605 -0.2074
 4286SOL    HW224321   2.933   1.489   1.848 -0.5608 -0.2968 -0.1344
 4287SOL     OW24322   4.056   3.661   8.242 -0.8801 -0.0164  0.2552
 4287SOL    HW124323   4.088   3.749   8.265  1.3108 -0.5074 -0.9436
 4287SOL    HW224324   4.127   3.620   8.292 -0.7404 -1.0648 -0.8121
 4288SOL     OW24325   2.394   0.784   5.333 -0.9887  0.1865 -0.4769
 4288SOL    HW124326   2.485   0.787   5.362 -1.8057 -1.3073  2.2975
 4288SOL    HW224327   2.397   0.780   5.238  1.4338 -2.3451 -0.2817
 4289SOL     OW24328   0.475   4.525   8.695  0.9469 -0.3800  0.2359
 4289SOL    HW124329   0.485   4.455   8.630  0.1087  0.0125 -0.3206
 4289SOL    HW224330   0.415   4.478   8.753  1.2459 -2.1183 -0.8624
 4290SOL     OW24331   2.162   1.110   7.934 -0.0309 -0.4921  0.1309
 4290SOL    HW124332   2.164   1.089   7.841 -0.6329 -0.3166  0.0761
 4290SOL    HW224333   2.195   1.029   7.971  1.5003 -0.4843 -1.2101
 4291SOL     OW24334   0.669   1.322   1.771 -0.2898  0.1765 -0.7630
 4291SOL    HW124335   0.651   1.393   1.833  0.8411  0.0346 -0.2649
 4291SOL    HW224336   0.615   1.346   1.696 -1.1442  2.3009  0.5367
 4292SOL     OW24337   3.419   1.468  11.012  0.1256 -0.5224  0.0126
 4292SOL    HW124338   3.420   1.539  11.076  1.7723  0.1588 -0.8029
 4292SOL    HW224339   3.363   1.494  10.939  0.3328  1.0667  0.4238
 4293SOL     OW24340   0.217   2.089   2.304 -0.3105  0.7523  0.4861
 4293SOL    HW124341   0.293   2.031   2.309 -1.3556 -0.5156  1.7196
 4293SOL    HW224342   0.141   2.040   2.333 -0.0957  0.5685  0.7332
 4294SOL     OW24343   1.979   0.344   6.406  0.5325 -0.0471 -0.2167
 4294SOL    HW124344   2.051   0.349   6.344  0.6309 -1.3010 -0.2080
 4294SOL    HW224345   1.984   0.251   6.427  0.1529 -0.0128  0.0312
 4295SOL     OW24346   0.217   1.635  12.416  0.1629 -0.2936  0.3980
 4295SOL    HW124347   0.265   1.718  12.417  0.2414 -0.3480  1.0275
 4295SOL    HW224348   0.250   1.596  12.497 -0.8279  1.3244  1.5882
 4296SOL     OW24349   3.385   1.997   3.449 -0.1243 -0.8846 -0.3195
 4296SOL    HW124350   3.376   1.923   3.389  0.1982  0.2795 -1.7892
 4296SOL    HW224351   3.474   2.031   3.434  0.8907 -2.7798  1.3443
 4297SOL     OW24352   3.518   2.975   4.685 -0.7610 -0.4424  0.3993
 4297SOL    HW124353   3.581   3.032   4.640 -0.8859  0.3734  1.2604
 4297SOL    HW224354   3.442   3.032   4.680 -0.0374  0.6930  2.4662
 4298SOL     OW24355   0.425   1.171   5.065 -0.1914 -0.0127 -0.1226
 4298SOL    HW124356   0.424   1.146   5.157  0.5212 -1.7448 -0.5739
 4298SOL    HW224357   0.336   1.166   5.030 -0.2403  1.1818 -0.1726
 4299SOL     OW24358   1.035   4.323   7.890 -0.3308 -0.2539  0.0074
 4299SOL    HW124359   1.054   4.231   7.870 -1.3810 -0.1593 -1.4085
 4299SOL    HW224360   1.027   4.321   7.985  0.7699 -0.0404  0.0999
 4300SOL     OW24361   2.030   2.072   5.449  0.3759 -0.1614  0.4755
 4300SOL    HW124362   2.073   2.121   5.519  3.4192 -1.3023 -0.5703
 4300SOL    HW224363   2.085   1.994   5.436  1.9829  0.6454  2.2926
 4301SOL     OW24364   0.154   2.113   7.484  0.2754 -0.1161  0.3717
 4301SOL    HW124365   0.242   2.123   7.449  0.6249 -4.0145  0.1665
 4301SOL    HW224366   0.186   2.062   7.559 -0.3251 -0.9793  0.0453
 4302SOL     OW24367   3.772   4.601   3.852 -0.3401  0.0507  0.2974
 4302SOL    HW124368   3.863   4.595   3.882  0.4118 -0.9403 -2.1351
 4302SOL    HW224369   3.734   4.615   3.939 -1.7412 -2.2598  0.0536
 4303SOL     OW24370   3.558   3.717   6.358 -0.2228  0.3148 -0.0664
 4303SOL    HW124371   3.464   3.731   6.362 -0.0996  1.3068 -0.5840
 4303SOL    HW224372   3.585   3.806   6.384  1.0793  0.0793 -0.6405
 4304SOL     OW24373   2.239   4.041   8.636  0.1877 -0.2890  0.0597
 4304SOL    HW124374   2.301   4.091   8.690 -0.5021  0.7047 -0.0678
 4304SOL    HW224375   2.188   4.007   8.709  0.9237 -0.1799  0.6243
 4305SOL     OW24376   3.610   2.402   3.048 -0.2783 -0.8433  0.2853
 4305SOL    HW124377   3.629   2.487   3.008  1.1527 -1.4858 -0.3925
 4305SOL    HW224378   3.646   2.349   2.977  0.8539  2.3476 -1.5288
 4306SOL     OW24379   3.827   3.453  14.655 -0.3443 -0.1843  0.3735
 4306SOL    HW124380   3.751   3.500  14.623  1.5281  1.5827 -1.4083
 4306SOL    HW224381   3.835   3.383  14.590 -2.9879  0.0373 -0.1691
 4307SOL     OW24382   4.391   1.532  13.618  0.1200 -0.1206  0.7149
 4307SOL    HW124383   4.369   1.525  13.711  0.4487  1.8877  0.9451
 4307SOL    HW224384   4.329   1.594  13.580  1.4979  0.6581 -0.2419
 4308SOL     OW24385   4.172   2.876  14.606  0.1526  0.1514 -0.0296
 4308SOL    HW124386   4.232   2.806  14.631 -0.4437 -0.1679  0.5128
 4308SOL    HW224387   4.142   2.903  14.693 -0.4802 -1.6516  0.2988
 4309SOL     OW24388   2.757   3.809   4.004  0.3611 -0.1301  0.0087
 4309SOL    HW124389   2.836   3.827   4.055 -0.9416  2.1019  1.2207
 4309SOL    HW224390   2.705   3.749   4.057  0.3488 -0.6053 -0.5325
 4310SOL     OW24391   2.379   2.242  10.513 -0.6658  0.0724  0.1097
 4310SOL    HW124392   2.312   2.178  10.487 -2.1592  2.5196 -2.0213
 4310SOL    HW224393   2.346   2.316  10.463  1.7913  0.6762 -0.5944
 4311SOL     OW24394   0.590   1.449   8.254  0.0315  0.2201  0.4296
 4311SOL    HW124395   0.608   1.387   8.325 -0.0412 -0.7877 -0.4391
 4311SOL    HW224396   0.596   1.534   8.298 -0.4565 -0.3059  1.5010
 4312SOL     OW24397   4.295   0.927   2.577  0.4788 -0.1646 -0.5651
 4312SOL    HW124398   4.319   0.897   2.490  2.4174  1.6272 -0.6314
 4312SOL    HW224399   4.222   0.987   2.562  0.0016 -0.5902  0.0342
 4313SOL     OW24400   4.480   1.314   6.908 -0.1794 -0.1920 -0.3802
 4313SOL    HW124401   4.392   1.352   6.908 -0.6246 -1.2353 -0.2649
 4313SOL    HW224402   4.503   1.319   6.815 -1.2766 -5.7678 -0.9436
 4314SOL     OW24403   2.556   1.856   3.030  0.0903 -0.3099  0.0062
 4314SOL    HW124404   2.490   1.912   3.071 -0.4163 -0.3451 -0.7619
 4314SOL    HW224405   2.635   1.872   3.082  0.9002 -1.5808 -0.8409
 4315SOL     OW24406   2.417   2.539   5.470 -0.4363  0.2804 -0.1986
 4315SOL    HW124407   2.381   2.585   5.546 -1.1381 -1.8551  0.7684
 4315SOL    HW224408   2.338   2.525   5.418  0.1432 -1.2306 -0.6610
 4316SOL     OW24409   3.682   3.034   8.783 -0.0442 -0.5979  0.2757
 4316SOL    HW124410   3.755   3.096   8.779  0.0159 -0.7086 -0.4424
 4316SOL    HW224411   3.629   3.071   8.712 -2.3647 -0.9037  1.8493
 4317SOL     OW24412   1.657   3.130   2.091  0.3645 -0.2299  0.5575
 4317SOL    HW124413   1.748   3.158   2.101  0.1314 -0.2983  3.0539
 4317SOL    HW224414   1.650   3.111   2.185  2.3918  1.6952  1.0905
 4318SOL     OW24415   0.734   1.555  13.434 -0.2273 -0.0517 -1.0127
 4318SOL    HW124416   0.808   1.517  13.386 -0.4054  0.5631 -1.7795
 4318SOL    HW224417   0.779   1.611  13.497  1.1031 -0.2171 -1.8161
 4319SOL     OW24418   1.842   2.806  10.654  0.5356 -0.5391 -0.2263
 4319SOL    HW124419   1.795   2.824  10.735  1.7605  1.5914  0.0113
 4319SOL    HW224420   1.775   2.780  10.590  0.8180 -0.0726 -0.7133
 4320SOL     OW24421   1.767   0.400   4.780  0.0568 -0.1075 -0.0907
 4320SOL    HW124422   1.750   0.350   4.700 -2.3140 -0.1820  0.4686
 4320SOL    HW224423   1.774   0.489   4.745 -1.4706  0.1571  0.2863
 4321SOL     OW24424   1.013   3.956   8.885 -0.0979 -0.1036 -0.1071
 4321SOL    HW124425   1.002   3.879   8.829 -1.1339  0.3189 -0.4848
 4321SOL    HW224426   0.944   3.932   8.947  1.8063 -1.5537  1.4357
 4322SOL     OW24427   4.661   0.390   8.997 -0.2126  0.6573 -0.1906
 4322SOL    HW124428   4.632   0.304   9.030  0.3902 -0.9259 -3.7888
 4322SOL    HW224429   0.006   0.366   8.934  0.0025  1.1998 -0.1575
 4323SOL     OW24430   3.594   0.042  11.127  0.6288 -0.5053  0.1420
 4323SOL    HW124431   3.615   0.109  11.192 -0.3968  1.2621 -1.3706
 4323SOL    HW224432   3.660   4.695  11.135  0.6532 -0.5290 -0.2323
 4324SOL     OW24433   3.207   1.515  16.779  0.0496 -0.1569 -0.7289
 4324SOL    HW124434   3.228   1.540  16.690 -0.9322 -0.2181 -0.9828
 4324SOL    HW224435   3.127   1.466  16.761 -0.9200  1.2578 -0.2936
 4325SOL     OW24436   2.278   2.241  13.256 -0.3422  0.2593 -0.1237
 4325SOL    HW124437   2.372   2.228  13.247 -0.2271  0.1560  1.3628
 4325SOL    HW224438   2.260   2.294  13.178  0.8445 -0.0635 -0.6211
 4326SOL     OW24439   1.165   3.500   2.686 -0.0659 -0.0893  0.2376
 4326SOL    HW124440   1.193   3.513   2.777  1.9113  0.5914 -0.4496
 4326SOL    HW224441   1.244   3.452   2.661  1.1027  2.9131 -1.8497
 4327SOL     OW24442   4.086   1.568  14.095 -0.0185 -0.9914  0.2486
 4327SOL    HW124443   4.039   1.599  14.172 -0.7185 -0.7723 -0.2638
 4327SOL    HW224444   4.018   1.513  14.055 -0.1035 -0.1077 -0.8361
 4328SOL     OW24445   1.878   1.628  13.140  0.2234  0.7023 -0.2555
 4328SOL    HW124446   1.948   1.664  13.195 -0.4906  0.6709  0.6717
 4328SOL    HW224447   1.884   1.533  13.146 -0.3223  0.6443 -0.5987
 4329SOL     OW24448   3.678   2.396   2.125  0.1576  0.2820 -0.0042
 4329SOL    HW124449   3.772   2.413   2.120  0.5413 -2.4188 -1.8971
 4329SOL    HW224450   3.664   2.373   2.216 -1.1618 -1.0006 -0.5406
 4330SOL     OW24451   4.065   2.948  14.837  0.6732 -0.4150  0.1539
 4330SOL    HW124452   3.985   2.993  14.864 -0.2747 -0.7601 -2.0326
 4330SOL    HW224453   4.079   2.887  14.910  0.6955 -0.1689  0.3537
 4331SOL     OW24454   2.188   3.233   3.368  0.7262 -0.4563  0.1613
 4331SOL    HW124455   2.119   3.173   3.340  0.9551 -1.1120  0.9939
 4331SOL    HW224456   2.152   3.259   3.453  1.3061 -0.0254  0.2724
 4332SOL     OW24457   2.305   3.991   7.537  0.0884  0.2802  0.5987
 4332SOL    HW124458   2.336   3.968   7.625  0.7517 -0.8228  0.0626
 4332SOL    HW224459   2.320   3.915   7.481  1.2462  1.7095 -0.9937
 4333SOL     OW24460   4.702   4.251   7.930 -0.1043 -0.3981  0.0971
 4333SOL    HW124461   4.712   4.240   8.024 -1.8366  0.6576  0.4099
 4333SOL    HW224462   4.650   4.332   7.928 -0.7086 -0.7904 -0.0046
 4334SOL     OW24463   4.410   4.187   6.189  0.4215  0.2932 -0.5457
 4334SOL    HW124464   4.486   4.207   6.135  0.5156  0.2162 -0.4408
 4334SOL    HW224465   4.341   4.180   6.123 -0.4618 -1.0161  0.5237
 4335SOL     OW24466   0.441   3.506   5.948  0.2454  0.3438 -0.0896
 4335SOL    HW124467   0.420   3.577   6.010  0.4298  0.1978  0.1389
 4335SOL    HW224468   0.457   3.431   6.005  0.8342  1.2917  1.0040
 4336SOL     OW24469   2.329   4.128   1.503 -0.3443  0.0413 -0.5208
 4336SOL    HW124470   2.396   4.158   1.442  0.9656 -2.4905 -0.3322
 4336SOL    HW224471   2.255   4.131   1.442  1.6120  1.4283 -2.8314
 4337SOL     OW24472   0.801   3.739   7.546  0.1986 -0.5918 -0.2650
 4337SOL    HW124473   0.896   3.732   7.552  0.4033  1.4070 -1.2544
 4337SOL    HW224474   0.784   3.808   7.483 -2.1328 -0.5819  0.3901
 4338SOL     OW24475   4.172   3.414   1.963 -0.2085  0.0320 -0.3653
 4338SOL    HW124476   4.201   3.366   1.885 -1.8465 -1.4714 -0.0304
 4338SOL    HW224477   4.077   3.421   1.959 -0.0759  2.3249  0.2750
 4339SOL     OW24478   1.828   4.614   0.771 -0.7520  0.8648  0.0631
 4339SOL    HW124479   1.799   4.634   0.860  0.7354  1.5661  0.4016
 4339SOL    HW224480   1.851   4.704   0.747  0.3586  0.6536  0.2965
 4340SOL     OW24481   0.343   4.385   8.237  0.2290 -0.3655 -0.3525
 4340SOL    HW124482   0.301   4.438   8.169  1.1046 -0.0300 -0.6285
 4340SOL    HW224483   0.321   4.293   8.224  0.7772 -0.5366 -0.0721
 4341SOL     OW24484   0.847   4.597  17.299 -0.2338 -0.1438  0.2089
 4341SOL    HW124485   0.786   4.626  17.366  1.8158  0.1005  1.9743
 4341SOL    HW224486   0.883   4.683  17.278 -0.5331 -0.3367 -1.1109
 4342SOL     OW24487   1.866   4.258   5.769 -0.7828  0.3450  0.3826
 4342SOL    HW124488   1.814   4.315   5.712 -0.5138  1.0820  0.8715
 4342SOL    HW224489   1.948   4.305   5.787 -0.5175 -0.0836  0.2857
 4343SOL     OW24490   3.427   4.702   7.051  0.4551 -0.3215 -0.5156
 4343SOL    HW124491   3.473   4.690   7.134 -1.2440  0.2806  0.4819
 4343SOL    HW224492   3.354   0.033   7.080  0.2844 -1.2129  0.6974
 4344SOL     OW24493   1.827   4.520   4.981 -0.4362  0.2385  1.1374
 4344SOL    HW124494   1.754   4.526   4.920  0.6911 -0.1335 -0.2449
 4344SOL    HW224495   1.872   4.604   4.971  0.3708 -0.1697  1.3245
 4345SOL     OW24496   0.395   4.716   2.243  0.5627  0.6003  0.0265
 4345SOL    HW124497   0.321   0.026   2.191 -0.2433 -1.0030  0.1570
 4345SOL    HW224498   0.406   4.628   2.206 -0.2507 -0.2760  1.8592
 4346SOL     OW24499   0.261   1.372  10.045  0.6318  0.2627  0.0660
 4346SOL    HW124500   0.247   1.323   9.964  1.9195  0.6255 -0.3789
 4346SOL    HW224501   0.354   1.392  10.033  0.8602 -0.4224  0.7441
 4347SOL     OW24502   2.786   4.475   1.791  0.0505 -0.3088 -0.1314
 4347SOL    HW124503   2.762   4.555   1.838  1.7791 -1.1938  2.2647
 4347SOL    HW224504   2.869   4.457   1.837  1.6898 -1.3874 -3.5499
 4348SOL     OW24505   2.518   2.517   9.348 -0.1669  0.0757  0.4250
 4348SOL    HW124506   2.594   2.495   9.401 -0.1594  2.1054  1.2487
 4348SOL    HW224507   2.558   2.491   9.265  1.2052 -1.0249  1.4608
 4349SOL     OW24508   1.695   4.256  11.286  0.1076 -0.1611  0.0035
 4349SOL    HW124509   1.647   4.249  11.204  1.1109 -1.6349 -0.4545
 4349SOL    HW224510   1.749   4.335  11.276 -1.4310  0.5147 -2.9750
 4350SOL     OW24511   3.693   3.778   2.288 -0.3188 -0.7731  0.1299
 4350SOL    HW124512   3.692   3.825   2.371 -1.8482 -0.2184 -0.2111
 4350SOL    HW224513   3.783   3.745   2.291  0.0843  0.2595 -0.5737
 4351SOL     OW24514   1.289   3.712   6.677  0.7015 -0.0864 -0.0184
 4351SOL    HW124515   1.239   3.631   6.674 -0.5007  0.6269  0.7116
 4351SOL    HW224516   1.334   3.716   6.593 -0.2989  1.6224 -0.4647
 4352SOL     OW24517   4.160   3.946   8.320  0.1217 -0.0346 -0.3063
 4352SOL    HW124518   4.190   3.941   8.230 -0.4934 -1.1601 -0.4512
 4352SOL    HW224519   4.116   4.030   8.316 -2.0109 -1.1134  0.4487
 4353SOL     OW24520   2.404   0.930  13.801  0.1015  0.7928 -0.1961
 4353SOL    HW124521   2.325   0.907  13.751  2.1450 -0.5183 -2.8031
 4353SOL    HW224522   2.477   0.901  13.747  1.1306  1.0709  1.0365
 4354SOL     OW24523   2.769   2.384  16.557 -0.4461 -0.0013 -0.1714
 4354SOL    HW124524   2.713   2.461  16.567 -1.1755 -0.9290  2.7505
 4354SOL    HW224525   2.855   2.416  16.529  0.0842 -1.7784 -0.5409
 4355SOL     OW24526   2.372   0.603   7.915 -0.6188 -0.1749  0.2207
 4355SOL    HW124527   2.379   0.525   7.860  1.1311  0.6627 -0.7207
 4355SOL    HW224528   2.458   0.616   7.956  0.0105 -0.9859 -0.8430
 4356SOL     OW24529   3.339   3.001  16.420  0.1103 -0.2643  0.0333
 4356SOL    HW124530   3.348   2.920  16.370  1.1293  0.1192 -0.3990
 4356SOL    HW224531   3.427   3.039  16.415  0.5993 -1.5336 -1.1583
 4357SOL     OW24532   0.767   0.271   4.097 -0.3405 -0.0733 -0.9160
 4357SOL    HW124533   0.691   0.286   4.041 -0.1511  1.7492 -0.6813
 4357SOL    HW224534   0.723   0.211   4.156 -1.1123  3.0903  1.7108
 4358SOL     OW24535   0.105   0.722  15.118 -0.1537 -0.4259  0.4073
 4358SOL    HW124536   0.108   0.741  15.024 -0.3969  1.3903  0.7621
 4358SOL    HW224537   0.171   0.789  15.137 -1.7291  0.2420  3.4638
 4359SOL     OW24538   3.598   0.068   2.768  0.1839 -0.9053  0.1751
 4359SOL    HW124539   3.525   0.128   2.778 -0.6365 -2.4399  3.1915
 4359SOL    HW224540   3.584   4.717   2.828 -0.8700 -0.5757  0.3124
 4360SOL     OW24541   1.386   2.947  15.366 -0.5879  0.1868  0.1814
 4360SOL    HW124542   1.314   3.009  15.370  0.8451  1.9125 -0.7069
 4360SOL    HW224543   1.465   2.993  15.393 -0.5550  0.1072  0.2222
 4361SOL     OW24544   0.794   0.720   9.845 -0.2163 -0.3478 -0.1101
 4361SOL    HW124545   0.744   0.647   9.881  0.6241 -0.4602  0.8333
 4361SOL    HW224546   0.845   0.673   9.779 -1.3197  0.4616 -1.5338
 4362SOL     OW24547   0.824   0.778   4.491 -0.2942 -0.0250 -0.1719
 4362SOL    HW124548   0.849   0.693   4.528  1.0621  0.9409  1.1094
 4362SOL    HW224549   0.831   0.761   4.397 -0.4743 -0.9512 -0.0194
 4363SOL     OW24550   2.842   3.934   1.991  0.5001  0.1743  0.0680
 4363SOL    HW124551   2.886   3.891   2.064  0.4512  1.8686  1.0865
 4363SOL    HW224552   2.923   3.968   1.951  0.6539 -0.6153 -0.2963
 4364SOL     OW24553   2.303   2.590   5.971  0.4974 -0.0113  0.1105
 4364SOL    HW124554   2.211   2.563   5.964  0.8574 -1.1349 -0.3906
 4364SOL    HW224555   2.325   2.546   5.889 -0.4285 -2.1834  1.0181
 4365SOL     OW24556   1.190   3.245   3.868  0.2907  0.2975  0.5722
 4365SOL    HW124557   1.156   3.313   3.810 -0.3583  0.8468  1.6041
 4365SOL    HW224558   1.170   3.298   3.945 -0.6486  0.1734  0.4103
 4366SOL     OW24559   0.095   3.472   6.009 -0.6596  0.0462  0.1337
 4366SOL    HW124560   0.041   3.393   6.011 -0.5221 -0.0969 -1.9440
 4366SOL    HW224561   0.105   3.492   6.102  0.7058  0.2778 -0.0635
 4367SOL     OW24562   4.077   2.114   1.459 -0.1676 -0.6345 -0.4774
 4367SOL    HW124563   4.061   2.020   1.451  2.8457 -1.0741 -1.1953
 4367SOL    HW224564   4.164   2.123   1.419  0.5889 -0.9788  1.0918
 4368SOL     OW24565   3.068   0.907   1.397 -0.5871  0.3886 -0.1439
 4368SOL    HW124566   3.063   0.956   1.315 -0.5172 -1.0999 -1.0535
 4368SOL    HW224567   3.124   0.838   1.361 -0.2979  0.6125 -0.1230
 4369SOL     OW24568   4.362   0.489   8.596 -0.1782  0.2141 -0.5186
 4369SOL    HW124569   4.392   0.482   8.687  1.1318 -1.2220 -1.0545
 4369SOL    HW224570   4.440   0.457   8.550  0.7439  1.1912  0.3615
 4370SOL     OW24571   0.938   2.233   1.427  0.0012  0.1925 -0.2581
 4370SOL    HW124572   0.990   2.156   1.401 -2.0613 -0.6646 -1.8381
 4370SOL    HW224573   0.887   2.242   1.346 -0.7790  1.5841  0.3966
 4371SOL     OW24574   1.212   2.216   0.119  0.4842  0.1957  0.4362
 4371SOL    HW124575   1.204   2.168   0.036 -2.5666  1.7618 -0.1855
 4371SOL    HW224576   1.237   2.304   0.088 -3.1117  1.9085  2.4688
 4372SOL     OW24577   1.240   2.234  10.899  0.1474  0.3290  0.1244
 4372SOL    HW124578   1.236   2.170  10.969  1.1906  0.5264  0.3635
 4372SOL    HW224579   1.275   2.314  10.937 -1.2733  1.9976 -2.0116
 4373SOL     OW24580   0.182   3.280  13.378 -0.1233 -0.1089 -0.5381
 4373SOL    HW124581   0.153   3.291  13.469 -1.0294 -0.7246 -0.7483
 4373SOL    HW224582   0.141   3.357  13.341 -0.0664  1.0461  1.7789
 4374SOL     OW24583   0.454   1.087  10.101  0.9007  0.6659  0.0029
 4374SOL    HW124584   0.538   1.045  10.085 -1.1612 -3.1625 -0.8717
 4374SOL    HW224585   0.478   1.163  10.153  1.4341  1.5737 -1.5681
 4375SOL     OW24586   2.504   3.336   0.923 -0.2600 -0.3163 -0.1479
 4375SOL    HW124587   2.584   3.304   0.964 -0.6432 -0.7128  0.2904
 4375SOL    HW224588   2.467   3.249   0.910 -2.1911  0.5384 -0.3328
 4376SOL     OW24589   2.323   1.333   5.010 -0.0016 -0.3299  0.0736
 4376SOL    HW124590   2.235   1.295   5.009 -0.9902  1.9631 -1.2001
 4376SOL    HW224591   2.338   1.320   4.916  1.4298 -1.1264  0.4255
 4377SOL     OW24592   1.218   2.905  12.288  0.0288  0.8147 -0.2621
 4377SOL    HW124593   1.247   2.816  12.311  1.1930  1.0562 -0.7877
 4377SOL    HW224594   1.278   2.961  12.337 -2.1237  3.8549 -1.1631
 4378SOL     OW24595   4.645   4.333   6.044  0.8409 -0.3445 -0.1101
 4378SOL    HW124596   4.706   4.374   6.105 -0.9307 -2.0572  2.8061
 4378SOL    HW224597   4.703   4.271   6.000  2.7141  0.9394  0.5387
 4379SOL     OW24598   2.662   4.684   5.538  0.1022 -0.2092 -0.1650
 4379SOL    HW124599   2.707   4.705   5.619 -1.6016  1.2943  0.4078
 4379SOL    HW224600   2.714   4.620   5.490  0.1824 -1.8087  2.0947
 4380SOL     OW24601   4.148   1.609   9.526  0.0222 -0.1028  0.6843
 4380SOL    HW124602   4.238   1.610   9.493 -0.0738  2.6557  0.4993
 4380SOL    HW224603   4.136   1.698   9.560  0.5133  0.4314 -0.5451
 4381SOL     OW24604   4.573   1.697   7.738  0.0001  0.3950 -0.1630
 4381SOL    HW124605   4.586   1.655   7.653  0.3381  2.1337 -0.9492
 4381SOL    HW224606   4.654   1.691   7.789 -0.5707  0.9790  0.8125
 4382SOL     OW24607   2.342   3.712  12.783  0.2102  0.2002 -0.0391
 4382SOL    HW124608   2.252   3.733  12.806  0.2066 -0.3814  0.4712
 4382SOL    HW224609   2.350   3.627  12.826 -1.8699 -0.7518 -1.5564
 4383SOL     OW24610   1.339   3.783   7.100  0.2393 -0.4447 -0.0082
 4383SOL    HW124611   1.267   3.808   7.159 -2.6797  0.2506 -3.8136
 4383SOL    HW224612   1.332   3.688   7.109  1.1179 -0.0989  4.0855
 4384SOL     OW24613   4.706   1.560   6.106  0.4657 -0.0326 -0.2395
 4384SOL    HW124614   4.686   1.563   6.200  0.7751 -1.1671 -0.1335
 4384SOL    HW224615   0.013   1.469   6.097 -0.6388 -0.8891  4.6066
 4385SOL     OW24616   3.611   1.611  15.931  0.3904  0.0328  0.6494
 4385SOL    HW124617   3.585   1.530  15.975  1.3299  0.3330  1.7490
 4385SOL    HW224618   3.521   1.644  15.933  0.0680 -0.9336  2.0950
 4386SOL     OW24619   1.767   0.712   4.977 -0.0833 -0.4767 -0.5733
 4386SOL    HW124620   1.771   0.787   5.036  0.6558 -0.9980  0.0480
 4386SOL    HW224621   1.801   0.642   5.033  1.1818 -1.6411 -2.8072
 4387SOL     OW24622   3.660   1.357   6.419  0.3428  0.4535  0.0461
 4387SOL    HW124623   3.650   1.378   6.326 -2.3722 -2.7129 -0.3709
 4387SOL    HW224624   3.568   1.360   6.444  0.5434 -1.3502  1.0225
 4388SOL     OW24625   0.025   0.500   6.671  0.6337  0.3457 -0.7518
 4388SOL    HW124626   0.089   0.469   6.735  0.6161  1.2927 -0.2799
 4388SOL    HW224627   0.005   0.587   6.704 -0.5138 -0.8066  1.5859
 4389SOL     OW24628   2.430   1.365   1.781 -0.2402  0.2219  0.1029
 4389SOL    HW124629   2.426   1.316   1.699  0.1346  1.9140 -0.9359
 4389SOL    HW224630   2.429   1.447   1.731  0.8127  0.2987  0.2019
 4390SOL     OW24631   3.258   2.085   0.070  0.1469 -0.2721  0.1494
 4390SOL    HW124632   3.327   2.029   0.034  0.6378  1.0446 -0.9530
 4390SOL    HW224633   3.255   2.153   0.003  0.8256 -0.6673 -0.2854
 4391SOL     OW24634   4.163   2.897   4.326 -0.1882 -0.0442  1.2228
 4391SOL    HW124635   4.167   2.919   4.419  1.0844  0.2281  1.0944
 4391SOL    HW224636   4.185   2.982   4.288  3.1611 -1.3833  0.1692
 4392SOL     OW24637   0.008   1.210   8.578 -0.3794 -0.2903 -0.4663
 4392SOL    HW124638   0.058   1.150   8.633 -1.7071  0.2247  1.3278
 4392SOL    HW224639   0.042   1.180   8.494 -0.9257 -0.6781 -0.5439
 4393SOL     OW24640   1.779   2.100  11.332 -0.5708  0.2787 -0.1963
 4393SOL    HW124641   1.685   2.115  11.329 -0.6493 -0.5521 -1.8236
 4393SOL    HW224642   1.788   2.021  11.279  1.2590  0.3538  0.0095
 4394SOL     OW24643   0.479   3.877   5.652  0.2631  0.0800 -0.7556
 4394SOL    HW124644   0.414   3.806   5.657  0.4806  0.1008  2.7197
 4394SOL    HW224645   0.462   3.908   5.564  2.6121  0.4897 -1.0612
 4395SOL     OW24646   1.887   3.650   6.049 -0.2856 -0.0739 -0.7556
 4395SOL    HW124647   1.979   3.631   6.031 -0.2090 -1.7337  1.4053
 4395SOL    HW224648   1.866   3.572   6.100  2.6023  0.0530  0.6482
 4396SOL     OW24649   3.155   2.907  14.351  0.3532  0.2803  0.1889
 4396SOL    HW124650   3.198   2.823  14.335  0.4119  0.3653 -0.1009
 4396SOL    HW224651   3.126   2.903  14.442  0.6222  2.7903  0.4063
 4397SOL     OW24652   1.344   3.513   4.919  0.5549 -0.1840  0.4140
 4397SOL    HW124653   1.326   3.603   4.946  1.3001  0.3928 -0.9721
 4397SOL    HW224654   1.268   3.493   4.863  1.2553 -0.6497 -0.3705
 4398SOL     OW24655   3.214   1.624   2.574  0.6986  0.4293 -0.0247
 4398SOL    HW124656   3.160   1.700   2.595 -1.8269 -1.5658  0.7346
 4398SOL    HW224657   3.184   1.558   2.638  2.1090 -0.4131 -0.2229
 4399SOL     OW24658   1.468   4.027   9.023 -0.0466  0.4267  0.4387
 4399SOL    HW124659   1.404   4.060   8.960 -0.4300  0.5892  0.9120
 4399SOL    HW224660   1.413   3.966   9.073  2.9514 -2.5619  0.1243
 4400SOL     OW24661   2.980   3.895   3.172  0.3450 -0.1341  0.3728
 4400SOL    HW124662   2.885   3.881   3.168  0.4078  0.0227 -1.6587
 4400SOL    HW224663   3.000   3.819   3.117 -0.3286  0.2035 -0.3425
 4401SOL     OW24664   2.804   1.616   6.799  0.2807 -0.3859  0.0064
 4401SOL    HW124665   2.898   1.619   6.816  0.5106 -0.7555 -1.2183
 4401SOL    HW224666   2.780   1.525   6.817 -0.3852 -0.0750  0.6870
 4402SOL     OW24667   4.208   2.639   0.489  0.4271  0.0379 -0.1003
 4402SOL    HW124668   4.129   2.623   0.541 -0.8283  0.4468 -1.8998
 4402SOL    HW224669   4.271   2.590   0.543 -0.1252 -1.1832 -0.5726
 4403SOL     OW24670   3.903   1.362   6.589 -0.1819  0.1039  0.4912
 4403SOL    HW124671   3.880   1.305   6.663 -0.2222  0.8371  1.0515
 4403SOL    HW224672   3.821   1.380   6.544 -0.8817 -1.1987  1.2439
 4404SOL     OW24673   3.135   2.404  17.315 -0.1462 -0.5420 -0.6246
 4404SOL    HW124674   3.071   2.337  17.293 -0.3690 -0.3544 -0.5500
 4404SOL    HW224675   3.183   2.419  17.234 -1.1310  1.1761 -0.8978
 4405SOL     OW24676   2.288   2.264   7.441 -0.2073  0.3560 -0.1363
 4405SOL    HW124677   2.331   2.270   7.355 -0.6190 -0.6841 -0.4200
 4405SOL    HW224678   2.222   2.197   7.424  1.1964 -1.0113 -0.1517
 4406SOL     OW24679   3.228   3.854   3.502  0.0622  0.3290 -0.1387
 4406SOL    HW124680   3.310   3.877   3.458 -0.6634  0.7291 -1.2679
 4406SOL    HW224681   3.251   3.884   3.590 -0.9164  1.0956 -0.1429
 4407SOL     OW24682   1.068   2.962  12.596 -0.6863 -0.0478 -0.1755
 4407SOL    HW124683   1.128   2.915  12.653 -0.1412  0.4091 -0.3624
 4407SOL    HW224684   0.986   2.917  12.616 -2.4051  2.5238 -1.4106
 4408SOL     OW24685   0.199   2.138   9.035  0.3399  0.1391  0.2222
 4408SOL    HW124686   0.265   2.189   8.988  2.1107  0.3420  2.8898
 4408SOL    HW224687   0.120   2.163   8.988  0.2397  0.7461  0.7161
 4409SOL     OW24688   0.560   4.532   5.059 -0.1452  0.6259 -0.1418
 4409SOL    HW124689   0.507   4.612   5.057 -2.8464 -1.1526  0.0186
 4409SOL    HW224690   0.571   4.527   5.154 -0.6347 -0.2192 -0.1229
 4410SOL     OW24691   1.929   2.577   1.332  0.3630  0.1858 -0.3145
 4410SOL    HW124692   2.006   2.633   1.340  0.7101 -0.0107 -2.2237
 4410SOL    HW224693   1.967   2.497   1.297  1.4875 -0.1089  1.5874
 4411SOL     OW24694   4.669   2.077  15.236 -0.3522 -0.2351  0.0021
 4411SOL    HW124695   0.031   2.123  15.234 -0.6783  0.4674  2.7812
 4411SOL    HW224696   4.683   2.011  15.168 -0.6682 -0.5055  0.2025
 4412SOL     OW24697   3.661   2.084   2.503 -0.2023  0.0379 -0.0713
 4412SOL    HW124698   3.644   2.175   2.480  1.9210 -0.0626 -2.0964
 4412SOL    HW224699   3.753   2.078   2.477 -0.7033 -1.1535 -1.5837
 4413SOL     OW24700   3.931   1.397   8.551  0.5836  0.2004  0.2792
 4413SOL    HW124701   4.010   1.406   8.497  1.4851 -0.5945  1.4765
 4413SOL    HW224702   3.959   1.429   8.637  1.4244  0.2702 -0.0168
 4414SOL     OW24703   1.968   4.364   7.026  0.4296  0.3713 -0.3913
 4414SOL    HW124704   1.909   4.313   6.972  0.7769 -0.1355 -0.2961
 4414SOL    HW224705   1.967   4.456   7.000 -0.4004  0.8687  1.3477
 4415SOL     OW24706   3.794   2.171  11.844 -0.2343 -0.3470 -0.1752
 4415SOL    HW124707   3.742   2.170  11.924 -4.4883  1.7951 -2.9484
 4415SOL    HW224708   3.749   2.101  11.797  1.3849 -0.0063 -2.2884
 4416SOL     OW24709   1.551   0.086   7.420  0.2326  0.3699 -0.1862
 4416SOL    HW124710   1.549   0.051   7.331  1.3626 -1.9271  0.6704
 4416SOL    HW224711   1.457   0.085   7.439  1.1169 -1.5541  4.2199
 4417SOL     OW24712   2.997   3.153  11.867  0.4746  0.3143 -0.0945
 4417SOL    HW124713   3.082   3.170  11.826  1.0977 -2.7510 -0.0597
 4417SOL    HW224714   3.026   3.068  11.899  0.2972  0.2352 -0.1423
 4418SOL     OW24715   4.099   4.347  12.580 -0.0789  0.2880 -0.1677
 4418SOL    HW124716   4.191   4.374  12.586  0.4273 -1.3879 -0.4845
 4418SOL    HW224717   4.060   4.384  12.500  0.2042  1.4909  0.2546
 4419SOL     OW24718   3.526   4.691   3.360  0.4901 -0.0053 -0.1323
 4419SOL    HW124719   3.474   4.646   3.427  1.1404 -1.0764 -0.3448
 4419SOL    HW224720   3.593   0.011   3.414  0.5455  0.7162 -0.7663
 4420SOL     OW24721   2.897   4.517   1.502  0.1414  0.8351  0.6231
 4420SOL    HW124722   2.811   4.547   1.473 -0.5158 -0.2564  1.4512
 4420SOL    HW224723   2.880   4.482   1.590 -0.4968 -0.8190 -0.1663
 4421SOL     OW24724   0.030   0.711  14.039 -0.3593  0.1602 -0.4061
 4421SOL    HW124725   0.103   0.727  13.979  1.2747  0.0255  1.4973
 4421SOL    HW224726   4.684   0.673  13.984  1.7931  3.2039 -5.1829
 4422SOL     OW24727   2.624   0.580  13.257 -0.2775 -0.4004 -0.1922
 4422SOL    HW124728   2.630   0.671  13.286 -2.1269 -0.5889  0.7575
 4422SOL    HW224729   2.631   0.597  13.163 -1.6022 -1.4507 -0.4747
 4423SOL     OW24730   2.261   3.515   7.155 -0.0490  0.8435 -0.3996
 4423SOL    HW124731   2.250   3.429   7.114 -2.5595  1.4690 -1.0154
 4423SOL    HW224732   2.179   3.531   7.201  0.0392 -1.2151  0.5028
 4424SOL     OW24733   1.398   3.377   1.621  0.3088  0.5108  0.1396
 4424SOL    HW124734   1.434   3.422   1.544  1.1649 -0.8354 -0.2571
 4424SOL    HW224735   1.473   3.334   1.662  0.2413  0.0960 -0.1603
 4425SOL     OW24736   3.086   1.099  11.720 -0.0977 -0.3964  0.3472
 4425SOL    HW124737   3.154   1.083  11.655  0.9845 -0.7990  1.5618
 4425SOL    HW224738   3.076   1.016  11.766 -1.4711 -0.2566  0.3186
 4426SOL     OW24739   2.031   2.379   9.663  0.3230  0.3167  0.4434
 4426SOL    HW124740   2.095   2.432   9.615 -0.1616  1.1734  0.7394
 4426SOL    HW224741   2.088   2.315   9.706  0.1452 -0.3197 -0.2662
 4427SOL     OW24742   3.516   3.606   2.606 -0.2382 -0.5329 -0.0739
 4427SOL    HW124743   3.564   3.688   2.593 -2.1397  0.5207 -0.5270
 4427SOL    HW224744   3.519   3.583   2.513  0.1278  0.5609 -0.3312
 4428SOL     OW24745   3.750   1.132   9.029 -0.0226 -0.3530 -0.0254
 4428SOL    HW124746   3.759   1.217   9.072 -0.1209  0.1542 -1.0112
 4428SOL    HW224747   3.674   1.145   8.972  0.7658  1.8928 -0.5560
 4429SOL     OW24748   0.889   4.612  13.617  0.2679 -0.4617  0.2190
 4429SOL    HW124749   0.862   4.662  13.539 -1.2880 -0.7685  0.5704
 4429SOL    HW224750   0.924   4.670  13.684 -1.2830  1.1299 -0.3524
 4430SOL     OW24751   3.933   1.306   6.059 -0.3666 -0.1029  0.1131
 4430SOL    HW124752   3.939   1.255   6.139 -2.1331  1.0540  0.9700
 4430SOL    HW224753   4.018   1.350   6.058  0.5814 -1.9693  0.0165
 4431SOL     OW24754   3.834   4.368   9.938 -0.3534  0.7284 -0.0969
 4431SOL    HW124755   3.787   4.378  10.021 -0.4849 -0.4928 -0.0239
 4431SOL    HW224756   3.802   4.441   9.884 -1.6221 -0.7589 -1.3387
 4432SOL     OW24757   2.408   1.717   5.081 -0.4257  0.3146 -0.3868
 4432SOL    HW124758   2.497   1.713   5.048  0.0216 -0.4546  0.8905
 4432SOL    HW224759   2.425   1.768   5.160  1.8770 -0.4526 -0.3960
 4433SOL     OW24760   3.261   3.100  16.667 -0.1131  0.1658  0.0661
 4433SOL    HW124761   3.304   3.063  16.590  0.6547  0.9011  0.1409
 4433SOL    HW224762   3.330   3.148  16.713 -1.9712  2.1271  0.7599
 4434SOL     OW24763   0.015   2.961   2.666  1.0798 -0.0146  0.6529
 4434SOL    HW124764   0.080   3.003   2.609  0.3635  1.3217  0.8050
 4434SOL    HW224765   0.078   2.924   2.728  1.5391  0.1612  0.2847
 4435SOL     OW24766   3.074   3.634   3.070 -0.4302 -0.2436 -0.3339
 4435SOL    HW124767   3.115   3.555   3.034 -1.6782 -0.0828 -2.1228
 4435SOL    HW224768   3.090   3.638   3.164 -1.5528 -2.2679 -0.0541
 4436SOL     OW24769   2.590   4.303   6.370  0.8380  0.3989 -0.1597
 4436SOL    HW124770   2.682   4.328   6.365  1.3415 -1.3681  0.3319
 4436SOL    HW224771   2.596   4.209   6.357 -1.2649  0.2182  0.0788
 4437SOL     OW24772   4.253   0.718   6.306 -0.4088  1.0474  0.0735
 4437SOL    HW124773   4.298   0.795   6.340  2.4427 -0.4792 -0.2141
 4437SOL    HW224774   4.322   0.653   6.296 -1.2558  0.2016 -0.2724
 4438SOL     OW24775   1.048   1.474   6.080  0.5356 -0.1528  0.6205
 4438SOL    HW124776   1.084   1.389   6.105  1.5310  0.4535  1.2432
 4438SOL    HW224777   1.063   1.528   6.158 -1.8053  1.1172  0.1983
 4439SOL     OW24778   2.205   3.148  11.628 -0.0551  0.6716  0.4745
 4439SOL    HW124779   2.278   3.146  11.689  0.4303 -1.8633 -0.1783
 4439SOL    HW224780   2.256   3.114  11.554  0.3757  1.2383  0.5082
 4440SOL     OW24781   2.306   2.385   3.747  0.0407  0.0921 -0.2805
 4440SOL    HW124782   2.344   2.313   3.798 -0.2971 -0.1664 -0.3929
 4440SOL    HW224783   2.388   2.426   3.720 -0.7286  1.0713 -1.0933
 4441SOL     OW24784   3.270   2.312   6.848  0.7046  0.2451 -0.1578
 4441SOL    HW124785   3.222   2.252   6.905  2.7803 -1.5614 -0.3242
 4441SOL    HW224786   3.330   2.255   6.800  1.1341 -0.1930  0.9109
 4442SOL     OW24787   0.498   1.612   3.848 -0.4100 -0.0060 -0.1583
 4442SOL    HW124788   0.551   1.649   3.778  0.9756 -2.1274 -0.2570
 4442SOL    HW224789   0.457   1.695   3.871 -0.6364  0.0993 -0.9475
 4443SOL     OW24790   1.603   3.953  17.639  0.3237  0.3464  0.1054
 4443SOL    HW124791   1.574   3.862  17.633 -1.8427  1.0596 -0.2304
 4443SOL    HW224792   1.693   3.942  17.608  0.2613  1.1211 -0.3556
 4444SOL     OW24793   2.706   0.713   1.188 -0.2640 -0.2927 -0.1556
 4444SOL    HW124794   2.676   0.633   1.145 -1.4052  0.6581 -1.1099
 4444SOL    HW224795   2.703   0.688   1.281 -0.1280 -0.2384 -0.1363
 4445SOL     OW24796   3.716   1.556   3.766  0.6517 -0.4618 -0.9381
 4445SOL    HW124797   3.648   1.501   3.806 -0.2533  1.4222  0.1385
 4445SOL    HW224798   3.681   1.557   3.677 -2.4695 -2.0653  0.2656
 4446SOL     OW24799   1.139   2.948  11.636  0.2651  0.0204  0.4995
 4446SOL    HW124800   1.218   2.915  11.680  0.2987  0.4196  0.7379
 4446SOL    HW224801   1.179   2.936  11.549  0.0830  2.5495  0.0647
 4447SOL     OW24802   0.583   1.042  15.822 -0.5691 -0.7796 -1.0484
 4447SOL    HW124803   0.580   1.133  15.792 -1.2589  0.3645  2.5263
 4447SOL    HW224804   0.524   1.051  15.897  0.6441  1.9009 -0.4072
 4448SOL     OW24805   1.825   3.820   9.119  0.4205  0.7438  0.2910
 4448SOL    HW124806   1.897   3.765   9.152 -2.5236 -2.1761  1.8949
 4448SOL    HW224807   1.816   3.885   9.189 -1.1311 -0.9895  1.6972
 4449SOL     OW24808   0.359   3.230   2.184 -0.6445  0.3728  0.0649
 4449SOL    HW124809   0.440   3.220   2.234 -0.6364  0.4572  0.0686
 4449SOL    HW224810   0.392   3.271   2.104 -0.5772 -0.1007 -0.1482
 4450SOL     OW24811   0.905   0.736   2.706 -0.4355  0.2375 -0.2348
 4450SOL    HW124812   0.831   0.678   2.686  0.1901 -0.9278  0.8121
 4450SOL    HW224813   0.928   0.760   2.616 -1.2302 -0.0561 -0.5160
 4451SOL     OW24814   4.567   0.114   5.739 -0.1550 -0.1030 -0.4229
 4451SOL    HW124815   4.595   0.054   5.671 -0.5273 -0.6535 -0.0923
 4451SOL    HW224816   4.634   0.122   5.807 -0.7252  0.0787  0.1246
 4452SOL     OW24817   3.022   2.497   8.303  0.2180 -0.1120 -0.7280
 4452SOL    HW124818   2.946   2.537   8.346  2.0747  1.2154  1.3096
 4452SOL    HW224819   2.980   2.450   8.231  0.2791  1.5929 -1.8659
 4453SOL     OW24820   0.608   2.340   0.660 -0.3495  0.4516  0.1495
 4453SOL    HW124821   0.587   2.413   0.719  3.5732  1.6411  0.0488
 4453SOL    HW224822   0.682   2.384   0.618 -1.0634  0.4462 -1.1232
 4454SOL     OW24823   3.963   1.339   3.831  1.0492  0.9429 -0.0366
 4454SOL    HW124824   3.903   1.403   3.867  1.9459  0.0559  3.0040
 4454SOL    HW224825   3.930   1.256   3.865  1.1745  0.0788 -2.0349
 4455SOL     OW24826   3.845   2.835  16.270 -0.5239  0.2301 -0.4415
 4455SOL    HW124827   3.901   2.850  16.346 -0.3504  0.6265 -0.6453
 4455SOL    HW224828   3.891   2.760  16.233  0.3252 -0.0701  1.2309
 4456SOL     OW24829   3.317   4.020  12.196  0.3263 -0.1982  0.9897
 4456SOL    HW124830   3.283   4.053  12.112 -0.4059 -2.6565  0.3327
 4456SOL    HW224831   3.324   3.925  12.197  1.0919 -0.1527  0.2501
 4457SOL     OW24832   3.852   4.640   0.689  0.4411 -0.1952  0.0209
 4457SOL    HW124833   3.869   4.716   0.745  0.4092 -0.3054  0.1785
 4457SOL    HW224834   3.925   4.661   0.631 -1.8058  2.7133 -1.7286
 4458SOL     OW24835   0.827   0.201   4.443 -0.7922 -0.1487  0.8425
 4458SOL    HW124836   0.839   0.296   4.437 -1.5850  0.0168  1.9477
 4458SOL    HW224837   0.910   0.163   4.414 -0.9939  2.0810 -2.7261
 4459SOL     OW24838   2.776   3.496   3.213  0.2081 -0.4423 -0.1612
 4459SOL    HW124839   2.832   3.480   3.290  1.0433  0.8712 -0.5011
 4459SOL    HW224840   2.772   3.591   3.203 -0.8100 -0.3482  1.0803
 4460SOL     OW24841   3.199   0.665   1.348 -0.2921  0.0774 -0.5232
 4460SOL    HW124842   3.245   0.618   1.278 -1.8515 -0.4952 -1.1494
 4460SOL    HW224843   3.264   0.647   1.416 -1.2276 -1.6518 -0.1043
 4461SOL     OW24844   3.625   2.001   8.321 -0.0211 -0.3509 -0.1949
 4461SOL    HW124845   3.581   2.086   8.329 -0.6167 -0.5151 -1.8365
 4461SOL    HW224846   3.619   1.985   8.227  0.0857 -0.9554 -0.0998
 4462SOL     OW24847   3.296   1.813   6.255  0.4779 -0.1009  0.1661
 4462SOL    HW124848   3.282   1.875   6.183  0.6441  1.9174  1.8660
 4462SOL    HW224849   3.351   1.753   6.206  1.2294  0.5754  0.1815
 4463SOL     OW24850   3.506   4.171   4.094  0.1509 -0.1893  0.1749
 4463SOL    HW124851   3.544   4.241   4.148  1.7152  0.2125 -1.4662
 4463SOL    HW224852   3.557   4.098   4.128 -0.9015  0.1689  2.5659
 4464SOL     OW24853   3.181   0.672   9.389  0.3398  0.2158  0.2973
 4464SOL    HW124854   3.130   0.686   9.309  1.0615  0.2869 -0.1486
 4464SOL    HW224855   3.133   0.599   9.429 -0.1694  0.5150  0.2225
 4465SOL     OW24856   1.670   4.721   5.650 -0.0735 -0.2337  0.1098
 4465SOL    HW124857   1.640   0.072   5.703  0.2800  0.5901 -0.8193
 4465SOL    HW224858   1.720   4.674   5.717  0.1730 -1.6337 -1.0371
 4466SOL     OW24859   3.498   4.198   7.420 -0.4548  0.4285  0.1247
 4466SOL    HW124860   3.572   4.259   7.417 -0.3018  0.2275 -0.1741
 4466SOL    HW224861   3.431   4.252   7.463 -1.7339 -1.9186  1.0633
 4467SOL     OW24862   3.221   2.315   6.500 -0.1209  0.0274 -0.0191
 4467SOL    HW124863   3.276   2.308   6.422 -0.1399 -2.2353  0.1659
 4467SOL    HW224864   3.250   2.242   6.554  1.2548  0.4742 -0.1449
 4468SOL     OW24865   1.352   2.999   1.159  0.6336 -0.5045 -0.5461
 4468SOL    HW124866   1.304   3.078   1.184  1.3424 -0.3062  0.1844
 4468SOL    HW224867   1.433   3.023   1.203  0.9770 -0.0057 -1.4499
 4469SOL     OW24868   2.706   0.577   6.806 -0.3751 -0.2918 -0.0241
 4469SOL    HW124869   2.677   0.503   6.860 -0.9355  0.7199  1.0487
 4469SOL    HW224870   2.636   0.568   6.741 -1.9074 -0.1070  1.6105
 4470SOL     OW24871   1.079   0.741  10.220  0.1035 -0.1191 -0.0672
 4470SOL    HW124872   1.136   0.752  10.145 -0.6765 -1.0618 -0.8028
 4470SOL    HW224873   1.044   0.653  10.205 -1.1174  0.3851 -0.1944
 4471SOL     OW24874   4.515   0.666   5.427 -0.4202 -0.2019 -0.2174
 4471SOL    HW124875   4.590   0.718   5.457  0.1877  0.7934 -3.4566
 4471SOL    HW224876   4.469   0.658   5.511 -0.4897 -0.3325 -0.2676
 4472SOL     OW24877   1.639   0.079   6.783 -0.1268 -0.0468  1.1084
 4472SOL    HW124878   1.549   0.046   6.789 -0.0111 -0.7273 -0.9000
 4472SOL    HW224879   1.660   0.037   6.700 -0.0285 -0.0395  1.1302
 4473SOL     OW24880   4.062   1.895   6.506 -0.1144  0.1068  0.2362
 4473SOL    HW124881   4.087   1.874   6.596  0.2097 -0.0540  0.1079
 4473SOL    HW224882   3.990   1.834   6.493  0.8785 -1.3769  1.7857
 4474SOL     OW24883   0.374   0.547   7.665  0.4899  0.2896  0.0482
 4474SOL    HW124884   0.309   0.486   7.630  0.4058  0.8938 -0.8482
 4474SOL    HW224885   0.376   0.615   7.597  0.0858 -1.0130 -1.2656
 4475SOL     OW24886   3.691   0.780   5.942  0.0620  0.2635 -0.6590
 4475SOL    HW124887   3.720   0.704   5.993  1.1210  1.7967  1.0136
 4475SOL    HW224888   3.769   0.808   5.894  1.5632  1.4523  2.4960
 4476SOL     OW24889   3.880   1.165   7.002 -0.7238  0.1597  0.5622
 4476SOL    HW124890   3.872   1.102   6.930 -2.6400 -0.6835  1.5190
 4476SOL    HW224891   3.827   1.231   6.960 -1.6667 -0.4200  0.8453
 4477SOL     OW24892   1.214   4.443  15.345  0.9395  0.2722 -0.6411
 4477SOL    HW124893   1.185   4.407  15.261  0.5792 -0.2560 -0.2925
 4477SOL    HW224894   1.187   4.534  15.333  1.8751  0.5312 -0.7156
 4478SOL     OW24895   2.802   3.747  13.728  0.3037 -0.0244 -0.2738
 4478SOL    HW124896   2.855   3.791  13.661  1.2802  0.5287  0.8539
 4478SOL    HW224897   2.831   3.657  13.714 -1.6009 -0.5778 -0.5918
 4479SOL     OW24898   2.398   2.820   2.559 -0.5805  0.2877 -0.0588
 4479SOL    HW124899   2.372   2.912   2.564 -0.0111  0.7191 -4.7208
 4479SOL    HW224900   2.318   2.785   2.519 -1.1149  0.4471  0.8870
 4480SOL     OW24901   2.401   1.362   8.312 -0.6071 -0.1503 -0.1893
 4480SOL    HW124902   2.482   1.401   8.279 -1.3337 -0.7940 -2.7502
 4480SOL    HW224903   2.416   1.271   8.289  0.5372 -0.0738  0.2518
 4481SOL     OW24904   1.793   2.904   1.923  0.0617  0.1821  0.4765
 4481SOL    HW124905   1.700   2.896   1.902  0.9522  0.7801 -3.5946
 4481SOL    HW224906   1.788   2.884   2.016 -1.6196  2.1487  0.8092
 4482SOL     OW24907   1.749   2.119  10.419 -0.1852 -0.1875  0.7734
 4482SOL    HW124908   1.807   2.189  10.391 -1.4773  0.7716  0.4750
 4482SOL    HW224909   1.766   2.044  10.361 -1.0028 -0.8034  1.3192
 4483SOL     OW24910   0.732   0.725   9.418  0.3021  0.2791  0.3972
 4483SOL    HW124911   0.802   0.718   9.353 -1.6289 -1.4503 -1.4990
 4483SOL    HW224912   0.703   0.634   9.423 -0.7530  0.6733  1.2861
 4484SOL     OW24913   0.799   2.654   1.252  0.0446 -0.4847 -0.4229
 4484SOL    HW124914   0.777   2.731   1.304  0.5495 -1.1501  0.7768
 4484SOL    HW224915   0.875   2.608   1.287  1.0405  0.1455 -1.7317
 4485SOL     OW24916   2.029   1.828   4.675 -0.2066 -0.2043  0.5802
 4485SOL    HW124917   2.016   1.832   4.580  1.0026 -0.6990  0.3984
 4485SOL    HW224918   1.937   1.839   4.699 -0.2083 -1.5472  1.1818
 4486SOL     OW24919   4.209   1.756  11.295 -0.3173  0.1955 -0.0167
 4486SOL    HW124920   4.293   1.717  11.315 -0.6680  0.3972  1.8837
 4486SOL    HW224921   4.246   1.844  11.283  1.0163 -0.3834 -0.1031
 4487SOL     OW24922   1.165   3.772   5.749  0.5373 -0.0113 -0.1955
 4487SOL    HW124923   1.158   3.766   5.844  0.7862 -0.3087 -0.1954
 4487SOL    HW224924   1.117   3.696   5.716 -0.9249 -0.0854  2.0800
 4488SOL     OW24925   0.281   3.308   3.516  0.1234  0.6100  0.4500
 4488SOL    HW124926   0.263   3.223   3.558  0.3821  0.2775 -0.1153
 4488SOL    HW224927   0.198   3.339   3.480 -1.2397 -1.9254  1.4135
 4489SOL     OW24928   2.565   1.110   1.268 -0.1114  0.4912  0.1233
 4489SOL    HW124929   2.613   1.036   1.304 -1.3016  0.2432  1.1992
 4489SOL    HW224930   2.595   1.181   1.324 -0.1199  1.8791 -1.6147
 4490SOL     OW24931   4.716   0.640  15.817  0.3338  0.3184  0.3653
 4490SOL    HW124932   0.031   0.723  15.848  0.8556 -0.4095  1.7083
 4490SOL    HW224933   0.069   0.589  15.847 -0.5303 -1.0964  0.1264
 4491SOL     OW24934   4.116   4.349   8.764 -0.4394  0.0604  0.4147
 4491SOL    HW124935   4.101   4.438   8.733  1.8947 -0.3383 -1.8372
 4491SOL    HW224936   4.100   4.356   8.858 -0.6897 -0.9984  0.4512
 4492SOL     OW24937   0.203   4.573  12.094 -0.4229 -0.6435  0.2288
 4492SOL    HW124938   0.200   4.667  12.074 -1.8005 -1.0016 -1.2114
 4492SOL    HW224939   0.127   4.546  12.043 -0.6779  2.2805 -0.9756
 4493SOL     OW24940   4.696   2.241   9.505  0.0783 -0.2348 -0.7488
 4493SOL    HW124941   0.042   2.246   9.437 -0.0656  0.2087 -0.8652
 4493SOL    HW224942   4.631   2.298   9.463  1.3119 -0.2656 -2.6968
 4494SOL     OW24943   4.144   2.441   9.691  0.5655 -0.2823 -0.6728
 4494SOL    HW124944   4.055   2.470   9.671  0.0992 -0.9777  0.3948
 4494SOL    HW224945   4.170   2.517   9.743 -1.9726  1.7999 -2.3909
 4495SOL     OW24946   4.390   2.642  15.623  0.1947  0.1259  0.2999
 4495SOL    HW124947   4.323   2.644  15.555  0.7257 -1.3793 -0.2811
 4495SOL    HW224948   4.432   2.727  15.610 -0.3572  0.4207  0.4714
 4496SOL     OW24949   0.641   4.600   2.480  0.1204  0.2723  0.0826
 4496SOL    HW124950   0.582   4.675   2.484  0.4759  0.4865  1.2014
 4496SOL    HW224951   0.680   4.618   2.394 -0.8042  1.8420 -0.0174
 4497SOL     OW24952   2.856   3.115  11.146 -0.7744 -0.2168  0.0056
 4497SOL    HW124953   2.857   3.210  11.143 -2.0780 -0.2100 -0.0317
 4497SOL    HW224954   2.949   3.108  11.123 -0.8125 -0.4751 -0.0706
 4498SOL     OW24955   0.418   0.861   0.372  0.1211  0.3622 -0.2850
 4498SOL    HW124956   0.468   0.888   0.295  0.8426 -0.1816 -0.0042
 4498SOL    HW224957   0.479   0.882   0.443 -0.4736  1.6936 -0.1764
 4499SOL     OW24958   1.885   4.390   8.918 -0.1353 -0.4088 -0.1057
 4499SOL    HW124959   1.866   4.302   8.951  0.5507 -0.0896  1.1045
 4499SOL    HW224960   1.809   4.428   8.962  0.7463 -0.6786  1.6248
 4500SOL     OW24961   4.213   0.991   5.901 -0.1547 -0.1277  0.8304
 4500SOL    HW124962   4.213   0.922   5.968 -1.7183 -2.1382 -1.2594
 4500SOL    HW224963   4.128   1.031   5.919 -0.8950 -1.5308  0.4325
 4501SOL     OW24964   3.702   0.233   1.013  0.2473  0.7303  0.4905
 4501SOL    HW124965   3.742   0.318   1.034  1.3988 -0.2302  2.1827
 4501SOL    HW224966   3.643   0.216   1.086  0.6129  2.2363  1.1408
 4502SOL     OW24967   3.841   2.722  14.066  0.2336 -0.6505 -0.2345
 4502SOL    HW124968   3.801   2.692  14.147  0.2276 -0.0953 -0.0317
 4502SOL    HW224969   3.868   2.809  14.095  1.5632 -1.2779  0.4170
 4503SOL     OW24970   3.204   2.776  13.782 -0.1739 -0.0522 -0.0291
 4503SOL    HW124971   3.297   2.798  13.794 -0.4334  0.8189  0.4141
 4503SOL    HW224972   3.172   2.797  13.869 -0.2920  0.1790 -0.1274
 4504SOL     OW24973   1.660   3.658  14.596 -0.2618  0.4557 -0.7794
 4504SOL    HW124974   1.736   3.626  14.548 -0.6928 -2.1527  0.2463
 4504SOL    HW224975   1.647   3.588  14.661  0.5420 -0.8685 -2.0390
 4505SOL     OW24976   2.243   0.527   2.990  0.0374  0.1653  0.3287
 4505SOL    HW124977   2.231   0.568   3.076  1.7537 -1.8895  1.5376
 4505SOL    HW224978   2.201   0.441   3.002  0.8446  0.1353  2.9156
 4506SOL     OW24979   2.760   1.461   1.837  0.0150  0.4266 -0.2175
 4506SOL    HW124980   2.754   1.501   1.750 -0.1645 -2.5797 -1.5643
 4506SOL    HW224981   2.669   1.475   1.860  0.2008  0.5885  0.4080
 4507SOL     OW24982   2.445   1.085   3.057 -0.4086  0.1176 -0.3862
 4507SOL    HW124983   2.501   1.081   3.134  0.5606  2.3124 -0.9652
 4507SOL    HW224984   2.510   1.113   2.992  0.0927 -1.0724 -0.4089
 4508SOL     OW24985   4.507   0.647   7.555 -0.3083 -0.1635 -0.2291
 4508SOL    HW124986   4.482   0.605   7.473 -1.4785  1.6870 -0.8122
 4508SOL    HW224987   4.423   0.650   7.600  0.4217  0.7587  1.0674
 4509SOL     OW24988   3.951   1.826  10.629 -0.3088  0.6026 -0.2133
 4509SOL    HW124989   3.976   1.736  10.606 -0.7952 -0.1841  2.3405
 4509SOL    HW224990   3.945   1.819  10.724 -0.5826 -1.2707 -0.3664
 4510SOL     OW24991   0.769   2.966   7.032  0.2483  0.0864 -0.5366
 4510SOL    HW124992   0.782   2.871   7.034 -1.5837 -0.1534 -0.1294
 4510SOL    HW224993   0.701   2.986   7.096  0.7216  1.0854 -0.3355
 4511SOL     OW24994   1.875   0.169  16.802 -0.0493 -0.3777  0.4383
 4511SOL    HW124995   1.946   0.128  16.852 -1.1991 -1.8697  0.8315
 4511SOL    HW224996   1.854   0.246  16.856 -0.4129  0.3422 -0.7351
 4512SOL     OW24997   2.973   0.952  15.742  0.7429  0.0603  0.2425
 4512SOL    HW124998   2.889   0.969  15.700  1.2314 -2.5443 -1.8092
 4512SOL    HW224999   3.036   0.945  15.670 -1.3599  0.4804 -1.6204
 4513SOL     OW25000   3.390   3.790   8.201 -0.0206  0.5017  0.0871
 4513SOL    HW125001   3.358   3.729   8.135 -1.3898  1.6748 -0.3181
 4513SOL    HW225002   3.465   3.743   8.239  0.1556  0.3972 -0.3933
 4514SOL     OW25003   0.692   0.982   2.011 -0.4843 -0.2660 -0.1995
 4514SOL    HW125004   0.663   1.054   2.067 -1.4570  0.2579 -1.3840
 4514SOL    HW225005   0.749   1.019   1.943  0.6830 -1.3243  0.2034
 4515SOL     OW25006   4.433   3.411   3.482 -0.3201  0.0113  0.6952
 4515SOL    HW125007   4.522   3.411   3.517 -0.4078 -0.8130  0.9306
 4515SOL    HW225008   4.420   3.317   3.498 -2.1815 -0.0144 -0.9283
 4516SOL     OW25009   1.326   0.502   6.527 -0.1745 -0.5816  0.2141
 4516SOL    HW125010   1.261   0.548   6.579  2.6706  0.4891  2.8029
 4516SOL    HW225011   1.357   0.438   6.592 -0.7067 -0.2423  0.7881
 4517SOL     OW25012   3.682   1.990   8.696  0.7050  0.0484 -0.8208
 4517SOL    HW125013   3.656   2.041   8.620 -1.3376  2.0247  1.1873
 4517SOL    HW225014   3.599   1.944   8.710  0.0820  1.6115  0.5955
 4518SOL     OW25015   2.805   1.080   6.782 -0.1395  0.2736  0.1535
 4518SOL    HW125016   2.867   1.007   6.785 -0.1585  0.3802  3.5660
 4518SOL    HW225017   2.720   1.036   6.775 -1.0089  2.3855 -2.7518
 4519SOL     OW25018   4.589   4.014   4.012  0.2426 -0.4877  0.5074
 4519SOL    HW125019   4.525   4.068   3.964  1.9694  1.9342  0.9051
 4519SOL    HW225020   4.558   4.012   4.102  0.1496  0.2086  0.4932
 4520SOL     OW25021   1.208   2.972   7.816  0.9574 -0.0386 -0.6629
 4520SOL    HW125022   1.221   3.056   7.859  0.8779 -1.2539  1.7379
 4520SOL    HW225023   1.150   2.996   7.744 -1.9324 -1.7451  1.0973
 4521SOL     OW25024   2.933   3.483   3.445  0.6166 -0.1149  0.2226
 4521SOL    HW125025   2.968   3.467   3.532 -1.1235  0.3773  1.0104
 4521SOL    HW225026   3.000   3.538   3.405  0.3659  0.5941  0.7890
 4522SOL     OW25027   3.086   4.627   1.889  0.1428  0.4501  0.3536
 4522SOL    HW125028   3.175   4.614   1.857  0.6441 -0.7932  2.3189
 4522SOL    HW225029   3.082   4.542   1.932 -2.1060  0.3803  0.0233
 4523SOL     OW25030   3.845   3.829  11.134  0.4139 -0.5172  0.0086
 4523SOL    HW125031   3.855   3.872  11.219  0.7051  0.9937 -0.8013
 4523SOL    HW225032   3.884   3.884  11.067  2.0043 -0.8254  0.6738
 4524SOL     OW25033   1.566   4.299   4.368  0.8020 -0.3160 -0.2341
 4524SOL    HW125034   1.661   4.311   4.371  0.6374  1.1120 -0.6789
 4524SOL    HW225035   1.528   4.354   4.437 -1.8553 -1.0280 -1.1031
 4525SOL     OW25036   2.060   0.344   9.188  0.3926 -0.4703  0.2458
 4525SOL    HW125037   2.070   0.249   9.200  1.1492 -0.3190  0.7712
 4525SOL    HW225038   2.145   0.369   9.223  1.5901 -0.6365 -2.5165
 4526SOL     OW25039   1.947   4.474   6.030  0.2403 -0.5422  0.6129
 4526SOL    HW125040   2.035   4.488   6.066 -0.0747 -0.1111  1.2081
 4526SOL    HW225041   1.963   4.409   5.961 -0.2977 -0.6217  0.5636
 4527SOL     OW25042   2.151   3.852  16.509  0.7416 -0.0751  0.3107
 4527SOL    HW125043   2.233   3.900  16.498  1.5034 -1.0568  1.6852
 4527SOL    HW225044   2.171   3.759  16.497 -1.0097 -0.4174  0.0051
 4528SOL     OW25045   2.520   3.838   6.258  0.1062 -0.0879 -0.5405
 4528SOL    HW125046   2.567   3.764   6.219  0.4870  0.4178 -1.0244
 4528SOL    HW225047   2.452   3.854   6.193 -0.1581  1.4498  0.1122
 4529SOL     OW25048   0.350   4.106  14.781  0.0293 -0.0947  0.7163
 4529SOL    HW125049   0.297   4.186  14.789 -1.1387 -1.0761  3.0592
 4529SOL    HW225050   0.280   4.043  14.798 -1.8773  2.2235  1.5332
 4530SOL     OW25051   3.009   2.215   9.042  0.2410 -0.1334  0.1980
 4530SOL    HW125052   3.081   2.161   9.075 -0.5888 -1.0912  0.4481
 4530SOL    HW225053   2.991   2.265   9.122  1.0748 -0.1898  0.4225
 4531SOL     OW25054   4.439   4.133   8.115 -0.1704  0.7192 -0.0508
 4531SOL    HW125055   4.409   4.211   8.163  0.1636  1.0859 -0.4388
 4531SOL    HW225056   4.533   4.128   8.132 -0.3850 -0.6584  0.7078
 4532SOL     OW25057   4.514   3.781  15.225  0.1080 -0.0736 -0.1416
 4532SOL    HW125058   4.523   3.859  15.280 -0.3452  0.2802 -0.5715
 4532SOL    HW225059   4.449   3.732  15.276 -1.6869  1.8026 -0.6038
 4533SOL     OW25060   0.787   2.116   7.320 -0.6309 -0.1187 -0.6488
 4533SOL    HW125061   0.839   2.185   7.278 -1.5574  0.7998 -0.2819
 4533SOL    HW225062   0.802   2.135   7.413 -2.4199 -1.1867 -0.1476
 4534SOL     OW25063   0.050   0.757   3.509 -0.4538  0.1778 -0.3742
 4534SOL    HW125064   0.089   0.670   3.498  2.3995  1.2849  0.7821
 4534SOL    HW225065   0.098   0.811   3.446 -1.4784  0.2875 -1.0519
 4535SOL     OW25066   4.328   1.732  11.837 -0.1165  0.5320  0.1987
 4535SOL    HW125067   4.350   1.825  11.832  1.9680  0.1736  2.7471
 4535SOL    HW225068   4.373   1.717  11.920 -0.0862  1.6424  0.3804
 4536SOL     OW25069   0.315   1.186   6.752  0.1869  0.0528  0.2172
 4536SOL    HW125070   0.378   1.256   6.731 -2.6011  3.5692  3.5909
 4536SOL    HW225071   0.255   1.239   6.804 -0.1162 -1.6190  1.5802
 4537SOL     OW25072   1.538   4.582   6.053  0.2727  0.3298  0.6288
 4537SOL    HW125073   1.508   4.669   6.025 -0.6776  0.3639  1.7354
 4537SOL    HW225074   1.557   4.603   6.145 -0.6443 -0.5399  1.0089
 4538SOL     OW25075   0.549   2.540   2.477 -0.0755 -0.3141  0.2387
 4538SOL    HW125076   0.470   2.556   2.529 -0.0915  1.7909 -0.4147
 4538SOL    HW225077   0.519   2.461   2.432 -1.8905 -0.0361  0.9659
 4539SOL     OW25078   1.316   0.543  13.810  0.3864  0.4440  0.6512
 4539SOL    HW125079   1.325   0.453  13.778  2.3009  1.3284 -1.3029
 4539SOL    HW225080   1.341   0.601  13.738 -0.9814  2.7691  2.0537
 4540SOL     OW25081   1.643   2.123   1.809  0.3154  0.0041 -0.0350
 4540SOL    HW125082   1.602   2.048   1.854 -1.2147  0.7820 -0.1395
 4540SOL    HW225083   1.576   2.190   1.825  1.7326  1.5947 -0.9055
 4541SOL     OW25084   0.366   0.261   8.055 -0.5613  0.2299 -0.1872
 4541SOL    HW125085   0.283   0.268   8.007 -1.6810 -0.2527  1.7028
 4541SOL    HW225086   0.389   0.351   8.076 -0.0916 -0.5477  2.5609
 4542SOL     OW25087   0.934   2.025   5.143 -0.0007  0.1912  0.1455
 4542SOL    HW125088   0.979   2.013   5.226 -1.1748 -2.8563  0.3636
 4542SOL    HW225089   0.896   1.937   5.133 -0.3643  0.6265 -2.2863
 4543SOL     OW25090   4.217   1.379   1.910  0.3521 -0.4266  0.0068
 4543SOL    HW125091   4.167   1.455   1.938 -0.7503 -0.6059 -1.4958
 4543SOL    HW225092   4.148   1.328   1.868 -0.3006 -1.2438  2.0649
 4544SOL     OW25093   0.702   0.209   9.363  0.0189 -0.6560 -0.7854
 4544SOL    HW125094   0.698   0.193   9.269  1.9056  1.7066 -1.2759
 4544SOL    HW225095   0.758   0.134   9.386 -2.1996 -2.7794 -2.3741
 4545SOL     OW25096   2.714   0.758   7.032  0.0315  0.1468 -0.0439
 4545SOL    HW125097   2.809   0.750   7.042  0.0590  3.3120  2.3509
 4545SOL    HW225098   2.695   0.699   6.959  0.9884  0.0780 -0.2338
 4546SOL     OW25099   2.515   1.134   8.657  0.9985  0.0056 -0.1897
 4546SOL    HW125100   2.610   1.122   8.662  0.9743  0.2912  0.7867
 4546SOL    HW225101   2.497   1.227   8.667  2.3922  0.0059  2.3171
 4547SOL     OW25102   0.427   2.728  11.326  0.3297 -0.2773 -0.1412
 4547SOL    HW125103   0.363   2.698  11.391  0.2253  0.8025  0.2560
 4547SOL    HW225104   0.388   2.701  11.243  0.4899 -0.5268 -0.1338
 4548SOL     OW25105   2.059   3.741   1.989  0.0292  0.1350 -0.4152
 4548SOL    HW125106   2.101   3.740   1.903  4.3593 -0.4169  1.6847
 4548SOL    HW225107   2.052   3.650   2.018 -0.8289 -1.1015 -4.5055
 4549SOL     OW25108   3.352   4.058   1.795  0.2030  0.1565  0.2686
 4549SOL    HW125109   3.316   4.060   1.707 -0.1348  1.2842  0.4378
 4549SOL    HW225110   3.442   4.032   1.774  0.5979  0.5106  1.4739
 4550SOL     OW25111   0.576   3.262   3.835 -0.2727  0.0979 -0.1373
 4550SOL    HW125112   0.645   3.284   3.772 -0.4731  2.3420  0.4049
 4550SOL    HW225113   0.618   3.202   3.895  0.7841 -0.0037 -0.9852
 4551SOL     OW25114   3.301   3.446   5.317 -0.6889  0.9005 -0.3897
 4551SOL    HW125115   3.229   3.410   5.265 -1.0533  1.1732 -0.0764
 4551SOL    HW225116   3.290   3.395   5.397 -0.9768  0.3934 -0.7507
 4552SOL     OW25117   0.079   1.378   1.941  0.2985  0.1152 -0.0631
 4552SOL    HW125118   0.040   1.381   1.854  1.2554  1.2180 -0.4531
 4552SOL    HW225119   0.002   1.390   1.997  0.3141  0.6292 -0.1470
 4553SOL     OW25120   3.194   1.803   7.945  0.2923  0.0733  0.3013
 4553SOL    HW125121   3.138   1.795   8.022  0.0487 -2.0701 -0.0726
 4553SOL    HW225122   3.278   1.819   7.987  0.4644 -1.7144  0.6556
 4554SOL     OW25123   3.153   0.150   0.146 -0.3361 -0.1223  0.5402
 4554SOL    HW125124   3.138   0.055   0.146 -1.1908  0.0124 -1.0730
 4554SOL    HW225125   3.161   0.157   0.241 -1.9726  2.6855  0.4701
 4555SOL     OW25126   4.408   2.338  10.143 -0.0697  0.2211 -0.8578
 4555SOL    HW125127   4.488   2.318  10.190 -2.4867 -0.9263  2.7818
 4555SOL    HW225128   4.397   2.267  10.079 -2.7580 -0.5845  0.4868
 4556SOL     OW25129   0.741   4.463  12.520  0.8399  0.4705 -0.0082
 4556SOL    HW125130   0.742   4.369  12.537 -0.7056  0.4938  0.2065
 4556SOL    HW225131   0.650   4.487  12.538  0.5554  0.2064 -1.1091
 4557SOL     OW25132   0.152   0.508  13.405  0.1095  0.2693 -0.0388
 4557SOL    HW125133   0.149   0.505  13.309  0.5062 -0.4530 -0.0286
 4557SOL    HW225134   0.074   0.455  13.425  0.9662 -1.0491 -0.2119
 4558SOL     OW25135   3.270   3.205  11.066 -0.0244  0.5506  0.0009
 4558SOL    HW125136   3.327   3.154  11.008  0.3132  0.7866  0.1206
 4558SOL    HW225137   3.204   3.141  11.093 -1.3635  1.0348 -2.1659
 4559SOL     OW25138   3.936   1.223  11.945  0.1877  0.1723 -0.9707
 4559SOL    HW125139   3.971   1.273  11.871 -0.3121  0.5795 -0.9334
 4559SOL    HW225140   3.916   1.296  12.004 -2.2258 -1.3755  0.0949
 4560SOL     OW25141   4.143   4.122   3.802 -0.2982  0.1779  0.2991
 4560SOL    HW125142   4.170   4.189   3.865  1.3892 -0.2001 -0.0261
 4560SOL    HW225143   4.126   4.171   3.721 -1.6879  1.6133  1.4382
 4561SOL     OW25144   1.611   3.393  16.900 -0.0630 -0.1750 -0.6018
 4561SOL    HW125145   1.527   3.438  16.906 -0.5813 -1.3803  1.2651
 4561SOL    HW225146   1.654   3.417  16.982 -1.9141  2.0117 -0.2839
 4562SOL     OW25147   0.722   1.027   9.088 -0.3251 -0.0861  0.4382
 4562SOL    HW125148   0.806   1.063   9.060 -0.2538 -1.0090 -0.5153
 4562SOL    HW225149   0.736   1.026   9.183  2.9159 -2.7625 -0.0508
 4563SOL     OW25150   2.915   0.175   7.032  0.3220 -0.4832  0.4007
 4563SOL    HW125151   2.885   0.139   7.116 -0.7520  1.2943  0.7598
 4563SOL    HW225152   2.836   0.208   6.991 -0.8292 -3.2273  0.3824
 4564SOL     OW25153   4.357   4.201   7.648 -0.0919 -0.6998  0.5025
 4564SOL    HW125154   4.380   4.284   7.607 -0.9923  0.6462  2.7321
 4564SOL    HW225155   4.270   4.190   7.609 -0.6839  0.2997  1.5370
 4565SOL     OW25156   3.694   1.846  11.427 -0.1973  0.3508 -0.3462
 4565SOL    HW125157   3.696   1.933  11.387 -0.7934 -0.0729 -1.2811
 4565SOL    HW225158   3.602   1.848  11.455 -0.1604  2.5532 -0.3854
 4566SOL     OW25159   0.477   1.316   4.377 -0.7255  0.3100 -0.2468
 4566SOL    HW125160   0.571   1.303   4.366 -1.0733 -1.1852 -1.4367
 4566SOL    HW225161   0.456   1.269   4.458 -0.8095 -1.0519 -1.0635
 4567SOL     OW25162   2.824   4.001   3.400 -0.2665  0.2256  0.0151
 4567SOL    HW125163   2.880   4.059   3.349  0.5785 -1.1931 -0.6511
 4567SOL    HW225164   2.819   3.923   3.344 -0.7039  2.2084 -2.6893
 4568SOL     OW25165   0.109   4.188  13.045  0.5403  0.6356  0.2122
 4568SOL    HW125166   0.064   4.270  13.027  1.6283  1.2038  0.1144
 4568SOL    HW225167   0.117   4.153  12.956 -0.1128 -0.1864  0.4771
 4569SOL     OW25168   2.172   4.292  11.174 -0.3757  0.2078  0.0743
 4569SOL    HW125169   2.221   4.226  11.224 -0.9342  0.2759  0.7124
 4569SOL    HW225170   2.098   4.311  11.232 -0.7329  0.7400 -0.5467
 4570SOL     OW25171   3.889   2.127   7.375  0.3000 -0.6546  0.3852
 4570SOL    HW125172   3.974   2.147   7.415  0.6183 -1.4409  0.0890
 4570SOL    HW225173   3.871   2.047   7.425 -1.2726 -1.5135 -1.5652
 4571SOL     OW25174   3.458   4.578   1.489 -0.5148 -1.0289 -0.0205
 4571SOL    HW125175   3.487   4.609   1.403 -0.5221  1.7142  0.9709
 4571SOL    HW225176   3.530   4.520   1.513  0.8569  1.1160  1.0233
 4572SOL     OW25177   2.427   3.760  12.522  0.4641 -0.0216 -0.1606
 4572SOL    HW125178   2.428   3.675  12.478 -1.9120 -0.6410  0.9472
 4572SOL    HW225179   2.407   3.747  12.614 -0.5533  0.2713 -0.3322
 4573SOL     OW25180   4.373   0.570   0.047  0.6288  0.0315 -0.5512
 4573SOL    HW125181   4.348   0.651   0.093 -1.4585 -1.3545  0.7947
 4573SOL    HW225182   4.318   0.588  17.661  0.4815 -1.4848 -0.8154
 4574SOL     OW25183   3.167   1.219   1.772 -0.2398  0.0687  0.6419
 4574SOL    HW125184   3.258   1.190   1.765  0.0465  0.7501  1.4909
 4574SOL    HW225185   3.150   1.241   1.864 -0.9825 -1.8880  0.9926
 4575SOL     OW25186   1.344   4.642   9.532 -0.5077 -0.1641  0.5124
 4575SOL    HW125187   1.324   4.549   9.532 -0.0307 -0.2658  0.7017
 4575SOL    HW225188   1.431   4.643   9.573  1.0680  0.0230 -2.8836
 4576SOL     OW25189   2.607   1.429   8.145 -0.2708  0.2648 -0.4120
 4576SOL    HW125190   2.640   1.358   8.090  3.6350  2.0142 -0.3886
 4576SOL    HW225191   2.623   1.506   8.091 -0.2940  1.5071  1.3385
 4577SOL     OW25192   2.748   3.443   4.912 -0.4759  0.0355  0.5170
 4577SOL    HW125193   2.677   3.426   4.973 -1.5623 -0.1686 -0.7988
 4577SOL    HW225194   2.780   3.358   4.883 -0.0925  0.8202 -1.4123
 4578SOL     OW25195   4.298   2.391   6.075 -0.6304 -0.5668  0.0420
 4578SOL    HW125196   4.298   2.393   6.170  0.6739  1.1873  0.0012
 4578SOL    HW225197   4.391   2.408   6.062 -0.4666 -0.8887  0.8389
 4579SOL     OW25198   1.911   4.135   2.486 -0.2058 -0.3031  0.6366
 4579SOL    HW125199   1.879   4.203   2.545 -2.5932 -0.5232 -0.4216
 4579SOL    HW225200   1.829   4.113   2.441  0.2238 -1.0448  0.2229
 4580SOL     OW25201   1.982   3.963   8.953  0.5957 -0.0997 -0.5028
 4580SOL    HW125202   1.943   4.043   8.990 -0.3638 -1.1641  0.7901
 4580SOL    HW225203   1.931   3.893   8.994 -1.0713  1.3458 -0.1031
 4581SOL     OW25204   1.964   2.166   0.249 -0.6725  0.4157  0.0344
 4581SOL    HW125205   1.946   2.170   0.155 -3.4355 -0.4713  0.5129
 4581SOL    HW225206   1.917   2.245   0.278  1.5779  1.1210  1.7736
 4582SOL     OW25207   1.236   0.778  17.258  0.2153 -0.1326  0.5303
 4582SOL    HW125208   1.275   0.841  17.318 -0.2463 -0.1032  0.8025
 4582SOL    HW225209   1.305   0.714  17.244 -1.1233 -2.0213  2.4625
 4583SOL     OW25210   4.494   3.107   5.680  0.3366 -0.0855 -0.1533
 4583SOL    HW125211   4.489   3.193   5.722  0.2339 -0.4828  0.6544
 4583SOL    HW225212   4.405   3.078   5.699 -0.0019  0.1446 -1.4054
 4584SOL     OW25213   3.006   1.848   8.156 -0.2951 -0.4648 -0.1297
 4584SOL    HW125214   3.020   1.940   8.131 -3.2794 -0.0327 -0.2847
 4584SOL    HW225215   2.992   1.860   8.250  0.8137  1.1350 -0.1619
 4585SOL     OW25216   2.274   2.188   1.822 -0.0224  0.2807  0.7233
 4585SOL    HW125217   2.256   2.115   1.763  1.4768  1.1705 -0.8186
 4585SOL    HW225218   2.288   2.135   1.901  1.4712 -0.5380 -0.0892
 4586SOL     OW25219   4.520   2.326  11.658  0.7639 -0.5641  0.1383
 4586SOL    HW125220   4.525   2.249  11.713  1.5339  0.0281  0.8935
 4586SOL    HW225221   4.563   2.387  11.718 -0.9565 -0.5285  1.3399
 4587SOL     OW25222   2.526   4.559   8.498  0.4781 -0.1590 -0.1086
 4587SOL    HW125223   2.438   4.566   8.535  0.9346  1.6976  0.6332
 4587SOL    HW225224   2.539   4.464   8.500 -1.7071 -0.4004  2.1488
 4588SOL     OW25225   3.846   1.537   8.074 -0.1114  0.0888 -0.0819
 4588SOL    HW125226   3.936   1.504   8.069  0.8413  2.5690  0.5216
 4588SOL    HW225227   3.839   1.570   8.163  0.9264 -0.8191  0.3400
 4589SOL     OW25228   3.517   3.543   2.352 -0.8418 -0.0992  0.5866
 4589SOL    HW125229   3.574   3.613   2.321  2.2075 -2.5299  0.6594
 4589SOL    HW225230   3.513   3.490   2.273  2.4174  0.5115 -0.0077
 4590SOL     OW25231   4.083   0.132  13.338 -0.3259 -0.1121 -0.3414
 4590SOL    HW125232   4.150   0.199  13.352 -0.5038  0.0832 -0.4165
 4590SOL    HW225233   4.005   0.182  13.314 -0.8973 -0.2775  1.1722
 4591SOL     OW25234   3.848   4.186  10.756 -0.7328  0.4000  0.7900
 4591SOL    HW125235   3.758   4.205  10.730 -0.2655  0.4754 -0.7772
 4591SOL    HW225236   3.895   4.244  10.697  0.1542 -0.8280  0.2883
 4592SOL     OW25237   1.547   4.138   9.272 -0.4808 -0.8478  0.0074
 4592SOL    HW125238   1.510   4.090   9.197 -2.0973 -0.4559  0.5368
 4592SOL    HW225239   1.526   4.228   9.247  0.9911 -0.3763  0.4748
 4593SOL     OW25240   1.067   2.391   2.103  0.1178  0.0632 -0.0147
 4593SOL    HW125241   1.005   2.372   2.033  0.5869  0.9419 -0.6734
 4593SOL    HW225242   1.002   2.399   2.172  1.4411 -0.8399  1.3339
 4594SOL     OW25243   1.021   2.472   4.027  0.1391 -0.5437  0.3233
 4594SOL    HW125244   0.927   2.457   4.014  0.4600 -0.5380 -1.9105
 4594SOL    HW225245   1.029   2.474   4.122 -1.7864  0.2971  0.4706
 4595SOL     OW25246   1.879   4.161   0.705  0.2037  0.0674  0.4451
 4595SOL    HW125247   1.794   4.204   0.695  1.2519  2.0551  0.0767
 4595SOL    HW225248   1.922   4.218   0.769  2.9328 -1.0737 -0.3880
 4596SOL     OW25249   0.579   1.402   3.997  0.2447 -0.2868  0.0057
 4596SOL    HW125250   0.561   1.485   3.954  0.4685 -0.1846  0.1097
 4596SOL    HW225251   0.496   1.354   3.988 -0.4086  0.5132  1.9238
 4597SOL     OW25252   0.119   2.592  12.713 -0.3140  0.1553 -0.7626
 4597SOL    HW125253   0.152   2.506  12.688 -0.9548 -0.2195 -0.2970
 4597SOL    HW225254   0.165   2.614  12.794  0.2038  1.9318 -1.5388
 4598SOL     OW25255   4.232   2.369   4.158 -0.2122 -0.5123  0.3345
 4598SOL    HW125256   4.279   2.310   4.218  1.6795 -0.1403 -0.7626
 4598SOL    HW225257   4.291   2.445   4.159 -0.3001 -0.4036 -2.2233
 4599SOL     OW25258   1.361   3.340   4.629  0.1932 -0.0713 -0.3024
 4599SOL    HW125259   1.279   3.323   4.676  0.9906 -1.8099  0.4299
 4599SOL    HW225260   1.365   3.436   4.635  0.8270 -0.2467  1.9735
 4600SOL     OW25261   2.112   4.350   1.536 -0.1012 -0.1134 -0.5124
 4600SOL    HW125262   2.065   4.410   1.594 -1.3072  0.3171 -1.9387
 4600SOL    HW225263   2.203   4.372   1.560 -0.1877 -2.1110  1.7398
 4601SOL     OW25264   0.785   2.484   4.993  0.3955  0.6371 -0.0574
 4601SOL    HW125265   0.831   2.556   5.036  3.4064 -0.5092 -1.3596
 4601SOL    HW225266   0.842   2.411   5.014  0.4571  0.8746  0.6006
 4602SOL     OW25267   2.783   1.907  14.564 -0.0952  0.1020 -0.4796
 4602SOL    HW125268   2.844   1.846  14.605 -1.9469 -0.7804  0.9741
 4602SOL    HW225269   2.839   1.985  14.557  2.4697 -1.6210  0.5967
 4603SOL     OW25270   2.487   2.321   5.980  0.5336 -0.3225 -0.8002
 4603SOL    HW125271   2.406   2.360   6.013  0.7500  0.4145 -1.1477
 4603SOL    HW225272   2.460   2.229   5.975 -0.3540 -0.1639  1.0044
 4604SOL     OW25273   3.360   2.707   4.936  0.6301 -0.2519  1.0202
 4604SOL    HW125274   3.272   2.741   4.953  1.1538  0.6988  1.8020
 4604SOL    HW225275   3.418   2.776   4.968  1.7948  0.6737 -3.0544
 4605SOL     OW25276   0.986   1.016   9.469  0.1401  0.0590 -0.2322
 4605SOL    HW125277   1.024   0.929   9.483  0.1026  0.3025  1.3443
 4605SOL    HW225278   1.011   1.031   9.377 -0.5910 -2.1737 -0.8060
 4606SOL     OW25279   3.569   3.221   6.272  0.1108  0.2939  0.2281
 4606SOL    HW125280   3.510   3.193   6.342  1.3958  0.6016  1.4305
 4606SOL    HW225281   3.512   3.189   6.202  1.2710  1.5316 -1.2772
 4607SOL     OW25282   0.797   0.776   7.195  0.0933  0.2537  0.4813
 4607SOL    HW125283   0.775   0.791   7.287 -0.3069 -2.1635  0.7852
 4607SOL    HW225284   0.874   0.720   7.197 -0.6764 -0.8358 -0.3051
 4608SOL     OW25285   2.448   4.503   8.835  0.0283 -0.6516 -0.0739
 4608SOL    HW125286   2.389   4.480   8.907 -0.1943 -0.0752 -0.0740
 4608SOL    HW225287   2.390   4.524   8.763  0.6095  1.4624  0.0702
 4609SOL     OW25288   4.662   2.804  12.697 -0.3962 -0.0381  0.4367
 4609SOL    HW125289   4.583   2.750  12.705  0.1596 -0.7872  0.9041
 4609SOL    HW225290   0.013   2.743  12.711 -1.5844 -0.8760  2.9302
 4610SOL     OW25291   4.489   1.923   8.498  0.0417  0.1118 -0.2977
 4610SOL    HW125292   4.538   1.998   8.532 -0.0730  0.9544 -2.0008
 4610SOL    HW225293   4.567   1.871   8.479 -1.4912 -1.0978 -3.4082
 4611SOL     OW25294   3.753   0.104   3.175 -0.0595 -0.1314 -0.0282
 4611SOL    HW125295   3.773   0.101   3.268 -1.9814 -0.4210  0.3713
 4611SOL    HW225296   3.670   0.152   3.177 -0.9778 -1.5357 -3.9920
 4612SOL     OW25297   0.913   4.250   4.254  0.8323  0.5553 -0.0614
 4612SOL    HW125298   0.980   4.188   4.283  0.0347  0.0432  0.6683
 4612SOL    HW225299   0.895   4.206   4.171 -0.9083 -2.1375  1.7488
 4613SOL     OW25300   1.210   3.728   4.662 -0.4101  0.2363 -0.1016
 4613SOL    HW125301   1.182   3.814   4.693 -0.8803  0.2785 -0.6493
 4613SOL    HW225302   1.302   3.744   4.640 -0.4472 -0.6045 -0.8684
 4614SOL     OW25303   0.395   0.563  12.528  0.1868  0.2251  0.0067
 4614SOL    HW125304   0.325   0.628  12.524  0.7516  0.8394  0.0502
 4614SOL    HW225305   0.456   0.625  12.488  0.0770  0.2858 -0.0659
 4615SOL     OW25306   1.515   4.379   2.157 -0.5745  0.0975 -0.6080
 4615SOL    HW125307   1.586   4.326   2.193 -1.7952 -1.0319  0.1683
 4615SOL    HW225308   1.444   4.342   2.209 -0.4925  1.8237  0.7195
 4616SOL     OW25309   4.367   2.222   4.412 -0.4892 -0.0584 -0.1567
 4616SOL    HW125310   4.338   2.138   4.446 -1.9786  0.5263  0.0527
 4616SOL    HW225311   4.455   2.201   4.381 -0.2408 -0.6633  0.9716
 4617SOL     OW25312   3.647   2.879   2.279  0.7043  0.0006  0.4051
 4617SOL    HW125313   3.646   2.784   2.296 -2.7273 -0.3004 -1.6467
 4617SOL    HW225314   3.556   2.898   2.259  0.6349  0.2467  0.9542
 4618SOL     OW25315   4.612   3.307  15.044 -0.2681 -0.6884 -0.2131
 4618SOL    HW125316   4.702   3.292  15.071 -0.6533 -0.2024  1.3642
 4618SOL    HW225317   4.578   3.219  15.058 -1.2677 -0.3805 -0.6793
 4619SOL     OW25318   0.564   0.882   3.101  0.0673  0.0168 -0.1807
 4619SOL    HW125319   0.471   0.892   3.081  0.1042  0.7179 -0.0325
 4619SOL    HW225320   0.584   0.789   3.106  2.6000  0.5943  0.4894
 4620SOL     OW25321   0.293   4.412   8.853 -0.0049  0.0358 -0.2713
 4620SOL    HW125322   0.238   4.473   8.901 -0.3340 -0.8664  0.4853
 4620SOL    HW225323   0.254   4.331   8.887 -0.2792  0.9559  1.5622
 4621SOL     OW25324   2.042   4.133   3.794 -0.6523  0.0760  0.2712
 4621SOL    HW125325   2.087   4.066   3.845  0.9435  0.9046 -0.0542
 4621SOL    HW225326   1.952   4.105   3.811 -0.8646 -0.5570 -1.9639
 4622SOL     OW25327   1.366   1.236  15.021 -0.4945  0.1835 -0.1395
 4622SOL    HW125328   1.426   1.302  15.057  0.2818 -0.8405  0.4431
 4622SOL    HW225329   1.403   1.198  14.942 -1.5736 -3.4536  1.0890
 4623SOL     OW25330   2.562   1.498   9.206  0.1667 -1.0561  0.1462
 4623SOL    HW125331   2.567   1.538   9.293 -1.7080  2.8141 -1.5215
 4623SOL    HW225332   2.647   1.455   9.209  0.4427 -0.4581  1.0389
 4624SOL     OW25333   3.521   1.085   6.481 -0.0044  0.4712  0.1716
 4624SOL    HW125334   3.580   1.161   6.475 -2.2740  2.3087  0.9251
 4624SOL    HW225335   3.557   1.019   6.422 -1.2063 -1.2051  1.3418
 4625SOL     OW25336   1.350   0.095   6.277 -0.0577  0.4054  0.2954
 4625SOL    HW125337   1.362   0.010   6.320  0.7069 -0.0979 -0.9073
 4625SOL    HW225338   1.413   0.150   6.321  0.6879 -0.2462  0.0405
 4626SOL     OW25339   2.497   1.935  11.890 -0.4645 -0.0471 -0.6019
 4626SOL    HW125340   2.410   1.924  11.929 -0.5275  1.3571 -0.3266
 4626SOL    HW225341   2.490   1.880  11.813 -1.2094 -0.9118  0.0899
 4627SOL     OW25342   0.417   1.117   2.138  0.1329 -0.0739  0.1071
 4627SOL    HW125343   0.376   1.189   2.090 -0.3016  0.1909  0.8765
 4627SOL    HW225344   0.495   1.164   2.166 -0.7186  1.3642  0.0688
 4628SOL     OW25345   3.298   1.652   7.713 -0.4180 -0.0626 -0.3179
 4628SOL    HW125346   3.368   1.593   7.744  0.8717  1.2676 -0.7041
 4628SOL    HW225347   3.254   1.687   7.791 -0.8776 -1.1427 -0.0871
 4629SOL     OW25348   1.700   0.949   7.754 -0.2766 -0.1272  0.5134
 4629SOL    HW125349   1.723   0.859   7.733  0.4453  0.2708 -0.4305
 4629SOL    HW225350   1.699   0.985   7.665  0.1949 -1.0151  0.1459
 4630SOL     OW25351   3.623   1.356  17.201  0.7756  0.3857  0.4387
 4630SOL    HW125352   3.574   1.380  17.122  0.1364 -0.9351  0.4328
 4630SOL    HW225353   3.556   1.311  17.253  0.7806  0.2576  0.3331
 4631SOL     OW25354   4.500   0.050   4.907  0.3187 -0.1752  0.2097
 4631SOL    HW125355   4.553   4.693   4.905 -1.5134 -1.4311  0.9905
 4631SOL    HW225356   4.562   0.123   4.899  0.2703 -0.1006  0.5121
 4632SOL     OW25357   2.639   3.765  10.612  0.2398  0.2027  0.0366
 4632SOL    HW125358   2.605   3.751  10.524 -0.0034 -3.0193  0.6442
 4632SOL    HW225359   2.586   3.838  10.644 -1.2628 -0.9185  0.1327
 4633SOL     OW25360   0.579   4.182   2.591 -0.3725  0.1161 -0.9392
 4633SOL    HW125361   0.503   4.173   2.532 -1.8384 -0.1553  0.9831
 4633SOL    HW225362   0.532   4.198   2.673 -2.9225 -0.0092 -2.3584
 4634SOL     OW25363   2.943   3.798   8.681  0.5948  0.0807 -0.2299
 4634SOL    HW125364   3.026   3.807   8.728  0.0494  0.2755  0.6954
 4634SOL    HW225365   2.872   3.815   8.743  1.7571 -0.1876  1.1810
 4635SOL     OW25366   1.038   4.270   8.445 -0.4150 -0.0890 -0.4435
 4635SOL    HW125367   1.080   4.262   8.360 -0.0468 -3.1101  0.0107
 4635SOL    HW225368   0.989   4.188   8.459  1.7079 -1.3265 -0.3358
 4636SOL     OW25369   1.545   1.955   6.917  0.2715  0.1687  0.1726
 4636SOL    HW125370   1.511   1.895   6.852 -0.5057  0.3050  0.4561
 4636SOL    HW225371   1.476   2.020   6.924 -1.3344 -1.7242  1.6946
 4637SOL     OW25372   4.655   2.337   5.382  0.0021 -0.4824  0.0706
 4637SOL    HW125373   4.669   2.340   5.477  2.0560  0.8112 -0.2907
 4637SOL    HW225374   4.654   2.247   5.351  0.0523 -0.7896  0.9527
 4638SOL     OW25375   4.307   0.059   5.657  0.0667 -0.0354 -0.8593
 4638SOL    HW125376   4.365   4.707   5.638  0.1727 -0.7632  2.2977
 4638SOL    HW225377   4.359   0.100   5.725 -0.7030  0.0376 -0.3057
 4639SOL     OW25378   1.681   3.486   7.542 -0.0528  0.0600  0.2479
 4639SOL    HW125379   1.650   3.565   7.586  1.7563  0.7522  0.2803
 4639SOL    HW225380   1.773   3.486   7.569 -0.3592  0.2480  1.2971
 4640SOL     OW25381   4.557   2.715   2.202 -0.7247  0.3244 -0.3161
 4640SOL    HW125382   4.633   2.728   2.259 -0.6287 -0.8139 -0.1816
 4640SOL    HW225383   4.569   2.790   2.143  0.9041  0.1002 -0.2908
 4641SOL     OW25384   4.124   3.766   4.825 -0.0076  1.1580  0.1804
 4641SOL    HW125385   4.043   3.801   4.787 -1.8619 -1.9153  1.2529
 4641SOL    HW225386   4.171   3.741   4.746 -0.5909  0.4417  0.0531
 4642SOL     OW25387   3.788   1.414   7.549  0.3846 -0.8449  0.6160
 4642SOL    HW125388   3.835   1.451   7.624  0.5796  1.0372 -0.4315
 4642SOL    HW225389   3.860   1.405   7.487  0.6613 -2.1940  1.1327
 4643SOL     OW25390   3.694   1.943  16.331 -0.2120 -0.0775 -0.2756
 4643SOL    HW125391   3.747   1.921  16.255 -1.9442 -2.9740 -0.6515
 4643SOL    HW225392   3.615   1.986  16.298 -1.5634 -0.6121  2.2914
 4644SOL     OW25393   4.503   3.669   9.065 -0.0959 -0.1559 -0.5298
 4644SOL    HW125394   4.540   3.583   9.046  0.0838 -0.8096  2.8413
 4644SOL    HW225395   4.418   3.645   9.100  0.3481  2.4139  2.2804
 4645SOL     OW25396   2.953   0.171   9.357  0.0783  0.3456  0.1915
 4645SOL    HW125397   2.975   0.090   9.402 -1.4946 -0.8550 -1.2080
 4645SOL    HW225398   2.910   0.223   9.425 -0.5953  1.1339 -0.8372
 4646SOL     OW25399   0.322   1.652  13.248  0.2446  0.1988 -0.4361
 4646SOL    HW125400   0.385   1.582  13.264 -0.8012 -1.2350 -2.5678
 4646SOL    HW225401   0.239   1.617  13.282  2.2866 -2.6153  1.7043
 4647SOL     OW25402   4.318   0.341   2.924  0.0815 -0.4993  0.4309
 4647SOL    HW125403   4.333   0.424   2.969  0.7444 -0.5921  0.3843
 4647SOL    HW225404   4.225   0.329   2.902 -0.0981  2.1903 -0.2320
 4648SOL     OW25405   2.407   3.904   2.830 -0.2103 -0.3939 -0.3549
 4648SOL    HW125406   2.425   3.863   2.746 -2.7406  1.1176 -1.6588
 4648SOL    HW225407   2.381   3.821   2.871 -0.1599  1.6632  3.8961
 4649SOL     OW25408   2.888   2.545   6.092 -0.4931 -0.3871  0.1182
 4649SOL    HW125409   2.795   2.548   6.070 -0.3477 -1.6859 -0.6432
 4649SOL    HW225410   2.891   2.586   6.179 -1.5526  0.6595 -0.3525
 4650SOL     OW25411   0.227   0.298   5.332  0.4067  0.2084  0.5647
 4650SOL    HW125412   0.179   0.265   5.407 -2.0792  0.7512 -0.7979
 4650SOL    HW225413   0.314   0.259   5.344 -0.3074 -1.0833  1.4562
 4651SOL     OW25414   3.215   2.335   4.388 -0.0464 -0.0893 -0.2334
 4651SOL    HW125415   3.192   2.246   4.416  0.8059 -0.3743 -0.4567
 4651SOL    HW225416   3.275   2.358   4.458  0.4775 -1.9012 -0.0910
 4652SOL     OW25417   1.384   3.806  12.313 -0.9269 -0.2648 -0.0931
 4652SOL    HW125418   1.371   3.837  12.402 -0.8429 -2.0987  0.5574
 4652SOL    HW225419   1.292   3.802  12.287 -0.7097  0.5418 -0.9798
 4653SOL     OW25420   4.652   3.552   3.554 -0.0795 -0.5016 -0.0442
 4653SOL    HW125421   4.617   3.580   3.638 -1.0415 -0.8002 -0.3449
 4653SOL    HW225422   4.591   3.589   3.490 -0.6976  0.9216  1.3638
 4654SOL     OW25423   4.185   4.699   5.400 -0.0431 -0.0121 -0.4546
 4654SOL    HW125424   4.215   0.011   5.484  0.5841  1.5799 -1.3365
 4654SOL    HW225425   4.235   4.618   5.389 -0.1948 -0.0880 -0.5853
 4655SOL     OW25426   1.119   0.079   9.194  0.2171 -0.5442 -0.0835
 4655SOL    HW125427   1.116   4.706   9.185 -1.1707 -0.4879 -0.2934
 4655SOL    HW225428   1.202   0.098   9.237 -0.4809 -1.2093  1.5837
 4656SOL     OW25429   2.981   2.293   5.206 -0.5511  0.1434 -0.4824
 4656SOL    HW125430   3.004   2.273   5.297 -2.2063  1.3005  0.1738
 4656SOL    HW225431   2.964   2.209   5.162  0.6989  0.9411 -2.4591
 4657SOL     OW25432   2.947   1.819   3.480  0.3519 -0.0770  0.1481
 4657SOL    HW125433   2.902   1.755   3.426  0.8055  0.6698 -1.0998
 4657SOL    HW225434   2.873   1.870   3.514  0.4563  1.4937 -1.9847
 4658SOL     OW25435   2.875   2.822   5.265  0.2511 -0.0386 -0.1872
 4658SOL    HW125436   2.895   2.893   5.326 -1.2375  1.7654 -1.8062
 4658SOL    HW225437   2.855   2.750   5.324 -2.2303 -0.3975 -1.4853
 4659SOL     OW25438   2.104   0.759  15.547 -0.0838  0.2200  0.0737
 4659SOL    HW125439   2.123   0.765  15.640 -0.5616 -0.0946  0.1963
 4659SOL    HW225440   2.060   0.844  15.538 -1.6130 -0.4708  0.9587
 4660SOL     OW25441   1.353   0.524   8.523  0.2545 -0.0535  0.0101
 4660SOL    HW125442   1.365   0.585   8.596 -1.7411 -1.6524  1.6621
 4660SOL    HW225443   1.319   0.445   8.565  0.1900 -0.1040 -0.1349
 4661SOL     OW25444   1.137   4.350  15.621 -0.3476 -0.1003 -0.2242
 4661SOL    HW125445   1.137   4.380  15.530  2.5651  1.2177  0.2353
 4661SOL    HW225446   1.223   4.308  15.623 -0.1587  0.3800  2.3592
 4662SOL     OW25447   0.578   2.269   1.981  0.9925 -0.2749  0.8877
 4662SOL    HW125448   0.489   2.303   1.980  1.0779 -0.0696  0.2471
 4662SOL    HW225449   0.566   2.214   2.059 -0.6271 -1.4835 -0.2122
 4663SOL     OW25450   3.077   3.605   5.573 -0.1711 -0.3316 -0.7139
 4663SOL    HW125451   3.164   3.622   5.609 -1.2660  0.3559  1.6124
 4663SOL    HW225452   3.103   3.578   5.485  2.2031  1.6577 -0.6159
 4664SOL     OW25453   1.817   3.391   4.463  0.0206 -0.1630 -0.1126
 4664SOL    HW125454   1.851   3.395   4.552 -1.5355  0.1375  0.4650
 4664SOL    HW225455   1.743   3.331   4.479 -0.5036  0.4002 -0.4248
 4665SOL     OW25456   3.466   3.912   2.748 -0.4339  0.1347 -0.4469
 4665SOL    HW125457   3.555   3.925   2.781 -0.8659  4.4697 -1.0216
 4665SOL    HW225458   3.445   3.834   2.799  0.1054 -1.2104 -2.2668
 4666SOL     OW25459   2.670   2.303   8.842  0.3090 -0.4399 -0.2496
 4666SOL    HW125460   2.752   2.254   8.849  1.7468  1.9535 -0.5162
 4666SOL    HW225461   2.688   2.356   8.765  2.0376  2.0194  1.8468
 4667SOL     OW25462   0.028   3.335   6.667  0.2100 -0.6916 -0.6231
 4667SOL    HW125463   4.722   3.270   6.732 -0.8362 -0.7082 -1.1049
 4667SOL    HW225464   0.037   3.408   6.728 -0.6764  0.8641 -2.3688
 4668SOL     OW25465   4.632   1.137   6.295 -0.9075 -0.6664  0.6201
 4668SOL    HW125466   4.633   1.041   6.288  1.1878 -0.6598  0.9450
 4668SOL    HW225467   4.704   1.160   6.354 -0.4728 -0.8731  0.1724
 4669SOL     OW25468   3.723   2.100   5.795 -0.2923 -0.1841  0.3606
 4669SOL    HW125469   3.670   2.094   5.874  0.2825 -0.2687  0.7441
 4669SOL    HW225470   3.652   2.083   5.733 -0.9693  0.4851  0.9579
 4670SOL     OW25471   4.161   4.086  14.493  0.0394  0.1679  0.0036
 4670SOL    HW125472   4.137   4.000  14.458  0.6427 -0.0518  0.1313
 4670SOL    HW225473   4.254   4.074  14.513  0.2671 -1.9564 -2.3640
 4671SOL     OW25474   4.454   4.354   9.204 -0.3209  0.0821 -0.1325
 4671SOL    HW125475   4.447   4.387   9.114  0.6012 -0.3129 -0.3580
 4671SOL    HW225476   4.361   4.340   9.222 -0.2635  0.7553  0.6948
 4672SOL     OW25477   1.893   4.309   9.320  0.2181 -0.4534 -0.6459
 4672SOL    HW125478   1.813   4.307   9.373 -0.4287  0.7286 -1.5666
 4672SOL    HW225479   1.891   4.404   9.310 -1.3970 -0.3757  0.3458
 4673SOL     OW25480   2.201   1.579   7.533 -0.2348 -0.2927 -0.2192
 4673SOL    HW125481   2.281   1.538   7.567 -1.1795 -1.3137  0.8113
 4673SOL    HW225482   2.138   1.570   7.604  0.3503 -2.3373  0.0515
 4674SOL     OW25483   0.280   2.474   5.321  0.1272 -1.0378  0.1478
 4674SOL    HW125484   0.280   2.498   5.413  0.4066 -3.0591  0.6719
 4674SOL    HW225485   0.200   2.424   5.308 -1.2388  1.3405 -0.6151
 4675SOL     OW25486   0.878   0.817   6.891  0.4072 -0.4205 -0.3282
 4675SOL    HW125487   0.922   0.833   6.974 -1.3252  2.2295  0.0708
 4675SOL    HW225488   0.953   0.840   6.837 -0.6029  0.1944 -1.4721
 4676SOL     OW25489   0.576   3.553  12.529  0.2563 -0.2867  0.2237
 4676SOL    HW125490   0.506   3.533  12.467 -0.6006  0.9528  0.7798
 4676SOL    HW225491   0.645   3.512  12.477  1.0097 -0.2838  1.2095
 4677SOL     OW25492   2.080   1.430  11.093 -0.2337 -0.9863  0.0439
 4677SOL    HW125493   2.018   1.411  11.022 -0.0113 -2.3040  0.1911
 4677SOL    HW225494   2.156   1.451  11.038  2.5608 -2.7862  3.2152
 4678SOL     OW25495   1.007   0.132  11.909  0.4732 -0.3427  0.5573
 4678SOL    HW125496   0.931   0.119  11.965 -1.3019  0.8304 -1.5596
 4678SOL    HW225497   1.071   0.168  11.971  0.3130 -2.9700  2.2256
 4679SOL     OW25498   4.375   4.406   1.395  0.7009  0.1918 -0.7418
 4679SOL    HW125499   4.363   4.372   1.306  4.0376  0.1413 -1.1669
 4679SOL    HW225500   4.414   4.334   1.445 -1.1740  0.4684  1.1137
 4680SOL     OW25501   3.935   1.687   2.870  0.1703 -0.0712  0.1385
 4680SOL    HW125502   3.908   1.705   2.960 -0.8192 -2.3684  0.2950
 4680SOL    HW225503   3.851   1.698   2.826  1.1762  2.8399 -1.0931
 4681SOL     OW25504   4.527   0.382   9.372 -0.0678  0.4730 -0.0252
 4681SOL    HW125505   4.490   0.346   9.453  1.7625 -0.8372  0.2455
 4681SOL    HW225506   4.586   0.450   9.405  0.5071  0.1118 -0.3050
 4682SOL     OW25507   4.346   1.768   9.771  0.0473 -0.2988 -0.2009
 4682SOL    HW125508   4.285   1.806   9.834 -0.1174 -0.4856 -0.2483
 4682SOL    HW225509   4.344   1.832   9.700 -0.7164 -0.3293 -0.2012
 4683SOL     OW25510   0.108   1.378   6.824 -0.2235 -0.4082  0.0265
 4683SOL    HW125511   0.067   1.464   6.815  0.9986  0.1255 -0.3685
 4683SOL    HW225512   0.032   1.325   6.799 -1.9584  2.8007 -1.5463
 4684SOL     OW25513   1.126   4.326  16.862  0.3607 -0.2278 -0.4778
 4684SOL    HW125514   1.112   4.328  16.957 -0.8137  0.7271 -0.6615
 4684SOL    HW225515   1.177   4.407  16.853 -3.6371  2.3325 -0.6096
 4685SOL     OW25516   2.832   4.102  11.824  0.5053 -0.3937  0.1918
 4685SOL    HW125517   2.799   4.113  11.735  0.8665 -0.1662  0.0846
 4685SOL    HW225518   2.764   4.139  11.879  1.7114  1.6182  0.3254
 4686SOL     OW25519   1.213   0.096   3.123  0.1741  1.0337  0.2226
 4686SOL    HW125520   1.224   0.024   3.185  0.3755  1.1031  0.2703
 4686SOL    HW225521   1.213   0.045   3.043 -1.9312  0.1266  0.8023
 4687SOL     OW25522   0.849   2.275  12.121  0.1598  0.1003  0.0992
 4687SOL    HW125523   0.797   2.233  12.190  0.6593 -0.1985  0.2939
 4687SOL    HW225524   0.933   2.269  12.165  0.4304 -0.2044 -0.4723
 4688SOL     OW25525   0.628   1.924  13.455 -0.2063  0.2341  0.3366
 4688SOL    HW125526   0.571   2.001  13.452  0.5314  0.8077  1.0608
 4688SOL    HW225527   0.579   1.858  13.504  1.7348 -0.1174  1.8006
 4689SOL     OW25528   1.336   3.416   6.182 -0.1940 -0.1026 -0.1751
 4689SOL    HW125529   1.413   3.453   6.139  0.6647 -0.0256  1.4330
 4689SOL    HW225530   1.379   3.365   6.251 -1.9178  1.7293  2.2248
 4690SOL     OW25531   2.861   4.610   4.306 -0.7748  0.1141 -0.5949
 4690SOL    HW125532   2.940   4.585   4.257 -0.1168  0.7618  0.1352
 4690SOL    HW225533   2.822   4.523   4.314  0.9766 -0.6582 -0.3072
 4691SOL     OW25534   1.812   0.758   2.390  0.3442 -0.2713  0.4413
 4691SOL    HW125535   1.873   0.831   2.385  0.5536 -0.4703  0.1326
 4691SOL    HW225536   1.742   0.803   2.343 -0.8188 -2.1288  0.4214
 4692SOL     OW25537   4.204   1.475   2.214 -0.3044  0.0719 -0.1248
 4692SOL    HW125538   4.117   1.435   2.211  0.3702 -1.4551  0.8103
 4692SOL    HW225539   4.227   1.487   2.122 -0.7041 -0.5116 -0.2981
 4693SOL     OW25540   0.001   2.998  15.774  0.1140  0.4941 -0.3317
 4693SOL    HW125541   0.045   3.063  15.719  2.7663 -0.8395  0.2029
 4693SOL    HW225542   0.048   2.919  15.746  0.2096 -0.2538  1.9121
 4694SOL     OW25543   3.945   3.139  16.144 -0.2400 -0.4796  0.0545
 4694SOL    HW125544   3.958   3.111  16.234  0.8824  3.5609  1.1330
 4694SOL    HW225545   3.911   3.228  16.148 -0.1575 -0.3898 -1.1279
 4695SOL     OW25546   3.644   3.368   6.685 -0.1088 -0.4027  0.3491
 4695SOL    HW125547   3.611   3.286   6.648  1.2188 -1.0746  0.6500
 4695SOL    HW225548   3.618   3.354   6.777 -5.2038  2.1924 -0.6986
 4696SOL     OW25549   0.036   2.255   1.245 -0.1397 -0.0980  0.1270
 4696SOL    HW125550   4.691   2.322   1.258  1.0902  0.7277  2.1708
 4696SOL    HW225551   4.717   2.195   1.182 -0.8126 -0.1562  0.6168
 4697SOL     OW25552   4.544   3.841  10.107  0.4022 -0.0212 -0.0513
 4697SOL    HW125553   4.581   3.761  10.071  0.4398 -0.7813  1.6735
 4697SOL    HW225554   4.619   3.901  10.103  1.1366 -0.7758  2.1750
 4698SOL     OW25555   0.029   3.717   6.472 -0.3892  0.5242  0.5878
 4698SOL    HW125556   0.098   3.760   6.522  1.8928 -1.1307 -1.1687
 4698SOL    HW225557   0.003   3.652   6.537  0.8945 -0.2494  0.3092
 4699SOL     OW25558   2.069   2.353   3.608 -0.0986 -0.0151 -0.0487
 4699SOL    HW125559   2.011   2.282   3.634  0.6057 -1.1241 -1.4819
 4699SOL    HW225560   2.154   2.331   3.644  0.2904 -0.7073 -1.4133
 4700SOL     OW25561   0.617   2.081  15.150 -0.2258 -0.2012  0.0366
 4700SOL    HW125562   0.682   2.013  15.168 -1.2450 -1.1883 -0.0150
 4700SOL    HW225563   0.586   2.058  15.062  0.0766  1.4839 -0.5171
 4701SOL     OW25564   2.424   3.894   7.764 -0.5407 -0.2127 -0.1596
 4701SOL    HW125565   2.371   3.827   7.806  0.0066 -1.4889 -1.5419
 4701SOL    HW225566   2.505   3.850   7.739  0.0062  1.2130 -0.9207
 4702SOL     OW25567   3.789   0.380  10.223  0.1334  0.0846  0.3526
 4702SOL    HW125568   3.865   0.325  10.238  1.1508  1.2057 -0.6509
 4702SOL    HW225569   3.742   0.373  10.306 -0.9221 -0.5684 -0.3028
 4703SOL     OW25570   1.840   0.274   1.437 -0.4092 -0.1534  0.0435
 4703SOL    HW125571   1.876   0.337   1.375 -0.0785  1.6483  2.0467
 4703SOL    HW225572   1.876   0.190   1.409 -0.8972 -0.1675 -0.5395
 4704SOL     OW25573   2.328   4.450   4.403 -0.4845  0.5036 -0.1514
 4704SOL    HW125574   2.343   4.413   4.490 -0.5084  1.0675  0.0973
 4704SOL    HW225575   2.288   4.533   4.428 -2.1984 -0.3304 -0.1926
 4705SOL     OW25576   1.360   1.942  10.308  0.2703  0.1853 -0.1587
 4705SOL    HW125577   1.386   2.034  10.316 -0.1865  0.3982 -1.2137
 4705SOL    HW225578   1.376   1.916  10.399  0.5615  3.1215  0.6342
 4706SOL     OW25579   4.342   2.652   5.638  0.3518 -0.1173 -0.4504
 4706SOL    HW125580   4.361   2.706   5.561  0.6266 -0.8423 -0.8981
 4706SOL    HW225581   4.254   2.681   5.661  0.1618 -0.0260 -1.2703
 4707SOL     OW25582   0.969   4.153  15.983 -0.2051  0.2674  0.5920
 4707SOL    HW125583   0.892   4.153  15.926  1.6402 -1.3999 -1.9053
 4707SOL    HW225584   0.936   4.092  16.050 -0.6408  0.7512  0.8214
 4708SOL     OW25585   4.284   1.868  16.105  0.7332  0.4537  0.5620
 4708SOL    HW125586   4.225   1.848  16.178 -1.4002  1.7831 -0.7998
 4708SOL    HW225587   4.307   1.784  16.064 -1.0872 -0.0639  0.5639
 4709SOL     OW25588   1.281   0.573   3.988 -0.2852  0.4694  0.3208
 4709SOL    HW125589   1.220   0.573   4.062 -2.0492  0.8509 -1.1146
 4709SOL    HW225590   1.301   0.487   3.950 -0.4573  0.3047  0.6065
 4710SOL     OW25591   3.840   4.720  13.046  0.7062  0.0767 -0.7401
 4710SOL    HW125592   3.840   0.041  12.961  2.6777 -0.2020 -0.8777
 4710SOL    HW225593   3.932   0.003  13.069  0.1805  2.4278  0.8526
 4711SOL     OW25594   3.158   4.514   6.096  0.2936 -0.6103  0.2617
 4711SOL    HW125595   3.100   4.498   6.170  1.2494  1.5154  1.4888
 4711SOL    HW225596   3.206   4.438   6.063 -0.5656 -0.0278 -2.2945
 4712SOL     OW25597   0.624   2.405   5.662  0.4108 -0.0113 -0.3011
 4712SOL    HW125598   0.629   2.400   5.757 -0.4299  0.1823 -0.2454
 4712SOL    HW225599   0.711   2.425   5.629  0.8952 -1.3011  0.1927
 4713SOL     OW25600   4.686   0.643   1.895 -0.0549 -0.5638 -0.7093
 4713SOL    HW125601   4.633   0.663   1.818 -0.3997  0.8985 -0.0924
 4713SOL    HW225602   0.046   0.687   1.873  0.4711 -0.8598  0.6475
 4714SOL     OW25603   3.335   0.119  11.253  0.5520  0.7814 -0.0454
 4714SOL    HW125604   3.369   0.206  11.229  0.4184  0.9392  0.3309
 4714SOL    HW225605   3.241   0.141  11.252  0.5717  0.8998  0.6834
 4715SOL     OW25606   2.461   4.427   2.855  0.0762 -0.1090  0.5604
 4715SOL    HW125607   2.526   4.460   2.793  0.2040  0.6203  1.0894
 4715SOL    HW225608   2.390   4.490   2.846  0.0178 -0.3526 -0.7965
 4716SOL     OW25609   3.962   4.658  13.496  0.4563 -0.3142  0.1589
 4716SOL    HW125610   4.006   4.710  13.430 -1.0350  0.5329 -0.1819
 4716SOL    HW225611   3.881   4.707  13.513  0.1519 -0.7088 -0.1413
 4717SOL     OW25612   4.345   4.088  12.668  0.2168 -0.0816 -0.6931
 4717SOL    HW125613   4.364   3.995  12.662  1.0741 -0.0705  1.7315
 4717SOL    HW225614   4.373   4.121  12.582 -1.7931 -2.0321 -2.0880
 4718SOL     OW25615   1.597   0.843   4.290 -0.1628  0.6154  0.1803
 4718SOL    HW125616   1.676   0.835   4.237 -0.6193 -1.0442 -0.2483
 4718SOL    HW225617   1.639   0.879   4.368 -0.7875  1.9309 -0.0966
 4719SOL     OW25618   2.603   3.208   3.880 -0.1764  0.1387  0.0569
 4719SOL    HW125619   2.695   3.188   3.863 -0.5136 -1.9450  0.7069
 4719SOL    HW225620   2.588   3.301   3.859 -0.0351  0.2117  0.2811
 4720SOL     OW25621   4.662   1.124   9.505 -0.4376  0.2464  0.5596
 4720SOL    HW125622   4.673   1.215   9.477 -0.6226  0.9020  2.6645
 4720SOL    HW225623   4.654   1.120   9.600  0.8144  1.0948  0.7041
 4721SOL     OW25624   1.658   3.101   3.430 -0.0927 -0.6880  0.4017
 4721SOL    HW125625   1.684   3.014   3.458 -0.9706 -0.3666  2.2137
 4721SOL    HW225626   1.579   3.086   3.378 -0.0908  1.3765 -0.2136
 4722SOL     OW25627   4.281   4.599  12.132 -0.2336 -0.6181  0.1791
 4722SOL    HW125628   4.208   4.549  12.096 -1.5129 -0.1600  2.1685
 4722SOL    HW225629   4.356   4.539  12.129  0.0976 -0.3469  3.0953
 4723SOL     OW25630   0.783   2.057   6.339 -0.0135  0.7150 -0.0697
 4723SOL    HW125631   0.778   2.060   6.434  2.4188  1.0173  0.0400
 4723SOL    HW225632   0.712   1.999   6.311 -1.7791  2.0727  1.5902
 4724SOL     OW25633   0.265   2.709  12.348 -0.2845 -0.2569 -0.2983
 4724SOL    HW125634   0.187   2.685  12.399 -0.3268  1.6742  0.5460
 4724SOL    HW225635   0.334   2.676  12.404 -0.7781 -0.2163  0.3356
 4725SOL     OW25636   1.006   0.443  10.483  0.1846 -0.6089 -0.0741
 4725SOL    HW125637   1.007   0.447  10.388 -0.3113 -0.5084 -0.0726
 4725SOL    HW225638   1.053   0.363  10.504  1.5625 -0.3417 -2.1404
 4726SOL     OW25639   2.877   4.378   5.143  0.0733  0.1356  0.1021
 4726SOL    HW125640   2.817   4.397   5.070 -0.1396 -1.3176 -0.0918
 4726SOL    HW225641   2.887   4.283   5.141 -1.9771 -0.0751 -0.6656
 4727SOL     OW25642   3.130   1.266  13.360  0.1692  0.1984 -0.2136
 4727SOL    HW125643   3.178   1.348  13.371 -0.5543  0.9971 -3.0676
 4727SOL    HW225644   3.183   1.213  13.420 -1.3961 -2.0213 -0.7764
 4728SOL     OW25645   0.763   4.482   9.124 -0.3515 -0.1012 -0.0822
 4728SOL    HW125646   0.851   4.477   9.162 -1.9174 -1.4315  3.3501
 4728SOL    HW225647   0.760   4.411   9.060 -0.0412  0.0690 -0.2869
 4729SOL     OW25648   3.685   1.810   3.172  0.3146 -0.0840  0.2260
 4729SOL    HW125649   3.622   1.869   3.214  0.1740  0.1402 -0.2935
 4729SOL    HW225650   3.765   1.859   3.188 -0.7801  1.2174  1.7790
 4730SOL     OW25651   2.349   0.688   8.560  0.4058 -0.0162  0.2170
 4730SOL    HW125652   2.415   0.747   8.524 -0.9920  0.0587 -2.2233
 4730SOL    HW225653   2.303   0.747   8.620  1.8875  1.3112  0.0517
 4731SOL     OW25654   0.196   0.571   5.592 -0.2619  0.2673 -0.2327
 4731SOL    HW125655   0.155   0.595   5.510 -1.6497  1.0369  0.6915
 4731SOL    HW225656   0.161   0.484   5.609 -1.2029  0.8327  0.7508
 4732SOL     OW25657   3.339   1.789   3.288 -0.2706 -0.5579  0.1172
 4732SOL    HW125658   3.297   1.836   3.216  0.6599 -0.4807 -0.3761
 4732SOL    HW225659   3.262   1.740   3.317 -1.7192  1.8582  0.2917
 4733SOL     OW25660   1.661   4.470   7.617  0.1938  0.1057  0.2319
 4733SOL    HW125661   1.658   4.564   7.601 -0.8640  0.0593  0.1081
 4733SOL    HW225662   1.588   4.463   7.679  1.3330 -0.2857  1.5056
 4734SOL     OW25663   2.940   3.846   5.554 -0.1765  0.0201  0.3356
 4734SOL    HW125664   3.000   3.773   5.567 -0.1499 -0.3658 -1.9287
 4734SOL    HW225665   2.874   3.802   5.501 -2.0258  0.7796  1.9862
 4735SOL     OW25666   1.728   3.537   2.571  0.2416 -0.1741 -0.4381
 4735SOL    HW125667   1.711   3.511   2.662 -0.1047 -0.1759 -0.5043
 4735SOL    HW225668   1.818   3.503   2.564 -0.2213 -1.6528  0.6737
 4736SOL     OW25669   4.271   3.028   8.176 -0.1160 -0.2881 -0.2222
 4736SOL    HW125670   4.305   2.946   8.212  0.8543 -0.0063 -0.5101
 4736SOL    HW225671   4.238   2.999   8.091 -0.5421 -1.4881  0.3408
 4737SOL     OW25672   0.127   0.014   9.278 -0.7702 -0.3923  0.6501
 4737SOL    HW125673   0.160   0.008   9.189  1.2443  1.3322  1.2748
 4737SOL    HW225674   0.106   4.643   9.286  1.0372 -0.8232  0.2598
 4738SOL     OW25675   1.102   4.542   7.740  0.5008  0.4414 -0.6972
 4738SOL    HW125676   1.077   4.462   7.787  0.5127 -0.1882 -1.7621
 4738SOL    HW225677   1.061   4.607   7.797  1.6495  1.0543 -0.5778
 4739SOL     OW25678   3.022   3.996   9.448 -0.0580  0.4495 -0.3673
 4739SOL    HW125679   3.019   3.902   9.465 -0.0117  0.4382 -0.4227
 4739SOL    HW225680   3.086   3.993   9.377 -0.8906 -0.5925 -1.0813
 4740SOL     OW25681   2.410   3.343   1.192 -0.0016 -0.1546 -0.7391
 4740SOL    HW125682   2.425   3.432   1.223 -0.2064 -1.0416  1.8720
 4740SOL    HW225683   2.430   3.345   1.098 -0.3349 -1.1023 -0.8310
 4741SOL     OW25684   2.153   3.548   3.451 -0.0870 -0.2936 -0.2370
 4741SOL    HW125685   2.149   3.471   3.394 -2.4818  0.3057 -0.8716
 4741SOL    HW225686   2.164   3.506   3.536  0.2135 -1.0129 -0.6349
 4742SOL     OW25687   2.226   4.084   2.245 -0.0337 -0.1835 -0.0420
 4742SOL    HW125688   2.155   4.148   2.249 -1.1556 -1.4115 -0.8215
 4742SOL    HW225689   2.208   4.033   2.324 -1.4085  1.8937  0.9788
 4743SOL     OW25690   2.829   3.755   2.511 -0.5398 -0.0214 -0.0441
 4743SOL    HW125691   2.898   3.697   2.542 -0.9075  1.4168  3.3954
 4743SOL    HW225692   2.835   3.832   2.567  1.2580  0.0857 -0.3949
 4744SOL     OW25693   0.728   2.437   3.986 -0.1992 -0.3409 -0.6664
 4744SOL    HW125694   0.716   2.430   3.891 -1.7020 -0.4408 -0.4645
 4744SOL    HW225695   0.659   2.498   4.011 -1.7465 -2.4661  0.2768
 4745SOL     OW25696   3.668   0.647  16.019 -0.5863  0.4120  0.6636
 4745SOL    HW125697   3.592   0.619  16.070 -0.7169 -0.7455 -0.1556
 4745SOL    HW225698   3.678   0.569  15.963  1.4731  1.0886  0.0775
 4746SOL     OW25699   1.287   0.628   7.398  0.3099  0.3183 -0.0868
 4746SOL    HW125700   1.377   0.653   7.375  2.1489 -2.4431  4.2121
 4746SOL    HW225701   1.252   0.714   7.421  1.7215  1.0114 -0.5425
 4747SOL     OW25702   1.352   4.451   1.684 -0.4192  0.2377  0.0668
 4747SOL    HW125703   1.313   4.538   1.683 -1.1293 -0.0877 -0.6099
 4747SOL    HW225704   1.382   4.457   1.593  2.1021  0.7371  0.9204
 4748SOL     OW25705   1.701   3.160  15.423 -0.2922  0.8208 -0.1108
 4748SOL    HW125706   1.793   3.178  15.443  0.1284 -0.9243 -0.4537
 4748SOL    HW225707   1.660   3.237  15.463  0.7094  2.6458 -2.5705
 4749SOL     OW25708   4.609   0.326   3.204  0.1344  0.0002 -0.3317
 4749SOL    HW125709   4.695   0.327   3.163 -0.3810 -1.0199 -1.4368
 4749SOL    HW225710   4.556   0.316   3.124 -1.3994  0.9404  0.5603
 4750SOL     OW25711   1.573   3.776   7.399  0.6023  0.1533 -0.4975
 4750SOL    HW125712   1.523   3.853   7.426 -0.0323 -0.1037 -0.9430
 4750SOL    HW225713   1.589   3.728   7.480 -1.3787  0.3510  0.0219
 4751SOL     OW25714   4.553   3.803   9.289  0.4657  0.2840 -0.1477
 4751SOL    HW125715   4.536   3.770   9.200 -2.7835  2.4392 -0.3229
 4751SOL    HW225716   4.645   3.783   9.305  0.6381 -1.2324 -2.9541
 4752SOL     OW25717   4.271   2.558  10.184  0.1896 -0.1310 -0.8633
 4752SOL    HW125718   4.300   2.605  10.105  0.9639  0.7699 -0.0373
 4752SOL    HW225719   4.317   2.475  10.175  0.4721  0.0361 -0.9599
 4753SOL     OW25720   1.247   4.088   4.164 -0.6841 -0.2872 -0.2817
 4753SOL    HW125721   1.222   4.173   4.127 -1.0420  0.5702  1.9344
 4753SOL    HW225722   1.324   4.073   4.109 -0.2893  0.0170  0.1785
 4754SOL     OW25723   0.506   2.015   0.345 -0.0013 -0.1349  0.1115
 4754SOL    HW125724   0.472   2.070   0.415 -0.8731  1.4941 -1.5762
 4754SOL    HW225725   0.600   2.032   0.355 -0.3623  1.3142  0.9945
 4755SOL     OW25726   0.493   0.802   5.087  0.3558  0.5908  0.0062
 4755SOL    HW125727   0.579   0.814   5.047  0.0013 -1.2277 -1.2885
 4755SOL    HW225728   0.482   0.877   5.145 -1.9321  1.2810 -1.2983
 4756SOL     OW25729   3.136   3.571   1.677  0.1945  0.1825 -0.3878
 4756SOL    HW125730   3.214   3.621   1.653 -0.2269  0.6622 -0.7502
 4756SOL    HW225731   3.142   3.573   1.772  0.4160  1.8956 -0.4374
 4757SOL     OW25732   2.123   1.795   7.788  0.4622 -0.0723  0.0880
 4757SOL    HW125733   2.078   1.748   7.859  0.6861 -0.5500 -0.0806
 4757SOL    HW225734   2.048   1.830   7.741  1.4035  2.2107  0.2913
 4758SOL     OW25735   4.623   2.884   8.430  0.1169 -0.4368  0.2188
 4758SOL    HW125736   4.627   2.923   8.517  0.9813 -2.4202  1.0756
 4758SOL    HW225737   4.711   2.847   8.419 -0.4316 -2.0338  1.2664
 4759SOL     OW25738   3.098   3.784   6.061  0.4510 -0.1706 -0.8869
 4759SOL    HW125739   3.051   3.853   6.109  1.9260 -0.8302  1.4608
 4759SOL    HW225740   3.088   3.710   6.121  2.6067  1.4027  1.4370
 4760SOL     OW25741   1.283   3.148  11.925 -0.3470  0.1200  0.2250
 4760SOL    HW125742   1.197   3.182  11.950 -0.4143  0.6004 -0.6361
 4760SOL    HW225743   1.331   3.199  11.989 -1.3154  2.1525 -0.6697
 4761SOL     OW25744   0.544   3.962  14.886  0.0672  0.2238 -0.7088
 4761SOL    HW125745   0.574   3.930  14.801  1.3188  1.0921 -0.6048
 4761SOL    HW225746   0.479   4.021  14.848  0.2944  0.2290 -1.0889
 4762SOL     OW25747   0.832   1.905   8.738  0.5264  0.6568  0.5370
 4762SOL    HW125748   0.778   1.984   8.749 -2.2745 -1.6044  2.8137
 4762SOL    HW225749   0.909   1.919   8.793  0.9945  1.5635 -0.3398
 4763SOL     OW25750   0.001   2.278  15.888  0.2196  0.5059  0.2580
 4763SOL    HW125751   0.068   2.346  15.891  0.6547  0.0719  0.2329
 4763SOL    HW225752   4.650   2.321  15.934  0.5890  0.1516  1.1753
 4764SOL     OW25753   0.650   2.747   4.567  0.1849 -0.3552 -0.0016
 4764SOL    HW125754   0.636   2.749   4.662  0.8034  1.0498  0.0482
 4764SOL    HW225755   0.593   2.683   4.524  2.5081 -0.7862 -2.4574
 4765SOL     OW25756   3.519   1.233   9.264 -0.1092  0.2572  0.2109
 4765SOL    HW125757   3.572   1.179   9.322  0.7955 -0.0483 -0.8935
 4765SOL    HW225758   3.589   1.261   9.206  0.4457 -3.3070 -0.8637
 4766SOL     OW25759   2.781   3.791   1.409 -0.0655 -0.5822  0.2795
 4766SOL    HW125760   2.695   3.787   1.451  0.3402  0.7356  1.2552
 4766SOL    HW225761   2.834   3.740   1.470 -0.4555  0.7589  1.7265
 4767SOL     OW25762   0.913   3.394   4.420  0.2703  0.0696 -0.4757
 4767SOL    HW125763   0.904   3.301   4.440  1.2757  0.0110 -0.2759
 4767SOL    HW225764   0.962   3.442   4.487 -0.7705  0.4819 -0.0177
 4768SOL     OW25765   3.125   0.935   3.897 -0.3049 -0.2118 -0.2987
 4768SOL    HW125766   3.134   0.864   3.961 -1.7635  0.2682  0.4390
 4768SOL    HW225767   3.049   0.981   3.933 -0.2795 -0.1735 -0.2932
 4769SOL     OW25768   3.242   4.208   8.848 -0.0497 -0.1297  0.2472
 4769SOL    HW125769   3.167   4.152   8.870 -1.9006  2.2839  0.0505
 4769SOL    HW225770   3.318   4.151   8.859  0.7190  0.2503 -3.1960
 4770SOL     OW25771   2.892   1.878   8.670 -0.3914 -1.1595 -0.4209
 4770SOL    HW125772   2.813   1.827   8.653 -0.5896 -1.0461  0.1833
 4770SOL    HW225773   2.908   1.852   8.761 -3.4959  3.0211  1.3080
 4771SOL     OW25774   1.418   3.342   0.111  0.4569  0.6891 -0.3901
 4771SOL    HW125775   1.453   3.385   0.189 -0.2785 -0.9261  0.8046
 4771SOL    HW225776   1.484   3.369   0.046  0.6980 -0.4679 -0.6204
 4772SOL     OW25777   0.193   2.509  13.563  1.3072 -0.1733 -0.0878
 4772SOL    HW125778   0.219   2.452  13.491  1.0740 -1.1140  0.5658
 4772SOL    HW225779   0.207   2.460  13.645 -0.3732 -0.8319 -0.1879
 4773SOL     OW25780   0.324   4.111   8.265 -0.7910  0.2386 -0.2646
 4773SOL    HW125781   0.235   4.091   8.295 -0.5444 -1.7212 -0.8426
 4773SOL    HW225782   0.336   4.038   8.204  1.4600 -1.1963  1.9269
 4774SOL     OW25783   2.010   4.494   4.289 -0.4991 -0.1449 -0.1782
 4774SOL    HW125784   2.098   4.477   4.321 -0.7149 -1.4445 -0.2952
 4774SOL    HW225785   2.014   4.567   4.228  3.2041  0.1815  0.4352
 4775SOL     OW25786   2.393   4.455  12.833  0.5175  0.4042 -0.0037
 4775SOL    HW125787   2.327   4.387  12.844  0.8312 -0.0069 -0.6448
 4775SOL    HW225788   2.342   4.514  12.777  0.8384  1.0978  0.4392
 4776SOL     OW25789   0.049   0.927  11.908  0.2465  0.5855 -0.6089
 4776SOL    HW125790   0.113   0.924  11.979  0.3896 -1.5074 -0.8025
 4776SOL    HW225791   4.720   1.006  11.926 -2.1178 -0.1889 -3.8460
 4777SOL     OW25792   1.593   3.886  13.269 -0.3430 -0.1395  0.0541
 4777SOL    HW125793   1.632   3.898  13.355 -1.7801  0.3174  0.6382
 4777SOL    HW225794   1.586   3.791  13.274  0.3467 -0.1509  0.8023
 4778SOL     OW25795   3.484   0.303  13.550 -0.0143 -0.3495  0.6037
 4778SOL    HW125796   3.409   0.346  13.509 -0.4355 -1.1905  0.4903
 4778SOL    HW225797   3.444   0.217  13.562  0.1849 -0.5540 -0.2411
 4779SOL     OW25798   2.183   4.449   9.347 -0.3663 -0.0966 -0.1944
 4779SOL    HW125799   2.094   4.481   9.361  0.8083  2.5099  1.1960
 4779SOL    HW225800   2.230   4.528   9.321  1.0092 -0.5851  0.7955
 4780SOL     OW25801   3.527   0.822   5.437  0.2120  0.1549 -0.3763
 4780SOL    HW125802   3.455   0.874   5.401 -0.7871 -2.0088 -1.5486
 4780SOL    HW225803   3.504   0.740   5.392  0.8538  0.2285 -0.8396
 4781SOL     OW25804   1.419   2.960   8.483  0.4728 -0.1808  0.6611
 4781SOL    HW125805   1.474   3.038   8.474 -1.3041  0.6515 -3.1835
 4781SOL    HW225806   1.485   2.896   8.508 -1.0016 -0.7786  2.9624
 4782SOL     OW25807   3.824   1.121  12.248 -0.2680  0.2099  0.4086
 4782SOL    HW125808   3.916   1.146  12.256  0.1052 -1.2569  0.7636
 4782SOL    HW225809   3.778   1.190  12.295  0.2495  0.5434  0.4240
 4783SOL     OW25810   0.339   3.555   6.634 -0.1457 -0.5172 -0.3481
 4783SOL    HW125811   0.382   3.482   6.590  0.1944  0.2986 -1.3664
 4783SOL    HW225812   0.420   3.590   6.673 -0.3660 -0.1602 -0.2112
 4784SOL     OW25813   1.263   3.501   7.137  0.0569 -0.0414 -0.3162
 4784SOL    HW125814   1.178   3.464   7.115 -1.0976  2.5688 -0.1768
 4784SOL    HW225815   1.276   3.455   7.221  2.9934 -0.3029 -0.8921
 4785SOL     OW25816   1.555   2.057   9.030  0.0153 -0.0847 -1.0911
 4785SOL    HW125817   1.609   2.039   9.108  1.0793  0.8014 -1.6216
 4785SOL    HW225818   1.527   1.966   9.023  0.9788 -0.2136 -3.1467
 4786SOL     OW25819   3.620   3.611   0.935 -0.0465 -0.3201  0.2715
 4786SOL    HW125820   3.683   3.603   1.007  1.1645  0.2267 -0.7144
 4786SOL    HW225821   3.673   3.626   0.856  0.1213 -1.8440  0.1021
 4787SOL     OW25822   1.845   1.020  12.604  0.2463  0.0760  0.0214
 4787SOL    HW125823   1.812   0.969  12.678  1.4364  0.8093  1.0774
 4787SOL    HW225824   1.922   1.055  12.651  0.4805 -0.2760 -0.1043
 4788SOL     OW25825   2.376   0.519   3.880  0.3160 -0.2380  0.0549
 4788SOL    HW125826   2.380   0.448   3.816  0.9814  0.4148 -0.6185
 4788SOL    HW225827   2.402   0.468   3.957 -1.5811 -3.0370 -1.1443
 4789SOL     OW25828   3.477   0.717   4.927  0.3181 -0.2946  0.3825
 4789SOL    HW125829   3.541   0.647   4.946  0.5236  0.6679  3.1820
 4789SOL    HW225830   3.394   0.670   4.923  0.3823 -0.5023  1.4856
 4790SOL     OW25831   0.098   0.146   8.250  0.4658 -0.4190 -0.3017
 4790SOL    HW125832   0.039   0.195   8.307  0.1558 -0.0785 -0.9073
 4790SOL    HW225833   0.155   0.212   8.209  2.3757 -0.8650  1.6411
 4791SOL     OW25834   1.364   3.732  10.003 -0.2543  0.5717  0.6440
 4791SOL    HW125835   1.404   3.682  10.075 -0.0389  0.1277  0.2169
 4791SOL    HW225836   1.403   3.819  10.016  1.4350 -0.0145 -0.4993
 4792SOL     OW25837   4.683   4.156   3.288  0.2487 -0.7494  0.5753
 4792SOL    HW125838   4.631   4.078   3.270 -0.2309 -0.3788  0.3496
 4792SOL    HW225839   4.617   4.224   3.276 -0.4076 -1.6428 -0.8603
 4793SOL     OW25840   3.288   0.694   6.940 -0.0548 -0.0725 -0.0628
 4793SOL    HW125841   3.213   0.670   6.885  0.0530  3.1977 -1.6497
 4793SOL    HW225842   3.320   0.776   6.901  0.2191 -1.0790 -1.9540
 4794SOL     OW25843   2.235   1.214  11.176  0.2379 -0.6765 -0.6478
 4794SOL    HW125844   2.164   1.264  11.136 -0.1144 -1.3704 -0.9011
 4794SOL    HW225845   2.310   1.265  11.147  0.8208 -1.2264 -0.0961
 4795SOL     OW25846   2.715   0.442   3.826 -0.5973  0.2286 -0.0317
 4795SOL    HW125847   2.675   0.361   3.859 -1.4834  0.5850 -0.2215
 4795SOL    HW225848   2.675   0.465   3.742 -0.7303  0.3549  0.0671
 4796SOL     OW25849   1.747   0.936  12.864 -0.1025 -0.2971 -0.1272
 4796SOL    HW125850   1.679   0.887  12.817  0.2473 -0.4967 -0.4207
 4796SOL    HW225851   1.688   0.972  12.931 -1.0920  0.1106 -1.2297
 4797SOL     OW25852   1.683   0.479   6.135  0.5270 -0.0593  0.5484
 4797SOL    HW125853   1.595   0.441   6.127  1.0990 -1.1843 -0.4429
 4797SOL    HW225854   1.714   0.480   6.044  0.3314  0.6947  0.4906
 4798SOL     OW25855   1.321   2.569   3.905 -0.1173 -0.2261 -0.6241
 4798SOL    HW125856   1.333   2.664   3.900  1.3027 -0.3485  0.5879
 4798SOL    HW225857   1.322   2.547   3.998 -0.3622 -0.7117 -0.7339
 4799SOL     OW25858   1.059   4.508   5.277  0.0036  0.6198 -0.3697
 4799SOL    HW125859   1.034   4.447   5.208  0.7479 -1.8140  1.5196
 4799SOL    HW225860   1.148   4.482   5.303 -0.0351  0.5512 -0.3072
 4800SOL     OW25861   4.402   4.049   9.393  0.2541  0.3243  0.1200
 4800SOL    HW125862   4.373   3.958   9.398  1.3495 -0.0585 -0.5441
 4800SOL    HW225863   4.431   4.069   9.482  1.4963 -0.2660 -0.1555
 4801SOL     OW25864   3.643   3.917   1.821 -0.0820  0.1396  0.0728
 4801SOL    HW125865   3.616   3.890   1.909 -2.7200  1.2516 -0.4205
 4801SOL    HW225866   3.736   3.896   1.831 -0.0171 -0.0430 -0.9248
 4802SOL     OW25867   3.946   1.445   9.556 -0.2108 -0.1023  0.0610
 4802SOL    HW125868   3.955   1.537   9.533  1.3121 -0.6964 -1.7237
 4802SOL    HW225869   4.033   1.435   9.594 -0.1493  2.0644  0.4768
 4803SOL     OW25870   1.546   4.167  16.048  0.1773  0.4196  0.0672
 4803SOL    HW125871   1.465   4.116  16.040  1.2538 -1.4056  0.7290
 4803SOL    HW225872   1.523   4.246  16.097 -0.6073  1.5294 -2.0990
 4804SOL     OW25873   2.483   2.897   7.545  0.2937  0.0165  0.1936
 4804SOL    HW125874   2.425   2.896   7.470  1.3010  0.9678 -0.6051
 4804SOL    HW225875   2.538   2.970   7.514  1.2779  0.4011  2.8586
 4805SOL     OW25876   0.493   1.884   8.781  0.2148 -0.1919 -0.0053
 4805SOL    HW125877   0.546   1.923   8.851 -0.4591  1.1594 -0.2430
 4805SOL    HW225878   0.411   1.881   8.830  0.9573 -2.8196  1.0847
 4806SOL     OW25879   0.434   1.596   5.804  0.9666 -0.3001 -0.0926
 4806SOL    HW125880   0.361   1.609   5.864  0.6883 -0.8392 -0.3213
 4806SOL    HW225881   0.463   1.511   5.836 -0.5636 -0.1411  1.7191
 4807SOL     OW25882   0.013   3.800   3.877  0.2525  0.2448  0.4141
 4807SOL    HW125883   0.042   3.839   3.795 -0.4483 -2.4354 -1.1296
 4807SOL    HW225884   4.694   3.875   3.920  3.3624  2.7051 -1.0157
 4808SOL     OW25885   1.928   3.907   8.236 -0.6138  0.6892  0.4141
 4808SOL    HW125886   1.884   3.884   8.154  0.9774  0.4783 -0.3789
 4808SOL    HW225887   1.943   4.001   8.227 -0.2914  0.4177 -1.9306
 4809SOL     OW25888   4.649   0.654  12.239 -0.2243  0.5609 -0.1627
 4809SOL    HW125889   0.007   0.706  12.253  2.3473 -3.1993 -0.8778
 4809SOL    HW225890   4.638   0.672  12.146 -0.4869 -1.7124 -0.5678
 4810SOL     OW25891   3.011   2.541   4.814  0.1563 -0.1571  0.1495
 4810SOL    HW125892   2.943   2.492   4.860  0.1113  0.4788  0.7518
 4810SOL    HW225893   3.045   2.596   4.885  1.2751 -2.3874  1.3377
 4811SOL     OW25894   1.553   3.633   5.286  0.0992 -0.0922  0.3437
 4811SOL    HW125895   1.573   3.708   5.230 -1.2264  0.5654  0.7538
 4811SOL    HW225896   1.470   3.611   5.243 -0.4570 -1.5070  2.1739
 4812SOL     OW25897   4.462   1.833   7.340 -0.0002  0.1591 -0.0600
 4812SOL    HW125898   4.424   1.922   7.343  0.4537  0.2558  2.9974
 4812SOL    HW225899   4.449   1.825   7.435 -1.8948  0.0316 -0.3162
 4813SOL     OW25900   0.203   4.693   4.354 -0.1679 -0.7118  0.7880
 4813SOL    HW125901   0.166   4.659   4.436 -0.4964 -2.1398  0.0399
 4813SOL    HW225902   0.200   4.610   4.307 -0.1640 -0.5469  0.4966
 4814SOL     OW25903   0.448   1.858   1.375 -0.3076 -0.0258 -0.0909
 4814SOL    HW125904   0.474   1.777   1.333 -0.3135  0.7371 -1.5572
 4814SOL    HW225905   0.480   1.851   1.465 -1.2943 -2.7852  0.0243
 4815SOL     OW25906   2.538   2.922   5.653 -0.1121  0.5451 -0.0476
 4815SOL    HW125907   2.575   2.944   5.567 -1.5766  1.3973 -0.4528
 4815SOL    HW225908   2.538   3.013   5.683 -2.1290  0.5073  0.0333
 4816SOL     OW25909   1.965   3.158   3.035  0.0141  0.2156 -0.5880
 4816SOL    HW125910   2.051   3.200   3.032  1.4983 -2.7508  0.6485
 4816SOL    HW225911   1.974   3.104   3.114  1.2478  0.4634 -0.5567
 4817SOL     OW25912   1.811   0.174  12.010  0.0463  0.4038  0.5636
 4817SOL    HW125913   1.799   0.226  11.930  0.8859  1.1350  0.9103
 4817SOL    HW225914   1.718   0.173  12.033 -0.0781 -0.6227 -0.0124
 4818SOL     OW25915   0.198   1.202   0.697  0.2081 -0.1140  0.2337
 4818SOL    HW125916   0.255   1.272   0.664  0.7441 -0.4850  0.3712
 4818SOL    HW225917   0.119   1.218   0.646 -0.1384 -0.2060  0.7465
 4819SOL     OW25918   0.901   4.722   6.795 -0.1310  0.1584 -0.3817
 4819SOL    HW125919   0.852   0.051   6.860  3.1144  0.7746  1.5881
 4819SOL    HW225920   0.841   4.720   6.721 -0.6538  0.0549  0.0447
 4820SOL     OW25921   4.525   4.148   0.352 -0.4751 -0.0582 -0.4128
 4820SOL    HW125922   4.451   4.193   0.393 -1.6438 -0.8773 -1.6504
 4820SOL    HW225923   4.482   4.129   0.268 -1.6973  1.6813 -0.1855
 4821SOL     OW25924   3.131   4.498   6.673  0.1053  0.0927  0.1224
 4821SOL    HW125925   3.222   4.485   6.702  0.6390 -0.1814 -1.6713
 4821SOL    HW225926   3.136   4.436   6.600 -2.1094  0.5905 -0.4271
 4822SOL     OW25927   0.662   3.072   3.476  0.7039  0.5134 -0.4861
 4822SOL    HW125928   0.658   3.164   3.449  1.6796  0.0664 -2.1500
 4822SOL    HW225929   0.586   3.064   3.533  0.1143  0.6637 -1.2560
 4823SOL     OW25930   4.480   3.465   4.474  0.2312 -0.8007  0.8169
 4823SOL    HW125931   4.553   3.470   4.536  0.0354 -0.1262  0.9921
 4823SOL    HW225932   4.522   3.452   4.389  0.9424  0.5249  0.9637
 4824SOL     OW25933   3.594   3.639   6.699 -0.2407  0.2704 -0.6055
 4824SOL    HW125934   3.583   3.550   6.665  0.3763 -0.3457  0.8371
 4824SOL    HW225935   3.689   3.638   6.709 -0.1579  2.4293 -1.1562
 4825SOL     OW25936   0.325   3.901   2.245 -0.5218  0.2199  0.6618
 4825SOL    HW125937   0.391   3.932   2.183 -0.3190 -2.4386 -0.4470
 4825SOL    HW225938   0.341   3.808   2.254 -0.2631  0.3706  1.7677
 4826SOL     OW25939   4.709   1.053   3.237 -0.3115  0.1609  0.3367
 4826SOL    HW125940   4.644   0.992   3.272 -2.3356  1.6677 -0.8050
 4826SOL    HW225941   0.055   0.999   3.196 -1.6793 -0.9510 -0.4862
 4827SOL     OW25942   0.799   0.535   6.942 -0.9940  0.6045 -0.4956
 4827SOL    HW125943   0.813   0.560   7.034 -2.6234  0.4084 -0.1963
 4827SOL    HW225944   0.824   0.605   6.882 -1.5848 -0.9470 -2.5248
 4828SOL     OW25945   0.442   4.245  16.448 -0.2722 -0.5350 -0.0372
 4828SOL    HW125946   0.370   4.191  16.480 -1.9395  2.7687  1.7462
 4828SOL    HW225947   0.404   4.332  16.440  1.5693  0.4353  1.9861
 4829SOL     OW25948   1.800   2.374   7.515  1.0894  0.5500 -0.0670
 4829SOL    HW125949   1.741   2.333   7.579  0.2102  0.9695 -0.6066
 4829SOL    HW225950   1.774   2.330   7.435 -0.3166  1.8228 -0.3155
 4830SOL     OW25951   1.942   4.210   2.123  0.0778  0.5734  0.2635
 4830SOL    HW125952   1.849   4.197   2.142  0.5731 -0.1431  2.2029
 4830SOL    HW225953   1.945   4.301   2.093 -1.0915  0.6640  0.3970
 4831SOL     OW25954   2.667   1.062   6.443 -0.5509  0.2168 -0.4685
 4831SOL    HW125955   2.665   1.048   6.348 -1.0301  1.2609 -0.6076
 4831SOL    HW225956   2.754   1.099   6.453 -0.5076  0.2815 -1.0396
 4832SOL     OW25957   3.694   0.909   2.047  0.0123  0.1894 -0.2304
 4832SOL    HW125958   3.730   0.996   2.029 -0.3385  0.6097  1.1459
 4832SOL    HW225959   3.757   0.871   1.986  0.0535  0.2878 -0.2483
 4833SOL     OW25960   0.795   4.082   3.678 -0.1296  0.2442  0.2551
 4833SOL    HW125961   0.833   4.006   3.723 -0.8096 -0.6661 -0.7117
 4833SOL    HW225962   0.876   4.117   3.641 -0.1116 -0.6387 -0.5285
 4834SOL     OW25963   1.386   1.020   7.967 -0.1486  0.1520 -0.2137
 4834SOL    HW125964   1.378   1.031   7.872 -0.6248 -1.6912 -0.3768
 4834SOL    HW225965   1.297   1.036   7.998 -0.7530 -0.0720 -1.8161
 4835SOL     OW25966   2.470   0.983  15.174 -0.2809 -0.2424  0.1688
 4835SOL    HW125967   2.556   1.012  15.206 -0.9234 -0.0784  1.7477
 4835SOL    HW225968   2.441   0.954  15.260 -3.6165  0.5667 -0.6776
 4836SOL     OW25969   1.843   2.946   5.157  0.3185 -0.1072  0.2952
 4836SOL    HW125970   1.904   2.994   5.102  1.5985 -0.5411  1.3352
 4836SOL    HW225971   1.759   2.991   5.146 -0.8384 -2.5819 -1.1144
 4837SOL     OW25972   2.812   3.056   3.455  0.2452  0.0109 -0.1366
 4837SOL    HW125973   2.872   3.106   3.511  0.3162 -2.3173  1.8746
 4837SOL    HW225974   2.731   3.075   3.502 -1.1215 -2.0883 -1.6741
 4838SOL     OW25975   3.262   2.428  15.424 -0.6588  0.0114 -0.4963
 4838SOL    HW125976   3.215   2.503  15.459 -0.9114  0.6353 -2.1690
 4838SOL    HW225977   3.227   2.445  15.336 -1.5314  0.6973 -0.0089
 4839SOL     OW25978   1.394   1.598   2.681  0.5043 -0.1758 -0.7976
 4839SOL    HW125979   1.405   1.599   2.776  0.5040 -3.3929 -0.7819
 4839SOL    HW225980   1.301   1.617   2.689  0.1788 -2.7315  1.3075
 4840SOL     OW25981   3.519   2.087  12.695 -0.1564 -1.1450 -0.1718
 4840SOL    HW125982   3.546   2.004  12.657  2.6987  1.6330 -4.1142
 4840SOL    HW225983   3.481   2.049  12.775 -1.3792  1.2668  0.3968
 4841SOL     OW25984   2.774   3.846   8.367  1.0517  0.2980 -1.0110
 4841SOL    HW125985   2.867   3.865   8.369  0.7101  1.7985  0.7385
 4841SOL    HW225986   2.742   3.915   8.425  0.8905 -0.5811 -0.0612
 4842SOL     OW25987   3.893   1.940   6.992 -0.2279 -0.0671  0.0873
 4842SOL    HW125988   3.853   2.024   6.969 -0.6169  0.2165  1.8010
 4842SOL    HW225989   3.869   1.929   7.084 -0.5142 -0.1466  0.0026
 4843SOL     OW25990   3.908   1.911   3.250 -0.2844 -0.6988 -0.2629
 4843SOL    HW125991   3.933   1.995   3.288  2.4607 -2.0958  0.9525
 4843SOL    HW225992   3.958   1.918   3.169 -0.4573 -0.7332 -0.3748
 4844SOL     OW25993   0.482   1.834  11.687 -0.1966  0.0832  0.0807
 4844SOL    HW125994   0.551   1.853  11.624  0.7584 -0.1724  1.0548
 4844SOL    HW225995   0.490   1.739  11.695  1.5992  0.2175 -0.1584
 4845SOL     OW25996   4.362   4.323   1.006 -0.4295  0.3163  0.1527
 4845SOL    HW125997   4.385   4.277   1.087  1.3282  0.5336 -0.2152
 4845SOL    HW225998   4.437   4.316   0.946  0.1904  0.4499  0.9042
 4846SOL     OW25999   3.512   2.912   5.104  0.3512 -0.3859 -0.1827
 4846SOL    HW126000   3.487   2.845   5.168 -1.3707 -0.2837 -0.7485
 4846SOL    HW226001   3.568   2.972   5.153 -1.5013  0.7711  0.5061
 4847SOL     OW26002   0.579   1.938   4.450  0.4181  0.3867  0.0958
 4847SOL    HW126003   0.520   2.006   4.420 -1.0574 -0.8534  0.1631
 4847SOL    HW226004   0.569   1.874   4.379  0.5303  0.3861  0.0813
 4848SOL     OW26005   4.186   2.706   9.790  0.2571 -0.6885  0.0820
 4848SOL    HW126006   4.258   2.702   9.853 -2.2342  0.7959  3.0070
 4848SOL    HW226007   4.110   2.746   9.831  0.0638  0.1651 -1.1145
 4849SOL     OW26008   0.663   1.071   4.256  0.0590 -0.0856  0.7014
 4849SOL    HW126009   0.724   1.079   4.330  0.9796  0.0362 -0.0714
 4849SOL    HW226010   0.608   1.005   4.299  0.4090  0.6008  2.2255
 4850SOL     OW26011   1.979   0.916   3.207  0.0938 -0.6863  0.1914
 4850SOL    HW126012   1.963   1.010   3.211 -2.4502 -1.0577 -0.9756
 4850SOL    HW226013   1.992   0.902   3.113  0.3295  1.2507 -0.0599
 4851SOL     OW26014   0.900   3.664   9.215  0.1433 -0.0477 -0.0185
 4851SOL    HW126015   0.932   3.596   9.274 -0.2142 -0.2467 -0.0528
 4851SOL    HW226016   0.959   3.735   9.238 -0.7282  0.8605 -0.5499
 4852SOL     OW26017   0.446   3.512   4.512  0.5046 -0.0085 -0.2013
 4852SOL    HW126018   0.374   3.511   4.576  1.4197  1.1939  0.8491
 4852SOL    HW226019   0.507   3.440   4.531 -0.9925 -1.3657 -0.5496
 4853SOL     OW26020   4.656   0.920   1.808 -0.4447  0.1505  0.1801
 4853SOL    HW126021   4.586   0.985   1.803 -1.9169 -1.6272 -2.2021
 4853SOL    HW226022   0.003   0.968   1.854 -1.5393  0.9879  0.9388
 4854SOL     OW26023   1.584   3.637   0.151  0.3350 -0.5836 -0.1256
 4854SOL    HW126024   1.548   3.690   0.080  1.1787 -1.5489 -1.2652
 4854SOL    HW226025   1.590   3.700   0.223  0.5941 -0.0853 -0.5845
 4855SOL     OW26026   1.933   4.680  13.021  0.1090  0.4604  0.2494
 4855SOL    HW126027   2.005   0.020  13.032  0.3676 -0.2112  2.2523
 4855SOL    HW226028   1.965   4.639  12.940 -1.4377 -0.4920  0.1145
 4856SOL     OW26029   2.728   2.361   7.304 -0.0387 -0.7172 -0.1383
 4856SOL    HW126030   2.757   2.285   7.254 -0.0712 -0.3290 -0.7377
 4856SOL    HW226031   2.769   2.424   7.244 -1.6104  2.3627  2.0346
 4857SOL     OW26032   3.869   3.681   1.409  0.1118 -0.1943 -0.5998
 4857SOL    HW126033   3.931   3.609   1.422 -1.0350 -1.3547 -1.5336
 4857SOL    HW226034   3.792   3.631   1.381 -0.1211 -1.0013  1.4808
 4858SOL     OW26035   0.330   1.373  14.174  0.0387  0.0280 -0.2579
 4858SOL    HW126036   0.394   1.326  14.121  0.6589 -0.1744  0.6553
 4858SOL    HW226037   0.291   1.430  14.107 -0.3700  1.3730  1.1003
 4859SOL     OW26038   2.959   4.038   0.885  0.9314  0.1226  0.9164
 4859SOL    HW126039   2.975   3.948   0.855  2.0184  1.2860 -1.9252
 4859SOL    HW226040   2.909   4.072   0.812  1.1075  0.2851  0.8723
 4860SOL     OW26041   3.587   4.432  15.573 -0.1547 -0.0453 -0.1450
 4860SOL    HW126042   3.513   4.375  15.596 -1.0410  1.1612 -0.0311
 4860SOL    HW226043   3.549   4.487  15.504 -0.3794 -2.6046 -2.0786
 4861SOL     OW26044   3.448   2.708   5.266  0.6124 -0.1662 -0.6292
 4861SOL    HW126045   3.366   2.738   5.305  0.9587 -1.2757  0.9303
 4861SOL    HW226046   3.455   2.617   5.294 -0.9291 -0.1063 -0.0357
 4862SOL     OW26047   1.834   2.733   6.962 -0.0833 -0.2749  0.0998
 4862SOL    HW126048   1.799   2.685   6.886 -2.3572 -0.2798  1.1696
 4862SOL    HW226049   1.910   2.678   6.984  0.0760 -0.4377 -0.8457
 4863SOL     OW26050   3.770   4.189   7.554  0.9241 -0.1814  0.4566
 4863SOL    HW126051   3.758   4.280   7.529 -2.9316 -0.0974  2.6243
 4863SOL    HW226052   3.724   4.140   7.486  1.1116 -0.1996  0.3428
 4864SOL     OW26053   3.481   3.549  11.176 -0.3763  0.1219 -0.2366
 4864SOL    HW126054   3.541   3.584  11.111  0.4641 -0.6093  0.1498
 4864SOL    HW226055   3.478   3.618  11.242  0.4249  0.0019 -0.0730
 4865SOL     OW26056   3.896   3.976   1.503  0.5769  0.4090 -0.1103
 4865SOL    HW126057   3.960   4.039   1.471  0.7651  0.9387  1.3031
 4865SOL    HW226058   3.916   3.901   1.448  0.4314 -0.3308  0.8442
 4866SOL     OW26059   2.640   3.983   5.641  0.1208 -0.3053  0.2919
 4866SOL    HW126060   2.548   3.961   5.624  0.3273 -1.0201  0.0709
 4866SOL    HW226061   2.670   4.021   5.558  3.2120 -1.3446  0.9355
 4867SOL     OW26062   4.487   3.203   4.041  0.5885 -0.5782 -0.1345
 4867SOL    HW126063   4.393   3.220   4.035  0.7667  0.8033  1.0386
 4867SOL    HW226064   4.483   3.114   4.006 -0.1590 -1.5913  2.5203
 4868SOL     OW26065   0.620   2.432  15.441  0.4315  0.5023 -0.1319
 4868SOL    HW126066   0.632   2.410  15.533 -2.5950 -1.0262 -0.1062
 4868SOL    HW226067   0.528   2.458  15.440 -0.4671 -2.5775  1.2302
 4869SOL     OW26068   1.354   3.905   6.873  0.1255  0.0055  0.4485
 4869SOL    HW126069   1.345   3.849   6.949 -1.5347  0.1560  0.3810
 4869SOL    HW226070   1.339   3.842   6.803  0.1189 -1.4216  1.7552
 4870SOL     OW26071   1.646   0.947   2.562  0.1176  0.1916  0.2612
 4870SOL    HW126072   1.575   0.990   2.515 -1.1063 -1.6984  0.3889
 4870SOL    HW226073   1.606   0.863   2.583 -0.2018 -0.0031 -1.1530
 4871SOL     OW26074   4.052   0.500  14.414  0.5566  0.4949  0.1608
 4871SOL    HW126075   4.019   0.418  14.376  0.5975  0.4155  0.2962
 4871SOL    HW226076   4.134   0.469  14.452  0.3440 -1.1662 -0.7017
 4872SOL     OW26077   0.158   2.179   7.124 -0.3540  0.2603  0.0249
 4872SOL    HW126078   0.202   2.110   7.173  0.5802  0.4263 -0.5864
 4872SOL    HW226079   0.198   2.167   7.038  2.2865  1.5424  1.0930
 4873SOL     OW26080   2.812   3.406   7.332  0.0116 -0.6352 -0.3165
 4873SOL    HW126081   2.886   3.465   7.339 -2.2493  2.1441 -0.1192
 4873SOL    HW226082   2.814   3.349   7.409 -0.5598  0.9575  0.8545
 4874SOL     OW26083   0.370   2.783   2.334 -0.0523 -0.0763  0.4834
 4874SOL    HW126084   0.336   2.844   2.399 -0.5382 -0.3206  0.4605
 4874SOL    HW226085   0.464   2.797   2.335 -0.1622  0.9114 -2.9042
 4875SOL     OW26086   2.013   3.776  10.056  0.6003  0.3603 -0.3260
 4875SOL    HW126087   2.065   3.706  10.096 -1.7250 -1.4601 -0.4735
 4875SOL    HW226088   2.079   3.838  10.026  0.1989  0.0692 -1.7952
 4876SOL     OW26089   3.750   1.996  17.613  0.3762 -0.2708  0.2354
 4876SOL    HW126090   3.732   2.089  17.630  1.8228  0.0679 -0.1596
 4876SOL    HW226091   3.845   1.992  17.605  0.4377  2.7795 -0.5588
 4877SOL     OW26092   0.007   3.533   8.312 -0.0967 -0.1649 -0.3094
 4877SOL    HW126093   4.657   3.491   8.359  1.3394  1.4622  3.3492
 4877SOL    HW226094   0.016   3.473   8.238  0.7852  0.2694 -0.5606
 4878SOL     OW26095   0.798   4.257   2.206  0.6133 -0.6849 -0.3994
 4878SOL    HW126096   0.815   4.289   2.118  0.3207  1.9744  0.4959
 4878SOL    HW226097   0.829   4.327   2.264  1.8789 -0.0204 -1.8766
 4879SOL     OW26098   1.328   0.079   4.000  0.6273 -0.2909  0.1598
 4879SOL    HW126099   1.344   0.027   3.921  2.4405 -1.4306  1.3075
 4879SOL    HW226100   1.253   0.030   4.035 -1.1270  0.0415 -3.0916
 4880SOL     OW26101   3.859   2.903  16.589  0.2120 -0.0920  0.0515
 4880SOL    HW126102   3.850   2.947  16.673  0.7047  1.5392 -0.7520
 4880SOL    HW226103   3.925   2.834  16.596 -0.3074 -0.7193 -1.2615
 4881SOL     OW26104   2.332   1.076   9.021 -0.4055  0.1802 -0.0946
 4881SOL    HW126105   2.255   1.121   9.055 -1.1900  0.4242 -2.1638
 4881SOL    HW226106   2.395   1.103   9.087  1.8069  0.6197 -2.3937
 4882SOL     OW26107   2.575   3.143   7.259 -0.4210  0.5576  0.0049
 4882SOL    HW126108   2.644   3.197   7.220  2.0029 -2.1902  0.4926
 4882SOL    HW226109   2.560   3.180   7.346 -2.9461 -1.8626  0.5816
 4883SOL     OW26110   4.398   4.277  12.376 -0.4336 -0.0720 -0.0355
 4883SOL    HW126111   4.410   4.329  12.296  1.3675  0.8371  0.8297
 4883SOL    HW226112   4.414   4.343  12.443 -1.7896  0.1091  0.1230
 4884SOL     OW26113   3.278   0.020   8.166 -0.3410  0.0654  0.6375
 4884SOL    HW126114   3.221   4.669   8.192 -1.1369  0.7345  0.7661
 4884SOL    HW226115   3.323   0.020   8.250  0.1705  0.1476  0.3602
 4885SOL     OW26116   3.904   0.146  14.719 -0.6432 -0.0233  0.0948
 4885SOL    HW126117   3.997   0.150  14.699 -0.4770 -1.1923  0.6482
 4885SOL    HW226118   3.895   0.241  14.730  0.0150  0.0541 -0.0581
 4886SOL     OW26119   3.695   4.406  14.195 -0.2614 -0.0188  0.4491
 4886SOL    HW126120   3.735   4.483  14.154 -1.2885  0.7801  0.9578
 4886SOL    HW226121   3.624   4.449  14.242  1.2079  1.9176  0.9146
 4887SOL     OW26122   2.641   4.195   4.841 -0.0195  0.2158  0.0088
 4887SOL    HW126123   2.704   4.123   4.849  0.9112  0.8144 -2.0001
 4887SOL    HW226124   2.585   4.161   4.771  0.4408 -1.2513  0.3506
 4888SOL     OW26125   0.379   4.133   6.952 -0.4980  0.3978  0.5104
 4888SOL    HW126126   0.346   4.205   6.898  0.0508  0.6107  0.4583
 4888SOL    HW226127   0.375   4.180   7.035  1.0702 -2.2951  2.1015
 4889SOL     OW26128   2.360   0.012  15.936 -0.2231  0.5083  0.1461
 4889SOL    HW126129   2.301   4.688  15.876 -1.1589  2.0000 -0.0691
 4889SOL    HW226130   2.364   0.096  15.892 -0.9441  1.0541  1.1372
 4890SOL     OW26131   2.136   3.671   7.566 -0.2059 -0.0068  0.1297
 4890SOL    HW126132   2.092   3.754   7.550  1.0999  0.0804 -2.9972
 4890SOL    HW226133   2.215   3.680   7.512 -0.0297  0.6125  0.4903
 4891SOL     OW26134   0.838   3.390   5.286  0.0715  0.3998 -0.4527
 4891SOL    HW126135   0.875   3.302   5.279 -1.2166 -0.0739 -1.1589
 4891SOL    HW226136   0.763   3.371   5.342  0.9273 -0.9022  0.2543
 4892SOL     OW26137   1.653   3.768   2.494 -0.5074 -0.4378  0.4856
 4892SOL    HW126138   1.661   3.678   2.526  2.1284 -0.4835 -0.2967
 4892SOL    HW226139   1.650   3.758   2.399 -3.9939 -1.3312  0.7020
 4893SOL     OW26140   3.413   4.303  16.742  0.1445  0.2404 -0.1461
 4893SOL    HW126141   3.437   4.237  16.807 -0.8359 -0.6257 -0.6755
 4893SOL    HW226142   3.488   4.363  16.743  0.8226 -0.6173  0.2975
 4894SOL     OW26143   0.081   1.520   5.558 -0.9162  0.0845  0.4602
 4894SOL    HW126144   0.054   1.450   5.499 -0.6180  0.7306 -0.4493
 4894SOL    HW226145   0.077   1.458   5.631  0.0234  0.4656  0.8378
 4895SOL     OW26146   4.261   1.635   3.978  0.8259 -0.1614  0.2233
 4895SOL    HW126147   4.255   1.545   3.945 -0.9500 -0.2460  0.7601
 4895SOL    HW226148   4.224   1.686   3.907  0.0365  0.6114  1.1949
 4896SOL     OW26149   1.173   3.026  13.809 -0.1374  0.1556 -0.1605
 4896SOL    HW126150   1.131   3.029  13.723 -1.7275  0.7683  0.6432
 4896SOL    HW226151   1.092   3.026  13.860  0.2870  1.5583  0.4992
 4897SOL     OW26152   1.569   3.912  10.606  0.4124  0.0179 -0.2338
 4897SOL    HW126153   1.620   3.840  10.568  0.8823  0.2510 -0.0466
 4897SOL    HW226154   1.539   3.969  10.535  1.7733  1.7802  0.5873
 4898SOL     OW26155   4.460   3.312  14.812  0.3599 -0.1537 -0.1145
 4898SOL    HW126156   4.422   3.225  14.822  0.2886 -0.4381 -2.8934
 4898SOL    HW226157   4.531   3.318  14.877 -0.1296  0.7633  0.3343
 4899SOL     OW26158   1.742   3.915   8.432 -0.6150 -0.5076 -0.1847
 4899SOL    HW126159   1.827   3.923   8.388 -1.2819  0.0952 -1.3589
 4899SOL    HW226160   1.704   3.996   8.400  0.5497 -0.4009 -1.2937
 4900SOL     OW26161   1.708   2.319   5.358  0.3548 -0.0208 -0.0034
 4900SOL    HW126162   1.735   2.315   5.266 -1.1055  0.5588 -0.4734
 4900SOL    HW226163   1.701   2.414   5.371 -1.2732 -0.2155  0.6093
 4901SOL     OW26164   4.200   3.976   9.062  0.0166 -0.0776  0.0588
 4901SOL    HW126165   4.178   3.922   9.138 -0.9805 -2.1429 -1.6979
 4901SOL    HW226166   4.228   3.911   8.997  0.2285  0.3155 -0.2475
 4902SOL     OW26167   4.523   0.899   7.028 -0.2134  0.7376  0.1541
 4902SOL    HW126168   4.494   0.869   7.114  1.9277 -0.2374  0.5403
 4902SOL    HW226169   4.541   0.989   7.053  0.8256  0.6293 -0.2031
 4903SOL     OW26170   0.711   1.818   1.233  0.2171  0.0648 -0.9401
 4903SOL    HW126171   0.677   1.758   1.167 -1.1697  1.2210 -1.2870
 4903SOL    HW226172   0.794   1.779   1.260 -0.6982 -1.7619 -0.7461
 4904SOL     OW26173   2.444   2.617   6.809  0.3492 -0.0783 -0.2199
 4904SOL    HW126174   2.349   2.627   6.806  0.1003 -2.3478 -0.0863
 4904SOL    HW226175   2.451   2.584   6.899  1.2212 -0.2441 -0.3534
 4905SOL     OW26176   2.370   1.218  13.848 -0.2537 -0.7941 -0.1157
 4905SOL    HW126177   2.429   1.143  13.845 -2.6806 -2.6905 -1.1309
 4905SOL    HW226178   2.286   1.190  13.811  0.0357 -2.7840  0.7775
 4906SOL     OW26179   1.928   1.371  13.123  0.3614  0.3641  0.2116
 4906SOL    HW126180   1.876   1.388  13.045  0.2372  0.7332  0.3741
 4906SOL    HW226181   1.938   1.276  13.121  1.1256  0.4169  1.1050
 4907SOL     OW26182   3.904   0.818  15.834  0.1164  0.6844 -0.3827
 4907SOL    HW126183   3.889   0.743  15.775  1.3020 -1.3413  1.8947
 4907SOL    HW226184   3.992   0.837  15.801  1.1779 -2.4846  0.6028
 4908SOL     OW26185   3.766   1.704  15.713 -0.4246 -0.3187 -0.4577
 4908SOL    HW126186   3.850   1.701  15.760 -1.7278  0.8274  1.9188
 4908SOL    HW226187   3.706   1.663  15.776 -0.4742  0.5002  0.0225
 4909SOL     OW26188   4.372   1.147  12.613  0.2497  0.1300 -0.2971
 4909SOL    HW126189   4.421   1.228  12.598  0.9734 -0.4580 -1.1070
 4909SOL    HW226190   4.439   1.082  12.593 -1.3460 -1.8487  0.8239
 4910SOL     OW26191   1.914   2.412  10.313  0.7084  0.1053  0.1294
 4910SOL    HW126192   1.933   2.505  10.308  1.5042 -0.0060  0.9594
 4910SOL    HW226193   1.847   2.403  10.246  1.5625  2.3760 -1.0088
 4911SOL     OW26194   3.214   0.243  16.707 -0.2474  0.2407  0.8951
 4911SOL    HW126195   3.227   0.271  16.617 -1.3034 -0.9270  0.3775
 4911SOL    HW226196   3.130   0.288  16.720 -0.6066  0.0998 -0.9239
 4912SOL     OW26197   4.145   0.879   2.025 -0.0530  0.2192  1.1003
 4912SOL    HW126198   4.201   0.954   2.039  0.9481  0.0599 -1.8885
 4912SOL    HW226199   4.210   0.822   1.983 -0.7709 -1.1826  1.8946
 4913SOL     OW26200   3.993   1.236   5.329 -0.1831  0.4389 -0.3765
 4913SOL    HW126201   4.053   1.268   5.261  0.0038  2.3457  0.6858
 4913SOL    HW226202   4.007   1.142   5.341  1.4802  0.8727  1.0989
 4914SOL     OW26203   2.252   2.200   4.729 -0.0674  0.5385 -0.1010
 4914SOL    HW126204   2.196   2.178   4.803 -0.3234 -0.2534 -0.5277
 4914SOL    HW226205   2.197   2.167   4.657  0.0547 -1.3263  0.6548
 4915SOL     OW26206   3.671   4.393   8.670  0.0631 -0.8370  0.0797
 4915SOL    HW126207   3.665   4.342   8.750 -0.6033 -1.8130 -0.5906
 4915SOL    HW226208   3.729   4.465   8.694  0.8905 -0.9671 -1.5661
 4916SOL     OW26209   3.877   1.598  14.294  0.5409  0.2823  0.2145
 4916SOL    HW126210   3.841   1.562  14.213 -1.6910  1.0783  0.8488
 4916SOL    HW226211   3.859   1.530  14.360  2.2647  1.0017  1.4337
 4917SOL     OW26212   3.246   1.034   8.676 -0.3488  0.2301  0.8273
 4917SOL    HW126213   3.194   1.092   8.732 -0.8177 -1.1364  1.7955
 4917SOL    HW226214   3.213   1.064   8.592 -1.4262 -1.0275  0.8062
 4918SOL     OW26215   2.728   2.313   4.042 -0.4685 -0.2877 -0.6088
 4918SOL    HW126216   2.782   2.240   4.073  0.0892 -0.0084 -0.9336
 4918SOL    HW226217   2.775   2.378   4.093 -1.0370 -1.2983  1.2088
 4919SOL     OW26218   0.841   2.287   8.566  0.5711  1.2160  0.2000
 4919SOL    HW126219   0.756   2.325   8.589  0.6655  1.0787  0.7614
 4919SOL    HW226220   0.856   2.246   8.651  0.6545 -1.0514 -0.8938
 4920SOL     OW26221   3.049   0.270  14.107 -0.4813  0.5878  0.5728
 4920SOL    HW126222   2.976   0.332  14.107 -0.0018  1.1783 -2.4126
 4920SOL    HW226223   3.005   0.189  14.132  1.4421 -0.4782  0.4984
 4921SOL     OW26224   4.011   1.118   2.448  0.9887 -0.2157  0.0667
 4921SOL    HW126225   3.955   1.079   2.381 -0.5066  0.2366  1.0807
 4921SOL    HW226226   3.955   1.191   2.474 -1.1663 -1.7521 -0.2832
 4922SOL     OW26227   2.709   3.985   5.354  0.4425 -0.2201  0.0653
 4922SOL    HW126228   2.761   3.904   5.350  0.4310 -0.1823 -0.7096
 4922SOL    HW226229   2.624   3.965   5.317  0.3765  1.0178 -0.4437
 4923SOL     OW26230   2.168   1.063   5.702 -0.2788 -0.3710 -0.6344
 4923SOL    HW126231   2.225   1.011   5.646 -0.7207 -2.0717  0.4931
 4923SOL    HW226232   2.122   1.119   5.638  0.2126  1.0981  0.2918
 4924SOL     OW26233   2.277   0.663  14.011  0.4926  0.0450 -0.2370
 4924SOL    HW126234   2.326   0.641  13.932  1.8349  0.3335  0.5304
 4924SOL    HW226235   2.200   0.706  13.972 -0.5551 -1.5044  0.0940
 4925SOL     OW26236   2.455   2.660   8.682 -0.2966 -0.0435  0.4064
 4925SOL    HW126237   2.509   2.716   8.625  1.9264 -0.4349  2.1397
 4925SOL    HW226238   2.373   2.708   8.672  0.1161  0.6500  0.2927
 4926SOL     OW26239   3.868   0.630   9.292 -0.3747  0.1472 -0.2718
 4926SOL    HW126240   3.890   0.540   9.269  1.0995  0.8512 -1.6894
 4926SOL    HW226241   3.773   0.631   9.284 -0.4519 -3.8562  0.4000
 4927SOL     OW26242   3.668   3.202   8.326  0.0676  0.7986 -0.4852
 4927SOL    HW126243   3.723   3.275   8.354 -0.5477  1.2682 -0.4836
 4927SOL    HW226244   3.716   3.154   8.258  0.1681 -2.6753  2.0424
 4928SOL     OW26245   3.965   2.319   1.993  0.0922  0.1912  0.4974
 4928SOL    HW126246   3.965   2.363   2.078 -1.1387 -1.3901  1.3205
 4928SOL    HW226247   3.927   2.240   2.030  4.0993 -2.4151 -0.9221
 4929SOL     OW26248   3.305   3.300   1.452  0.0719  0.0174 -0.0201
 4929SOL    HW126249   3.393   3.319   1.420  0.3505 -1.1747  0.0507
 4929SOL    HW226250   3.290   3.226   1.393 -3.4321  1.6446 -1.2302
 4930SOL     OW26251   4.303   3.245  15.133 -0.6597  0.1709 -0.2803
 4930SOL    HW126252   4.253   3.245  15.052 -2.8440  0.8159  1.0474
 4930SOL    HW226253   4.363   3.171  15.127 -0.3458  0.3025  1.0999
 4931SOL     OW26254   3.481   3.778  14.418 -0.5280 -0.4846 -0.7360
 4931SOL    HW126255   3.399   3.781  14.468 -0.8828 -2.2445 -1.2228
 4931SOL    HW226256   3.447   3.758  14.331  1.3264  1.6019 -1.9416
 4932SOL     OW26257   3.169   3.427   7.859 -0.5560 -0.1246  0.0537
 4932SOL    HW126258   3.095   3.481   7.885 -1.1689 -0.1755 -1.5797
 4932SOL    HW226259   3.137   3.390   7.777  2.0144  0.2022 -1.1054
 4933SOL     OW26260   4.231   2.795  15.037  0.3709  0.2518 -0.0392
 4933SOL    HW126261   4.284   2.771  14.961 -3.4163 -0.4784 -2.4738
 4933SOL    HW226262   4.256   2.886  15.052  1.9845 -0.4468  1.3942
 4934SOL     OW26263   1.042   3.674   8.284  0.2672  0.4921  0.6206
 4934SOL    HW126264   1.122   3.658   8.335  0.4854 -1.1127 -0.2320
 4934SOL    HW226265   1.030   3.589   8.243  0.2920  0.0794  1.4624
 4935SOL     OW26266   4.387   3.205  10.553 -0.6891  0.6881 -0.3414
 4935SOL    HW126267   4.381   3.290  10.597  0.8499  0.6318 -0.0303
 4935SOL    HW226268   4.360   3.147  10.624  0.2005  0.1872 -0.4116
 4936SOL     OW26269   1.180   2.595   8.331 -0.5512 -0.0191 -0.1626
 4936SOL    HW126270   1.183   2.552   8.245  1.8259 -0.6185  0.2332
 4936SOL    HW226271   1.208   2.683   8.304 -1.7536  0.4553  0.1288
 4937SOL     OW26272   3.133   4.328  15.899 -0.5552 -0.1739 -0.0083
 4937SOL    HW126273   3.211   4.371  15.932 -1.8801 -0.2518  3.2200
 4937SOL    HW226274   3.180   4.246  15.893  2.2192  1.4931 -0.9142
 4938SOL     OW26275   3.147   4.205   5.119  0.5782  0.6193 -0.3978
 4938SOL    HW126276   3.182   4.162   5.040  0.7402 -1.8933  1.0469
 4938SOL    HW226277   3.061   4.167   5.134 -0.0272  0.9283 -3.1891
 4939SOL     OW26278   0.099   0.958  13.391 -0.9334  0.3445 -0.5556
 4939SOL    HW126279   0.153   1.004  13.327 -0.6266  1.0107  0.1903
 4939SOL    HW226280   0.028   0.944  13.328 -0.6097 -1.4733 -0.5382
 4940SOL     OW26281   0.882   2.504   5.551  0.1916  0.0206 -0.1252
 4940SOL    HW126282   0.874   2.598   5.533 -0.5599 -0.4264 -2.2243
 4940SOL    HW226283   0.919   2.508   5.639 -0.0203  0.5515 -0.0599
 4941SOL     OW26284   0.662   3.556   6.487 -0.3554 -0.3485  0.4792
 4941SOL    HW126285   0.689   3.466   6.506 -1.3993 -0.8739 -0.4774
 4941SOL    HW226286   0.660   3.597   6.573  0.0421 -0.2247  0.4256
 4942SOL     OW26287   1.920   0.407   4.345  0.3689  0.4703 -0.4495
 4942SOL    HW126288   1.948   0.474   4.283  2.9134 -1.2223 -1.1176
 4942SOL    HW226289   1.840   0.439   4.387  0.8943  2.5180 -0.9770
 4943SOL     OW26290   3.203   2.205  15.597 -0.4934  0.4957  0.3417
 4943SOL    HW126291   3.173   2.124  15.555 -1.4770  1.3539 -0.6255
 4943SOL    HW226292   3.211   2.265  15.522 -1.1879  0.3418  0.1482
 4944SOL     OW26293   2.710   1.557  13.123 -0.3645  0.5525 -0.2058
 4944SOL    HW126294   2.763   1.632  13.094 -0.5427  0.0495 -1.8590
 4944SOL    HW226295   2.622   1.593  13.110 -0.2910  0.5562 -0.7085
 4945SOL     OW26296   2.893   1.685  16.799  0.4110 -0.6537  0.1704
 4945SOL    HW126297   2.875   1.769  16.756 -3.3328 -1.9439 -0.7663
 4945SOL    HW226298   2.813   1.682  16.852  0.0269  1.2974 -0.2700
 4946SOL     OW26299   1.049   4.349  17.622  0.1089  0.4140 -0.0399
 4946SOL    HW126300   1.056   4.263  17.664  1.7675  0.9598  0.8030
 4946SOL    HW226301   0.959   4.374  17.644 -0.7303 -3.3551  0.8137
 4947SOL     OW26302   0.265   2.215   6.539  0.4346 -0.2883  0.0304
 4947SOL    HW126303   0.358   2.230   6.524  0.4609  0.6792  1.1386
 4947SOL    HW226304   0.226   2.288   6.587  0.8446 -0.2052  0.2357
 4948SOL     OW26305   3.050   2.608   6.537  0.1052  0.3182 -0.1551
 4948SOL    HW126306   3.115   2.662   6.581  1.1533 -2.4245  1.6562
 4948SOL    HW226307   3.101   2.533   6.508  2.8902  0.6418  3.8838
 4949SOL     OW26308   4.298   4.709   5.055  0.0074 -0.1890 -0.0119
 4949SOL    HW126309   4.377   0.007   5.004  0.1799 -1.8336 -0.3909
 4949SOL    HW226310   4.275   0.078   5.072 -1.6444 -0.9272  1.5697
 4950SOL     OW26311   3.798   1.205   1.645 -0.9397  0.0277 -0.2458
 4950SOL    HW126312   3.777   1.112   1.638 -0.4254 -0.1030 -0.0552
 4950SOL    HW226313   3.717   1.251   1.628 -0.5766  0.3614 -1.0778
 4951SOL     OW26314   1.950   2.174   3.889 -0.1389  0.0258  0.0958
 4951SOL    HW126315   1.869   2.226   3.889  0.2824  0.6899 -2.5975
 4951SOL    HW226316   2.011   2.242   3.917 -0.2934 -0.2404  1.0652
 4952SOL     OW26317   0.727   3.145   6.366 -0.9048 -0.2543 -0.4487
 4952SOL    HW126318   0.759   3.055   6.354 -0.4702  0.0633 -1.7699
 4952SOL    HW226319   0.757   3.175   6.280 -0.2443 -1.6594 -0.7134
 4953SOL     OW26320   2.179   1.135  13.668  0.5016  0.0281 -0.4566
 4953SOL    HW126321   2.184   1.040  13.668  0.6125  0.0341  1.4095
 4953SOL    HW226322   2.234   1.160  13.593 -0.4295  1.3988 -0.6925
 4954SOL     OW26323   4.619   1.127  12.066 -0.6935 -0.0209 -0.3266
 4954SOL    HW126324   4.575   1.157  12.146 -1.6245 -1.6525 -0.2203
 4954SOL    HW226325   4.565   1.167  11.998 -0.1925  0.6370 -0.3337
 4955SOL     OW26326   0.377   0.465   9.490  0.3112 -0.8598 -0.2962
 4955SOL    HW126327   0.413   0.550   9.514  1.0023 -0.1893 -3.6785
 4955SOL    HW226328   0.382   0.473   9.394 -1.8039 -2.2846 -0.5516
 4956SOL     OW26329   2.582   2.936  16.022  0.2012  0.4083  0.3296
 4956SOL    HW126330   2.585   2.984  16.105 -1.4878 -0.6658  1.0035
 4956SOL    HW226331   2.666   2.891  16.024 -0.8493 -1.5757 -0.7103
 4957SOL     OW26332   1.404   3.026   3.360  0.1725  0.0542 -0.1927
 4957SOL    HW126333   1.322   2.983   3.385  0.2705  0.0440  0.1087
 4957SOL    HW226334   1.392   3.108   3.407 -2.3653  0.7462 -2.0423
 4958SOL     OW26335   0.986   3.098   0.461  0.4931  0.5293  0.4440
 4958SOL    HW126336   0.908   3.101   0.515  0.6534 -1.3997  0.7786
 4958SOL    HW226337   0.974   3.011   0.423  0.3751  1.1059 -0.8488
 4959SOL     OW26338   2.465   4.156   1.041  0.1219  0.0605 -0.1480
 4959SOL    HW126339   2.380   4.167   0.997 -1.1840  1.1276  2.6929
 4959SOL    HW226340   2.506   4.095   0.979 -0.7510 -1.0067  0.3192
 4960SOL     OW26341   3.816   0.091   5.009 -0.3437 -0.2316  0.3375
 4960SOL    HW126342   3.858   0.057   5.089 -1.0654 -3.3252 -0.5874
 4960SOL    HW226343   3.877   0.165   5.008 -1.4781  0.7306  3.0723
 4961SOL     OW26344   1.521   1.891   4.834  0.2832 -0.3718  0.1945
 4961SOL    HW126345   1.443   1.915   4.785  1.2613  1.1326 -0.6242
 4961SOL    HW226346   1.556   1.977   4.857 -0.6934 -0.1156  0.7207
 4962SOL     OW26347   4.359   4.046  12.195 -0.2247  0.4344 -0.2633
 4962SOL    HW126348   4.301   4.115  12.164 -1.4409 -1.3463 -1.9363
 4962SOL    HW226349   4.411   4.091  12.261 -0.0890 -0.2281  0.0823
 4963SOL     OW26350   1.844   0.845  13.429 -0.6617 -0.0586 -0.2260
 4963SOL    HW126351   1.769   0.880  13.476 -0.0820  0.1144  0.5664
 4963SOL    HW226352   1.908   0.915  13.440  0.3529 -1.3875  2.2997
 4964SOL     OW26353   0.513   2.546   8.315 -0.2724  0.0776 -0.1445
 4964SOL    HW126354   0.509   2.451   8.304 -1.7980  0.3438 -1.9633
 4964SOL    HW226355   0.605   2.571   8.318 -0.1948 -0.2976  0.7059
 4965SOL     OW26356   1.642   2.730   3.179 -0.3451 -0.6007 -0.0216
 4965SOL    HW126357   1.736   2.715   3.177 -0.1545  0.9905 -2.5818
 4965SOL    HW226358   1.618   2.718   3.087  0.4280 -0.9744 -0.1759
 4966SOL     OW26359   1.273   0.638   9.650  0.1892 -0.1775  0.4984
 4966SOL    HW126360   1.345   0.590   9.608 -1.2865 -1.2323 -0.7849
 4966SOL    HW226361   1.291   0.597   9.735 -2.8685 -3.3607 -0.4162
 4967SOL     OW26362   0.540   1.939   6.288 -0.4832  0.2060 -0.4814
 4967SOL    HW126363   0.459   1.971   6.248  1.2513  2.8268 -1.8656
 4967SOL    HW226364   0.553   1.999   6.362  0.6703 -1.1087  0.4117
 4968SOL     OW26365   2.051   1.265   6.059 -0.2949  0.0380 -0.4380
 4968SOL    HW126366   2.056   1.352   6.019  0.5392  0.0199 -0.3632
 4968SOL    HW226367   1.968   1.283   6.103  0.5352 -3.2655  2.3978
 4969SOL     OW26368   1.099   0.031   9.647 -0.0971  0.3805  0.4765
 4969SOL    HW126369   1.095   0.114   9.600  0.1868  1.2901  2.0586
 4969SOL    HW226370   1.173   4.703   9.612 -1.2342 -2.2675  1.8525
 4970SOL     OW26371   4.430   0.117   3.032 -0.2417 -0.6674  0.4705
 4970SOL    HW126372   4.392   0.200   3.005 -0.8645 -1.3237 -0.6888
 4970SOL    HW226373   4.442   0.064   2.953 -0.7723  2.2880 -1.5790
 4971SOL     OW26374   3.502   3.394   4.700 -0.4829 -0.6549 -0.3895
 4971SOL    HW126375   3.475   3.430   4.784  1.7462  0.8860 -0.3346
 4971SOL    HW226376   3.594   3.371   4.715 -0.6444  0.3615  2.1902
 4972SOL     OW26377   3.330   3.236  12.955  0.5109 -0.2975 -0.1052
 4972SOL    HW126378   3.342   3.311  12.897 -0.6710  0.6755  0.9145
 4972SOL    HW226379   3.363   3.167  12.898  0.6219 -4.1059  4.5670
 4973SOL     OW26380   1.747   1.676  12.503  0.0704 -1.0238 -0.9471
 4973SOL    HW126381   1.786   1.704  12.586 -0.7794  0.0054 -0.8887
 4973SOL    HW226382   1.806   1.730  12.450 -2.5913  1.1689 -1.6587
 4974SOL     OW26383   0.695   3.714   9.525  0.1988  0.3209  0.6062
 4974SOL    HW126384   0.777   3.745   9.563 -0.0930 -0.5854  2.0022
 4974SOL    HW226385   0.653   3.797   9.502  0.4933  0.6344  1.1923
 4975SOL     OW26386   2.886   3.498   4.132  0.3434  0.0888 -0.0310
 4975SOL    HW126387   2.912   3.586   4.161  1.3578  0.4272 -2.0548
 4975SOL    HW226388   2.794   3.486   4.159 -0.2364 -0.0237 -2.0770
 4976SOL     OW26389   4.077   1.035   4.121  0.3272  1.1914  0.1049
 4976SOL    HW126390   4.106   1.125   4.134 -0.3042  1.4459 -0.2490
 4976SOL    HW226391   4.149   0.987   4.161  0.3526  0.7006 -0.5384
 4977SOL     OW26392   0.532   2.491   9.459 -0.0866  0.3621  0.4156
 4977SOL    HW126393   0.600   2.554   9.482 -0.2663  0.7031 -0.0091
 4977SOL    HW226394   0.457   2.544   9.485  0.8529  0.1638  3.5602
 4978SOL     OW26395   0.771   4.144  13.777 -0.1544  0.1222 -0.1064
 4978SOL    HW126396   0.717   4.170  13.703  1.5122 -0.4311 -1.5382
 4978SOL    HW226397   0.862   4.130  13.750 -0.8819 -0.6707 -2.0833
 4979SOL     OW26398   3.322   2.613   1.486  0.0124  0.0250  0.3970
 4979SOL    HW126399   3.277   2.531   1.507 -2.0269  1.0159 -0.1415
 4979SOL    HW226400   3.278   2.650   1.410  1.0292 -0.1425 -0.2701
 4980SOL     OW26401   4.508   1.195  16.592 -0.1378 -0.6600 -0.0799
 4980SOL    HW126402   4.530   1.262  16.657 -0.1759 -0.5011 -0.2300
 4980SOL    HW226403   4.415   1.215  16.582 -0.1782 -0.1533  1.2316
 4981SOL     OW26404   0.973   4.684   7.921  0.5648 -0.2666  0.2832
 4981SOL    HW126405   1.024   4.681   8.002  0.7177  1.1688  0.2508
 4981SOL    HW226406   0.894   0.006   7.954 -0.2898 -0.9946 -0.7934
 4982SOL     OW26407   0.341   3.483   4.822  0.4334  0.0497 -0.1114
 4982SOL    HW126408   0.401   3.549   4.857 -2.2212  2.3298  0.1348
 4982SOL    HW226409   0.401   3.408   4.822 -0.9276 -1.0417 -0.9357
 4983SOL     OW26410   3.095   4.604   5.199 -0.4414 -0.0163  0.9032
 4983SOL    HW126411   3.103   4.516   5.235 -0.7669 -1.5678 -2.8732
 4983SOL    HW226412   3.156   4.645   5.260  2.3094 -0.9132 -1.2718
 4984SOL     OW26413   1.213   2.531  14.913 -0.8501  0.0085 -0.0622
 4984SOL    HW126414   1.150   2.529  14.840 -2.7485  1.6743  1.5323
 4984SOL    HW226415   1.153   2.551  14.985 -1.3145 -1.6761  0.0226
 4985SOL     OW26416   0.954   1.010   5.001 -0.2464 -0.6532  0.3628
 4985SOL    HW126417   0.995   0.923   5.008 -0.7139 -1.1327 -2.9889
 4985SOL    HW226418   0.873   1.006   5.052 -0.9709 -0.3985 -0.7940
 4986SOL     OW26419   4.406   4.398  17.231 -0.2946 -0.1012 -0.4303
 4986SOL    HW126420   4.476   4.463  17.220 -0.2443  0.0694  0.8426
 4986SOL    HW226421   4.463   4.323  17.217  1.0958  0.5220  1.8968
 4987SOL     OW26422   3.387   0.050   9.410 -0.0524 -0.3439 -0.2821
 4987SOL    HW126423   3.346   0.087   9.488  2.1309 -0.0698  0.7152
 4987SOL    HW226424   3.461   4.722   9.444  1.3698  1.4322 -0.7536
 4988SOL     OW26425   4.681   3.889   7.123 -0.1750 -0.6830 -0.1793
 4988SOL    HW126426   4.647   3.973   7.092 -0.8382 -0.4457  1.1840
 4988SOL    HW226427   4.626   3.826   7.075  0.8195 -1.8393  0.1984
 4989SOL     OW26428   3.448   2.267   2.019  0.3268 -0.0190 -0.3899
 4989SOL    HW126429   3.423   2.333   1.954  0.5819 -2.2364 -2.7085
 4989SOL    HW226430   3.519   2.305   2.070  0.4466  0.9773 -1.3127
 4990SOL     OW26431   1.890   2.702   6.104  0.6841 -0.1469  0.1822
 4990SOL    HW126432   1.905   2.754   6.183 -1.6384  1.1401 -0.2495
 4990SOL    HW226433   1.917   2.761   6.034  1.8826 -1.5952 -0.5868
 4991SOL     OW26434   3.970   0.760   2.200 -0.5704 -0.3510 -0.2756
 4991SOL    HW126435   4.041   0.796   2.147 -0.9593  0.7203 -0.0692
 4991SOL    HW226436   3.984   0.666   2.193  1.8391 -0.1981  2.2357
 4992SOL     OW26437   2.615   4.335  13.281 -0.4411  0.1363  0.0935
 4992SOL    HW126438   2.649   4.246  13.284  1.5134  0.8223 -1.5300
 4992SOL    HW226439   2.671   4.384  13.342 -0.4144  0.6703 -0.3553
 4993SOL     OW26440   2.635   3.847  17.238 -0.1983  0.1458  0.3280
 4993SOL    HW126441   2.657   3.777  17.177  0.4604  0.5480  0.1091
 4993SOL    HW226442   2.556   3.885  17.201  0.5875  0.3881 -1.0907
 4994SOL     OW26443   1.121   2.197   8.806 -0.2761 -0.2053 -0.5309
 4994SOL    HW126444   1.147   2.129   8.868  0.5218  2.8212  2.4058
 4994SOL    HW226445   1.204   2.204   8.759 -0.2973 -0.5127 -0.6123
 4995SOL     OW26446   1.354   3.234  15.535 -0.3864  0.0558  0.1577
 4995SOL    HW126447   1.285   3.197  15.480  2.4032  2.3554 -4.9248
 4995SOL    HW226448   1.356   3.328  15.515  0.9084 -0.4135 -1.9177
 4996SOL     OW26449   4.703   2.067   4.929 -0.1309 -0.2997 -0.0367
 4996SOL    HW126450   4.649   2.143   4.907  0.3203 -0.1758 -0.7326
 4996SOL    HW226451   0.041   2.055   4.855 -0.2393  1.1293 -0.3500
 4997SOL     OW26452   2.321   1.701  16.827  0.1034  0.3185  0.1639
 4997SOL    HW126453   2.287   1.635  16.766  1.7431  0.9815 -1.4609
 4997SOL    HW226454   2.408   1.729  16.801  0.1966  0.4185  0.5885
 4998SOL     OW26455   2.745   4.299  16.025 -0.2013 -0.0754  0.4278
 4998SOL    HW126456   2.772   4.235  16.091  0.5436 -0.8133 -0.6000
 4998SOL    HW226457   2.802   4.266  15.956  0.5871  2.4359 -0.1115
 4999SOL     OW26458   0.733   0.734   0.399 -0.0647  0.5332 -0.2121
 4999SOL    HW126459   0.690   0.716   0.315 -0.5030  1.2195 -0.1375
 4999SOL    HW226460   0.719   0.829   0.394 -1.8878  0.2811  0.2291
 5000SOL     OW26461   2.752   2.666   3.492 -0.1894 -0.0459  0.1757
 5000SOL    HW126462   2.787   2.751   3.516  1.4234 -0.7607  0.3693
 5000SOL    HW226463   2.737   2.674   3.397  0.6922  0.2129  0.0534
 5001SOL     OW26464   2.954   0.996   9.141  0.2308  0.4150 -0.6364
 5001SOL    HW126465   2.864   1.026   9.151 -0.6356 -2.0433 -1.1775
 5001SOL    HW226466   3.013   1.071   9.133  0.4672  0.5400  2.2785
 5002SOL     OW26467   2.684   3.796  13.432 -0.3613  0.4196  0.4669
 5002SOL    HW126468   2.596   3.806  13.467  0.4885  0.4767  2.5871
 5002SOL    HW226469   2.666   3.775  13.340  1.8318 -2.7666  0.7557
 5003SOL     OW26470   4.654   0.466   3.519  0.7745 -0.1843 -0.9455
 5003SOL    HW126471   4.644   0.526   3.593 -4.3953  0.0866 -1.8416
 5003SOL    HW226472   4.644   0.376   3.549  1.0059  0.1552  0.1465
 5004SOL     OW26473   3.619   4.400   3.792 -0.0837 -0.1808 -0.2506
 5004SOL    HW126474   3.681   4.471   3.804 -0.0447 -0.0905 -0.9642
 5004SOL    HW226475   3.546   4.450   3.829  0.2600  1.4368 -1.7403
 5005SOL     OW26476   4.079   1.199   4.392  0.1345  0.0440 -0.2895
 5005SOL    HW126477   4.149   1.133   4.385 -0.6049 -1.0660  2.6899
 5005SOL    HW226478   4.132   1.278   4.402  0.0843  0.0308  0.0753
 5006SOL     OW26479   1.842   1.192   7.886 -0.0016 -0.1822 -0.6214
 5006SOL    HW126480   1.806   1.104   7.883  0.9635 -0.5549 -1.3031
 5006SOL    HW226481   1.907   1.185   7.816 -0.0368  2.7710 -0.9649
 5007SOL     OW26482   4.595   2.889   9.477  0.0529  0.0140 -0.1702
 5007SOL    HW126483   4.570   2.979   9.454  0.5781  0.2315  0.1267
 5007SOL    HW226484   4.521   2.853   9.427  0.3137 -0.9204  0.1190
 5008SOL     OW26485   0.985   1.277   6.388 -0.3897 -0.4453 -0.3747
 5008SOL    HW126486   0.917   1.336   6.421  0.2441  0.8450 -1.3422
 5008SOL    HW226487   1.032   1.261   6.470  0.8652  0.8110 -0.8481
 5009SOL     OW26488   1.635   0.927   0.354 -0.1843 -0.4885  0.0324
 5009SOL    HW126489   1.701   0.936   0.423 -1.8926 -1.0623  1.7636
 5009SOL    HW226490   1.602   0.837   0.357  2.4012 -1.3677  1.7344
 5010SOL     OW26491   2.745   4.607   9.240  0.4846 -0.4610  0.2521
 5010SOL    HW126492   2.730   4.671   9.310  2.9643  0.1472  0.2338
 5010SOL    HW226493   2.834   4.578   9.261  0.8531 -0.9091 -1.9209
 5011SOL     OW26494   0.802   4.218  10.902  0.0009  0.0881  0.3215
 5011SOL    HW126495   0.835   4.298  10.860 -0.6234 -1.0581 -2.3328
 5011SOL    HW226496   0.852   4.146  10.863 -0.7007 -1.0969  1.6325
 5012SOL     OW26497   4.667   0.272   9.670 -0.0873 -0.0756  0.0137
 5012SOL    HW126498   4.700   0.199   9.616 -3.1736 -1.4547  0.0176
 5012SOL    HW226499   4.669   0.235   9.758 -1.2462  0.3496  0.2228
 5013SOL     OW26500   0.232   1.632   8.102  0.4729 -0.4582  0.3673
 5013SOL    HW126501   0.318   1.671   8.117  0.3046 -0.4012  1.1615
 5013SOL    HW226502   0.217   1.587   8.185 -0.1467 -2.4233 -0.8086
 5014SOL     OW26503   2.794   0.299   9.113 -0.3254  0.0660  0.2883
 5014SOL    HW126504   2.779   0.205   9.105 -1.5587  0.2075  1.0305
 5014SOL    HW226505   2.851   0.303   9.189 -1.6580  0.1963  1.2828
 5015SOL     OW26506   3.591   2.105   6.394 -0.1080 -0.7714  0.2225
 5015SOL    HW126507   3.505   2.123   6.356  0.1168 -0.5708 -0.1997
 5015SOL    HW226508   3.649   2.141   6.326 -0.0814 -0.8187  0.2203
 5016SOL     OW26509   1.329   2.700   5.099 -0.1901 -0.0306 -0.8675
 5016SOL    HW126510   1.261   2.740   5.045  0.4680  0.2266 -1.5111
 5016SOL    HW226511   1.281   2.618   5.108 -0.4602  0.4419  2.1123
 5017SOL     OW26512   0.600   3.851   5.878  0.1574 -0.1809  0.1466
 5017SOL    HW126513   0.567   3.871   5.790 -0.3420 -0.6456  0.2259
 5017SOL    HW226514   0.617   3.942   5.900 -2.3318  0.5306 -0.7504
 5018SOL     OW26515   1.140   1.644   2.688 -0.2288 -0.1367 -0.6321
 5018SOL    HW126516   1.099   1.703   2.751 -1.2366 -0.6691 -0.7940
 5018SOL    HW226517   1.116   1.681   2.603  0.1806  0.8466 -0.3165
 5019SOL     OW26518   0.019   1.752   4.224  0.4754 -0.4966 -0.4943
 5019SOL    HW126519   0.038   1.669   4.267  1.0002  0.5154  1.2455
 5019SOL    HW226520   4.676   1.713   4.167  0.8198 -6.4024  3.1585
 5020SOL     OW26521   2.906   0.801   7.925 -0.2056 -0.3118 -0.2310
 5020SOL    HW126522   2.953   0.773   8.004 -0.1629  0.0725 -0.1181
 5020SOL    HW226523   2.897   0.722   7.872 -2.1903  0.2705 -0.7477
 5021SOL     OW26524   3.310   1.353   2.245 -0.4204 -0.3815 -0.5650
 5021SOL    HW126525   3.332   1.433   2.292 -1.8157 -0.6751  0.5841
 5021SOL    HW226526   3.294   1.298   2.321  2.3431 -0.3150  0.0778
 5022SOL     OW26527   3.820   0.754   5.231  0.3986  0.2158 -0.2625
 5022SOL    HW126528   3.784   0.683   5.179  2.5164 -1.8849  1.1391
 5022SOL    HW226529   3.751   0.820   5.227  1.3928  1.3078  0.5439
 5023SOL     OW26530   0.250   3.678   9.076 -0.4855 -0.4581 -0.4416
 5023SOL    HW126531   0.228   3.764   9.112  0.6197  0.8413 -2.8731
 5023SOL    HW226532   0.181   3.665   9.011 -0.7441  2.2158 -0.6922
 5024SOL     OW26533   3.156   1.936   2.082 -0.1509  0.2791 -0.2168
 5024SOL    HW126534   3.134   1.936   2.175 -0.7438  0.6697 -0.3507
 5024SOL    HW226535   3.250   1.938   2.068 -0.2090  0.3932 -0.5887
 5025SOL     OW26536   1.367   4.165   3.542 -0.1731  0.4706  0.3345
 5025SOL    HW126537   1.366   4.110   3.620 -1.5855 -2.1959 -1.6000
 5025SOL    HW226538   1.458   4.196   3.544  1.2361 -3.7976  1.3995
 5026SOL     OW26539   0.851   2.718   5.107 -0.1179 -0.3264 -0.3385
 5026SOL    HW126540   0.794   2.775   5.159  2.4733  1.5289  0.4891
 5026SOL    HW226541   0.913   2.702   5.179 -0.1867  0.6621 -0.0578
 5027SOL     OW26542   2.244   0.890   3.098 -0.6747  0.5043 -0.1407
 5027SOL    HW126543   2.267   0.982   3.094 -0.6980  0.5015 -0.3093
 5027SOL    HW226544   2.186   0.876   3.023 -0.5677  1.8080 -0.4580
 5028SOL     OW26545   2.972   4.249   3.843  0.3538  0.4724 -0.0736
 5028SOL    HW126546   2.900   4.251   3.780  0.6160 -0.4177 -0.3982
 5028SOL    HW226547   2.937   4.186   3.905 -0.7060  0.5933 -0.5479
 5029SOL     OW26548   0.893   0.657   9.229 -0.2050  0.0529  0.0341
 5029SOL    HW126549   0.922   0.568   9.247 -2.7187 -0.4234  1.7853
 5029SOL    HW226550   0.948   0.678   9.153 -0.6531  1.1395  0.0146
 5030SOL     OW26551   2.351   0.341   8.830  0.0514  0.3207  0.3017
 5030SOL    HW126552   2.308   0.364   8.748 -0.5537 -2.0796 -0.0618
 5030SOL    HW226553   2.306   0.391   8.898  0.6464  0.9651  0.2165
 5031SOL     OW26554   1.260   3.636  17.682 -0.5545 -0.1832 -0.4612
 5031SOL    HW126555   1.208   3.558  17.664 -1.1905 -0.2678  1.6829
 5031SOL    HW226556   1.349   3.607  17.663 -0.0508  0.8209  0.3719
 5032SOL     OW26557   2.581   4.017  14.854 -0.2352  0.0383  0.1001
 5032SOL    HW126558   2.669   3.999  14.887 -1.1852 -0.3197  2.3933
 5032SOL    HW226559   2.525   3.970  14.916 -0.1934  1.0015  0.8585
 5033SOL     OW26560   0.300   3.030  13.730  0.5527  0.1373 -0.2652
 5033SOL    HW126561   0.330   2.979  13.656  1.1621 -0.6059  0.4972
 5033SOL    HW226562   0.318   3.115  13.689  1.3317 -0.1068 -0.4124
 5034SOL     OW26563   4.146   0.485   2.048  0.7200 -0.3884 -0.8276
 5034SOL    HW126564   4.199   0.554   2.007 -0.4196  0.1605 -1.3839
 5034SOL    HW226565   4.203   0.412   2.071  1.6424  0.7068  0.3672
 5035SOL     OW26566   2.946   1.923   1.602  0.4090  0.6983  0.2370
 5035SOL    HW126567   2.895   1.926   1.682 -0.1919 -0.5729 -0.1039
 5035SOL    HW226568   3.030   1.880   1.621  0.1941 -0.1073 -0.6143
 5036SOL     OW26569   3.080   0.462   3.176  1.0504  0.4730  0.0964
 5036SOL    HW126570   3.078   0.484   3.269  0.3785 -1.0053  0.4263
 5036SOL    HW226571   2.987   0.442   3.171  0.7563  1.8489 -0.0973
 5037SOL     OW26572   0.269   2.515   7.361 -0.2811  0.4009  0.2449
 5037SOL    HW126573   0.201   2.471   7.413  0.2602 -0.3295  0.3281
 5037SOL    HW226574   0.238   2.494   7.273  1.8902 -1.9813  0.0368
 5038SOL     OW26575   3.611   0.260   4.940 -0.4872  0.4428 -0.0781
 5038SOL    HW126576   3.660   0.290   4.864 -2.1189 -0.2548 -1.4133
 5038SOL    HW226577   3.658   0.184   4.975 -0.0932 -0.0078 -1.5697
 5039SOL     OW26578   2.185   1.188  12.273 -0.0475 -0.0260 -0.0086
 5039SOL    HW126579   2.168   1.151  12.359 -1.7593 -1.7405 -1.0755
 5039SOL    HW226580   2.171   1.110  12.218  0.7185  2.2845 -3.4794
 5040SOL     OW26581   3.931   2.347   1.448  0.0899  0.8359  0.2988
 5040SOL    HW126582   3.992   2.276   1.468 -0.0762  0.8985  1.0033
 5040SOL    HW226583   3.861   2.300   1.403  1.1025 -0.4182  0.0369
 5041SOL     OW26584   2.234   3.282   3.889  0.3372 -0.0294 -0.0898
 5041SOL    HW126585   2.237   3.189   3.915 -1.6322  0.5807  2.3657
 5041SOL    HW226586   2.157   3.285   3.831  0.4034  1.3600 -0.1011
 5042SOL     OW26587   0.029   3.544  14.791  0.2641  0.5468 -0.1772
 5042SOL    HW126588   0.106   3.488  14.797 -1.4584 -1.6252  1.1918
 5042SOL    HW226589   0.071   3.619  14.833 -0.0730  0.9947 -0.6323
 5043SOL     OW26590   0.532   4.118   3.615  0.1842  0.0023 -0.4850
 5043SOL    HW126591   0.627   4.108   3.611  0.2152 -0.7717  1.9239
 5043SOL    HW226592   0.518   4.206   3.652 -0.8295 -0.5002  0.3524
 5044SOL     OW26593   0.216   4.600   8.033  0.5692  0.1287  0.2778
 5044SOL    HW126594   0.140   4.652   8.009  0.3418  0.0030  0.7361
 5044SOL    HW226595   0.236   4.553   7.952  1.0199 -2.0188  1.6407
 5045SOL     OW26596   2.834   3.503   7.682 -0.0099  0.2265 -0.3784
 5045SOL    HW126597   2.856   3.424   7.731  0.2053  0.6246  0.1639
 5045SOL    HW226598   2.846   3.569   7.750 -0.5360  0.2022 -0.2633
 5046SOL     OW26599   1.714   4.074  15.588  0.1613  0.4553 -0.2785
 5046SOL    HW126600   1.662   4.150  15.615  0.0420 -0.4820  2.0962
 5046SOL    HW226601   1.652   4.021  15.537 -0.2896  1.6191 -0.9523
 5047SOL     OW26602   1.311   0.790  10.029 -0.4480 -0.1114  0.9750
 5047SOL    HW126603   1.267   0.818   9.948 -0.8600  3.6195  2.4845
 5047SOL    HW226604   1.403   0.793  10.004 -0.1688 -2.1778  1.8063
 5048SOL     OW26605   4.569   2.090   7.726 -0.6697 -0.2657  0.5757
 5048SOL    HW126606   4.594   2.158   7.664  2.3030 -0.4130  1.6116
 5048SOL    HW226607   4.641   2.105   7.788  0.2243 -0.6329 -0.3738
 5049SOL     OW26608   2.794   2.330   8.148  0.1278  0.4996  0.2207
 5049SOL    HW126609   2.758   2.258   8.096 -0.5081  0.1623  1.1234
 5049SOL    HW226610   2.745   2.409   8.121 -2.8106 -1.7947 -1.1831
 5050SOL     OW26611   3.713   4.492   0.877 -0.5144 -0.1536  0.1896
 5050SOL    HW126612   3.736   4.548   0.803 -0.4755 -2.1888 -1.3441
 5050SOL    HW226613   3.715   4.406   0.837  2.0953  1.8878 -4.0521
 5051SOL     OW26614   4.636   2.298   7.017  0.0620  0.1492  0.1583
 5051SOL    HW126615   4.559   2.245   7.036  0.6317 -0.0912  1.7874
 5051SOL    HW226616   4.703   2.259   7.074  1.3888 -0.3133 -1.7226
 5052SOL     OW26617   0.474   1.759   2.952  0.4242  0.4398  0.2106
 5052SOL    HW126618   0.402   1.769   3.015  0.3607 -2.0487  0.5250
 5052SOL    HW226619   0.476   1.663   2.948 -0.6805  0.4338 -0.1174
 5053SOL     OW26620   0.235   1.449   8.329 -0.0927  0.1850  0.3828
 5053SOL    HW126621   0.144   1.479   8.335 -0.6740 -1.1304 -1.7389
 5053SOL    HW226622   0.271   1.466   8.416 -0.0764  1.6877  0.0820
 5054SOL     OW26623   2.201   2.367   5.753  0.3396 -0.7526  0.2743
 5054SOL    HW126624   2.163   2.294   5.802 -1.9182 -1.1239 -2.0180
 5054SOL    HW226625   2.213   2.328   5.666  1.8487 -0.6627  0.4504
 5055SOL     OW26626   2.790   3.938   1.727  0.1065 -0.2687  0.0370
 5055SOL    HW126627   2.782   3.902   1.815  1.7521 -1.2728 -0.2241
 5055SOL    HW226628   2.725   3.885   1.680  0.4412 -2.1841  1.7533
 5056SOL     OW26629   3.441   4.551   7.530 -0.0938 -0.2251  0.5790
 5056SOL    HW126630   3.381   4.488   7.570  0.2555 -0.7833  0.2292
 5056SOL    HW226631   3.385   4.626   7.509 -0.2040 -0.2142  0.9103
 5057SOL     OW26632   3.814   2.739   0.194  0.6500 -0.4842 -0.5394
 5057SOL    HW126633   3.785   2.766   0.281  1.7168  0.1904 -0.3940
 5057SOL    HW226634   3.885   2.681   0.220  1.4166  0.9967  0.6193
 5058SOL     OW26635   2.714   3.315   1.331  0.4582  0.1207 -0.4877
 5058SOL    HW126636   2.630   3.334   1.373 -0.6365  2.4803 -3.8066
 5058SOL    HW226637   2.778   3.334   1.400  0.4963  1.9479 -1.0486
 5059SOL     OW26638   3.525   4.607   1.238  0.6737  0.3011  0.2398
 5059SOL    HW126639   3.438   4.573   1.217  0.4561  0.5919  0.6708
 5059SOL    HW226640   3.573   4.538   1.192 -1.1648  0.4770 -1.9620
 5060SOL     OW26641   2.254   3.822  15.186 -0.3676 -0.1892  0.0025
 5060SOL    HW126642   2.220   3.742  15.228  2.6707 -0.5453  1.8433
 5060SOL    HW226643   2.175   3.873  15.174 -0.3085  0.6171  2.9511
 5061SOL     OW26644   2.180   3.265   5.569  0.5357 -0.0231  0.2135
 5061SOL    HW126645   2.155   3.278   5.660  1.7219 -0.3007  0.5719
 5061SOL    HW226646   2.201   3.172   5.575 -0.0361 -0.0504  1.7085
 5062SOL     OW26647   3.839   2.937  16.008 -0.2079  0.1505 -0.5821
 5062SOL    HW126648   3.846   2.903  16.097  0.4412 -0.8241 -1.0060
 5062SOL    HW226649   3.877   3.021  16.032  0.7124 -0.3387 -0.3366
 5063SOL     OW26650   1.435   2.709   1.268  0.3619 -0.2436 -0.7066
 5063SOL    HW126651   1.378   2.761   1.325  0.6283 -0.9725  0.2263
 5063SOL    HW226652   1.511   2.684   1.320  1.4468 -0.0267 -2.1763
 5064SOL     OW26653   2.133   0.992   6.504 -0.5567 -0.2053 -1.0026
 5064SOL    HW126654   2.038   0.993   6.491 -0.8389  1.2074  1.0544
 5064SOL    HW226655   2.173   1.044   6.435  1.4551  0.7296  0.8839
 5065SOL     OW26656   3.113   3.227   3.944  0.2751 -0.7175 -0.0284
 5065SOL    HW126657   3.078   3.195   4.028  2.9337  0.9903  1.7243
 5065SOL    HW226658   3.105   3.322   3.952 -0.9892 -0.7868 -0.4107
 5066SOL     OW26659   2.085   2.297   7.201 -0.1699  0.1432 -0.1988
 5066SOL    HW126660   2.014   2.298   7.137  0.1021 -4.2431 -0.5475
 5066SOL    HW226661   2.072   2.214   7.246  2.2377 -0.1994 -0.1595
 5067SOL     OW26662   1.515   0.645   8.149 -0.7578  0.4180  0.6498
 5067SOL    HW126663   1.440   0.630   8.206 -0.8430  1.5955  0.8376
 5067SOL    HW226664   1.463   0.699   8.090  1.5631  0.6185 -1.2218
 5068SOL     OW26665   1.156   3.575   9.932  0.1046 -0.0393 -0.2783
 5068SOL    HW126666   1.234   3.615   9.970 -0.4570  0.3531  0.4649
 5068SOL    HW226667   1.148   3.645   9.867  1.0685 -1.4973 -1.9636
 5069SOL     OW26668   4.325   3.616   7.259  0.4582  0.0871  0.4142
 5069SOL    HW126669   4.315   3.697   7.308  1.5468  1.2475 -1.3055
 5069SOL    HW226670   4.236   3.581   7.258  1.4280 -2.3832  0.7336
 5070SOL     OW26671   2.785   0.100   4.117  0.7875  0.6890  0.5630
 5070SOL    HW126672   2.843   0.097   4.041 -0.5834 -4.6715 -0.3209
 5070SOL    HW226673   2.820   0.023   4.162  0.0643 -0.1191 -0.2671
 5071SOL     OW26674   1.418   1.738  10.136  0.4354  0.0147  0.8747
 5071SOL    HW126675   1.486   1.777  10.081 -2.4628  4.4086  0.3706
 5071SOL    HW226676   1.396   1.810  10.196  1.0427  1.4003 -0.5600
 5072SOL     OW26677   1.285   4.525   2.168 -0.3162  0.0735 -0.1551
 5072SOL    HW126678   1.377   4.523   2.141  0.0193  2.4144  0.7935
 5072SOL    HW226679   1.273   4.448   2.224 -0.5554 -0.5384 -1.0507
 5073SOL     OW26680   1.685   0.666   9.113 -0.8159  0.3745 -0.5357
 5073SOL    HW126681   1.735   0.584   9.111 -0.9226  0.3263 -1.2582
 5073SOL    HW226682   1.693   0.696   9.203 -0.9072 -1.8962  0.2089
 5074SOL     OW26683   3.485   1.577  14.506 -0.1931 -0.2745  0.5065
 5074SOL    HW126684   3.493   1.559  14.600  1.7519  1.0894  0.5993
 5074SOL    HW226685   3.514   1.668  14.498  1.9454 -0.8456  1.4901
 5075SOL     OW26686   1.104   3.780   6.025 -0.1121  0.1064 -0.6275
 5075SOL    HW126687   1.044   3.817   6.090  1.7163  2.6229 -0.3998
 5075SOL    HW226688   1.071   3.690   6.031  0.6913 -0.0497  1.2105
 5076SOL     OW26689   0.967   4.572  13.055  0.0629 -0.2052 -0.1286
 5076SOL    HW126690   0.876   4.542  13.052 -0.4851  1.4432 -0.0976
 5076SOL    HW226691   0.985   4.562  13.148 -2.6686 -0.0408  0.4088
 5077SOL     OW26692   2.237   0.813  14.854 -0.0993  0.2691 -0.1354
 5077SOL    HW126693   2.219   0.868  14.778  1.8418  0.7004 -0.2794
 5077SOL    HW226694   2.225   0.727  14.812 -1.0819 -0.1648  1.0288
 5078SOL     OW26695   0.610   1.299  13.639 -0.4530  0.4918  0.6855
 5078SOL    HW126696   0.664   1.229  13.602 -1.7108  0.2658 -0.7226
 5078SOL    HW226697   0.523   1.287  13.600  0.0438 -0.2783 -0.1888
 5079SOL     OW26698   1.106   1.009  13.311  0.2895  0.2395  0.3816
 5079SOL    HW126699   1.101   1.032  13.218 -1.4016  0.4521  0.5205
 5079SOL    HW226700   1.057   1.085  13.343 -1.3995 -0.5125 -0.3649
 5080SOL     OW26701   4.551   1.121   5.051 -0.9245  0.1373  0.3093
 5080SOL    HW126702   4.608   1.055   5.091  1.3218 -0.0114 -3.0923
 5080SOL    HW226703   4.527   1.174   5.126 -2.6168  1.5797 -1.2458
 5081SOL     OW26704   0.096   2.938  17.515 -0.1559  0.3771  0.0910
 5081SOL    HW126705   0.066   2.918  17.426  1.3456  1.1223 -0.5846
 5081SOL    HW226706   0.033   3.007  17.534 -1.8681 -1.1818  0.0533
 5082SOL     OW26707   3.786   0.546   6.060  0.5804 -0.2358 -0.4112
 5082SOL    HW126708   3.738   0.481   6.110  1.9339 -1.7587 -1.0725
 5082SOL    HW226709   3.875   0.512   6.066  0.2005 -0.9798  0.7969
 5083SOL     OW26710   4.149   3.509  14.538 -0.3142 -0.5802  0.2781
 5083SOL    HW126711   4.128   3.555  14.619 -0.2557  1.5693 -0.9341
 5083SOL    HW226712   4.244   3.509  14.543 -0.2953 -0.4174 -0.0458
 5084SOL     OW26713   3.608   0.948   1.220  0.4093  0.3422  0.2128
 5084SOL    HW126714   3.699   0.962   1.194  0.5113 -0.2448  0.2557
 5084SOL    HW226715   3.564   1.001   1.154 -0.0371 -0.1619  0.1026
 5085SOL     OW26716   2.366   2.488  14.711  0.1113 -0.5957  0.2241
 5085SOL    HW126717   2.422   2.529  14.776  0.2995  1.3173 -1.1492
 5085SOL    HW226718   2.331   2.417  14.765  0.0082 -1.3050 -0.7580
 5086SOL     OW26719   0.922   3.613  11.874 -0.4003 -0.5559  0.2260
 5086SOL    HW126720   0.829   3.632  11.892  0.1478  0.6354  1.7990
 5086SOL    HW226721   0.917   3.569  11.789 -0.2420  0.1130 -0.1230
 5087SOL     OW26722   2.600   1.015   4.593 -0.2176 -0.0228 -0.4930
 5087SOL    HW126723   2.638   1.102   4.589 -1.1201  0.4026  0.3196
 5087SOL    HW226724   2.642   0.975   4.516  0.6588 -0.5612  0.2736
 5088SOL     OW26725   4.529   2.944  17.501  0.1371  0.5516  0.3005
 5088SOL    HW126726   4.482   2.986  17.573  0.8103  0.8127  0.5868
 5088SOL    HW226727   4.474   2.866  17.487  3.0578 -1.3421 -0.6264
 5089SOL     OW26728   2.350   4.688   6.367  0.7743 -0.3932 -0.5289
 5089SOL    HW126729   2.414   0.012   6.312  1.4464 -0.1199  0.4794
 5089SOL    HW226730   2.300   4.650   6.295  1.5258 -1.1027 -0.6688
 5090SOL     OW26731   1.776   0.721   3.902  0.7109  0.1467  0.5119
 5090SOL    HW126732   1.852   0.770   3.872  0.3899 -0.4743 -1.3345
 5090SOL    HW226733   1.761   0.680   3.817 -0.6240  0.4834  0.5766
 5091SOL     OW26734   2.899   2.022   0.440  0.5088  0.3561  0.0366
 5091SOL    HW126735   2.978   2.013   0.387  1.8585  1.9521  1.7618
 5091SOL    HW226736   2.832   2.024   0.372 -0.1610  0.3281  0.6916
 5092SOL     OW26737   3.343   4.676  11.505 -0.0805  1.0597 -0.2566
 5092SOL    HW126738   3.253   4.665  11.537  0.0838 -2.0828 -0.8681
 5092SOL    HW226739   3.338   4.713  11.417  1.2031 -0.1911 -0.8639
 5093SOL     OW26740   0.387   0.796   9.827  0.3666  0.0342 -0.4909
 5093SOL    HW126741   0.418   0.722   9.879  0.4556  0.1535 -0.3778
 5093SOL    HW226742   0.391   0.768   9.735  1.2573 -0.2985 -0.3446
 5094SOL     OW26743   4.075   2.248   5.353 -0.2564  0.3232  0.3327
 5094SOL    HW126744   4.168   2.262   5.335  0.0209 -2.8808 -0.6363
 5094SOL    HW226745   4.044   2.172   5.303  2.0706  0.8670 -1.9570
 5095SOL     OW26746   4.618   4.165   5.737  0.1628  0.6063  0.9728
 5095SOL    HW126747   4.702   4.203   5.760 -0.1729  1.1902  1.2462
 5095SOL    HW226748   4.632   4.100   5.668 -0.2617 -0.4805  1.8952
 5096SOL     OW26749   2.020   4.093   1.630  0.5140 -0.2033  0.6469
 5096SOL    HW126750   1.933   4.115   1.594  0.8696 -1.9797 -1.2772
 5096SOL    HW226751   2.071   4.166   1.595  0.9830 -1.1813 -0.7018
 5097SOL     OW26752   3.181   3.847   8.781 -0.2801 -0.2479 -0.0309
 5097SOL    HW126753   3.213   3.907   8.713 -0.0808 -0.8934 -0.5153
 5097SOL    HW226754   3.254   3.787   8.763 -0.6684 -0.6194 -0.3796
 5098SOL     OW26755   4.602   3.567   2.566  0.2445  0.3226  0.2792
 5098SOL    HW126756   4.672   3.616   2.523  1.5712 -0.4982  1.5289
 5098SOL    HW226757   4.625   3.478   2.538 -2.0522 -0.0014 -0.5734
 5099SOL     OW26758   0.600   2.973   6.071  0.0088 -0.0617  0.6046
 5099SOL    HW126759   0.686   2.944   6.041 -0.0476  0.4246 -0.0103
 5099SOL    HW226760   0.554   2.890   6.079 -1.2296  0.4440 -1.3278
 5100SOL     OW26761   3.595   2.890   3.379  0.5992 -0.2312 -0.4417
 5100SOL    HW126762   3.628   2.927   3.461  0.5916  1.7764 -1.3305
 5100SOL    HW226763   3.519   2.846   3.416 -0.0004  0.1994 -1.1690
 5101SOL     OW26764   3.257   2.548   0.322 -0.2173 -0.0810 -0.4574
 5101SOL    HW126765   3.242   2.483   0.253 -0.7256 -0.5094  0.0561
 5101SOL    HW226766   3.345   2.519   0.342  0.2741 -0.2084 -2.7934
 5102SOL     OW26767   0.082   2.721  15.752  0.2793 -0.8380  0.4913
 5102SOL    HW126768   0.135   2.671  15.690 -1.2298 -1.7022 -0.0971
 5102SOL    HW226769   0.009   2.665  15.777 -0.3545  0.0469  0.6053
 5103SOL     OW26770   3.000   0.289   8.787  0.8917 -0.1409  0.0694
 5103SOL    HW126771   3.065   0.358   8.778  0.7372  0.0936  0.7580
 5103SOL    HW226772   2.926   0.334   8.827 -0.1063 -2.6718  1.0698
 5104SOL     OW26773   3.105   2.264   0.457 -0.4052  0.1880  0.6970
 5104SOL    HW126774   3.165   2.195   0.426  2.1139  2.5028  0.3651
 5104SOL    HW226775   3.131   2.339   0.404 -2.1987  1.7428  2.0580
 5105SOL     OW26776   4.144   3.033   2.551 -0.3224 -0.3949 -0.7985
 5105SOL    HW126777   4.101   2.969   2.608 -0.1579  2.0071  2.0844
 5105SOL    HW226778   4.128   2.984   2.471  1.8775 -1.4489 -0.6000
 5106SOL     OW26779   1.590   3.921   7.158 -0.2258  0.3283  0.0252
 5106SOL    HW126780   1.498   3.893   7.164 -0.4821  0.1094 -4.5158
 5106SOL    HW226781   1.629   3.838   7.184  0.5524  1.0638  1.1825
 5107SOL     OW26782   2.437   2.555  10.532  0.2875 -0.3766  0.2413
 5107SOL    HW126783   2.374   2.516  10.472  1.6220  0.7188 -1.8476
 5107SOL    HW226784   2.383   2.574  10.609  0.3213 -1.8507  0.6386
 5108SOL     OW26785   4.500   0.529   8.842  0.1686 -0.4229 -0.3303
 5108SOL    HW126786   4.559   0.489   8.906 -0.7219 -0.5426  0.4170
 5108SOL    HW226787   4.425   0.567   8.889  0.8548 -2.8184  2.6654
 5109SOL     OW26788   4.496   3.508   5.588 -0.1411  0.3133 -0.6340
 5109SOL    HW126789   4.481   3.470   5.675 -2.4628 -0.5256 -1.3967
 5109SOL    HW226790   4.554   3.445   5.545 -1.7041 -1.1862 -0.5308
 5110SOL     OW26791   2.482   4.290   3.338 -0.0764  0.2278  0.0676
 5110SOL    HW126792   2.497   4.367   3.284 -2.5356 -0.8169 -2.0802
 5110SOL    HW226793   2.486   4.325   3.427 -1.3793 -1.2709  0.7182
 5111SOL     OW26794   2.350   2.306  11.684 -0.0096 -0.3098  0.1473
 5111SOL    HW126795   2.270   2.358  11.692  0.7554  0.6742  1.3152
 5111SOL    HW226796   2.363   2.276  11.774  1.8563  0.8290  0.2440
 5112SOL     OW26797   1.009   2.714  13.614 -0.1787 -0.5900  0.3634
 5112SOL    HW126798   1.057   2.635  13.590  0.3370 -0.3508  0.6208
 5112SOL    HW226799   0.951   2.727  13.539 -0.0041 -0.1897  0.3001
 5113SOL     OW26800   1.136   4.059  12.652 -0.1763 -0.8685  0.0190
 5113SOL    HW126801   1.046   4.041  12.679 -0.3489 -0.4694 -0.2887
 5113SOL    HW226802   1.165   4.146  12.680  0.9833 -1.0026 -0.7830
 5114SOL     OW26803   3.282   2.414  17.061 -0.1205  0.0491 -0.3947
 5114SOL    HW126804   3.316   2.324  17.065  0.1397  0.1624 -0.0857
 5114SOL    HW226805   3.349   2.464  17.106 -0.9200  1.1396 -0.4277
 5115SOL     OW26806   1.981   0.335  14.618  0.1335 -0.0253 -0.3224
 5115SOL    HW126807   1.912   0.298  14.673  0.0227 -0.2155 -0.5932
 5115SOL    HW226808   1.957   0.428  14.623 -0.0832 -0.0320 -1.2974
 5116SOL     OW26809   2.764   3.440   8.383 -0.2675 -0.1775 -0.2865
 5116SOL    HW126810   2.780   3.488   8.465 -0.8625  0.3383 -0.4703
 5116SOL    HW226811   2.698   3.497   8.344  0.9303  0.8371 -0.8152
 5117SOL     OW26812   1.353   2.722   1.646 -0.0917 -0.4375  0.0818
 5117SOL    HW126813   1.267   2.697   1.681  0.2845  0.3308  1.5693
 5117SOL    HW226814   1.382   2.637   1.614  1.2693  1.0808 -2.6789
 5118SOL     OW26815   0.707   3.623   1.089 -0.0167 -0.0858 -0.1608
 5118SOL    HW126816   0.668   3.655   1.008 -3.4997 -0.7132  1.2687
 5118SOL    HW226817   0.800   3.644   1.086 -0.0011 -0.0723  0.3181
 5119SOL     OW26818   0.463   2.182   2.602  0.1736 -0.6313  0.3896
 5119SOL    HW126819   0.506   2.144   2.679  0.4546 -2.9465 -0.9099
 5119SOL    HW226820   0.389   2.215   2.652  1.2571 -1.0292  2.2839
 5120SOL     OW26821   1.838   0.560   2.128  0.0445  0.4799  0.1797
 5120SOL    HW126822   1.828   0.517   2.213  1.6960  1.8359  1.0851
 5120SOL    HW226823   1.910   0.508   2.092  0.9637  2.7855 -1.3229
 5121SOL     OW26824   2.846   4.670   0.952  0.1111 -0.1587 -0.2561
 5121SOL    HW126825   2.897   4.718   0.887 -0.1381 -2.8685 -2.5007
 5121SOL    HW226826   2.807   4.601   0.898  2.0651 -1.0429 -0.5374
 5122SOL     OW26827   4.072   2.601   2.856 -0.6158  0.5334 -0.3678
 5122SOL    HW126828   4.094   2.508   2.857 -0.6452  0.5134 -1.5244
 5122SOL    HW226829   3.985   2.604   2.896 -1.1367 -0.0430 -1.4647
 5123SOL     OW26830   3.165   0.820   5.435  0.2275 -0.7756 -0.1262
 5123SOL    HW126831   3.204   0.889   5.382  1.1669 -1.3992 -0.2376
 5123SOL    HW226832   3.164   0.743   5.377  0.3225  0.9017 -2.3290
 5124SOL     OW26833   2.647   2.289   3.073 -0.2833 -0.0933 -0.3398
 5124SOL    HW126834   2.592   2.367   3.061 -0.8289 -0.1053  2.1426
 5124SOL    HW226835   2.675   2.257   2.987  0.8221  0.4223 -0.1706
 5125SOL     OW26836   4.093   4.556   9.310  0.5182  0.0269  0.5238
 5125SOL    HW126837   4.185   4.584   9.305  0.6763 -0.3856  1.1481
 5125SOL    HW226838   4.053   4.638   9.280  2.3691  0.2971 -1.2037
 5126SOL     OW26839   3.518   4.554   6.702 -0.0433  0.3011 -0.3005
 5126SOL    HW126840   3.448   4.547   6.637  2.2152  0.4702 -2.7614
 5126SOL    HW226841   3.483   4.488   6.761  0.3397  0.1629 -0.2258
 5127SOL     OW26842   0.396   4.609   5.481 -0.1127  0.4339 -0.0330
 5127SOL    HW126843   0.415   4.552   5.556  0.4748  0.9630  0.2153
 5127SOL    HW226844   0.390   4.546   5.409 -0.7283  1.2671 -0.6983
 5128SOL     OW26845   2.659   1.983   5.267  0.0512 -0.1045  0.0339
 5128SOL    HW126846   2.734   1.968   5.209  0.1229  0.8906 -0.1278
 5128SOL    HW226847   2.708   2.016   5.342 -1.3553  0.9753  0.4790
 5129SOL     OW26848   0.733   3.774   3.579  0.1975  0.2698  1.0074
 5129SOL    HW126849   0.807   3.816   3.623 -0.0291  1.9520 -0.2131
 5129SOL    HW226850   0.663   3.815   3.630  2.2697  2.5452  2.0379
 5130SOL     OW26851   2.587   1.461   4.104 -0.0557  0.1929  0.2455
 5130SOL    HW126852   2.546   1.455   4.018 -2.0106  1.3411  1.1034
 5130SOL    HW226853   2.597   1.367   4.122 -2.8817 -0.2541 -0.4022
 5131SOL     OW26854   0.062   2.504   3.106 -0.2241 -0.4311  0.8068
 5131SOL    HW126855   0.091   2.492   3.015  1.6038  1.0813  1.1980
 5131SOL    HW226856   0.123   2.450   3.156 -0.6001 -0.4810  1.2150
 5132SOL     OW26857   1.801   3.351   6.700 -0.6074 -0.0902 -0.8461
 5132SOL    HW126858   1.716   3.388   6.721 -0.0403  0.9645 -0.4221
 5132SOL    HW226859   1.770   3.262   6.684 -0.5578 -0.0995 -0.8901
 5133SOL     OW26860   3.043   0.977  16.685  0.2464 -0.1440 -0.1253
 5133SOL    HW126861   2.979   1.040  16.651  0.1570 -0.3966 -0.4224
 5133SOL    HW226862   3.091   0.944  16.609 -1.8323  0.3210 -1.6429
 5134SOL     OW26863   4.374   3.070  11.114  0.2660 -0.1254 -0.0802
 5134SOL    HW126864   4.308   3.041  11.177 -1.2532  0.3803 -1.4324
 5134SOL    HW226865   4.374   3.002  11.047  0.6689 -0.1463 -0.0567
 5135SOL     OW26866   4.684   4.551  16.759 -0.2207 -0.1874  0.2867
 5135SOL    HW126867   0.042   4.511  16.726 -0.4430 -1.7440  1.6062
 5135SOL    HW226868   4.625   4.548  16.684  0.2607 -0.2997 -0.0893
 5136SOL     OW26869   2.560   4.659   4.617  0.0403  0.9395 -0.0529
 5136SOL    HW126870   2.482   4.689   4.664  0.7659  1.3073  0.9101
 5136SOL    HW226871   2.572   4.569   4.647 -2.3692  0.1643 -1.3951
 5137SOL     OW26872   2.003   2.899   4.661  0.7103 -0.2156  0.1575
 5137SOL    HW126873   2.079   2.957   4.663  0.6110 -0.0411 -0.9905
 5137SOL    HW226874   1.993   2.876   4.568  0.5738  0.4509 -0.0013
 5138SOL     OW26875   0.763   3.508   1.795 -0.5550  0.5635  0.4103
 5138SOL    HW126876   0.854   3.533   1.775 -0.6192 -1.5024 -2.5738
 5138SOL    HW226877   0.725   3.579   1.744  2.2276  0.7151 -1.4892
 5139SOL     OW26878   4.589   0.467   2.406 -0.2194  0.6032 -0.2583
 5139SOL    HW126879   4.552   0.497   2.489  1.7531 -0.4785  1.0159
 5139SOL    HW226880   4.515   0.429   2.358 -0.3065  0.7148 -0.2120
 5140SOL     OW26881   2.489   1.060   3.862  0.3103  0.3756 -0.1448
 5140SOL    HW126882   2.442   0.984   3.827  0.2337 -0.1125  1.0169
 5140SOL    HW226883   2.571   1.012   3.876  0.0033  0.0079  0.4118
 5141SOL     OW26884   1.952   2.339  13.703  0.1865 -0.0926  0.3096
 5141SOL    HW126885   1.916   2.369  13.619  0.7186 -2.1317 -0.6273
 5141SOL    HW226886   1.881   2.369  13.759  2.4190  2.9231  1.5532
 5142SOL     OW26887   0.669   0.952   9.972  0.1698  0.1871  0.3856
 5142SOL    HW126888   0.717   0.879  10.009 -1.7521  0.0976  2.7360
 5142SOL    HW226889   0.638   0.916   9.888  0.5459 -3.3625  1.8207
 5143SOL     OW26890   0.811   0.434   3.296 -0.5149 -0.3263 -0.1913
 5143SOL    HW126891   0.790   0.467   3.383  0.2138 -0.9509  0.2165
 5143SOL    HW226892   0.865   0.503   3.257  0.1433 -0.2698  0.8014
 5144SOL     OW26893   4.410   3.546   5.975 -0.1715  0.5404 -0.5182
 5144SOL    HW126894   4.380   3.622   5.924 -1.5747  0.3759  0.0584
 5144SOL    HW226895   4.445   3.583   6.056  0.8995 -0.4417 -0.5454
 5145SOL     OW26896   2.892   3.793  10.686 -0.8243  0.5765  0.3864
 5145SOL    HW126897   2.810   3.791  10.638 -1.5740  1.0148  1.6333
 5145SOL    HW226898   2.867   3.857  10.753 -0.8891  2.2236 -1.2125
 5146SOL     OW26899   4.172   0.304  10.345  0.5028 -0.7535  0.3146
 5146SOL    HW126900   4.112   0.375  10.368 -0.1203 -1.2449  0.2213
 5146SOL    HW226901   4.147   0.245  10.416 -1.6587  0.8313  0.8823
 5147SOL     OW26902   4.018   3.895   0.767  0.1893  0.7835  0.3332
 5147SOL    HW126903   3.956   3.823   0.758 -0.1367  0.8564  1.9896
 5147SOL    HW226904   4.107   3.862   0.758 -0.5659 -0.8110 -1.2455
 5148SOL     OW26905   1.336   4.582  15.945 -0.3784 -0.4129  0.4446
 5148SOL    HW126906   1.240   4.588  15.948 -0.5585 -1.8110 -2.8714
 5148SOL    HW226907   1.347   4.623  15.859 -0.4006 -0.1302  0.5756
 5149SOL     OW26908   2.458   3.787   0.833  0.3125 -0.2760 -0.0426
 5149SOL    HW126909   2.370   3.815   0.805 -0.0272 -0.7833  0.5026
 5149SOL    HW226910   2.500   3.872   0.823  0.2099 -0.0546  1.3944
 5150SOL     OW26911   0.407   4.576   4.000  0.2201  0.0929 -0.0422
 5150SOL    HW126912   0.364   4.659   3.980 -1.1321 -0.2438  1.5596
 5150SOL    HW226913   0.500   4.599   4.000  0.1143  0.5145  0.7402
 5151SOL     OW26914   1.394   4.254   8.352  0.2767  0.4171  0.1701
 5151SOL    HW126915   1.335   4.283   8.282  0.1184 -1.6048 -0.5625
 5151SOL    HW226916   1.346   4.175   8.379  1.8466 -1.1431 -1.5144
 5152SOL     OW26917   2.622   2.290  13.982 -0.3664  0.1072 -0.1548
 5152SOL    HW126918   2.594   2.268  13.893  0.8487  1.7491 -0.9484
 5152SOL    HW226919   2.551   2.351  14.004 -2.5473 -2.5642  0.1251
 5153SOL     OW26920   3.131   3.198   2.390 -0.3521 -0.3533  0.0963
 5153SOL    HW126921   3.174   3.253   2.455 -0.5540 -1.7531  1.4206
 5153SOL    HW226922   3.201   3.190   2.326  0.7008 -0.7686  1.3122
 5154SOL     OW26923   0.051   1.085   0.939 -0.2029  0.6347  0.3498
 5154SOL    HW126924   0.060   1.007   0.994 -2.7274 -0.2820 -0.5498
 5154SOL    HW226925   0.064   1.053   0.850  0.3008 -0.0868  0.6768
 5155SOL     OW26926   1.288   4.637   7.567  0.0719  0.0918  0.1224
 5155SOL    HW126927   1.254   4.696   7.500  0.2796 -0.0687 -0.1245
 5155SOL    HW226928   1.206   4.618   7.613 -0.7970 -0.1864 -1.5127
 5156SOL     OW26929   3.251   1.165   3.818 -0.1241  0.8513  0.1807
 5156SOL    HW126930   3.200   1.244   3.837 -1.8909 -0.0542 -0.7299
 5156SOL    HW226931   3.204   1.088   3.850 -3.0442  3.1165  1.3620
 5157SOL     OW26932   1.768   1.927  14.513  0.3282  0.2839 -0.7414
 5157SOL    HW126933   1.842   1.955  14.567 -0.6307  1.1171  0.1571
 5157SOL    HW226934   1.799   1.841  14.488 -1.2633 -0.8659  1.1511
 5158SOL     OW26935   2.546   1.422   6.157  0.3175  0.0988 -0.0254
 5158SOL    HW126936   2.541   1.359   6.086 -0.7578 -0.1854  0.3062
 5158SOL    HW226937   2.455   1.444   6.176  0.9237  2.3077  0.4235
 5159SOL     OW26938   3.154   2.355   0.142  0.0352  0.0634 -0.6737
 5159SOL    HW126939   3.187   2.267   0.121  1.6178  0.5069 -0.0473
 5159SOL    HW226940   3.168   2.386   0.052  2.3329  0.9087 -0.0332
 5160SOL     OW26941   1.615   1.861   7.797 -0.5335  0.7365  0.9499
 5160SOL    HW126942   1.634   1.778   7.840 -2.2422 -0.5269 -0.7228
 5160SOL    HW226943   1.616   1.816   7.713 -0.9072  1.8958  0.3293
 5161SOL     OW26944   2.388   3.998   1.726 -1.0544  0.7256  0.1304
 5161SOL    HW126945   2.470   4.023   1.768 -0.0172 -0.1564 -1.3735
 5161SOL    HW226946   2.379   4.047   1.644  0.5608  1.6817  0.5112
 5162SOL     OW26947   2.788   1.357   5.483 -0.1036 -0.1554  0.1344
 5162SOL    HW126948   2.795   1.324   5.573 -2.8328  1.3415  0.8956
 5162SOL    HW226949   2.727   1.429   5.501  2.5725  2.5432 -1.5457
 5163SOL     OW26950   4.664   2.402   9.278 -0.2442  0.4766 -0.2069
 5163SOL    HW126951   4.705   2.467   9.335  3.6654 -2.2349  0.0680
 5163SOL    HW226952   4.722   2.327   9.289 -1.9046 -0.5219  1.7094
 5164SOL     OW26953   2.581   0.019   4.353 -0.4548  0.2137  0.0385
 5164SOL    HW126954   2.567   4.710   4.442 -0.1883  0.6476  0.2315
 5164SOL    HW226955   2.661   4.693   4.332  0.0650  0.7869  0.7155
 5165SOL     OW26956   4.063   4.030   2.738  0.4311  0.0084 -0.1842
 5165SOL    HW126957   3.994   4.068   2.683 -1.2998 -0.4669  1.6672
 5165SOL    HW226958   4.038   4.080   2.816  0.7635 -1.1019  0.6335
 5166SOL     OW26959   1.549   2.649   0.652  0.1718  0.0236 -0.1842
 5166SOL    HW126960   1.477   2.712   0.648  0.8110  0.8885  1.7579
 5166SOL    HW226961   1.499   2.576   0.616  1.3159 -1.5896  1.4718
 5167SOL     OW26962   3.393   4.575   3.032 -0.1603  0.3981 -0.0620
 5167SOL    HW126963   3.385   4.481   3.018  1.4171  0.0790  1.1799
 5167SOL    HW226964   3.478   4.585   3.075  0.7822 -1.4798 -1.4479
 5168SOL     OW26965   2.822   1.428   2.522  0.1906 -0.2685 -0.2125
 5168SOL    HW126966   2.799   1.499   2.462  0.0932 -1.7638 -1.9462
 5168SOL    HW226967   2.759   1.363   2.492 -0.1751 -0.1190  0.2230
 5169SOL     OW26968   4.688   0.186   9.907  0.0305 -0.0536 -0.5679
 5169SOL    HW126969   4.694   0.251   9.977 -1.9250 -0.2077 -0.2775
 5169SOL    HW226970   4.703   0.106   9.957 -1.2145  0.0825  0.0207
 5170SOL     OW26971   3.559   3.144   1.992  0.1325 -0.0910 -1.0031
 5170SOL    HW126972   3.518   3.070   1.946 -0.9609  1.8515 -3.1787
 5170SOL    HW226973   3.649   3.143   1.959 -0.1614 -0.8294 -1.7918
 5171SOL     OW26974   4.528   2.952  14.448  0.0296  0.3179  0.1827
 5171SOL    HW126975   4.475   3.010  14.503 -2.2527 -1.2123 -0.3932
 5171SOL    HW226976   4.468   2.927  14.378  0.7237  2.6427 -1.2159
 5172SOL     OW26977   2.032   3.467   2.066  0.0216 -0.0008  0.5993
 5172SOL    HW126978   2.073   3.390   2.028 -0.8203 -0.7482  1.2045
 5172SOL    HW226979   1.957   3.472   2.007  0.1289 -2.2407  0.2786
 5173SOL     OW26980   2.226   3.735   3.834  0.1058 -0.3120 -0.1181
 5173SOL    HW126981   2.264   3.649   3.855  0.4515  0.1049  0.9709
 5173SOL    HW226982   2.296   3.777   3.785 -0.2871 -0.4552 -0.8066
 5174SOL     OW26983   3.308   1.055  11.540 -0.6661  0.0142 -0.1264
 5174SOL    HW126984   3.283   1.145  11.520 -1.9706 -0.5712 -1.1006
 5174SOL    HW226985   3.394   1.047  11.497 -0.0024  2.2364  0.7455
 5175SOL     OW26986   0.660   3.458   2.754 -0.6194 -0.2705  0.5579
 5175SOL    HW126987   0.687   3.549   2.765  0.3673 -0.3949 -0.8459
 5175SOL    HW226988   0.740   3.409   2.773 -1.1754 -1.5229 -0.3551
 5176SOL     OW26989   1.463   1.347   3.034  0.6055 -0.5305  0.5573
 5176SOL    HW126990   1.552   1.358   3.066 -0.4773  3.1388  2.2057
 5176SOL    HW226991   1.487   1.294   2.958  0.7925 -0.5710  0.6456
 5177SOL     OW26992   2.587   3.436   5.165  0.5363  0.6208  0.5550
 5177SOL    HW126993   2.527   3.509   5.150 -1.2361 -0.6855  1.2645
 5177SOL    HW226994   2.633   3.456   5.247 -0.9824 -1.4671  1.9115
 5178SOL     OW26995   4.396   3.046  16.686  0.6257 -0.4963  0.4869
 5178SOL    HW126996   4.341   3.028  16.763  0.2351 -0.8704  0.1179
 5178SOL    HW226997   4.450   2.969  16.703 -0.1362 -1.1395 -0.0382
 5179SOL     OW26998   2.467   0.358   5.008  0.4551 -0.2284  0.0361
 5179SOL    HW126999   2.433   0.438   4.967 -0.9340 -0.2870  1.0644
 5179SOL    HW227000   2.547   0.382   5.055 -0.3323 -1.0079  1.7787
 5180SOL     OW27001   0.723   1.144  15.528  0.4255  0.4359 -0.1602
 5180SOL    HW127002   0.654   1.117  15.466 -2.1558  0.4766  2.7093
 5180SOL    HW227003   0.672   1.151  15.608  0.5006  0.4946 -0.1181
 5181SOL     OW27004   2.067   3.931   4.446 -0.0544  0.6249  0.3183
 5181SOL    HW127005   2.058   4.027   4.440 -1.0565  0.6098  1.4486
 5181SOL    HW227006   1.977   3.903   4.430 -0.3442  2.0818 -0.6337
 5182SOL     OW27007   4.715   2.975   3.057 -0.1509 -0.3134  0.8302
 5182SOL    HW127008   4.684   2.905   3.115 -0.4254 -0.3988  0.5812
 5182SOL    HW227009   0.075   2.927   3.041 -0.3540  0.0685 -1.4395
 5183SOL     OW27010   0.421   1.370   4.827 -0.2072 -0.1313  0.5961
 5183SOL    HW127011   0.456   1.413   4.905  2.9636 -2.2379  0.3245
 5183SOL    HW227012   0.327   1.372   4.844 -0.6162 -1.1477 -1.5036
 5184SOL     OW27013   4.676   4.241  13.535 -0.0936 -0.5157 -0.0441
 5184SOL    HW127014   0.037   4.221  13.578 -0.8343 -0.1151  1.5674
 5184SOL    HW227015   4.657   4.179  13.464 -2.5484 -0.2965  0.4322
 5185SOL     OW27016   1.767   4.277   4.652  0.4312  0.1485  0.0433
 5185SOL    HW127017   1.792   4.185   4.652 -3.0665 -0.8041 -2.3285
 5185SOL    HW227018   1.703   4.274   4.724 -2.4705  1.0953 -2.5027
 5186SOL     OW27019   3.676   4.410  15.821  0.3201  0.3576  0.1784
 5186SOL    HW127020   3.770   4.400  15.803  0.1707 -0.1613 -0.3312
 5186SOL    HW227021   3.638   4.410  15.733  0.3505  0.5433  0.1651
 5187SOL     OW27022   2.221   4.372   7.743 -0.1284  0.1113  0.0679
 5187SOL    HW127023   2.205   4.377   7.649 -0.4315 -0.0824  0.1101
 5187SOL    HW227024   2.191   4.283   7.764 -0.8843  0.3259 -0.0814
 5188SOL     OW27025   1.452   4.024   7.429 -0.5039  0.0637  0.3237
 5188SOL    HW127026   1.508   4.099   7.451  0.6751 -0.2629 -1.5200
 5188SOL    HW227027   1.396   4.019   7.506  0.7646 -0.7157  1.1918
 5189SOL     OW27028   1.917   4.718   1.403 -0.1363 -0.0450  0.1514
 5189SOL    HW127029   1.902   4.702   1.496 -0.2679  1.7106  0.4236
 5189SOL    HW227030   1.839   4.678   1.364 -0.1995 -0.3939  0.6297
 5190SOL     OW27031   1.008   0.517  10.756  0.3135 -0.2945  0.5923
 5190SOL    HW127032   1.008   0.497  10.663 -0.2867  3.7416 -0.2658
 5190SOL    HW227033   1.098   0.547  10.771  0.7942 -2.0034  1.1487
 5191SOL     OW27034   0.548   1.553  13.803 -0.2700  0.5114 -0.0991
 5191SOL    HW127035   0.613   1.485  13.782 -0.3207  1.2161 -2.5574
 5191SOL    HW227036   0.473   1.496  13.815  0.6542 -0.5028  0.9142
 5192SOL     OW27037   4.530   0.020  16.930 -0.0364  0.1262 -0.3529
 5192SOL    HW127038   4.510   0.103  16.886 -0.7350  0.6520  0.9424
 5192SOL    HW227039   4.466   4.683  16.891  0.4432 -2.3709  2.6046
 5193SOL     OW27040   4.054   3.629   2.569 -0.0828  0.1862  0.3145
 5193SOL    HW127041   4.010   3.678   2.500  0.0284  0.8921  0.7512
 5193SOL    HW227042   4.147   3.648   2.554  0.1727 -0.3834  1.1693
 5194SOL     OW27043   4.180   1.268   3.646 -0.7043  0.3418 -0.5642
 5194SOL    HW127044   4.104   1.275   3.703  0.2454 -2.3409  1.0119
 5194SOL    HW227045   4.142   1.312   3.570  0.1287 -1.1222 -1.8340
 5195SOL     OW27046   2.369   3.845   1.099 -0.4211 -0.8100 -0.3849
 5195SOL    HW127047   2.462   3.849   1.124 -0.4508  3.0700 -1.0007
 5195SOL    HW227048   2.373   3.821   1.006 -0.3374  2.1782 -1.1392
 5196SOL     OW27049   2.277   0.524   8.202  0.4361 -0.2035 -0.2464
 5196SOL    HW127050   2.327   0.449   8.169  0.1728  0.1499 -1.4662
 5196SOL    HW227051   2.294   0.591   8.135  1.1303 -0.9003 -0.7675
 5197SOL     OW27052   4.149   0.802  15.744  0.9742 -0.7377 -0.3401
 5197SOL    HW127053   4.165   0.761  15.828  0.6511  0.5355  0.3414
 5197SOL    HW227054   4.235   0.813  15.703  2.7852  1.8276  4.1706
 5198SOL     OW27055   2.551   0.841  13.292 -0.1878 -0.2514 -0.8586
 5198SOL    HW127056   2.477   0.874  13.240 -1.3606  2.4373  2.4961
 5198SOL    HW227057   2.588   0.929  13.302 -1.5366  0.1457  0.8428
 5199SOL     OW27058   4.462   3.429  11.367 -0.3035 -0.5124  0.2186
 5199SOL    HW127059   4.460   3.517  11.406 -2.0616 -0.4858  0.0627
 5199SOL    HW227060   4.554   3.403  11.370 -0.0416  0.1624 -1.7479
 5200SOL     OW27061   2.036   0.400   7.710 -0.0512  0.3757 -0.3589
 5200SOL    HW127062   1.977   0.468   7.743  0.0596  2.3224 -4.1782
 5200SOL    HW227063   1.991   0.357   7.638 -0.2133  1.1962 -0.7485
 5201SOL     OW27064   3.242   4.369  17.483  0.0079 -0.6398  0.1714
 5201SOL    HW127065   3.283   4.429  17.545  1.0777 -2.3312  1.0880
 5201SOL    HW227066   3.174   4.331  17.538 -0.0724 -2.6611 -1.3367
 5202SOL     OW27067   3.727   3.642   9.406 -0.6487  0.4749 -0.4869
 5202SOL    HW127068   3.688   3.726   9.431 -0.4307  0.7356 -1.0225
 5202SOL    HW227069   3.697   3.586   9.477  4.2710 -3.3399 -1.3330
 5203SOL     OW27070   2.837   2.453   5.014 -0.6829 -0.0256  0.3673
 5203SOL    HW127071   2.753   2.407   5.009  0.0420 -1.2373 -0.5074
 5203SOL    HW227072   2.887   2.396   5.073 -2.3579 -2.3082 -0.4269
 5204SOL     OW27073   1.654   2.403   7.998  0.1846 -0.5356  0.3742
 5204SOL    HW127074   1.572   2.374   8.039 -0.5918 -1.3942 -1.8016
 5204SOL    HW227075   1.686   2.459   8.069  3.0228 -1.3991 -0.2124
 5205SOL     OW27076   2.637   0.567   8.042  0.6025 -0.0355 -0.0765
 5205SOL    HW127077   2.712   0.518   8.077  1.4290  1.3364  0.0849
 5205SOL    HW227078   2.617   0.532   7.955  0.5633  2.5622 -1.1100
 5206SOL     OW27079   0.931   1.224   5.582 -0.2811  0.4421  0.1190
 5206SOL    HW127080   0.948   1.151   5.640 -0.4173 -0.8022 -1.4106
 5206SOL    HW227081   0.979   1.198   5.503 -0.2176  0.7726  0.0451
 5207SOL     OW27082   1.709   2.248   7.295  0.4141 -0.4468  0.5956
 5207SOL    HW127083   1.754   2.198   7.228 -0.9356 -0.1037 -0.5701
 5207SOL    HW227084   1.643   2.296   7.244  2.6143  0.7879 -1.0941
 5208SOL     OW27085   4.183   3.164   9.183 -0.6428  0.1529 -0.7975
 5208SOL    HW127086   4.250   3.098   9.167 -0.1278  1.0962 -2.5374
 5208SOL    HW227087   4.243   3.224   9.227  2.2901 -2.4782 -1.2238
 5209SOL     OW27088   2.539   4.191   1.303 -0.1789  0.1990 -0.0613
 5209SOL    HW127089   2.601   4.123   1.278  1.0537  2.1333 -2.2955
 5209SOL    HW227090   2.480   4.206   1.229  0.1228  0.4224 -0.2510
 5210SOL     OW27091   1.085   0.037  16.403 -0.2980  0.1157  0.6349
 5210SOL    HW127092   1.129   0.104  16.350 -1.6276 -1.0650 -1.9862
 5210SOL    HW227093   1.000   0.043  16.359  0.4609  1.2384 -0.6854
 5211SOL     OW27094   4.040   4.596   3.420  0.5029 -0.1518 -0.2483
 5211SOL    HW127095   3.964   4.610   3.477  0.8725  1.3046 -0.1018
 5211SOL    HW227096   4.027   4.509   3.384 -0.6429  0.0577 -0.3506
 5212SOL     OW27097   0.993   1.258  13.399  0.2619 -0.5183 -0.0862
 5212SOL    HW127098   0.987   1.344  13.357 -0.5685 -0.3271  0.4124
 5212SOL    HW227099   1.059   1.284  13.463  1.1159 -1.7632 -0.4663
 5213SOL     OW27100   3.126   2.070   4.484 -0.1132  0.4356 -0.3905
 5213SOL    HW127101   3.086   1.988   4.455  0.9691 -0.9185  1.9835
 5213SOL    HW227102   3.153   2.039   4.570 -1.3841  0.3381 -0.0268
 5214SOL     OW27103   3.757   1.813   6.148  0.0835 -0.5803 -0.1262
 5214SOL    HW127104   3.785   1.770   6.229  1.0982 -0.4874 -0.4227
 5214SOL    HW227105   3.829   1.780   6.095  0.1547  0.1262 -0.4790
 5215SOL     OW27106   0.993   0.545   8.461  0.3775 -0.0215  0.2850
 5215SOL    HW127107   0.899   0.537   8.474  0.3817  1.7581  1.3914
 5215SOL    HW227108   1.016   0.486   8.389  2.3030 -0.8715  1.5865
 5216SOL     OW27109   0.560   0.441  15.626  0.2418 -0.1172 -0.0483
 5216SOL    HW127110   0.530   0.480  15.708 -0.2731  1.6883 -1.0863
 5216SOL    HW227111   0.607   0.369  15.668 -0.7362 -1.4566 -1.2801
 5217SOL     OW27112   0.625   0.182   7.183 -0.4421 -0.1816  0.0924
 5217SOL    HW127113   0.655   0.213   7.098  0.0287 -0.8683  0.0077
 5217SOL    HW227114   0.559   0.124   7.145  0.7110 -1.7867  0.5019
 5218SOL     OW27115   0.310   2.657   8.198  0.6359 -0.4962  0.3175
 5218SOL    HW127116   0.318   2.617   8.111 -0.8668 -0.5491  0.2114
 5218SOL    HW227117   0.381   2.621   8.251  0.9054 -0.5829 -0.1024
 5219SOL     OW27118   0.827   1.284   3.918  0.2482  0.6176 -0.2089
 5219SOL    HW127119   0.776   1.365   3.923 -0.2076  0.4369 -1.7921
 5219SOL    HW227120   0.762   1.219   3.945 -0.0124  1.5424  1.3817
 5220SOL     OW27121   0.300   4.443   7.504  0.1221 -0.1712 -0.0906
 5220SOL    HW127122   0.247   4.391   7.565  0.1794 -0.3208 -0.1696
 5220SOL    HW227123   0.341   4.501   7.569  1.6776  1.0125 -2.1475
 5221SOL     OW27124   0.246   2.138   5.034  0.1845  0.0570  0.4381
 5221SOL    HW127125   0.277   2.058   4.992  0.1844 -0.7672  1.9916
 5221SOL    HW227126   0.300   2.139   5.113  1.5709 -0.8423 -0.4962
 5222SOL     OW27127   0.352   0.250   8.510  0.2264  0.0753  0.4397
 5222SOL    HW127128   0.386   0.190   8.443  0.5784  0.7157  0.0529
 5222SOL    HW227129   0.308   0.319   8.461  0.1054 -0.2872  0.0412
 5223SOL     OW27130   0.636   1.428   3.560  0.0229 -0.2524 -0.3517
 5223SOL    HW127131   0.592   1.368   3.621  1.5333  0.0448  1.0013
 5223SOL    HW227132   0.612   1.507   3.607 -0.5211  0.0190 -1.0766
 5224SOL     OW27133   2.104   3.819  14.117 -0.7236  0.1030 -0.1604
 5224SOL    HW127134   2.138   3.870  14.044  2.2133 -1.2259  0.2813
 5224SOL    HW227135   2.116   3.727  14.092  0.6342  1.1764 -3.4095
 5225SOL     OW27136   0.572   1.393  16.828  0.2348 -0.6115 -0.7738
 5225SOL    HW127137   0.548   1.313  16.875  0.4300 -0.0379  0.2987
 5225SOL    HW227138   0.582   1.459  16.896 -0.9268 -0.3814 -0.8272
 5226SOL     OW27139   3.849   0.819  12.036 -0.3284  0.2783  0.5714
 5226SOL    HW127140   3.823   0.764  11.962 -0.2448  2.6397 -1.1930
 5226SOL    HW227141   3.921   0.873  12.004 -0.5977  0.2079 -0.1492
 5227SOL     OW27142   0.699   0.887   7.472  0.3098  0.3876 -0.3431
 5227SOL    HW127143   0.660   0.964   7.431  1.7980  0.1118 -2.2507
 5227SOL    HW227144   0.638   0.815   7.454  1.4736 -1.0064  1.3594
 5228SOL     OW27145   2.287   3.280   6.757  0.1269 -0.0465  0.1849
 5228SOL    HW127146   2.347   3.355   6.757  0.7983 -0.5578  2.5080
 5228SOL    HW227147   2.339   3.206   6.789 -0.3989 -1.1998 -1.6365
 5229SOL     OW27148   3.566   3.352   3.384  0.1717  0.6601 -0.3339
 5229SOL    HW127149   3.589   3.315   3.469  1.2047 -0.6841 -1.2175
 5229SOL    HW227150   3.608   3.288   3.328  0.0777  0.5375 -0.2627
 5230SOL     OW27151   4.448   0.750   5.159  0.3158 -0.4489 -0.8296
 5230SOL    HW127152   4.447   0.683   5.227  2.0162 -0.8240 -1.1868
 5230SOL    HW227153   4.485   0.827   5.201 -0.5266 -1.6049  2.0610
 5231SOL     OW27154   3.006   4.115   1.692 -0.1630  0.5428  0.0479
 5231SOL    HW127155   3.058   4.130   1.613  1.1467  0.1126  0.8151
 5231SOL    HW227156   2.939   4.055   1.660 -0.2614  1.1602 -0.8768
 5232SOL     OW27157   4.072   1.185   2.166 -0.0058 -0.0636 -0.2429
 5232SOL    HW127158   4.070   1.132   2.245 -0.4069  0.8606  0.3613
 5232SOL    HW227159   4.140   1.151   2.108  0.2168 -1.1483  0.6551
 5233SOL     OW27160   3.690   3.302   3.966 -0.1797 -0.2218  0.0058
 5233SOL    HW127161   3.608   3.341   3.937 -0.6455  0.5458  2.4232
 5233SOL    HW227162   3.656   3.240   4.031 -1.6819  0.6087  0.0044
 5234SOL     OW27163   0.389   2.475   6.736  0.1425 -0.3703  0.3746
 5234SOL    HW127164   0.295   2.487   6.728 -0.0280 -1.9378 -0.0981
 5234SOL    HW227165   0.390   2.416   6.811  2.0234  1.4793  1.8011
 5235SOL     OW27166   1.927   4.279  11.600  0.1934  0.1908  0.0626
 5235SOL    HW127167   1.952   4.339  11.670  0.5389 -0.3028  0.3605
 5235SOL    HW227168   1.917   4.203  11.656 -1.8479  0.1303 -0.3945
 5236SOL     OW27169   3.215   1.587   2.972 -0.8421 -0.5462  0.1857
 5236SOL    HW127170   3.179   1.517   2.917 -0.0345  0.6401 -1.8554
 5236SOL    HW227171   3.299   1.552   3.002 -0.2502  0.5338 -0.2015
 5237SOL     OW27172   1.217   3.327   8.178  0.6069  0.2727 -0.0353
 5237SOL    HW127173   1.207   3.368   8.264 -0.8221 -1.6768  0.7322
 5237SOL    HW227174   1.256   3.246   8.210 -2.5665 -1.3074 -0.1456
 5238SOL     OW27175   1.185   3.352  16.025  0.2983  0.4744 -0.1292
 5238SOL    HW127176   1.105   3.301  16.018 -0.6788  1.7976  1.4009
 5238SOL    HW227177   1.242   3.275  16.018 -0.7804 -0.2748 -0.7341
 5239SOL     OW27178   4.582   0.271   1.959 -0.4658 -0.5744 -0.5573
 5239SOL    HW127179   4.501   0.277   1.907 -0.7781 -1.6710 -0.2055
 5239SOL    HW227180   4.555   0.206   2.024  0.6422  1.0901  1.5387
 5240SOL     OW27181   4.661   2.113   2.436  0.3057  0.0325 -0.4053
 5240SOL    HW127182   4.604   2.041   2.409 -1.7540  1.8991 -1.0409
 5240SOL    HW227183   4.712   2.072   2.506 -0.1943 -0.6315 -0.4310
 5241SOL     OW27184   3.445   4.138   2.606 -0.1897  0.1189 -0.3360
 5241SOL    HW127185   3.377   4.110   2.545 -1.6607  3.0179 -0.0254
 5241SOL    HW227186   3.453   4.052   2.648 -1.6812  1.0480  1.8241
 5242SOL     OW27187   0.871   3.093   2.414  0.1789 -0.4261  0.0558
 5242SOL    HW127188   0.871   3.088   2.318  1.3445  1.2383 -0.0438
 5242SOL    HW227189   0.941   3.157   2.424 -0.9522  0.5209  1.7335
 5243SOL     OW27190   1.166   2.663   8.656  0.2438 -0.2177  0.5380
 5243SOL    HW127191   1.104   2.608   8.609 -0.7315  0.2709  1.2428
 5243SOL    HW227192   1.152   2.644   8.749  0.1919 -1.8768  0.1894
 5244SOL     OW27193   3.792   1.139   6.735 -0.2511  0.4172  0.4482
 5244SOL    HW127194   3.798   1.087   6.655 -2.5610  0.7814  0.0417
 5244SOL    HW227195   3.702   1.172   6.734  0.0806  1.2961 -0.7659
 5245SOL     OW27196   2.569   1.193   4.196 -0.1982 -0.5122 -0.2469
 5245SOL    HW127197   2.490   1.147   4.225  1.0593 -1.1797  2.1470
 5245SOL    HW227198   2.624   1.117   4.176 -0.6768 -0.5847 -1.2760
 5246SOL     OW27199   3.435   0.829   7.424 -0.3874 -0.4949  0.0937
 5246SOL    HW127200   3.453   0.844   7.331 -1.3843  0.5250  0.0740
 5246SOL    HW227201   3.465   0.739   7.416  1.6086  0.0702  1.0742
 5247SOL     OW27202   1.658   3.199   1.596 -0.1487  0.4382 -0.1674
 5247SOL    HW127203   1.737   3.149   1.578  0.2874  0.4580  1.6876
 5247SOL    HW227204   1.637   3.191   1.689  1.8870 -0.5893  0.2085
 5248SOL     OW27205   1.861   1.028   0.917  0.2564 -0.1846 -0.0028
 5248SOL    HW127206   1.944   1.036   0.965 -0.4585 -0.0352  1.2222
 5248SOL    HW227207   1.825   1.115   0.898  0.2372 -0.2332 -0.1867
 5249SOL     OW27208   0.581   0.926   2.786  0.6834  0.0128  0.0999
 5249SOL    HW127209   0.673   0.911   2.804  1.1437  0.0267 -2.3572
 5249SOL    HW227210   0.566   0.897   2.696 -0.3971 -0.9130  0.5671
 5250SOL     OW27211   0.176   3.281   5.692  0.4763  0.0240  0.2503
 5250SOL    HW127212   0.160   3.191   5.663  2.4027 -1.0545  2.5673
 5250SOL    HW227213   0.244   3.264   5.757  0.7770 -0.9857 -0.3257
 5251SOL     OW27214   1.877   3.098   5.730  0.1246 -0.0620 -0.2802
 5251SOL    HW127215   1.877   3.004   5.712  3.7535 -0.1883  0.2539
 5251SOL    HW227216   1.830   3.126   5.652  0.0141  1.3448  0.2827
 5252SOL     OW27217   4.009   3.170  15.219  0.7690  0.3102  0.3422
 5252SOL    HW127218   4.084   3.217  15.253  1.7012 -2.1128  1.5921
 5252SOL    HW227219   4.027   3.081  15.249  0.2253  0.4168  0.9735
 5253SOL     OW27220   3.669   1.437   9.561  0.1267 -0.5816  0.3989
 5253SOL    HW127221   3.756   1.467   9.536  0.3582 -1.4657  0.1623
 5253SOL    HW227222   3.689   1.345   9.579  0.8380 -0.0649  2.3024
 5254SOL     OW27223   4.673   1.900   1.288 -0.2733  0.0470 -0.5708
 5254SOL    HW127224   0.030   1.928   1.334  0.1888 -2.6167  0.2516
 5254SOL    HW227225   4.716   1.916   1.204 -2.0593  0.0987 -1.4661
 5255SOL     OW27226   1.787   2.486  10.676 -0.4788  0.2041  0.3423
 5255SOL    HW127227   1.752   2.572  10.702 -0.3626 -0.0843  1.4500
 5255SOL    HW227228   1.721   2.422  10.702 -0.7820 -0.0235 -1.0104
 5256SOL     OW27229   1.687   2.747   7.269 -0.4061  0.0584  0.2434
 5256SOL    HW127230   1.736   2.683   7.217 -0.4118 -0.0980  0.4334
 5256SOL    HW227231   1.744   2.749   7.345  1.1044 -1.4719 -0.8453
 5257SOL     OW27232   2.821   3.592   1.867 -0.0220  0.6675  0.0925
 5257SOL    HW127233   2.907   3.583   1.907 -0.7431  2.0267  1.9634
 5257SOL    HW227234   2.770   3.550   1.936  1.7867 -0.3991  0.7681
 5258SOL     OW27235   2.737   2.405   0.365 -0.3362  0.0904 -0.3520
 5258SOL    HW127236   2.818   2.456   0.368 -0.3829  0.3015 -3.2058
 5258SOL    HW227237   2.706   2.419   0.276 -0.6798  0.4384 -0.1775
 5259SOL     OW27238   4.561   1.560  16.197  0.1061 -0.1731 -0.1604
 5259SOL    HW127239   4.598   1.476  16.225  0.2715 -0.2063 -0.4756
 5259SOL    HW227240   4.638   1.616  16.204  0.1006 -0.0624 -0.9267
 5260SOL     OW27241   4.211   4.307   2.642  0.6267  0.8198  0.2434
 5260SOL    HW127242   4.278   4.370   2.669  0.5094  0.4899  1.3404
 5260SOL    HW227243   4.140   4.368   2.621  0.2632  0.3276  0.0529
 5261SOL     OW27244   1.707   1.558   5.233 -0.0590  0.0189 -1.0391
 5261SOL    HW127245   1.740   1.475   5.197  0.8521  1.0257 -2.4846
 5261SOL    HW227246   1.664   1.603   5.161  0.7703  1.7413 -0.4559
 5262SOL     OW27247   1.743   4.000   4.975  0.1857  0.1828 -0.6528
 5262SOL    HW127248   1.707   4.079   4.934 -0.1778  1.2254  1.6139
 5262SOL    HW227249   1.793   3.963   4.903  0.8209  0.8337 -0.5435
 5263SOL     OW27250   3.395   3.715   8.649 -0.2770 -0.5815 -0.8441
 5263SOL    HW127251   3.444   3.757   8.578  1.6251  0.1056  0.8676
 5263SOL    HW227252   3.458   3.646   8.671 -0.1426  0.3504  1.6139
 5264SOL     OW27253   1.328   2.449   6.440  0.6743  0.2209 -0.1540
 5264SOL    HW127254   1.345   2.466   6.347 -2.2755  0.1562 -0.6778
 5264SOL    HW227255   1.403   2.497   6.475  1.1290 -0.0787 -0.7099
 5265SOL     OW27256   4.433   1.879   5.871  0.6429 -0.8265 -0.4453
 5265SOL    HW127257   4.482   1.796   5.876 -0.1298 -1.1414  1.8312
 5265SOL    HW227258   4.466   1.913   5.953 -0.5362  1.3229 -0.8640
 5266SOL     OW27259   3.913   2.052   4.428 -0.7536 -0.4229  0.1224
 5266SOL    HW127260   3.878   2.101   4.353 -2.6367  0.0020  1.2782
 5266SOL    HW227261   3.832   2.012   4.461 -1.5692  0.9657 -0.1606
 5267SOL     OW27262   3.598   3.805   9.592 -0.2552  0.1296 -0.1330
 5267SOL    HW127263   3.521   3.766   9.633 -0.7928 -0.3928 -1.6249
 5267SOL    HW227264   3.642   3.852   9.663 -0.6056  0.8745 -0.4138
 5268SOL     OW27265   2.650   2.654   5.403  0.3345 -0.0996  0.3611
 5268SOL    HW127266   2.666   2.717   5.472 -0.7329 -1.2423  1.6480
 5268SOL    HW227267   2.569   2.610   5.428  1.4487 -0.6561  2.9432
 5269SOL     OW27268   1.765   4.107   1.574  0.4078  0.5517 -0.5194
 5269SOL    HW127269   1.698   4.166   1.540 -2.1640 -0.1615  3.2570
 5269SOL    HW227270   1.726   4.025   1.545 -1.4857  1.9673 -2.0168
 5270SOL     OW27271   0.881   0.880   3.865  0.8275  0.1911 -0.3961
 5270SOL    HW127272   0.885   0.804   3.923  0.1922 -0.1899 -0.8490
 5270SOL    HW227273   0.974   0.900   3.854  1.2384  0.7198  3.9654
 5271SOL     OW27274   0.165   2.785  13.226 -0.6878  0.0364  0.3782
 5271SOL    HW127275   0.192   2.873  13.200  0.3009  0.0874  1.6154
 5271SOL    HW227276   0.202   2.793  13.314 -3.0618 -0.1350  1.4050
 5272SOL     OW27277   1.956   3.082   6.890 -0.0805  0.2092  0.0539
 5272SOL    HW127278   1.871   3.092   6.848  1.4241  2.0038 -2.5255
 5272SOL    HW227279   1.921   3.059   6.976 -1.7059 -1.1722 -0.9843
 5273SOL     OW27280   4.608   3.464   7.652  0.0025 -0.0918  0.1592
 5273SOL    HW127281   4.678   3.525   7.632 -0.5762  0.0902 -1.3381
 5273SOL    HW227282   4.615   3.389   7.592  1.3072 -2.4715  3.3155
 5274SOL     OW27283   0.743   4.401   8.364 -0.3407 -0.5412  0.6208
 5274SOL    HW127284   0.755   4.360   8.450  0.4538 -0.2371  0.6535
 5274SOL    HW227285   0.685   4.473   8.390 -1.1898 -0.4617 -1.4399
 5275SOL     OW27286   1.221   0.328   3.906 -0.5865  0.1373 -0.2491
 5275SOL    HW127287   1.131   0.294   3.915 -0.6978  0.3537 -0.5642
 5275SOL    HW227288   1.261   0.243   3.927  1.4738  1.2725  0.3263
 5276SOL     OW27289   0.154   1.295   9.802  0.3351  0.1025 -0.3034
 5276SOL    HW127290   0.066   1.268   9.829  0.4248  1.5074  1.3980
 5276SOL    HW227291   0.202   1.213   9.792 -1.1405 -0.8454  0.3215
 5277SOL     OW27292   2.805   2.232   9.680 -0.2599  0.0142  0.3891
 5277SOL    HW127293   2.898   2.225   9.659 -0.3959 -4.9260  1.3740
 5277SOL    HW227294   2.808   2.169   9.752 -1.3005 -0.3118  0.1477
 5278SOL     OW27295   3.633   4.432   0.250 -0.1667 -0.0586  0.2704
 5278SOL    HW127296   3.615   4.407   0.160  2.4104  2.6158 -1.0016
 5278SOL    HW227297   3.677   4.515   0.232 -1.4936  0.9440  1.5945
 5279SOL     OW27298   0.506   2.597   1.730  0.4041  0.2697 -0.2675
 5279SOL    HW127299   0.492   2.530   1.797  0.3557  1.4131  0.8571
 5279SOL    HW227300   0.521   2.679   1.776 -0.9055 -0.8794  2.1678
 5280SOL     OW27301   3.522   0.313   5.661  0.0213 -0.0288  0.6280
 5280SOL    HW127302   3.485   0.276   5.742  0.5228  0.8299  1.2405
 5280SOL    HW227303   3.604   0.343   5.698 -0.5190 -1.8268  3.3537
 5281SOL     OW27304   3.744   2.478   0.388  0.3295 -0.3776 -0.1381
 5281SOL    HW127305   3.736   2.567   0.423  2.1336 -0.0302 -0.6235
 5281SOL    HW227306   3.755   2.431   0.471 -2.4038 -2.7072 -1.0753
 5282SOL     OW27307   2.243   3.890   0.768 -0.1417 -0.3684 -0.1553
 5282SOL    HW127308   2.217   3.904   0.677  0.4627  1.2722 -0.0639
 5282SOL    HW227309   2.157   3.902   0.809  0.2441 -0.6302  0.7331
 5283SOL     OW27310   0.565   0.468   4.136 -0.2838  0.2138 -0.3510
 5283SOL    HW127311   0.521   0.547   4.104  0.3029  0.7526  0.1653
 5283SOL    HW227312   0.541   0.409   4.066  0.6661 -0.2629 -0.2782
 5284SOL     OW27313   1.962   0.599  15.397 -0.2702  0.0058  0.0202
 5284SOL    HW127314   2.022   0.644  15.457 -1.2886  1.8540 -0.3624
 5284SOL    HW227315   1.876   0.626  15.427 -0.7875 -3.2775  1.5473
 5285SOL     OW27316   2.187   1.127  17.020  0.2519 -0.1876 -0.2913
 5285SOL    HW127317   2.223   1.210  17.051 -1.5196 -0.1574  1.7529
 5285SOL    HW227318   2.095   1.153  17.032 -0.2735 -2.1469 -0.0377
 5286SOL     OW27319   0.820   3.916  10.543  0.2758  0.1723  0.0572
 5286SOL    HW127320   0.798   4.009  10.530  0.6243 -0.0429 -2.0378
 5286SOL    HW227321   0.846   3.922  10.635 -2.4473 -0.3373  0.8723
 5287SOL     OW27322   2.469   1.896   2.286  0.2820 -0.5199 -0.2230
 5287SOL    HW127323   2.469   1.973   2.230 -0.6366 -0.7041 -0.4777
 5287SOL    HW227324   2.382   1.859   2.272 -0.1647  0.2809  0.4191
 5288SOL     OW27325   0.725   4.210   9.004 -0.3753  0.4051 -0.1373
 5288SOL    HW127326   0.783   4.201   8.928 -2.3336  0.4224 -1.6417
 5288SOL    HW227327   0.642   4.198   8.958  0.8519 -1.8533 -1.7665
 5289SOL     OW27328   4.064   0.265   7.927 -0.6556  0.0656  0.0567
 5289SOL    HW127329   3.988   0.314   7.897  0.0051  0.2786 -1.2347
 5289SOL    HW227330   4.087   0.233   7.840  1.0023  0.0384  0.4973
 5290SOL     OW27331   1.887   1.068  13.078 -0.5165 -0.3470  0.9852
 5290SOL    HW127332   1.798   1.035  13.089 -1.0432  0.4591 -0.8792
 5290SOL    HW227333   1.925   0.990  13.037  0.8218  0.2104  1.1613
 5291SOL     OW27334   1.035   1.950  15.265 -0.1449  0.2284  0.1754
 5291SOL    HW127335   1.052   1.866  15.223  0.9207 -0.4888  2.0858
 5291SOL    HW227336   1.007   1.916  15.350 -0.9110  1.2582  0.3373
 5292SOL     OW27337   1.819   1.022   0.159  0.2264  0.0050 -0.4193
 5292SOL    HW127338   1.753   1.057   0.219  0.1396  2.9690 -2.2751
 5292SOL    HW227339   1.806   0.927   0.167 -1.1070  0.2110 -0.1529
 5293SOL     OW27340   0.002   0.616  12.991  0.2142 -0.1773  0.0835
 5293SOL    HW127341   4.650   0.620  13.051 -0.0240 -0.8058 -0.1670
 5293SOL    HW227342   0.069   0.570  13.042  1.8391  2.3844  0.2473
 5294SOL     OW27343   3.288   3.340   6.608  0.3247 -0.2264 -0.4344
 5294SOL    HW127344   3.296   3.351   6.513  1.0328 -0.1156 -0.3572
 5294SOL    HW227345   3.253   3.424   6.636  0.0957 -0.0414 -1.2537
 5295SOL     OW27346   4.507   1.578  14.030  0.9924 -0.0351  0.1796
 5295SOL    HW127347   4.580   1.625  14.069  0.2877  0.7393  0.5610
 5295SOL    HW227348   4.549   1.512  13.974  1.9256  1.7146 -1.1642
 5296SOL     OW27349   1.221   3.193  12.681  0.6109 -0.1636 -0.3930
 5296SOL    HW127350   1.263   3.107  12.674 -2.0773 -1.5710  0.8523
 5296SOL    HW227351   1.131   3.179  12.652  0.0563  2.9415 -0.1563
 5297SOL     OW27352   0.376   4.128  12.010  0.3038 -0.0223 -0.1464
 5297SOL    HW127353   0.377   4.186  12.087 -0.3303  1.6847 -1.4224
 5297SOL    HW227354   0.448   4.069  12.033  0.8118  0.5609 -0.2346
 5298SOL     OW27355   4.022   2.074   4.069  0.2404  0.6421  0.7560
 5298SOL    HW127356   4.003   2.097   3.978 -1.2022 -2.1025  0.3623
 5298SOL    HW227357   4.024   2.164   4.101  0.7261  0.7665  0.3790
 5299SOL     OW27358   0.155   3.197   9.730 -0.1316  0.3166  0.5129
 5299SOL    HW127359   0.211   3.226   9.658  0.8123 -1.3216  0.6108
 5299SOL    HW227360   0.099   3.272   9.751 -1.5359 -1.0245  1.5516
 5300SOL     OW27361   3.164   1.112   4.955 -0.1765  0.0017  0.0320
 5300SOL    HW127362   3.155   1.018   4.973  0.5241  0.2374  1.5305
 5300SOL    HW227363   3.257   1.128   4.940 -0.0228  0.2267  1.2482
 5301SOL     OW27364   1.251   4.571   5.885 -0.4563 -0.6295  0.4864
 5301SOL    HW127365   1.294   4.613   5.811  0.2686 -0.0950  1.2072
 5301SOL    HW227366   1.315   4.573   5.956 -0.1112 -2.1384  0.2159
 5302SOL     OW27367   1.946   3.668   3.870  0.4025 -0.2158 -0.1907
 5302SOL    HW127368   2.034   3.702   3.851  0.6478 -0.3624  0.7244
 5302SOL    HW227369   1.890   3.731   3.825 -1.9807 -1.0798  1.5795
 5303SOL     OW27370   1.805   3.385   7.897  0.1765 -0.1936  0.2938
 5303SOL    HW127371   1.755   3.462   7.868 -0.6658 -0.8959 -0.1547
 5303SOL    HW227372   1.878   3.383   7.835 -1.0791 -1.9234 -1.1300
 5304SOL     OW27373   3.650   3.724   7.742  0.3393 -0.2845 -0.2765
 5304SOL    HW127374   3.652   3.718   7.647  1.2880  4.9192 -0.5839
 5304SOL    HW227375   3.569   3.774   7.754  0.9405  0.8061 -0.7811
 5305SOL     OW27376   3.665   4.224   2.424 -0.1637  0.5903 -0.0404
 5305SOL    HW127377   3.575   4.193   2.435  0.3637 -0.5523  1.0795
 5305SOL    HW227378   3.672   4.193   2.334  0.6270 -0.4058  0.3676
 5306SOL     OW27379   1.851   4.345  13.204 -0.3771  0.0689 -0.0849
 5306SOL    HW127380   1.841   4.354  13.109 -1.5536  2.7098  0.2988
 5306SOL    HW227381   1.763   4.353  13.241 -0.1153  0.4279  0.4547
 5307SOL     OW27382   4.290   0.242   3.880 -0.1769 -0.2958  0.4418
 5307SOL    HW127383   4.213   0.286   3.845  0.4826  1.8724  1.7526
 5307SOL    HW227384   4.282   0.249   3.975  1.0297  1.2602  0.4246
 5308SOL     OW27385   3.736   1.684   8.844  0.1197 -0.0937  0.0387
 5308SOL    HW127386   3.673   1.616   8.865 -0.3859  0.7317  1.1587
 5308SOL    HW227387   3.671   1.750   8.818  0.2796  0.4688  1.0716
 5309SOL     OW27388   4.404   2.761   8.922  0.2340 -0.1283 -0.2186
 5309SOL    HW127389   4.354   2.680   8.914  0.2116 -0.3288  1.9809
 5309SOL    HW227390   4.465   2.745   8.850  0.1040 -0.8976 -0.1587
 5310SOL     OW27391   0.034   2.583   9.702 -0.1100 -0.4190 -0.2795
 5310SOL    HW127392   4.668   2.617   9.717  0.4327  0.7640  0.2504
 5310SOL    HW227393   0.061   2.613   9.615  2.1578 -0.1907  0.4842
 5311SOL     OW27394   3.471   2.100   6.999  0.0589  0.0997  0.0836
 5311SOL    HW127395   3.550   2.147   7.027  0.7064 -0.1857 -1.2808
 5311SOL    HW227396   3.490   2.045   6.924  2.1751  1.7904 -0.6350
 5312SOL     OW27397   0.562   3.587   7.435  0.2451  0.0080 -0.2137
 5312SOL    HW127398   0.627   3.620   7.498  0.1138  2.8904 -1.6002
 5312SOL    HW227399   0.501   3.661   7.438 -0.6451 -0.7008 -0.8895
 5313SOL     OW27400   1.314   4.665   4.619 -0.7316  0.2292  0.2673
 5313SOL    HW127401   1.219   4.680   4.624 -1.0395 -1.5140 -0.4386
 5313SOL    HW227402   1.335   0.020   4.565 -3.8193  0.0705 -1.1383
 5314SOL     OW27403   2.433   4.323   1.720 -0.1010 -0.2252  0.0521
 5314SOL    HW127404   2.457   4.242   1.673 -2.0451 -0.2916 -0.8224
 5314SOL    HW227405   2.473   4.392   1.667 -0.6943  1.2657  1.5665
 5315SOL     OW27406   3.036   3.547   2.156 -0.3851 -0.0081  0.2799
 5315SOL    HW127407   3.096   3.563   2.230  0.4578  0.6657 -0.5537
 5315SOL    HW227408   3.048   3.454   2.140  0.1500  0.1693 -0.3634
 5316SOL     OW27409   3.377   1.461   9.727 -0.0123  0.5102 -0.1481
 5316SOL    HW127410   3.416   1.387   9.680 -1.8082  0.1934 -1.1358
 5316SOL    HW227411   3.296   1.422   9.762  1.0143 -1.3248  0.1963
 5317SOL     OW27412   1.117   2.059   4.684  0.6849 -0.4457  0.6718
 5317SOL    HW127413   1.029   2.023   4.673  1.2808 -1.3678 -1.1326
 5317SOL    HW227414   1.102   2.153   4.674 -1.2962 -0.6861  1.4028
 5318SOL     OW27415   1.181   0.502   1.955 -0.8102 -0.0225  0.1708
 5318SOL    HW127416   1.132   0.532   1.879  0.7824  1.0251 -0.4346
 5318SOL    HW227417   1.129   0.548   2.021 -0.3552 -0.0164  0.5256
 5319SOL     OW27418   1.690   4.130  12.568 -0.1787 -0.0834 -0.0156
 5319SOL    HW127419   1.665   4.153  12.657 -1.0418 -1.0934 -0.0005
 5319SOL    HW227420   1.786   4.134  12.570 -0.0584 -2.9957  0.3548
 5320SOL     OW27421   3.449   1.010   2.029 -0.2794 -0.0200  0.3443
 5320SOL    HW127422   3.535   0.989   2.064 -0.9273  0.2799  2.1303
 5320SOL    HW227423   3.414   0.932   2.073  0.9441 -0.2074  0.9977
 5321SOL     OW27424   3.487   0.288   5.267  0.2279  0.2345  1.0492
 5321SOL    HW127425   3.489   0.237   5.186 -0.1680 -0.9819  1.8045
 5321SOL    HW227426   3.568   0.261   5.310 -1.1454 -0.2348  3.3735
 5322SOL     OW27427   3.235   4.019   6.377 -0.0877 -0.3983 -0.2483
 5322SOL    HW127428   3.221   4.055   6.465 -2.9044 -4.5695  0.9879
 5322SOL    HW227429   3.304   4.079   6.347  1.5532 -1.8491  0.5964
 5323SOL     OW27430   3.977   2.924  12.069  0.0090 -0.3281  0.1876
 5323SOL    HW127431   4.015   2.994  12.123  2.6460 -1.0171 -0.8162
 5323SOL    HW227432   3.927   2.976  12.005 -0.1043  0.3126  0.7873
 5324SOL     OW27433   4.038   3.316   4.536  0.1655  0.6302 -0.3794
 5324SOL    HW127434   4.050   3.357   4.621  0.4658 -0.2637  0.0158
 5324SOL    HW227435   4.125   3.335   4.501  0.5105  1.1555  0.7643
 5325SOL     OW27436   2.064   4.371   7.479 -0.0436 -0.6079 -0.1792
 5325SOL    HW127437   2.125   4.347   7.410  1.6116 -1.1872  1.4871
 5325SOL    HW227438   1.979   4.348   7.441 -0.1423 -2.6663  1.3056
 5326SOL     OW27439   4.268   1.534   5.169 -0.2930 -0.5132  0.0496
 5326SOL    HW127440   4.225   1.449   5.154  1.1221 -1.1643 -0.2316
 5326SOL    HW227441   4.279   1.554   5.077  0.4326  1.0236  0.4775
 5327SOL     OW27442   1.228   1.385  17.679 -0.4626  0.0533 -0.5541
 5327SOL    HW127443   1.290   1.454  17.655 -0.4177 -0.3119 -1.4963
 5327SOL    HW227444   1.166   1.391  17.606 -2.1169 -1.1762  0.7602
 5328SOL     OW27445   4.262   4.666   8.544  0.3638  0.5986 -0.5467
 5328SOL    HW127446   4.265   4.571   8.531 -0.0182  0.5277 -0.1457
 5328SOL    HW227447   4.335   4.685   8.603  0.7362 -0.2846 -0.7250
 5329SOL     OW27448   2.080   2.115   5.864 -0.3226 -0.0998 -0.3226
 5329SOL    HW127449   2.123   2.048   5.811 -1.8165 -0.0506 -1.6269
 5329SOL    HW227450   2.064   2.058   5.939  0.5364 -0.5209 -0.4601
 5330SOL     OW27451   0.541   1.037   8.865 -0.0012  0.1698 -0.7065
 5330SOL    HW127452   0.586   1.017   8.946 -0.2077  1.6515 -0.2189
 5330SOL    HW227453   0.610   1.093   8.829 -0.5199  0.3954 -1.3524
 5331SOL     OW27454   0.520   2.032   8.550 -0.0192  0.1240 -0.6243
 5331SOL    HW127455   0.569   2.100   8.595 -0.0588 -1.2590  1.5008
 5331SOL    HW227456   0.509   1.972   8.624  0.4712  1.9875  0.9401
 5332SOL     OW27457   4.019   2.991   3.403 -0.2557  0.0451  0.2873
 5332SOL    HW127458   3.934   2.961   3.436 -0.9258  0.1386 -1.3157
 5332SOL    HW227459   4.037   3.060   3.467 -1.3651 -0.7670  1.4630
 5333SOL     OW27460   0.710   3.955   2.460 -0.4094 -0.3627  0.2462
 5333SOL    HW127461   0.683   4.039   2.495 -3.3119 -1.0800 -0.3028
 5333SOL    HW227462   0.730   3.910   2.542 -0.1999  0.4606  0.6478
 5334SOL     OW27463   2.331   4.594   1.827 -0.1945  0.3994  0.6890
 5334SOL    HW127464   2.301   4.680   1.856 -1.0722  0.3129  0.0547
 5334SOL    HW227465   2.313   4.598   1.733  2.2877  0.9899  0.2526
 5335SOL     OW27466   4.575   0.913  12.376 -0.3299  0.1903 -0.1457
 5335SOL    HW127467   4.665   0.928  12.348 -1.0316 -1.1410 -3.1393
 5335SOL    HW227468   4.575   0.818  12.360 -1.3496  0.0574  0.6149
 5336SOL     OW27469   1.195   0.807   8.810  1.0405  0.1879  0.0294
 5336SOL    HW127470   1.176   0.866   8.738 -1.6051  0.0721  0.6201
 5336SOL    HW227471   1.276   0.773   8.773  1.0611  0.4229 -0.1440
 5337SOL     OW27472   3.044   4.078   7.980  0.0717 -0.3157 -0.6237
 5337SOL    HW127473   3.118   4.091   8.039  0.0861  0.5109 -0.8289
 5337SOL    HW227474   3.015   4.165   7.953 -0.9833 -0.2494  0.7139
 5338SOL     OW27475   2.863   2.435  13.994  0.3554 -0.3000  0.2681
 5338SOL    HW127476   2.918   2.369  13.950 -1.4421 -2.7640  1.6834
 5338SOL    HW227477   2.780   2.390  14.013 -0.2240  1.0785  1.0339
 5339SOL     OW27478   3.277   3.387   3.535  0.7434 -0.1134  0.0442
 5339SOL    HW127479   3.310   3.299   3.516 -0.1800 -0.3464 -0.5151
 5339SOL    HW227480   3.270   3.426   3.448  1.3574 -1.7768 -0.7420
 5340SOL     OW27481   2.399   3.998  16.524 -0.1976  0.1338  0.2299
 5340SOL    HW127482   2.457   3.964  16.456 -2.1902  0.2337 -1.5359
 5340SOL    HW227483   2.429   4.088  16.518 -0.0845  0.0051 -1.0511
 5341SOL     OW27484   0.779   2.837   9.355  0.0139 -0.5317 -0.0213
 5341SOL    HW127485   0.751   2.775   9.422 -2.0355 -1.4824 -1.7613
 5341SOL    HW227486   0.858   2.792   9.324  0.2780 -0.3821  0.4331
 5342SOL     OW27487   4.390   3.145   5.102  0.0505 -0.5163  0.2047
 5342SOL    HW127488   4.433   3.229   5.118  1.3413 -1.0498 -0.4742
 5342SOL    HW227489   4.301   3.180   5.114  0.1517  0.0950 -0.8218
 5343SOL     OW27490   4.294   1.842   4.349  0.1853  0.5140  0.2765
 5343SOL    HW127491   4.348   1.764   4.342 -1.5562 -0.8668  2.0582
 5343SOL    HW227492   4.294   1.865   4.256 -1.8365 -1.7150 -0.2862
 5344SOL     OW27493   4.678   2.273  15.625 -0.1750  0.0043 -0.0938
 5344SOL    HW127494   4.686   2.258  15.719 -0.6821 -0.8320 -0.1858
 5344SOL    HW227495   4.667   2.184  15.593  0.0050  0.2975 -0.9687
 5345SOL     OW27496   2.418   0.428   9.525  0.2829 -0.4767 -0.6639
 5345SOL    HW127497   2.375   0.421   9.610  1.3811  0.4694 -0.0340
 5345SOL    HW227498   2.492   0.487   9.537  1.6075 -2.4014  0.6390
 5346SOL     OW27499   1.283   1.107   8.303 -0.0355  0.1411 -0.2160
 5346SOL    HW127500   1.365   1.059   8.295  0.2729  0.5927  0.2052
 5346SOL    HW227501   1.247   1.085   8.217 -1.9212 -2.1087  1.1646
 5347SOL     OW27502   3.452   1.511   3.125  0.2178  0.0983  0.8356
 5347SOL    HW127503   3.547   1.498   3.120  0.0049 -0.7281 -1.2422
 5347SOL    HW227504   3.450   1.569   3.201  1.1063 -0.5111  1.3126
 5348SOL     OW27505   0.211   1.698   2.734 -0.4311 -0.1181 -0.5814
 5348SOL    HW127506   0.243   1.768   2.678 -0.0725  1.0304  1.0633
 5348SOL    HW227507   0.232   1.738   2.818  0.5698  0.3416 -1.0567
 5349SOL     OW27508   0.332   2.232   8.488 -0.2712 -0.6910 -0.0315
 5349SOL    HW127509   0.394   2.162   8.506 -0.5186 -0.7271  0.7097
 5349SOL    HW227510   0.268   2.181   8.439  0.1320 -0.8356 -0.4100
 5350SOL     OW27511   2.313   0.263   0.169 -0.1389 -0.0123  0.8805
 5350SOL    HW127512   2.299   0.173   0.140 -0.6230 -0.3265  2.0658
 5350SOL    HW227513   2.227   0.304   0.168 -1.0135 -1.8204  1.5619
 5351SOL     OW27514   3.422   4.654  15.754  0.5124  0.2372 -0.3123
 5351SOL    HW127515   3.498   4.672  15.809  0.1487 -2.3101  1.0067
 5351SOL    HW227516   3.437   4.720  15.686 -0.6850 -0.6123 -1.3940
 5352SOL     OW27517   3.270   1.285   8.896  0.4763  0.2602 -0.3018
 5352SOL    HW127518   3.351   1.233   8.898  0.3695  0.1228  0.2654
 5352SOL    HW227519   3.296   1.363   8.847 -0.0736  1.2935  1.0787
 5353SOL     OW27520   1.084   4.100   4.429  0.2782 -0.3676 -0.1692
 5353SOL    HW127521   1.048   4.015   4.405 -0.8927 -0.0144  0.3163
 5353SOL    HW227522   1.109   4.066   4.515 -1.1372 -3.1430 -0.8798
 5354SOL     OW27523   1.451   4.036   6.498 -0.4989  0.1901  0.4095
 5354SOL    HW127524   1.466   3.967   6.433  1.1742  0.0116  0.9741
 5354SOL    HW227525   1.361   4.059   6.479  0.0983 -1.1253 -4.0699
 5355SOL     OW27526   1.716   0.160   5.256 -0.1962  0.1996  0.0457
 5355SOL    HW127527   1.635   0.130   5.297  1.7116 -1.2846  2.6691
 5355SOL    HW227528   1.676   0.189   5.174  0.5792  1.2051  0.0141
 5356SOL     OW27529   3.109   0.182   9.141  0.2487  0.4035  0.0856
 5356SOL    HW127530   3.166   0.248   9.179  1.1911  0.8894 -2.1870
 5356SOL    HW227531   3.037   0.164   9.201  0.7910 -2.1457 -0.0296
 5357SOL     OW27532   1.517   3.044   7.012 -0.1316  0.1068 -0.4828
 5357SOL    HW127533   1.600   3.025   7.056 -1.6972  0.2100  2.5211
 5357SOL    HW227534   1.461   3.052   7.089 -2.5282  0.1693 -2.2283
 5358SOL     OW27535   0.210   3.892   8.126 -0.0662  0.0924  0.3892
 5358SOL    HW127536   0.243   3.816   8.077  1.7198  0.9970  0.1914
 5358SOL    HW227537   0.186   3.846   8.206 -1.4567 -1.5903 -0.9991
 5359SOL     OW27538   2.294   0.941   8.692 -0.1592 -0.3650  0.0303
 5359SOL    HW127539   2.205   0.976   8.698 -0.1975 -0.6461  1.1254
 5359SOL    HW227540   2.351   1.014   8.670 -0.2517  0.4496  2.4869
 5360SOL     OW27541   1.037   2.245   8.376  0.2129 -0.1745 -0.0839
 5360SOL    HW127542   1.004   2.264   8.288  3.0876 -0.1902 -1.1418
 5360SOL    HW227543   0.958   2.256   8.429  0.2973  0.7997 -0.1610
 5361SOL     OW27544   4.084   4.521   2.420  0.2243 -0.2602 -0.2090
 5361SOL    HW127545   4.059   4.604   2.461 -1.2712 -0.3672 -0.8898
 5361SOL    HW227546   4.004   4.471   2.438 -0.8509  0.8773 -1.8702
 5362SOL     OW27547   3.980   4.126   6.262 -0.0047  0.4643 -0.1534
 5362SOL    HW127548   3.986   4.035   6.289  1.2981  1.1042  1.6819
 5362SOL    HW227549   4.047   4.165   6.317 -0.4152 -1.4920  1.6961
 5363SOL     OW27550   1.727   2.335   3.923  0.0535  0.3404 -0.2952
 5363SOL    HW127551   1.669   2.387   3.866 -0.9079  0.1156  0.4797
 5363SOL    HW227552   1.676   2.340   4.004 -1.4276  0.8119 -1.2517
 5364SOL     OW27553   2.158   0.541   4.514 -0.1297  0.2543 -0.3704
 5364SOL    HW127554   2.097   0.538   4.440  0.6240 -1.3924 -0.9163
 5364SOL    HW227555   2.188   0.451   4.522  1.1965  0.5730 -1.7326
 5365SOL     OW27556   1.588   2.502   1.146 -0.2363  0.2021 -0.0859
 5365SOL    HW127557   1.506   2.547   1.166  1.1805  2.5603  0.4262
 5365SOL    HW227558   1.641   2.558   1.203 -0.3964 -1.5224  1.7248
 5366SOL     OW27559   0.042   1.322   5.800 -0.6310 -0.2422 -0.3948
 5366SOL    HW127560   4.712   1.321   5.881  0.3273  1.7121  0.2463
 5366SOL    HW227561   0.061   1.229   5.791  0.5443  0.0243 -0.6169
 5367SOL     OW27562   3.674   1.041   4.228  0.2884 -0.1042 -0.0081
 5367SOL    HW127563   3.654   1.075   4.140 -0.2875  0.4052  0.3171
 5367SOL    HW227564   3.589   1.055   4.270 -0.6464 -0.1068 -1.8710
 5368SOL     OW27565   0.765   2.018  10.582 -0.2516 -0.5251  0.8808
 5368SOL    HW127566   0.856   1.990  10.595  0.2017  0.3246 -0.4182
 5368SOL    HW227567   0.773   2.114  10.586  2.0110 -0.7556  2.0605
 5369SOL     OW27568   2.436   4.320   0.765  0.1433  0.0336 -0.4479
 5369SOL    HW127569   2.352   4.295   0.806  1.3260  0.3193  2.1576
 5369SOL    HW227570   2.495   4.295   0.836 -0.8778 -0.7147  0.1436
 5370SOL     OW27571   1.837   4.288   4.305 -0.3305 -0.3247  0.3126
 5370SOL    HW127572   1.913   4.238   4.336  0.5755  0.0995 -1.2301
 5370SOL    HW227573   1.877   4.374   4.302 -0.2854 -0.3860 -0.7334
 5371SOL     OW27574   1.277   1.747   6.127  0.4302 -0.2192 -0.0619
 5371SOL    HW127575   1.296   1.685   6.197  0.5468 -0.3384 -0.1978
 5371SOL    HW227576   1.262   1.828   6.174  0.2658 -1.1979  1.5566
 5372SOL     OW27577   0.563   0.229   8.677  0.1528 -0.2679 -0.0062
 5372SOL    HW127578   0.488   0.250   8.621  1.6347  5.5331  0.2197
 5372SOL    HW227579   0.530   0.155   8.727  0.6268  0.2738  1.0925
 5373SOL     OW27580   2.280   3.765   5.355  0.0627 -0.8513  0.4515
 5373SOL    HW127581   2.327   3.771   5.438 -0.6872 -0.2811  0.8293
 5373SOL    HW227582   2.201   3.735   5.399 -0.9459  3.0839  1.2482
 5374SOL     OW27583   4.654   0.890   5.997  0.0636 -0.2778  0.4594
 5374SOL    HW127584   4.602   0.917   5.922 -0.6555 -0.5241  0.8748
 5374SOL    HW227585   0.014   0.855   5.960  0.1295  0.1193  0.2253
 5375SOL     OW27586   3.784   1.715   1.364  0.3736  0.0368  0.3783
 5375SOL    HW127587   3.742   1.629   1.359  1.8989 -0.6205 -1.0687
 5375SOL    HW227588   3.848   1.700   1.433  0.4807  1.4558  0.5872
 5376SOL     OW27589   4.000   0.664   6.656 -0.1954 -0.4191 -0.4581
 5376SOL    HW127590   3.939   0.607   6.703 -2.0528  0.1677 -2.1528
 5376SOL    HW227591   4.073   0.689   6.712 -1.4865  1.0208  0.6149
 5377SOL     OW27592   4.302   0.285  10.107 -0.1232 -0.2952 -0.2158
 5377SOL    HW127593   4.269   0.197  10.125 -1.3437  0.3706  0.7816
 5377SOL    HW227594   4.256   0.324  10.181  1.2876  0.9823 -0.0099
 5378SOL     OW27595   0.273   1.024   9.919 -0.2450  0.1580  0.1506
 5378SOL    HW127596   0.329   0.949   9.895  0.9706  0.8332  0.8728
 5378SOL    HW227597   0.323   1.048   9.997 -0.9787 -1.9098  1.2719
 5379SOL     OW27598   2.743   3.895   8.971  0.1474 -0.4775  0.1080
 5379SOL    HW127599   2.692   3.946   8.908 -1.9800 -2.1604  0.4832
 5379SOL    HW227600   2.675   3.857   9.027 -0.7536  1.5607  0.4086
 5380SOL     OW27601   2.395   0.336   8.428  0.6410 -0.2376  0.1056
 5380SOL    HW127602   2.448   0.392   8.371  0.4832 -0.1754  0.0203
 5380SOL    HW227603   2.463   0.295   8.481  0.4526 -0.8959 -0.1549
 5381SOL     OW27604   0.972   1.914   8.270  0.1290  0.6069  0.4182
 5381SOL    HW127605   1.030   1.890   8.197  0.7014 -2.2403  1.8105
 5381SOL    HW227606   1.040   1.925   8.336  0.9244 -1.7982  0.0213
 5382SOL     OW27607   1.581   3.587  11.774  0.3092 -0.2360  0.3699
 5382SOL    HW127608   1.659   3.554  11.728  0.9558 -0.2399  1.4622
 5382SOL    HW227609   1.513   3.530  11.739 -0.2435  0.2824  0.5913
 5383SOL     OW27610   0.403   1.018   7.502 -0.9846 -0.0067 -0.1363
 5383SOL    HW127611   0.489   1.043   7.467 -0.2614 -2.1786  0.1058
 5383SOL    HW227612   0.347   1.072   7.446  1.3017  2.7995  0.3229
 5384SOL     OW27613   2.179   2.314  12.846 -0.1449  0.0495  0.2125
 5384SOL    HW127614   2.269   2.314  12.879 -0.3209 -0.1797  0.7028
 5384SOL    HW227615   2.185   2.333  12.753  1.7868 -1.7390 -0.0160
 5385SOL     OW27616   4.279   2.482  12.774 -0.6722  0.6942  0.0054
 5385SOL    HW127617   4.308   2.404  12.822 -2.0156 -0.3861 -0.9384
 5385SOL    HW227618   4.187   2.460  12.758 -0.7452  2.1138 -1.5530
 5386SOL     OW27619   4.380   4.548   6.992  0.1914 -0.0204  0.0874
 5386SOL    HW127620   4.443   4.619   6.982  0.5485 -0.1384  1.4873
 5386SOL    HW227621   4.374   4.512   6.904  0.0374  2.1591 -0.7848
 5387SOL     OW27622   1.175   1.475   6.742  0.2313  0.4240 -0.3280
 5387SOL    HW127623   1.215   1.521   6.816  1.3878 -0.9628 -0.0998
 5387SOL    HW227624   1.225   1.515   6.671 -0.1631 -0.0070 -0.8459
 5388SOL     OW27625   0.535   0.643   6.073  0.9682 -0.4252  0.5417
 5388SOL    HW127626   0.630   0.642   6.075  1.0025  0.5409 -0.4257
 5388SOL    HW227627   0.519   0.737   6.087 -1.4518 -0.9327  1.1922
 5389SOL     OW27628   4.066   4.115   9.513 -0.0142 -0.6633  0.0108
 5389SOL    HW127629   4.135   4.114   9.580  0.4816  1.6387 -0.4791
 5389SOL    HW227630   3.994   4.125   9.575 -1.7962 -0.8690 -2.0141
 5390SOL     OW27631   2.729   2.533   2.164 -0.1131  0.0479  0.3763
 5390SOL    HW127632   2.698   2.576   2.243  0.6551  0.4311  0.4629
 5390SOL    HW227633   2.821   2.541   2.186  0.0305  0.7713 -0.4873
 5391SOL     OW27634   0.051   4.420   7.074 -0.1085  0.5756 -0.1547
 5391SOL    HW127635   0.102   4.471   7.136 -0.6582  0.7380  0.1636
 5391SOL    HW227636   0.068   4.474   6.997  0.4951 -1.3397 -1.3719
 5392SOL     OW27637   2.634   0.883   5.972 -0.3427 -0.1082 -0.2017
 5392SOL    HW127638   2.595   0.796   5.958  1.3173 -0.9573  0.4289
 5392SOL    HW227639   2.632   0.925   5.886  1.7273 -0.5668 -0.4851
 5393SOL     OW27640   4.267   1.538   4.265 -0.3139 -0.1409  0.3944
 5393SOL    HW127641   4.177   1.544   4.298 -0.4601  1.3824 -0.2630
 5393SOL    HW227642   4.248   1.568   4.175  0.1435  0.9947  0.6734
 5394SOL     OW27643   4.707   3.103   8.242  0.0073 -0.1249 -0.6542
 5394SOL    HW127644   0.052   3.037   8.259 -0.4346 -0.0900  1.2217
 5394SOL    HW227645   4.629   3.068   8.284 -0.8907  0.5186 -1.7812
 5395SOL     OW27646   2.240   0.668   7.150 -1.0142 -0.8343  0.1393
 5395SOL    HW127647   2.265   0.600   7.088  0.9454 -1.6248  1.7932
 5395SOL    HW227648   2.149   0.653   7.177 -0.3635 -1.4757  2.0000
 5396SOL     OW27649   3.817   2.609   2.935 -0.5956  0.1852  0.0516
 5396SOL    HW127650   3.777   2.650   3.011  2.3969 -0.4384  1.9524
 5396SOL    HW227651   3.750   2.633   2.870  1.4674 -2.5166 -3.0946
 5397SOL     OW27652   1.751   3.568  17.463  0.7210 -0.7276 -0.0573
 5397SOL    HW127653   1.756   3.603  17.374  2.3374  0.3281  0.4541
 5397SOL    HW227654   1.839   3.530  17.461  0.9182 -0.2687 -0.0399
 5398SOL     OW27655   4.240   0.684   6.015  0.0297 -0.1701 -0.9898
 5398SOL    HW127656   4.250   0.590   6.002  1.3897  0.0693 -1.6749
 5398SOL    HW227657   4.250   0.692   6.110 -0.3731 -1.6807 -0.8279
 5399SOL     OW27658   2.872   3.847   6.235  0.1043 -0.1105 -0.2269
 5399SOL    HW127659   2.832   3.918   6.185  0.1982  1.5052  2.0096
 5399SOL    HW227660   2.812   3.777   6.210 -1.3352  1.7306 -1.9048
 5400SOL     OW27661   1.624   2.344  11.389 -0.4251 -0.1228 -0.1595
 5400SOL    HW127662   1.564   2.270  11.402 -0.3105 -0.2238 -0.2156
 5400SOL    HW227663   1.580   2.387  11.315 -0.3283  1.6564  0.8197
 5401SOL     OW27664   4.223   3.135   4.218 -0.2370  0.1909 -0.3612
 5401SOL    HW127665   4.229   3.213   4.273  1.6253 -0.3554  0.1972
 5401SOL    HW227666   4.178   3.166   4.140 -1.0897  1.1551  0.5138
 5402SOL     OW27667   1.652   3.317   0.714 -0.1603 -0.5908 -0.2345
 5402SOL    HW127668   1.703   3.394   0.688 -2.1289  0.9396  0.3923
 5402SOL    HW227669   1.571   3.342   0.669 -0.7768 -3.2177 -0.5855
 5403SOL     OW27670   4.110   3.611  15.275 -0.1211  0.0866 -0.1017
 5403SOL    HW127671   4.037   3.656  15.233 -1.2733 -0.1261  1.6494
 5403SOL    HW227672   4.164   3.584  15.202  1.4318  1.8464  0.4111
 5404SOL     OW27673   4.094   4.557   4.354  0.1812  0.8280 -0.0683
 5404SOL    HW127674   4.062   4.487   4.297 -0.3902  0.0156  1.2537
 5404SOL    HW227675   4.044   4.535   4.433 -2.5054 -1.0406 -2.2870
 5405SOL     OW27676   4.403   0.604   3.422  0.1729 -0.2567 -0.3576
 5405SOL    HW127677   4.479   0.558   3.457  1.3830 -0.2281 -2.9363
 5405SOL    HW227678   4.336   0.550   3.462 -1.1865  2.7860  1.5070
 5406SOL     OW27679   1.009   4.504   4.448 -0.1252 -0.6734  0.7478
 5406SOL    HW127680   1.081   4.440   4.456  0.7337  0.2122  0.1754
 5406SOL    HW227681   1.034   4.561   4.520 -0.5190  0.5403 -0.0746
 5407SOL     OW27682   2.475   2.237   3.881 -0.5231 -0.6249 -0.4545
 5407SOL    HW127683   2.565   2.269   3.875 -0.5620 -0.4098  0.1865
 5407SOL    HW227684   2.480   2.207   3.972  0.3974 -0.9620 -0.6086
 5408SOL     OW27685   2.937   0.229  12.480  0.0016 -0.2509 -0.0570
 5408SOL    HW127686   2.924   0.307  12.533  3.2600  2.3964 -3.1199
 5408SOL    HW227687   2.963   0.170  12.551 -0.5255 -1.0925 -0.5618
 5409SOL     OW27688   2.218   1.772   0.555  0.8464  0.1917 -0.3756
 5409SOL    HW127689   2.137   1.751   0.602  1.6512  1.6192  1.6581
 5409SOL    HW227690   2.286   1.710   0.579  0.3088 -0.7038 -1.1459
 5410SOL     OW27691   2.109   2.701   2.071  0.1440 -0.5712 -0.4435
 5410SOL    HW127692   2.041   2.765   2.096 -0.1312 -1.3730  0.8903
 5410SOL    HW227693   2.127   2.726   1.980  2.4339 -0.2634  0.0958
 5411SOL     OW27694   2.394   2.663   5.717 -0.0023 -0.4137 -0.5030
 5411SOL    HW127695   2.465   2.610   5.752  0.6847  0.2369 -0.9109
 5411SOL    HW227696   2.443   2.744   5.704  0.6863 -0.5173  1.4140
 5412SOL     OW27697   2.696   0.445   5.141  0.4873  0.5110  0.1767
 5412SOL    HW127698   2.702   0.359   5.182  1.5771 -0.5141 -2.1302
 5412SOL    HW227699   2.771   0.496   5.172 -0.3922  1.7603  0.2580
 5413SOL     OW27700   4.632   0.309   7.894 -0.1999  0.7164  0.2769
 5413SOL    HW127701   4.538   0.299   7.878 -0.0605  0.8939 -0.6579
 5413SOL    HW227702   4.637   0.396   7.855 -1.4514  0.3213 -0.7399
 5414SOL     OW27703   0.787   0.619   1.345 -0.3504 -0.0280 -0.2573
 5414SOL    HW127704   0.844   0.597   1.419 -0.4252  0.0689 -0.1706
 5414SOL    HW227705   0.710   0.662   1.382 -1.0365 -0.8903 -0.7016
 5415SOL     OW27706   3.253   4.029   7.594 -0.3486 -0.0584  0.1351
 5415SOL    HW127707   3.271   3.992   7.507  0.6880  0.5188  0.1077
 5415SOL    HW227708   3.315   4.102   7.597  0.6587 -0.8905 -0.3528
 5416SOL     OW27709   1.559   4.494  12.538 -0.1830  0.2125 -0.0958
 5416SOL    HW127710   1.534   4.402  12.529  0.9233  0.0425 -1.3897
 5416SOL    HW227711   1.607   4.501  12.456  0.1407  0.6595  0.1337
 5417SOL     OW27712   2.682   2.892   2.445 -0.1451  0.2967  0.0228
 5417SOL    HW127713   2.632   2.931   2.374 -1.4256 -0.8235  0.3008
 5417SOL    HW227714   2.620   2.829   2.483  0.9016 -1.4745 -1.2385
 5418SOL     OW27715   0.357   2.082   7.918 -0.4914  0.0356  0.0840
 5418SOL    HW127716   0.411   2.160   7.936  0.0025 -0.6351  1.4410
 5418SOL    HW227717   0.369   2.040   8.003  1.4958  1.4708  0.5118
 5419SOL     OW27718   0.419   4.549   5.901  0.2046 -0.4367  0.0107
 5419SOL    HW127719   0.442   4.640   5.922  1.6595 -1.1132  1.2358
 5419SOL    HW227720   0.483   4.533   5.833 -1.7538  1.2234 -2.2485
 5420SOL     OW27721   0.800   1.121   6.218  0.0316  0.4046 -0.5424
 5420SOL    HW127722   0.845   1.184   6.275 -1.3991 -0.4917  1.5699
 5420SOL    HW227723   0.824   1.156   6.132  2.7391 -2.5328 -0.9648
 5421SOL     OW27724   1.506   4.720   3.285  0.1640  0.0599  0.4766
 5421SOL    HW127725   1.447   0.043   3.225  0.0437  1.7839  1.8935
 5421SOL    HW227726   1.478   4.629   3.275  0.3001  0.2395 -1.5218
 5422SOL     OW27727   3.192   1.471   8.319  0.3312 -0.2173  0.3615
 5422SOL    HW127728   3.129   1.497   8.252  0.8837 -1.8453 -0.7908
 5422SOL    HW227729   3.210   1.553   8.366  0.4415  0.8467 -1.5299
 5423SOL     OW27730   4.028   2.619  15.140  0.1054 -0.0422  0.0758
 5423SOL    HW127731   4.103   2.679  15.135  0.1297 -0.2875 -2.2558
 5423SOL    HW227732   3.968   2.654  15.074  0.2358 -2.0689 -1.0954
 5424SOL     OW27733   2.141   0.337   3.759 -0.8458  0.5494 -0.3759
 5424SOL    HW127734   2.188   0.255   3.773 -0.0506  1.3679  1.6298
 5424SOL    HW227735   2.135   0.346   3.664  2.2944  3.0224 -0.3341
 5425SOL     OW27736   1.590   0.350   8.680 -0.2480 -0.4247  0.6329
 5425SOL    HW127737   1.670   0.313   8.717 -0.2417  0.4582  1.4820
 5425SOL    HW227738   1.618   0.440   8.660  3.6654 -1.4100  1.7363
 5426SOL     OW27739   2.673   0.806  17.471 -0.9447 -0.1912  0.2001
 5426SOL    HW127740   2.682   0.901  17.466  0.1673 -0.3213 -0.3343
 5426SOL    HW227741   2.679   0.793  17.566 -1.2442  0.0893  0.2594
 5427SOL     OW27742   4.652   2.091  16.858  0.2721 -0.3953 -0.7139
 5427SOL    HW127743   4.714   2.019  16.869 -0.3914 -0.7388  0.8392
 5427SOL    HW227744   4.713   2.156  16.825  1.5700 -0.1808  2.1557
 5428SOL     OW27745   1.738   1.971   9.797 -0.3998  0.3403 -0.9949
 5428SOL    HW127746   1.678   1.966   9.723  1.4605 -1.1551 -2.3795
 5428SOL    HW227747   1.825   1.977   9.758  0.2904  0.1549  0.5299
 5429SOL     OW27748   3.675   0.027  13.392  0.1113  0.1026 -0.4456
 5429SOL    HW127749   3.670   4.671  13.337 -1.3578 -0.6289  0.7237
 5429SOL    HW227750   3.599   0.007  13.448 -0.9644 -0.6115 -2.1568
 5430SOL     OW27751   1.591   2.961   7.690  0.4030  0.5000  0.0632
 5430SOL    HW127752   1.599   3.038   7.747  2.1550  0.7703 -0.5253
 5430SOL    HW227753   1.507   2.975   7.646 -0.2629  0.4941  1.3378
 5431SOL     OW27754   1.220   3.576   8.079  0.0408 -0.2665  0.2241
 5431SOL    HW127755   1.217   3.483   8.101  0.5726 -0.1812  0.6636
 5431SOL    HW227756   1.129   3.582   8.051 -0.6764 -0.5118  2.5300
 5432SOL     OW27757   1.053   3.982  10.421 -0.8883 -0.2978 -0.1423
 5432SOL    HW127758   1.033   3.932  10.342  4.0816 -2.3339 -0.1321
 5432SOL    HW227759   0.980   3.959  10.479 -2.7572 -1.3980 -2.9129
 5433SOL     OW27760   0.826   4.093   1.044  0.3406 -0.1543 -0.3826
 5433SOL    HW127761   0.867   4.166   0.998  0.3621  0.4979  0.6850
 5433SOL    HW227762   0.868   4.012   1.014 -0.4860 -0.2028 -1.4230
 5434SOL     OW27763   0.217   2.896   8.315 -0.0522  0.7301  0.3595
 5434SOL    HW127764   0.224   2.843   8.236  2.5347  1.1448  0.3221
 5434SOL    HW227765   0.233   2.830   8.383  2.1480 -1.6015 -2.4304
 5435SOL     OW27766   4.644   1.763  15.885  0.2423 -0.2612  0.5480
 5435SOL    HW127767   4.648   1.846  15.932 -0.4761 -1.3999  2.6108
 5435SOL    HW227768   0.001   1.774  15.833 -1.8628  0.9775 -2.3593
 5436SOL     OW27769   3.680   2.903  12.793 -0.0677 -0.1357 -0.8345
 5436SOL    HW127770   3.682   2.852  12.874 -1.0662 -1.7196 -1.8081
 5436SOL    HW227771   3.723   2.842  12.734  0.1953 -0.7688  0.0055
 5437SOL     OW27772   3.431   4.010   4.880  0.2396  0.2941  0.4805
 5437SOL    HW127773   3.471   4.043   4.960  1.1184  0.1768  0.0882
 5437SOL    HW227774   3.507   3.975   4.834 -1.1882 -0.8834 -1.0057
 5438SOL     OW27775   0.264   2.750  13.469 -0.0479  0.5128  0.1911
 5438SOL    HW127776   0.228   2.678  13.520 -1.4143  1.5641  0.7071
 5438SOL    HW227777   0.340   2.768  13.524  1.3323  0.4409 -1.6582
 5439SOL     OW27778   2.171   2.163   6.702  0.0456  0.4687 -0.1860
 5439SOL    HW127779   2.196   2.171   6.609 -1.2220  2.4948 -0.3508
 5439SOL    HW227780   2.156   2.257   6.710  2.9007  0.7878  1.5914
 5440SOL     OW27781   1.432   1.836   6.408 -0.2134  0.1230  0.1504
 5440SOL    HW127782   1.392   1.897   6.346 -0.0209 -1.9122 -1.9819
 5440SOL    HW227783   1.458   1.899   6.476  0.2212  0.8646 -0.7171
 5441SOL     OW27784   3.677   4.439   7.457 -0.4873 -0.2304 -0.0146
 5441SOL    HW127785   3.672   4.477   7.370 -0.9030 -0.5688 -0.1416
 5441SOL    HW227786   3.607   4.490   7.498  0.5821  0.5472  0.8366
 5442SOL     OW27787   1.449   3.267   3.662  0.6800 -0.1708  0.0866
 5442SOL    HW127788   1.385   3.207   3.698 -0.8738  0.3625 -1.7954
 5442SOL    HW227789   1.400   3.273   3.580  0.8932 -0.9999 -0.1010
 5443SOL     OW27790   0.456   2.280   0.421  0.2431  0.2187 -0.1319
 5443SOL    HW127791   0.476   2.309   0.510  0.8094 -1.1098  0.1779
 5443SOL    HW227792   0.536   2.300   0.372  0.5844  1.0824  0.7850
 5444SOL     OW27793   3.569   1.795  12.577 -0.0909 -0.4719 -0.2663
 5444SOL    HW127794   3.594   1.766  12.665  0.7379 -1.2529 -0.7556
 5444SOL    HW227795   3.514   1.723  12.545 -0.7426  0.7502 -1.8984
 5445SOL     OW27796   0.330   1.968  14.792  0.7906 -0.6932  0.5301
 5445SOL    HW127797   0.278   1.894  14.759 -1.8437  0.2232  2.5989
 5445SOL    HW227798   0.295   1.962  14.881  2.8738  0.2718  1.4220
 5446SOL     OW27799   1.327   3.683   8.946  0.2447 -0.2335  0.2685
 5446SOL    HW127800   1.266   3.611   8.961  0.0808  0.3774  2.6042
 5446SOL    HW227801   1.385   3.669   9.021  0.2213 -4.2113 -0.4635
 5447SOL     OW27802   3.698   3.347   1.309 -0.2383  0.1859  0.1458
 5447SOL    HW127803   3.683   3.441   1.298  0.6239  0.7527  3.8230
 5447SOL    HW227804   3.663   3.344   1.398  0.1249  1.6907  0.3337
 5448SOL     OW27805   0.458   2.152   1.334  0.3387  0.1206  0.0765
 5448SOL    HW127806   0.469   2.165   1.429 -2.0058 -2.5484  0.7049
 5448SOL    HW227807   0.501   2.068   1.319  1.1311  0.9539 -2.2723
 5449SOL     OW27808   1.920   4.710   0.163 -0.5463  0.0621  0.2056
 5449SOL    HW127809   1.848   0.050   0.166 -2.6880 -2.4681  1.2776
 5449SOL    HW227810   1.883   4.636   0.115  0.7736  0.8506 -2.0519
 5450SOL     OW27811   1.338   3.937   3.297  0.4562 -0.5492 -0.2486
 5450SOL    HW127812   1.369   3.963   3.210 -1.3233  0.3901 -0.6081
 5450SOL    HW227813   1.252   3.980   3.297  0.8350  0.2551 -2.3281
 5451SOL     OW27814   1.002   3.952   3.301 -0.5479  0.6832  0.6529
 5451SOL    HW127815   0.915   3.974   3.268 -0.8640 -1.3857  0.0945
 5451SOL    HW227816   1.005   3.993   3.388  0.2992 -2.1721  1.9815
 5452SOL     OW27817   0.972   3.772   2.888  0.4233 -0.1856  0.3176
 5452SOL    HW127818   0.953   3.740   2.799  1.8396 -1.3863  0.4440
 5452SOL    HW227819   0.998   3.862   2.865  1.2634 -0.7467 -0.9578
 5453SOL     OW27820   3.816   4.113   8.250  0.1298 -0.0676 -0.6857
 5453SOL    HW127821   3.843   4.174   8.319 -1.2979  0.4552 -0.5713
 5453SOL    HW227822   3.811   4.177   8.178  1.1895  0.9382  0.1382
 5454SOL     OW27823   4.707   1.630   6.652  0.9814 -0.3763  0.6186
 5454SOL    HW127824   4.621   1.655   6.615  0.5973 -1.2580  0.9265
 5454SOL    HW227825   0.040   1.651   6.577 -0.7137  1.2316 -0.1937
 5455SOL     OW27826   0.580   2.584  17.325  0.0869 -0.4163 -0.2175
 5455SOL    HW127827   0.566   2.653  17.260  0.3561  0.1701  0.3539
 5455SOL    HW227828   0.497   2.536  17.319  0.0434 -0.3708  0.0433
 5456SOL     OW27829   4.170   4.071  12.418  0.4424  0.4323 -0.6664
 5456SOL    HW127830   4.120   4.117  12.485 -2.0609 -1.1045 -1.4921
 5456SOL    HW227831   4.235   4.130  12.380  0.2524  0.7071 -0.5566
 5457SOL     OW27832   4.343   4.701   0.073  0.0212  0.0419  0.1308
 5457SOL    HW127833   4.377   4.692  17.674 -0.5482  2.7876 -0.3900
 5457SOL    HW227834   4.424   4.681   0.120  0.5149  0.3182 -0.5927
 5458SOL     OW27835   0.851   2.653   2.203 -0.0330  0.6461  0.1464
 5458SOL    HW127836   0.853   2.618   2.114  2.6199 -2.9729  1.6298
 5458SOL    HW227837   0.832   2.579   2.261  1.6383  0.7553  0.8214
 5459SOL     OW27838   3.076   1.283   9.348  0.1112 -0.8085 -0.6004
 5459SOL    HW127839   3.119   1.267   9.432 -0.0957 -0.6536 -0.4659
 5459SOL    HW227840   2.987   1.312   9.366  0.9029  0.9278  0.5275
 5460SOL     OW27841   4.304   0.705   7.174 -0.2532 -0.3498  0.2603
 5460SOL    HW127842   4.320   0.645   7.101 -2.4979 -2.7959  1.7838
 5460SOL    HW227843   4.254   0.770   7.125 -0.4514 -1.0648 -0.4767
 5461SOL     OW27844   1.577   3.508   6.751  0.1234 -0.1732  0.0420
 5461SOL    HW127845   1.579   3.562   6.830 -0.2446 -1.7076  1.1004
 5461SOL    HW227846   1.483   3.493   6.741  0.0305 -0.1817  0.9177
 5462SOL     OW27847   3.115   1.215   4.114 -0.4182  0.3148 -0.3177
 5462SOL    HW127848   3.062   1.225   4.035 -1.5931  1.0145  0.5599
 5462SOL    HW227849   3.175   1.287   4.093  0.2852 -0.1585  0.0778
 5463SOL     OW27850   4.256   2.345   3.327 -0.3110  0.1529  0.1508
 5463SOL    HW127851   4.270   2.387   3.412  1.8899  1.8876 -1.0692
 5463SOL    HW227852   4.342   2.351   3.285 -0.3737 -1.8715 -0.2474
 5464SOL     OW27853   1.760   1.404  14.567  0.6074 -0.3767 -0.0117
 5464SOL    HW127854   1.732   1.440  14.651 -2.5512 -3.3541  0.2362
 5464SOL    HW227855   1.758   1.480  14.509 -1.8745 -0.1894  0.2962
 5465SOL     OW27856   0.532   2.636   0.469 -0.4011  0.0319 -0.3936
 5465SOL    HW127857   0.616   2.598   0.495 -0.4728 -0.6740 -1.1965
 5465SOL    HW227858   0.465   2.587   0.516  0.0598 -0.4422 -0.2336
 5466SOL     OW27859   1.388   3.652   9.743  0.1313 -0.5829  0.6973
 5466SOL    HW127860   1.379   3.683   9.833  0.5075  0.3139  0.4247
 5466SOL    HW227861   1.465   3.597   9.756 -0.1390 -1.2226 -0.4733
 5467SOL     OW27862   2.628   2.979   1.351  0.9596  0.5210 -0.3582
 5467SOL    HW127863   2.633   3.074   1.349 -1.5043  0.7000  2.1446
 5467SOL    HW227864   2.713   2.955   1.313  0.8527  0.3828 -0.5092
 5468SOL     OW27865   1.203   0.300   9.889 -0.0533 -0.5094  0.1742
 5468SOL    HW127866   1.159   0.280   9.971  0.6460  0.3509  0.7539
 5468SOL    HW227867   1.264   0.227   9.892 -3.4604 -3.3132  1.6933
 5469SOL     OW27868   2.393   3.197  16.422 -0.2383 -0.1849 -0.3361
 5469SOL    HW127869   2.302   3.214  16.398 -0.2055  0.3484 -0.0783
 5469SOL    HW227870   2.396   3.189  16.517  0.5996 -1.1917 -0.4461
 5470SOL     OW27871   0.175   2.617   4.846 -0.1710  0.2899 -0.0426
 5470SOL    HW127872   0.181   2.526   4.819  2.4840  0.7029 -0.8725
 5470SOL    HW227873   0.267   2.616   4.869 -0.5385  1.6544  1.5059
 5471SOL     OW27874   4.470   4.537   6.158 -0.1935  0.0728 -0.4467
 5471SOL    HW127875   4.477   4.512   6.250 -0.2129 -0.4502 -0.5869
 5471SOL    HW227876   4.539   4.481   6.122 -0.3266 -0.7611  0.6008
 5472SOL     OW27877   0.786   3.284   7.114  0.1868 -0.2800  0.2597
 5472SOL    HW127878   0.759   3.193   7.123  0.8578 -0.6286 -1.3664
 5472SOL    HW227879   0.721   3.337   7.162 -1.5070  0.1158 -2.4400
 5473SOL     OW27880   3.587   0.241   5.929  0.1173  0.1656  0.4158
 5473SOL    HW127881   3.681   0.227   5.918 -0.0107  0.5866 -1.1891
 5473SOL    HW227882   3.591   0.302   6.003  1.4642  1.3187 -0.6258
 5474SOL     OW27883   2.357   2.207   0.398  0.4526 -0.7358  0.4527
 5474SOL    HW127884   2.315   2.291   0.379  0.2228 -1.1944 -1.0612
 5474SOL    HW227885   2.415   2.203   0.322  2.6200 -1.8456  2.1389
 5475SOL     OW27886   4.101   0.106   2.112  0.0378  1.0700  0.0633
 5475SOL    HW127887   4.123   0.110   2.019  0.7305  0.4070  0.1962
 5475SOL    HW227888   4.172   0.061   2.158 -1.2622 -0.3938  0.6377
 5476SOL     OW27889   3.384   2.434   5.313  0.4071  0.2018 -0.1278
 5476SOL    HW127890   3.367   2.366   5.248 -0.8210 -1.3680  1.8705
 5476SOL    HW227891   3.378   2.398   5.401 -0.4144  2.9324  0.9473
 5477SOL     OW27892   3.969   3.932   9.319 -0.0709 -0.2320  0.2614
 5477SOL    HW127893   3.973   4.025   9.342  0.0127 -0.1604 -0.0402
 5477SOL    HW227894   3.931   3.940   9.231 -1.0213  2.4236  0.8943
 5478SOL     OW27895   3.114   2.507   3.290 -0.0465 -0.7369  0.3171
 5478SOL    HW127896   3.122   2.486   3.197 -1.7367 -0.4118  0.0961
 5478SOL    HW227897   3.182   2.452   3.328  0.6438  0.1202  0.3293
 5479SOL     OW27898   3.353   0.571   4.358 -0.8728 -0.0510  0.7143
 5479SOL    HW127899   3.402   0.648   4.328 -1.7933  0.7715  1.3450
 5479SOL    HW227900   3.380   0.503   4.296 -1.3291 -0.0232  0.4901
 5480SOL     OW27901   1.415   2.596  11.411 -0.0464  0.0733 -0.4045
 5480SOL    HW127902   1.425   2.660  11.482 -1.1150 -0.4892  0.2597
 5480SOL    HW227903   1.402   2.519  11.466  2.8131 -1.2311 -1.6063
 5481SOL     OW27904   1.490   0.078   5.340 -0.1993  0.7414 -0.1050
 5481SOL    HW127905   1.445   0.117   5.415  1.7138  2.0012  0.3829
 5481SOL    HW227906   1.422   0.079   5.273  0.0811 -1.2359 -0.4272
 5482SOL     OW27907   2.885   3.825  12.281  0.4554 -0.1326 -0.1254
 5482SOL    HW127908   2.936   3.897  12.317 -0.1709 -0.2301  0.9411
 5482SOL    HW227909   2.808   3.821  12.337  3.0740 -0.8502  3.4003
 5483SOL     OW27910   1.879   0.396   2.398  0.2428 -0.0595  0.3832
 5483SOL    HW127911   1.850   0.368   2.484  1.5961  0.7204  1.0952
 5483SOL    HW227912   1.971   0.382   2.420  1.4739  2.3265 -3.2119
 5484SOL     OW27913   3.942   0.717  16.112 -0.2546 -0.1542 -0.3080
 5484SOL    HW127914   4.019   0.728  16.057  0.3667  0.3534  0.6722
 5484SOL    HW227915   3.870   0.713  16.049 -0.7740 -1.5849  0.3746
 5485SOL     OW27916   1.721   0.033   6.220  0.5163 -0.0678  0.4509
 5485SOL    HW127917   1.785   4.688   6.245  0.9481  0.1851  0.0205
 5485SOL    HW227918   1.773   0.097   6.172 -0.2431  0.9284  0.9505
 5486SOL     OW27919   3.329   0.321  16.445  0.1816  0.6122  0.3152
 5486SOL    HW127920   3.409   0.274  16.421 -0.6435 -0.9858  0.7264
 5486SOL    HW227921   3.296   0.363  16.366  0.3200 -2.9069 -1.6332
 5487SOL     OW27922   1.602   0.180   1.227  0.1195  0.1604 -0.5298
 5487SOL    HW127923   1.603   0.110   1.292 -0.5207  0.7149  0.0829
 5487SOL    HW227924   1.560   0.251   1.276  0.9133 -0.4411  1.0178
 5488SOL     OW27925   4.205   3.342   7.135  0.5471  0.7899  0.0660
 5488SOL    HW127926   4.294   3.343   7.170  1.1076  1.0352 -1.3463
 5488SOL    HW227927   4.214   3.290   7.054  0.3568  0.0440  0.5208
 5489SOL     OW27928   0.276   1.988   6.931 -0.5290 -0.2034 -0.1674
 5489SOL    HW127929   0.185   1.989   6.901  0.3026 -0.0867 -2.6814
 5489SOL    HW227930   0.320   1.958   6.852 -0.7808  1.0965 -0.8093
 5490SOL     OW27931   2.777   1.074   2.640 -0.0020  0.2079  0.3948
 5490SOL    HW127932   2.842   1.091   2.571 -0.6377  0.9734 -0.0047
 5490SOL    HW227933   2.826   1.014   2.697 -0.7822 -0.1674  0.6664
 5491SOL     OW27934   2.363   0.356   1.309  0.7402 -0.3815  0.7931
 5491SOL    HW127935   2.326   0.268   1.309  0.4964 -0.2876 -0.8384
 5491SOL    HW227936   2.399   0.366   1.397  2.2597 -1.5787  0.3080
 5492SOL     OW27937   4.561   3.699  11.483  0.4401  0.1428 -0.5880
 5492SOL    HW127938   4.640   3.664  11.524  1.0849 -0.3578 -2.2493
 5492SOL    HW227939   4.532   3.759  11.552  0.8603 -2.4745  1.8285
 5493SOL     OW27940   1.092   2.786   7.235 -0.3467  0.7374  0.2399
 5493SOL    HW127941   1.154   2.761   7.167  1.3292  1.8550  1.3614
 5493SOL    HW227942   1.142   2.804   7.315  1.5892  1.2882 -1.0966
 5494SOL     OW27943   1.521   4.369   2.688 -0.2885 -0.2553  0.1499
 5494SOL    HW127944   1.495   4.435   2.623  3.6641  0.1449 -1.0326
 5494SOL    HW227945   1.616   4.372   2.679 -0.1426  0.1570  1.8996
 5495SOL     OW27946   2.871   3.313   7.882 -0.2741 -0.1500  0.1186
 5495SOL    HW127947   2.904   3.315   7.972  0.2711  0.8105 -0.1024
 5495SOL    HW227948   2.910   3.230   7.854  1.4834  0.7658 -0.1089
 5496SOL     OW27949   4.619   2.613   7.549  0.0267  0.1996 -0.5382
 5496SOL    HW127950   4.682   2.541   7.554 -1.0591 -0.5593  2.3206
 5496SOL    HW227951   4.543   2.568   7.587  1.6349 -0.2204  2.1734
 5497SOL     OW27952   1.178   2.052   7.834  0.1798  0.0446  0.3579
 5497SOL    HW127953   1.202   2.056   7.742  0.7829 -2.3545  0.4220
 5497SOL    HW227954   1.117   2.125   7.845  1.2224  0.7384  1.5787
 5498SOL     OW27955   1.208   3.027   5.591  0.0582 -0.9820 -0.4397
 5498SOL    HW127956   1.225   3.096   5.655  0.6660  1.6165 -3.4179
 5498SOL    HW227957   1.297   2.994   5.581  0.5414  0.7750 -1.8309
 5499SOL     OW27958   1.549   3.413  14.671  0.1366 -0.0327  0.2995
 5499SOL    HW127959   1.466   3.376  14.698  0.2912 -0.7872 -0.2636
 5499SOL    HW227960   1.576   3.351  14.603  1.3796  1.8443 -0.9224
 5500SOL     OW27961   4.468   3.034   2.546 -0.1974 -0.1744  0.5293
 5500SOL    HW127962   4.516   3.038   2.463  0.1885  3.0778  0.9082
 5500SOL    HW227963   4.408   2.962   2.525 -2.1599  1.9379 -0.9999
 5501SOL     OW27964   3.572   0.107   7.718 -0.8983  0.8812 -0.2414
 5501SOL    HW127965   3.553   0.081   7.808  0.1880  1.1786  0.0832
 5501SOL    HW227966   3.653   0.058   7.703 -1.4059 -0.1724  0.4463
 5502SOL     OW27967   0.742   4.311   3.823 -0.6278 -0.2395 -0.3894
 5502SOL    HW127968   0.674   4.358   3.775  0.7163  2.8117  0.6764
 5502SOL    HW227969   0.763   4.238   3.766  2.1280 -2.1966  3.1607
 5503SOL     OW27970   0.155   4.163   2.592  0.1645 -0.4552  0.1913
 5503SOL    HW127971   0.062   4.188   2.597  0.5343  0.9887 -0.0934
 5503SOL    HW227972   0.163   4.103   2.518 -1.5346 -0.8573  0.3404
 5504SOL     OW27973   3.489   2.111   3.945 -0.2128 -0.3897  0.1728
 5504SOL    HW127974   3.566   2.082   3.895 -1.3973 -0.8839 -1.3775
 5504SOL    HW227975   3.455   2.178   3.885 -1.1288 -1.3361 -0.3570
 5505SOL     OW27976   3.905   0.141   5.556  0.0725 -0.7438 -0.4351
 5505SOL    HW127977   3.951   0.167   5.636 -1.4525 -1.1828  0.6025
 5505SOL    HW227978   3.964   0.184   5.495 -1.1599  2.1190  0.3840
 5506SOL     OW27979   4.627   3.303   5.457  0.8041 -0.4544 -0.4364
 5506SOL    HW127980   4.664   3.224   5.417 -0.0404 -1.7265  1.2597
 5506SOL    HW227981   4.625   3.279   5.550  0.6110 -2.1569 -0.8842
 5507SOL     OW27982   0.227   0.458   1.845 -0.6922  0.4373 -0.2698
 5507SOL    HW127983   0.232   0.550   1.820  0.4498  0.6641  0.8099
 5507SOL    HW227984   0.255   0.472   1.936  0.0924 -0.3602 -0.3827
 5508SOL     OW27985   0.161   1.052   3.504 -0.5068 -0.4592  0.3903
 5508SOL    HW127986   0.150   1.003   3.422 -1.8670  1.1903 -0.4056
 5508SOL    HW227987   0.250   1.034   3.533 -0.6939  0.6079  1.6329
 5509SOL     OW27988   1.363   0.543   7.691  0.0333  0.4621 -0.0857
 5509SOL    HW127989   1.351   0.622   7.742  0.9550  0.6945 -0.2264
 5509SOL    HW227990   1.366   0.576   7.601 -1.1464  0.4906 -0.1147
 5510SOL     OW27991   1.893   0.689   5.484  0.2152  0.7421 -0.2612
 5510SOL    HW127992   1.938   0.636   5.417  1.6057  0.3001  1.0263
 5510SOL    HW227993   1.951   0.674   5.559 -0.5499 -0.6128  0.0509
 5511SOL     OW27994   2.352   2.487   5.101 -0.0947 -0.1664  0.2843
 5511SOL    HW127995   2.431   2.541   5.113 -0.1879  0.3378 -1.3888
 5511SOL    HW227996   2.360   2.478   5.006  0.5424 -0.7461  0.4018
 5512SOL     OW27997   3.286   4.510   1.150  0.1308  0.1372 -0.4661
 5512SOL    HW127998   3.254   4.449   1.083  2.2429 -0.6139 -0.7725
 5512SOL    HW227999   3.204   4.515   1.199  0.5719 -0.6471  0.3374
 5513SOL     OW28000   1.706   1.568   3.650 -0.3285 -0.2276 -0.4958
 5513SOL    HW128001   1.797   1.568   3.620 -0.1872 -0.7032 -0.0601
 5513SOL    HW228002   1.709   1.488   3.703  1.0678  0.3746  0.3373
 5514SOL     OW28003   1.226   2.251  17.129  0.3459  0.1269  0.1634
 5514SOL    HW128004   1.268   2.313  17.188  1.0595  0.9137 -1.1561
 5514SOL    HW228005   1.254   2.289  17.046  0.0365 -1.1213 -0.5145
 5515SOL     OW28006   4.201   4.124   6.738  0.4188  0.0229 -0.4364
 5515SOL    HW128007   4.169   4.055   6.797 -1.0564  1.0780 -0.0013
 5515SOL    HW228008   4.292   4.103   6.717  0.8081  2.5610 -1.3167
 5516SOL     OW28009   1.627   4.652  14.050  0.1344  0.0663 -0.6915
 5516SOL    HW128010   1.653   4.697  14.131 -0.8187  0.6060 -0.6929
 5516SOL    HW228011   1.559   4.598  14.090  0.4609 -1.9592 -2.8466
 5517SOL     OW28012   2.649   4.591   3.344  0.0610 -0.3154  0.1714
 5517SOL    HW128013   2.720   4.526   3.350 -0.8499 -1.3348 -0.0895
 5517SOL    HW228014   2.602   4.558   3.268 -0.6065 -1.9715  1.2866
 5518SOL     OW28015   3.092   4.449   1.322  0.6656  0.3620 -0.6345
 5518SOL    HW128016   3.063   4.365   1.286  1.6483 -0.3976  0.3429
 5518SOL    HW228017   3.013   4.474   1.372 -0.8583 -0.9251 -2.4085
 5519SOL     OW28018   0.807   1.534   7.655  0.6076 -0.6748  0.2346
 5519SOL    HW128019   0.800   1.624   7.687 -1.0803 -1.1321  1.1625
 5519SOL    HW228020   0.731   1.521   7.599  0.3456  0.3502  0.3609
 5520SOL     OW28021   2.473   2.100   7.717  0.1698 -0.1563  0.1403
 5520SOL    HW128022   2.394   2.152   7.733  0.3697  0.6717 -1.5906
 5520SOL    HW228023   2.513   2.150   7.645  1.4024 -0.0336  0.8970
 5521SOL     OW28024   0.566   3.705  15.965  0.3775  0.1083  0.3058
 5521SOL    HW128025   0.510   3.629  15.981  0.3186 -0.0008 -0.4436
 5521SOL    HW228026   0.500   3.774  15.958 -1.1725 -1.2822  1.1724
 5522SOL     OW28027   4.191   2.123   8.302 -0.0090  0.2403  0.1110
 5522SOL    HW128028   4.142   2.202   8.325 -0.1743 -0.3067  1.6196
 5522SOL    HW228029   4.169   2.113   8.209  2.6007 -0.0547 -0.4897
 5523SOL     OW28030   3.333   0.486   9.002 -0.1708  0.0564 -0.3966
 5523SOL    HW128031   3.271   0.457   8.935  0.5905 -0.1672 -1.0089
 5523SOL    HW228032   3.360   0.567   8.960 -0.0092  0.2267  0.0378
 5524SOL     OW28033   0.522   2.371  10.387  0.1127 -0.1678  0.3643
 5524SOL    HW128034   0.465   2.294  10.387 -1.1332  0.7559 -1.9216
 5524SOL    HW228035   0.589   2.340  10.327 -0.4374 -0.2820 -0.1951
 5525SOL     OW28036   4.220   2.980   2.066 -0.2652 -0.1148  0.0482
 5525SOL    HW128037   4.246   2.892   2.094  1.8680  1.4546  2.8906
 5525SOL    HW228038   4.197   2.963   1.974  0.8563  0.6501 -0.3723
 5526SOL     OW28039   3.808   0.310   4.733 -0.3592 -0.1776  0.1126
 5526SOL    HW128040   3.856   0.229   4.719  2.0620  1.3996 -0.7293
 5526SOL    HW228041   3.864   0.381   4.702 -1.4162  0.6866  0.1587
 5527SOL     OW28042   1.433   0.465   5.292 -0.0472 -0.0043 -0.2050
 5527SOL    HW128043   1.506   0.527   5.298  1.2326 -1.4908 -0.2055
 5527SOL    HW228044   1.378   0.484   5.368  0.7867  0.5300  0.2635
 5528SOL     OW28045   2.127   4.445  11.993  0.8809  0.0927 -0.4826
 5528SOL    HW128046   2.075   4.467  11.915  0.0596  1.5084  0.4723
 5528SOL    HW228047   2.213   4.432  11.954  0.7033 -1.9750 -0.1839
 5529SOL     OW28048   4.532   0.226   4.619 -0.2315 -0.3973 -0.1174
 5529SOL    HW128049   4.541   0.232   4.714  0.9108 -2.5127 -0.0934
 5529SOL    HW228050   4.610   0.173   4.603  1.6230  2.2484  0.2342
 5530SOL     OW28051   0.820   1.499   5.570  0.1599 -0.2556  0.1957
 5530SOL    HW128052   0.852   1.408   5.564 -2.3263 -1.0527 -0.6712
 5530SOL    HW228053   0.812   1.522   5.478 -0.7515  0.2688  0.4139
 5531SOL     OW28054   0.380   3.533  13.976 -0.1886 -0.1223 -0.0460
 5531SOL    HW128055   0.460   3.525  13.924  0.1795  0.1353  0.4837
 5531SOL    HW228056   0.421   3.543  14.061  0.4046 -0.3758 -0.3056
 5532SOL     OW28057   2.519   4.226   5.075  0.0611  0.0407  0.4046
 5532SOL    HW128058   2.428   4.248   5.053  0.3259  1.2607  0.5163
 5532SOL    HW228059   2.553   4.205   4.988  0.1343  3.1403 -0.3375
 5533SOL     OW28060   1.861   1.081  10.595  0.3792 -0.8076  0.1393
 5533SOL    HW128061   1.869   1.055  10.686 -0.0794 -0.3027  0.3197
 5533SOL    HW228062   1.835   0.993  10.567  0.2500 -1.6710  2.9704
 5534SOL     OW28063   0.189   2.483   7.096 -0.8189  0.0183 -0.2955
 5534SOL    HW128064   0.267   2.464   7.044 -0.0435  0.0052  0.8514
 5534SOL    HW228065   0.158   2.396   7.121  0.3696 -0.3372 -0.0523
 5535SOL     OW28066   3.452   0.848   8.382 -0.1011  0.1435  0.2838
 5535SOL    HW128067   3.456   0.936   8.346 -1.5428  0.7018  1.4837
 5535SOL    HW228068   3.401   0.809   8.311 -2.5145  3.1894  0.3602
 5536SOL     OW28069   1.415   2.977  11.782 -0.0670  0.5102 -0.5492
 5536SOL    HW128070   1.357   3.034  11.833  0.9511  0.5180  0.6146
 5536SOL    HW228071   1.466   3.045  11.737  0.2929  0.2366 -0.5615
 5537SOL     OW28072   4.356   3.156   7.491  0.0182 -0.1124 -0.4417
 5537SOL    HW128073   4.276   3.128   7.535  0.6927 -1.0368  0.2100
 5537SOL    HW228074   4.404   3.074   7.505  1.6252  0.5434 -2.0351
 5538SOL     OW28075   3.287   3.739   6.323  0.3811 -0.2569 -0.3594
 5538SOL    HW128076   3.229   3.677   6.367  1.3379  0.7218  2.2862
 5538SOL    HW228077   3.259   3.822   6.363  0.2154  0.4665 -1.9465
 5539SOL     OW28078   1.738   2.016   8.259  0.1914  0.2421  0.0442
 5539SOL    HW128079   1.761   2.108   8.269  0.1993  0.4796 -2.2195
 5539SOL    HW228080   1.771   1.991   8.173 -0.7387  0.2495 -0.3135
 5540SOL     OW28081   0.201   3.151   5.374 -0.3558  0.7650 -0.7747
 5540SOL    HW128082   0.115   3.113   5.395  0.0995  0.5209  0.6847
 5540SOL    HW228083   0.239   3.094   5.308 -0.9141  1.1333 -1.4159
 5541SOL     OW28084   1.081   1.239   4.509 -0.2069 -0.4395 -0.1958
 5541SOL    HW128085   1.103   1.297   4.436 -1.8584  1.1613  0.6079
 5541SOL    HW228086   0.998   1.197   4.484  0.8731 -0.9356 -2.9376
 5542SOL     OW28087   4.678   1.751  16.516  0.2272  0.1151  0.2866
 5542SOL    HW128088   4.631   1.834  16.524  0.5669  0.3934 -0.5552
 5542SOL    HW228089   4.597   1.701  16.506 -0.2949  1.0134  0.0107
 5543SOL     OW28090   4.599   1.063   5.351  0.0491 -0.2163  0.3304
 5543SOL    HW128091   4.653   1.026   5.281 -3.8604 -2.5927 -1.4249
 5543SOL    HW228092   4.661   1.079   5.422  1.1684 -0.2484 -0.6410
 5544SOL     OW28093   2.332   2.916  15.134 -0.5248 -0.1145 -0.2645
 5544SOL    HW128094   2.337   2.879  15.223 -1.0883  0.5193  0.0311
 5544SOL    HW228095   2.417   2.922  15.092 -0.2483 -0.7861  0.1988
 5545SOL     OW28096   1.609   4.400   5.383 -0.3120 -0.1417  0.1012
 5545SOL    HW128097   1.656   4.476   5.415 -2.8127  1.2021  0.5571
 5545SOL    HW228098   1.585   4.353   5.463 -2.9366 -0.9555 -1.1483
 5546SOL     OW28099   0.535   2.056   6.539  0.2292  0.3013  0.2968
 5546SOL    HW128100   0.513   2.027   6.627 -1.2151 -0.5337 -0.3268
 5546SOL    HW228101   0.618   2.101   6.552 -0.0941  1.4539 -1.6401
 5547SOL     OW28102   1.991   1.449   4.669 -0.6125  0.0321 -0.2454
 5547SOL    HW128103   1.919   1.456   4.731  1.5510 -0.9266  2.3450
 5547SOL    HW228104   2.062   1.476   4.727 -0.5884 -0.7194  0.0641
 5548SOL     OW28105   1.143   3.679  15.279  0.7408 -0.4963  0.2146
 5548SOL    HW128106   1.192   3.761  15.266 -3.6767  2.3174  1.1578
 5548SOL    HW228107   1.056   3.706  15.250  1.4941 -0.4857 -2.0416
 5549SOL     OW28108   0.467   3.297   2.835 -0.1515  0.1104 -0.1248
 5549SOL    HW128109   0.404   3.353   2.882 -1.1875 -1.2355  0.0752
 5549SOL    HW228110   0.538   3.359   2.818 -0.8973  0.2035 -2.9654
 5550SOL     OW28111   1.894   3.593   4.990 -0.3420 -0.0148 -0.1699
 5550SOL    HW128112   1.907   3.570   5.082  0.0664 -0.6236 -0.3784
 5550SOL    HW228113   1.980   3.564   4.961 -1.1414 -1.8528 -0.7279
 5551SOL     OW28114   4.600   1.274  14.125  0.1972  0.0259  0.1185
 5551SOL    HW128115   4.537   1.316  14.184  0.3529  1.3595 -0.6505
 5551SOL    HW228116   4.668   1.255  14.190 -0.6498 -2.0484  0.3761
 5552SOL     OW28117   0.503   2.468  12.838 -0.5562 -0.1446  0.8258
 5552SOL    HW128118   0.541   2.555  12.824 -0.9745  0.0475  0.8630
 5552SOL    HW228119   0.549   2.446  12.919  2.4447  0.2397 -0.8113
 5553SOL     OW28120   3.564   4.169  14.345  0.1724 -0.3948 -0.3004
 5553SOL    HW128121   3.477   4.189  14.311 -0.2291  1.2636  1.6600
 5553SOL    HW228122   3.589   4.257  14.375 -0.1548 -0.4890  0.2495
 5554SOL     OW28123   1.954   4.266   6.318  0.1570  0.3926  0.2278
 5554SOL    HW128124   1.965   4.295   6.408  0.6803 -3.0881  1.2930
 5554SOL    HW228125   1.917   4.180   6.337 -0.8366  0.9506  0.7797
 5555SOL     OW28126   2.474   3.431  16.248 -0.6460  0.1530 -0.2250
 5555SOL    HW128127   2.407   3.366  16.228  0.4634 -0.7011 -1.1426
 5555SOL    HW228128   2.549   3.417  16.190 -1.4243 -1.5505 -0.8075
 5556SOL     OW28129   3.564   2.495   3.658 -0.0744  0.1074  0.3414
 5556SOL    HW128130   3.560   2.494   3.754 -0.7078 -2.2871  0.2991
 5556SOL    HW228131   3.474   2.527   3.652 -0.4205 -0.7490  0.9493
 5557SOL     OW28132   3.141   3.549   6.466 -0.5248  0.7563  0.5585
 5557SOL    HW128133   3.072   3.526   6.528 -0.8900  1.0580  0.2649
 5557SOL    HW228134   3.085   3.551   6.388  1.1711 -2.2721 -0.7079
 5558SOL     OW28135   0.418   3.851  10.609 -0.6108 -0.0651 -0.7633
 5558SOL    HW128136   0.499   3.890  10.574 -0.4139  0.4794  0.2853
 5558SOL    HW228137   0.398   3.782  10.546  0.2757  0.0540 -1.1823
 5559SOL     OW28138   2.828   2.217   6.057  0.2400  0.4976 -0.6889
 5559SOL    HW128139   2.761   2.268   6.012 -1.8769 -0.3094  1.5624
 5559SOL    HW228140   2.783   2.169   6.126  1.6130  1.2924  0.7410
 5560SOL     OW28141   3.884   4.097   5.989  0.3645  0.5932 -0.3585
 5560SOL    HW128142   3.899   4.003   5.999 -0.2233  0.5302 -0.0500
 5560SOL    HW228143   3.893   4.120   6.082 -2.0764 -0.1207  0.0400
 5561SOL     OW28144   1.971   1.176   8.474 -0.4733 -0.3671  0.1498
 5561SOL    HW128145   1.940   1.177   8.564  1.4524 -3.6112  0.8723
 5561SOL    HW228146   2.063   1.199   8.488  0.1174 -2.3671 -0.3044
 5562SOL     OW28147   3.206   3.251   9.964 -0.6002 -0.1037  0.0563
 5562SOL    HW128148   3.175   3.181  10.021  2.8981 -2.4504 -0.9179
 5562SOL    HW228149   3.274   3.299  10.011 -0.7760  1.5598 -1.3704
 5563SOL     OW28150   1.125   2.455   2.462 -0.0584 -0.0321  0.1775
 5563SOL    HW128151   1.055   2.435   2.524  0.9466 -0.4109  1.1902
 5563SOL    HW228152   1.183   2.380   2.475  1.8926  1.6031  1.0087
 5564SOL     OW28153   3.417   1.169   0.417  0.0950 -0.0306  0.2404
 5564SOL    HW128154   3.421   1.263   0.398  1.1987 -0.2037 -0.3910
 5564SOL    HW228155   3.451   1.164   0.507  1.9464 -3.0807 -0.6008
 5565SOL     OW28156   0.423   0.544  10.815  0.0142  0.0752 -0.3845
 5565SOL    HW128157   0.350   0.520  10.873  0.6122  0.1682  0.4073
 5565SOL    HW228158   0.450   0.463  10.772  1.5910  0.2090  0.3568
 5566SOL     OW28159   3.565   4.697   1.729 -0.0555 -0.4856  0.5341
 5566SOL    HW128160   3.526   4.663   1.649  0.5762  1.2999 -0.5421
 5566SOL    HW228161   3.558   0.066   1.700  2.3225 -1.2952 -2.5980
 5567SOL     OW28162   1.083   2.620   6.053 -0.6239  0.0572  0.1134
 5567SOL    HW128163   1.154   2.684   6.058  1.5599 -2.2849 -1.0113
 5567SOL    HW228164   1.023   2.631   6.126 -1.0232  0.3212 -0.2510
 5568SOL     OW28165   0.979   0.485  16.251  0.1325 -0.3601  0.3048
 5568SOL    HW128166   1.014   0.549  16.188  0.4216 -0.5974  0.2242
 5568SOL    HW228167   0.998   0.401  16.209 -0.7242 -1.0785  1.3586
 5569SOL     OW28168   1.646   2.974   4.779  0.3470 -0.0094  0.3097
 5569SOL    HW128169   1.557   2.941   4.796 -0.0938  1.5412  1.0620
 5569SOL    HW228170   1.629   3.058   4.737  1.3347 -0.3739 -0.8034
 5570SOL     OW28171   0.837   1.988   1.972 -0.7675 -0.2128 -0.3680
 5570SOL    HW128172   0.764   1.944   2.017 -2.1409 -1.2377 -3.6495
 5570SOL    HW228173   0.908   1.964   2.031  0.1030 -0.3206 -1.4800
 5571SOL     OW28174   1.864   2.795   6.623  0.1879 -0.4100  0.6698
 5571SOL    HW128175   1.952   2.765   6.646 -0.4046 -1.5957  1.3879
 5571SOL    HW228176   1.802   2.734   6.662 -1.7895  1.5477  0.5782
 5572SOL     OW28177   4.410   0.256   2.343 -0.2876 -0.0097  0.4343
 5572SOL    HW128178   4.315   0.249   2.333 -0.2806  0.5879 -0.0940
 5572SOL    HW228179   4.411   0.241   2.437 -0.4937  1.9977  0.7578
 5573SOL     OW28180   1.455   2.692   0.921 -0.5913 -0.4616 -0.1849
 5573SOL    HW128181   1.490   2.603   0.915  0.6463  0.0267  0.0366
 5573SOL    HW228182   1.516   2.728   0.858 -1.0977  1.1835  0.2610
 5574SOL     OW28183   4.436   3.965  14.525 -0.5632  0.5368 -0.2064
 5574SOL    HW128184   4.439   3.892  14.586  0.2333  0.5092 -0.2766
 5574SOL    HW228185   4.497   3.939  14.456 -0.9937  0.6465 -0.6321
 5575SOL     OW28186   4.289   2.449   2.115 -0.8433 -0.4164 -0.4783
 5575SOL    HW128187   4.210   2.398   2.134 -0.4216 -0.8739  0.0216
 5575SOL    HW228188   4.295   2.426   2.022 -1.9809 -1.9311 -0.1797
 5576SOL     OW28189   3.667   1.863   4.167 -0.2768  0.2806  0.0683
 5576SOL    HW128190   3.736   1.914   4.210 -0.4396 -0.8588  1.7059
 5576SOL    HW228191   3.705   1.848   4.080 -0.5532  0.2598 -0.0484
 5577SOL     OW28192   2.865   3.541  10.780  0.3016  0.3498  0.6023
 5577SOL    HW128193   2.911   3.548  10.864  1.9119 -3.8713  0.0401
 5577SOL    HW228194   2.898   3.617  10.731  0.8877 -0.2809  0.0341
 5578SOL     OW28195   4.289   3.714   4.586 -0.7243  0.0176 -0.3473
 5578SOL    HW128196   4.368   3.763   4.565 -0.3902 -0.7325 -0.8465
 5578SOL    HW228197   4.309   3.620   4.582 -0.2942  0.1566 -1.4955
 5579SOL     OW28198   2.882   0.924   0.616 -0.2620 -0.4111  0.3257
 5579SOL    HW128199   2.965   0.878   0.619  1.3538  2.5691  1.9109
 5579SOL    HW228200   2.829   0.863   0.667 -0.0614  0.4566  1.5829
 5580SOL     OW28201   1.751   4.700   8.100  0.1086 -0.5335  0.0488
 5580SOL    HW128202   1.690   4.703   8.026 -0.1598 -0.0127  0.2883
 5580SOL    HW228203   1.834   4.721   8.058  0.1875 -0.7496  0.0993
 5581SOL     OW28204   0.633   0.097   4.280  0.3865  0.0004  0.6883
 5581SOL    HW128205   0.683   0.121   4.358 -1.1804  2.5544  0.8785
 5581SOL    HW228206   0.544   0.111   4.312  0.7151 -0.8669  2.0094
 5582SOL     OW28207   0.336   0.157   0.487 -1.0848 -0.5369 -0.3442
 5582SOL    HW128208   0.244   0.181   0.474 -0.7537  1.2108  0.6103
 5582SOL    HW228209   0.356   0.117   0.403  1.6153  0.0812  0.0271
 5583SOL     OW28210   3.676   4.633   2.527 -0.5264 -0.0000  0.2133
 5583SOL    HW128211   3.647   4.690   2.598 -1.1089 -0.7335  0.5642
 5583SOL    HW228212   3.682   4.697   2.456 -1.1841  0.7865  0.8765
 5584SOL     OW28213   4.373   3.875  14.109 -0.4175 -0.1677  0.0117
 5584SOL    HW128214   4.434   3.899  14.040 -0.3097  0.4948  0.3310
 5584SOL    HW228215   4.300   3.932  14.085  0.2265  0.3725 -0.6566
 5585SOL     OW28216   1.385   2.611   8.530 -0.5434  0.0890  0.0548
 5585SOL    HW128217   1.342   2.594   8.446 -1.4251  0.7963  0.3619
 5585SOL    HW228218   1.313   2.659   8.572  1.4842  0.4964  3.0318
 5586SOL     OW28219   4.621   1.044  16.222 -0.1732 -0.1765  0.2186
 5586SOL    HW128220   4.584   1.016  16.306 -1.3096  0.8665  0.0650
 5586SOL    HW228221   4.615   0.962  16.173  0.5056 -1.1784  1.8076
 5587SOL     OW28222   2.318   4.650   0.892 -0.3561 -0.6427  0.6135
 5587SOL    HW128223   2.268   4.613   0.820  0.9709  0.6884 -0.9994
 5587SOL    HW228224   2.407   4.642   0.859 -0.3217  1.7255  0.0821
 5588SOL     OW28225   4.420   4.364   6.745 -0.4292  0.0634  0.3590
 5588SOL    HW128226   4.443   4.370   6.652  1.8892  0.6383  0.9935
 5588SOL    HW228227   4.507   4.353   6.782  0.1659  1.3488 -0.6453
 5589SOL     OW28228   4.527   0.111   3.843 -0.2045  0.0549 -0.0955
 5589SOL    HW128229   4.451   0.082   3.894 -0.1524 -0.1311 -0.1269
 5589SOL    HW228230   4.485   0.181   3.792 -3.1489 -0.5788  1.4242
 5590SOL     OW28231   3.157   4.077   4.862 -0.1966  0.5186 -0.6134
 5590SOL    HW128232   3.252   4.068   4.857 -0.2681  0.1630 -1.3774
 5590SOL    HW228233   3.116   4.043   4.782 -0.7856  1.8893 -0.9064
 5591SOL     OW28234   4.160   1.273   2.911 -0.2624 -0.0977  0.0449
 5591SOL    HW128235   4.198   1.219   2.982  0.1727  1.0037  0.6526
 5591SOL    HW228236   4.212   1.353   2.918  1.8943 -1.5264  0.6854
 5592SOL     OW28237   2.732   2.193   0.546 -0.2497 -0.0564 -0.3113
 5592SOL    HW128238   2.800   2.137   0.509  1.0522 -0.5876  2.9327
 5592SOL    HW228239   2.718   2.256   0.475  0.1291  0.6692  0.2657
 5593SOL     OW28240   4.696   0.962   7.898 -0.1956 -0.1528  0.0504
 5593SOL    HW128241   4.641   1.024   7.947  0.2781  0.5396 -0.2869
 5593SOL    HW228242   4.646   0.884   7.920  0.6545 -0.9912 -1.0195
 5594SOL     OW28243   1.019   0.793   0.794 -0.1129  0.4184  0.0552
 5594SOL    HW128244   1.082   0.853   0.754 -1.7653 -0.4126 -3.8595
 5594SOL    HW228245   0.938   0.844   0.788 -1.1340 -1.1007  1.0730
 5595SOL     OW28246   2.645   2.641   3.801 -0.2042  0.3683 -0.4218
 5595SOL    HW128247   2.635   2.668   3.892 -0.7852 -2.4931  0.3594
 5595SOL    HW228248   2.642   2.723   3.752 -3.2438  2.2312  2.8830
 5596SOL     OW28249   3.397   0.008   2.192  0.4438 -0.7128  0.0529
 5596SOL    HW128250   3.413   0.065   2.116  2.1499 -3.0422 -1.3291
 5596SOL    HW228251   3.448   4.656   2.158  1.4699  0.1062 -0.1942
 5597SOL     OW28252   1.906   3.069   1.567 -0.2745 -0.3192  0.3585
 5597SOL    HW128253   1.930   3.148   1.518  1.3240 -1.3047 -0.4220
 5597SOL    HW228254   1.968   3.076   1.640  1.1276  0.0333 -0.8605
 5598SOL     OW28255   3.456   1.921  17.677 -0.1913  0.0642 -0.4778
 5598SOL    HW128256   3.403   1.897  17.601  2.5028 -2.6509 -1.5083
 5598SOL    HW228257   3.527   1.857  17.682  0.7384  1.1052 -0.5907
 5599SOL     OW28258   0.606   2.194   4.052 -0.4033  0.1339  0.4338
 5599SOL    HW128259   0.660   2.116   4.041 -0.9290 -0.4143  1.6282
 5599SOL    HW228260   0.659   2.272   4.036 -0.1351 -0.4930 -1.7201
 5600SOL     OW28261   2.271   0.173   3.315 -0.3021  0.8263  0.1015
 5600SOL    HW128262   2.252   0.255   3.360 -0.2317  1.6304 -1.3572
 5600SOL    HW228263   2.367   0.173   3.324 -0.4854 -4.5575  2.0181
 5601SOL     OW28264   3.350   2.425  16.645 -0.0806  0.2566 -0.3074
 5601SOL    HW128265   3.334   2.519  16.653  1.6681  0.3438  2.2573
 5601SOL    HW228266   3.360   2.415  16.550 -1.8229 -0.4363 -0.4109
 5602SOL     OW28267   0.694   3.889   6.505 -0.0039  0.2911 -0.1707
 5602SOL    HW128268   0.682   3.818   6.569  0.0014 -0.6386 -1.2122
 5602SOL    HW228269   0.784   3.874   6.477 -0.8102 -0.1428 -2.4575
 5603SOL     OW28270   2.317   3.037   7.922  0.2246 -0.3883  0.7671
 5603SOL    HW128271   2.233   3.023   7.964 -0.8205  0.9084 -0.9116
 5603SOL    HW228272   2.292   3.019   7.831  2.5641  0.2312 -0.0161
 5604SOL     OW28273   0.803   2.188   7.617 -0.5595 -0.3924  0.0446
 5604SOL    HW128274   0.891   2.218   7.594 -0.9593 -0.3380 -1.4046
 5604SOL    HW228275   0.752   2.269   7.622 -0.8197 -0.5715  0.2533
 5605SOL     OW28276   1.170   0.812   4.332 -0.3438  0.5170  0.5581
 5605SOL    HW128277   1.181   0.719   4.352  1.0998  0.5914  0.1494
 5605SOL    HW228278   1.095   0.802   4.274 -1.6829 -0.6609  2.5057
 5606SOL     OW28279   2.526   2.413   7.814 -0.2482  0.1179 -0.1693
 5606SOL    HW128280   2.472   2.380   7.886  0.9806  2.8911  2.0276
 5606SOL    HW228281   2.472   2.476   7.766 -0.0116  0.0173 -0.5705
 5607SOL     OW28282   3.276   0.907   9.003  0.2226 -0.3273  0.4437
 5607SOL    HW128283   3.313   0.946   9.082 -0.8201 -2.0705  1.8160
 5607SOL    HW228284   3.182   0.903   9.024 -0.3520  1.8305 -1.7439
 5608SOL     OW28285   0.707   1.737   3.678  0.7300  0.1243  0.0925
 5608SOL    HW128286   0.744   1.803   3.619 -0.8331 -0.5995 -1.6951
 5608SOL    HW228287   0.724   1.781   3.761  2.0195  1.2636 -0.7534
 5609SOL     OW28288   3.161   3.343  15.904  0.1226  0.6911 -0.1706
 5609SOL    HW128289   3.231   3.404  15.928 -0.3209  1.2032 -0.1855
 5609SOL    HW228290   3.126   3.372  15.820 -1.5507  0.1988  0.3564
 5610SOL     OW28291   2.082   0.810   0.886  0.2325 -0.1034 -0.4395
 5610SOL    HW128292   2.035   0.828   0.804 -1.3191 -0.0350  0.4705
 5610SOL    HW228293   2.006   0.817   0.943 -0.3795  0.9654 -1.3687
 5611SOL     OW28294   1.290   4.328   9.465  0.4207 -0.0717 -0.1907
 5611SOL    HW128295   1.268   4.286   9.382 -0.7899 -2.2996  1.2695
 5611SOL    HW228296   1.311   4.250   9.517  1.2619  0.3152  0.0592
 5612SOL     OW28297   1.207   4.305   4.721 -0.2162  0.6255  0.2472
 5612SOL    HW128298   1.237   4.372   4.782  1.2569  1.0895 -1.0043
 5612SOL    HW228299   1.158   4.251   4.783 -1.1879  2.5165  1.1188
 5613SOL     OW28300   0.259   3.340   8.023  0.3209 -0.0087  0.3896
 5613SOL    HW128301   0.192   3.402   8.055  1.5106  0.1193  2.6478
 5613SOL    HW228302   0.315   3.338   8.100 -0.1157 -2.7649  0.6366
 5614SOL     OW28303   0.104   1.849  15.699 -0.1827  0.1090  0.4999
 5614SOL    HW128304   0.040   1.878  15.634  0.3805 -0.7882 -0.4579
 5614SOL    HW228305   0.173   1.842  15.632 -0.8513  0.4026 -0.2255
 5615SOL     OW28306   2.368   0.692  13.500 -0.2041  0.0150 -0.0259
 5615SOL    HW128307   2.432   0.734  13.442  2.2840 -0.7524  2.1726
 5615SOL    HW228308   2.315   0.637  13.442  0.4410  0.3778 -0.9524
 5616SOL     OW28309   3.171   3.010   8.492 -0.1689 -0.2490  0.4674
 5616SOL    HW128310   3.177   3.106   8.498 -1.6581 -0.0715 -0.8305
 5616SOL    HW228311   3.181   2.978   8.581  0.5365  0.2508  0.5717
 5617SOL     OW28312   2.410   0.591  10.269  0.1828  0.2033 -0.2375
 5617SOL    HW128313   2.482   0.651  10.291  1.6153 -1.5561 -0.0939
 5617SOL    HW228314   2.343   0.654  10.241  0.5110  1.4964  1.9224
 5618SOL     OW28315   1.899   1.868   7.617 -0.0114  0.2856 -0.2155
 5618SOL    HW128316   1.858   1.931   7.558  0.3117 -0.3773 -1.1507
 5618SOL    HW228317   1.883   1.793   7.560  3.1399 -2.0140  1.9258
 5619SOL     OW28318   2.650   2.039   0.739 -0.4070 -0.1401 -0.8190
 5619SOL    HW128319   2.701   1.961   0.763 -1.2543 -0.0066  1.4194
 5619SOL    HW228320   2.707   2.091   0.683  1.0445 -0.1537  0.6332
 5620SOL     OW28321   3.152   4.470   9.523 -0.2887  0.2554  0.4004
 5620SOL    HW128322   3.132   4.379   9.546  0.9717 -0.1460 -0.0529
 5620SOL    HW228323   3.223   4.492   9.582  1.1581 -0.6773 -0.9795
 5621SOL     OW28324   4.219   0.504   5.135  0.2849  0.1584  0.0161
 5621SOL    HW128325   4.171   0.546   5.206 -0.4181 -1.7535  0.6830
 5621SOL    HW228326   4.215   0.566   5.063  0.4446  0.7104  0.4844
 5622SOL     OW28327   4.667   4.512   2.498 -0.2951  0.0383  0.5012
 5622SOL    HW128328   4.717   4.563   2.561 -0.8904  1.2364  0.0057
 5622SOL    HW228329   0.013   4.522   2.432 -1.1054 -0.8946 -0.4761
 5623SOL     OW28330   0.157   2.256  16.850 -0.1982  0.5146 -0.0509
 5623SOL    HW128331   0.245   2.255  16.888  0.1373  3.3336 -0.7394
 5623SOL    HW228332   0.146   2.349  16.828 -1.4660  1.1262  3.0864
 5624SOL     OW28333   2.360   4.456  11.356  0.6503  0.5026 -0.1282
 5624SOL    HW128334   2.338   4.385  11.297  0.2092 -0.4367  1.1583
 5624SOL    HW228335   2.279   4.471  11.405  2.2549 -0.1071  2.7526
 5625SOL     OW28336   1.193   1.121   0.957  0.0048  0.1951  0.6653
 5625SOL    HW128337   1.195   1.160   0.870 -0.6965 -1.4045 -0.0781
 5625SOL    HW228338   1.234   1.195   1.002  0.7802  1.0253 -1.4127
 5626SOL     OW28339   2.822   0.527   3.041 -0.9917  0.2876 -1.0836
 5626SOL    HW128340   2.796   0.589   3.109  3.2468  0.5453  0.3162
 5626SOL    HW228341   2.738   0.499   3.006 -1.3565  2.0183 -1.5955
 5627SOL     OW28342   1.793   0.529   6.407  0.3211  0.4663 -0.5345
 5627SOL    HW128343   1.853   0.454   6.408  0.3650  0.5029 -0.0060
 5627SOL    HW228344   1.756   0.515   6.321 -0.5944 -1.3840  0.1746
 5628SOL     OW28345   2.674   3.949   7.452 -0.0936 -0.2857  0.0194
 5628SOL    HW128346   2.628   3.899   7.385 -0.6212  1.3950 -0.8648
 5628SOL    HW228347   2.649   3.901   7.531 -0.1766  0.7680  0.6261
 5629SOL     OW28348   3.052   4.411   8.501  0.3424  0.3121 -0.5696
 5629SOL    HW128349   2.994   4.336   8.509  1.8087 -0.8739 -1.0531
 5629SOL    HW228350   2.984   4.478   8.498 -0.1072 -0.2450 -2.5711
 5630SOL     OW28351   1.745   0.738   8.339  0.0061 -0.0923  0.0090
 5630SOL    HW128352   1.664   0.739   8.288  0.6562 -0.2634 -1.0174
 5630SOL    HW228353   1.771   0.829   8.330  0.2540 -0.0762  0.8531
 5631SOL     OW28354   3.389   1.875   4.440 -0.0837  0.1548  0.2791
 5631SOL    HW128355   3.301   1.861   4.405  0.1081 -0.5240  0.0831
 5631SOL    HW228356   3.415   1.953   4.391 -2.3928  0.9875  0.3400
 5632SOL     OW28357   0.958   2.708   3.876  0.0809  0.2510  0.5952
 5632SOL    HW128358   0.920   2.654   3.806 -1.7888 -0.0144  1.8186
 5632SOL    HW228359   1.032   2.652   3.898 -0.9673 -1.2828  0.2448
 5633SOL     OW28360   4.107   3.368  10.969  0.3574 -0.9373 -0.3163
 5633SOL    HW128361   4.066   3.409  10.893  1.9016 -1.5380 -1.4928
 5633SOL    HW228362   4.196   3.403  10.980  1.0077 -2.1417 -1.7374
 5634SOL     OW28363   3.116   1.796   6.643  0.4390 -0.0316 -0.7031
 5634SOL    HW128364   3.043   1.826   6.697  1.8265  0.2446  1.0354
 5634SOL    HW228365   3.148   1.732   6.707 -1.2725  0.4783  0.6529
 5635SOL     OW28366   3.437   2.937  14.243  0.2668  0.0331 -0.4273
 5635SOL    HW128367   3.446   2.892  14.327  0.1742 -0.6598 -0.7948
 5635SOL    HW228368   3.532   2.930  14.228  0.3630 -0.9331  0.6417
 5636SOL     OW28369   4.275   4.416   9.540  0.0755 -0.4449 -0.5212
 5636SOL    HW128370   4.247   4.380   9.456 -3.8974  1.5053 -0.0424
 5636SOL    HW228371   4.350   4.359   9.555  0.4620 -0.1098 -1.1670
 5637SOL     OW28372   0.037   4.224   9.644 -0.0821  0.6350 -0.6898
 5637SOL    HW128373   0.051   4.222   9.550  2.6944  0.6799 -0.2835
 5637SOL    HW228374   0.129   4.230   9.671 -0.1621  2.8033 -0.8538
 5638SOL     OW28375   0.126   3.996   3.664  0.7614  0.1198  0.2768
 5638SOL    HW128376   0.039   4.033   3.651  0.0839 -1.3060  0.7288
 5638SOL    HW228377   0.175   4.023   3.587  2.8660 -1.3526  1.1007
 5639SOL     OW28378   4.684   0.381  10.101  0.0160 -0.5909  0.1762
 5639SOL    HW128379   4.638   0.460  10.073  1.4852 -0.0824 -0.8139
 5639SOL    HW228380   4.671   0.380  10.196 -0.6130 -1.6137  0.0743
 5640SOL     OW28381   0.315   1.356   6.135 -0.2616 -0.1614 -0.1108
 5640SOL    HW128382   0.405   1.327   6.142 -0.5702 -0.5648  2.1878
 5640SOL    HW228383   0.276   1.296   6.072  1.1522 -0.2277 -0.9173
 5641SOL     OW28384   3.564   2.453   8.228 -0.1543  1.0397  0.2668
 5641SOL    HW128385   3.558   2.424   8.137 -0.3353  0.2776  0.5171
 5641SOL    HW228386   3.535   2.543   8.216 -1.8854  0.1272 -2.4402
 5642SOL     OW28387   3.368   3.508   3.279 -0.7501 -0.6386 -0.5156
 5642SOL    HW128388   3.447   3.466   3.314 -0.2376 -0.2639 -1.2369
 5642SOL    HW228389   3.320   3.431   3.249  3.7687 -2.7336 -2.3851
 5643SOL     OW28390   4.537   1.343   4.620  0.1865  0.4552  0.1721
 5643SOL    HW128391   4.623   1.321   4.583  0.8014  0.7747  1.3923
 5643SOL    HW228392   4.535   1.438   4.612  0.6106  0.4239 -0.3013
 5644SOL     OW28393   3.068   0.420   9.423 -0.2805  0.1990 -0.1353
 5644SOL    HW128394   3.150   0.425   9.373 -0.0457 -0.1509  0.2142
 5644SOL    HW228395   3.074   0.329   9.453 -0.5284  0.2622  0.1007
 5645SOL     OW28396   0.062   0.587   6.195  0.0376  0.2812  0.1669
 5645SOL    HW128397   0.122   0.656   6.222 -0.9063  0.5321  1.6170
 5645SOL    HW228398   0.045   0.550   6.281  0.5386  0.2442  0.2517
 5646SOL     OW28399   0.339   3.123   4.721 -0.4836 -0.0447 -0.2454
 5646SOL    HW128400   0.248   3.097   4.737  0.0085 -1.9351 -0.5709
 5646SOL    HW228401   0.360   3.102   4.630  0.0409 -0.7159  0.0339
 5647SOL     OW28402   2.880   0.321  11.937 -0.1386  0.0969 -0.2745
 5647SOL    HW128403   2.913   0.244  11.982 -4.0304 -1.0273  0.6794
 5647SOL    HW228404   2.786   0.329  11.955  0.2527 -0.2862  1.9110
 5648SOL     OW28405   3.985   4.225   9.784  0.5947 -0.1556 -0.1186
 5648SOL    HW128406   4.021   4.293   9.727  0.3727 -2.1402 -2.6614
 5648SOL    HW228407   3.924   4.277   9.836  1.0172 -0.7129  0.9170
 5649SOL     OW28408   1.946   3.525   5.250 -0.1006 -0.1412  0.0766
 5649SOL    HW128409   1.964   3.578   5.328  1.7826  0.5751 -0.8429
 5649SOL    HW228410   1.930   3.437   5.286  0.0649 -0.2371 -0.0877
 5650SOL     OW28411   1.331   3.370   5.564 -0.0676  0.0157 -0.7481
 5650SOL    HW128412   1.341   3.285   5.608 -1.9663  1.2114  1.9987
 5650SOL    HW228413   1.255   3.408   5.608  0.7573  2.6744 -1.6445
 5651SOL     OW28414   0.083   1.265  11.315  0.1431 -0.2785 -0.5334
 5651SOL    HW128415   0.101   1.195  11.377  0.0965  0.6556  0.5308
 5651SOL    HW228416   0.173   1.282  11.286  0.0008 -1.1801 -1.5328
 5652SOL     OW28417   3.297   0.882   2.985 -0.1792  0.4540  0.3362
 5652SOL    HW128418   3.302   0.879   3.081  0.0194  1.2753  0.3503
 5652SOL    HW228419   3.271   0.792   2.966  1.3284  0.0418  0.2353
 5653SOL     OW28420   4.443   0.659  13.227 -0.0050 -0.2870 -0.1403
 5653SOL    HW128421   4.371   0.665  13.289 -1.9228  1.4736 -2.5130
 5653SOL    HW228422   4.499   0.591  13.263 -1.9933  0.5653  4.5214
 5654SOL     OW28423   1.251   0.998   8.556  0.4214 -0.0965  0.2939
 5654SOL    HW128424   1.256   1.062   8.484 -3.1108  0.4889  0.5842
 5654SOL    HW228425   1.342   0.982   8.581  0.6728  0.9338  0.0404
 5655SOL     OW28426   4.099   2.726   8.015 -0.3673 -0.6584  0.1570
 5655SOL    HW128427   4.016   2.680   8.004 -1.3121  1.0751  0.1007
 5655SOL    HW228428   4.083   2.766   8.100  1.6036  0.5311 -0.0382
 5656SOL     OW28429   4.416   2.678  16.818 -0.3369  0.3127 -0.1032
 5656SOL    HW128430   4.342   2.649  16.871 -0.1430 -0.3975 -0.2213
 5656SOL    HW228431   4.494   2.648  16.865 -1.4085 -1.4148  0.5348
 5657SOL     OW28432   4.041   1.388   7.069 -0.1665 -0.3268 -0.3035
 5657SOL    HW128433   4.013   1.462   7.122  2.1449  0.0456  0.4039
 5657SOL    HW228434   3.966   1.331   7.054 -1.1402  0.6313  1.0441
 5658SOL     OW28435   2.381   3.953   5.587 -0.0033  0.1377  0.5341
 5658SOL    HW128436   2.303   3.981   5.539  0.5517 -0.5194 -0.7686
 5658SOL    HW228437   2.353   3.981   5.674 -0.6895  0.2513  0.2734
 5659SOL     OW28438   0.195   0.798   0.235  0.4211 -0.2372 -0.4951
 5659SOL    HW128439   0.234   0.798   0.147 -0.4494  2.1822 -0.8838
 5659SOL    HW228440   0.268   0.818   0.294 -1.2766  1.9888  0.8632
 5660SOL     OW28441   2.531   1.712  16.558  0.0974  0.2780  0.4873
 5660SOL    HW128442   2.454   1.769  16.551 -0.3781 -0.2469  1.5192
 5660SOL    HW228443   2.582   1.765  16.619 -0.0580  1.3328 -0.2926
 5661SOL     OW28444   4.032   1.318  16.347 -0.0836  0.1167 -0.4121
 5661SOL    HW128445   3.997   1.389  16.293 -1.1187 -1.8478 -2.3116
 5661SOL    HW228446   3.976   1.243  16.324 -0.4874 -0.5550  2.7367
 5662SOL     OW28447   3.030   2.258   6.301 -0.4755  0.3103 -0.0927
 5662SOL    HW128448   3.087   2.253   6.377 -0.7421  0.7603  0.1384
 5662SOL    HW228449   3.088   2.295   6.234  0.0289 -0.3587 -0.0155
 5663SOL     OW28450   3.233   1.150   8.435  0.4513  0.2054 -0.2078
 5663SOL    HW128451   3.219   1.242   8.458  1.1437  1.2353 -3.9312
 5663SOL    HW228452   3.253   1.162   8.342 -0.8315  1.2213 -0.3654
 5664SOL     OW28453   0.697   2.010   1.446  0.7314  0.0519 -0.4833
 5664SOL    HW128454   0.662   1.946   1.508  1.6705  1.2549  1.2919
 5664SOL    HW228455   0.709   1.952   1.371 -0.3329 -0.5890 -0.1632
 5665SOL     OW28456   3.330   3.184   4.681  0.1280 -0.4091  0.1090
 5665SOL    HW128457   3.412   3.231   4.665 -0.0370  0.0499  0.5919
 5665SOL    HW228458   3.275   3.254   4.717 -1.2564 -0.8924 -1.0476
 5666SOL     OW28459   2.487   2.339  17.427  0.0437 -0.2430 -0.4140
 5666SOL    HW128460   2.493   2.310  17.336 -0.3925 -3.1347  0.5002
 5666SOL    HW228461   2.576   2.320  17.456 -0.2875 -2.4790 -0.8979
 5667SOL     OW28462   1.239   2.404   7.741 -0.2068  0.1795 -0.2541
 5667SOL    HW128463   1.246   2.326   7.797  1.5627 -0.6996 -1.6756
 5667SOL    HW228464   1.147   2.428   7.749 -0.9267 -1.8241 -2.5581
 5668SOL     OW28465   0.652   3.382   6.139 -0.0872 -0.1814  0.1129
 5668SOL    HW128466   0.704   3.454   6.174 -1.9683  1.0371  0.4128
 5668SOL    HW228467   0.574   3.388   6.195 -2.3391 -1.0147 -2.8758
 5669SOL     OW28468   0.155   1.604   9.779 -0.4154  0.4321 -0.3105
 5669SOL    HW128469   0.153   1.513   9.808 -0.0309 -0.0222 -1.7238
 5669SOL    HW228470   0.247   1.619   9.801  0.2057 -1.8989 -1.3062
 5670SOL     OW28471   3.378   4.597   1.894 -0.8228 -0.6783 -0.2394
 5670SOL    HW128472   3.337   4.675   1.856 -1.6934 -0.0669  1.9549
 5670SOL    HW228473   3.457   4.600   1.839  0.0445  2.5742  1.1696
 5671SOL     OW28474   3.144   4.586   3.644 -0.7153  0.4581  0.4038
 5671SOL    HW128475   3.156   4.509   3.701  2.4068  0.6236  0.0160
 5671SOL    HW228476   3.151   4.649   3.715  2.0060  0.9915 -0.3105
 5672SOL     OW28477   3.104   4.195   1.224 -0.4464  0.1342 -0.6670
 5672SOL    HW128478   3.160   4.145   1.166  0.5930 -0.1765  0.6096
 5672SOL    HW228479   3.094   4.125   1.289  0.6684  0.2208 -0.4026
 5673SOL     OW28480   1.255   1.540   4.021  0.0621 -0.1176  0.1256
 5673SOL    HW128481   1.233   1.446   4.020  1.1228 -0.3689 -0.0848
 5673SOL    HW228482   1.350   1.539   4.004  0.1892 -1.8550  0.9386
 5674SOL     OW28483   2.384   4.442   7.483 -0.1374 -0.3928  0.0690
 5674SOL    HW128484   2.361   4.534   7.485  1.2450 -0.0219 -1.0922
 5674SOL    HW228485   2.434   4.451   7.564  1.5867  0.6112 -1.1209
 5675SOL     OW28486   2.597   1.097  13.490 -0.1747  0.2582 -0.0520
 5675SOL    HW128487   2.605   1.178  13.440 -0.1983  0.5690  0.4485
 5675SOL    HW228488   2.690   1.073  13.484  0.8342  4.1072 -0.1534
 5676SOL     OW28489   3.011   2.510   5.782  0.5200 -0.1812 -0.2223
 5676SOL    HW128490   2.962   2.571   5.836  0.7321 -1.4135  1.3485
 5676SOL    HW228491   2.950   2.492   5.711 -0.0501 -0.9452  0.4664
 5677SOL     OW28492   3.236   4.459   1.593 -0.0066  0.3123 -0.0779
 5677SOL    HW128493   3.320   4.486   1.556 -0.7770  3.1170  0.2378
 5677SOL    HW228494   3.189   4.543   1.593 -0.1996  0.2101  0.3813
 5678SOL     OW28495   2.605   4.210   7.107  0.4756  0.5415  0.6114
 5678SOL    HW128496   2.580   4.118   7.097 -0.1683  0.5622  2.0779
 5678SOL    HW228497   2.554   4.230   7.185  0.7709  3.3005  0.0992
 5679SOL     OW28498   3.851   1.097  16.312 -0.2030  0.2624  0.1779
 5679SOL    HW128499   3.792   1.103  16.237 -1.7572  3.6830  1.6538
 5679SOL    HW228500   3.854   1.003  16.330 -0.9272 -0.2127 -2.2686
 5680SOL     OW28501   2.294   1.429   3.187 -0.0756 -0.2710  0.3069
 5680SOL    HW128502   2.205   1.440   3.223 -0.1064  1.4383 -0.2862
 5680SOL    HW228503   2.278   1.347   3.142  2.5951  0.6490 -2.2851
 5681SOL     OW28504   4.563   1.144   7.109  0.4233  0.1151 -0.1103
 5681SOL    HW128505   4.538   1.203   7.037  1.3009  0.7611  0.1158
 5681SOL    HW228506   4.498   1.161   7.177  1.9454  0.9156  1.1174
 5682SOL     OW28507   1.552   3.213   0.955  0.7364 -0.3964 -0.6922
 5682SOL    HW128508   1.574   3.253   0.871 -1.3555 -0.8214 -1.4511
 5682SOL    HW228509   1.458   3.231   0.963  0.6229 -0.4680 -1.8818
 5683SOL     OW28510   4.563   1.297   2.324  0.4145 -0.3437 -0.0755
 5683SOL    HW128511   4.470   1.285   2.305 -0.2632  1.2597  2.3170
 5683SOL    HW228512   4.555   1.297   2.419  3.6231  0.1139  0.1994
 5684SOL     OW28513   0.143   0.159   8.649  0.2384 -0.2020 -0.1283
 5684SOL    HW128514   0.227   0.173   8.605  0.6585  0.5375  0.9025
 5684SOL    HW228515   0.144   0.238   8.704  0.1083 -1.0331  1.0673
 5685SOL     OW28516   4.041   4.261   7.254  0.0137 -0.0273 -0.2565
 5685SOL    HW128517   4.066   4.244   7.163  3.0413  0.3965  0.4886
 5685SOL    HW228518   4.044   4.356   7.260 -0.2701 -0.0395  0.1006
 5686SOL     OW28519   1.103   4.312   6.549 -0.3049 -0.4871 -0.5881
 5686SOL    HW128520   1.097   4.270   6.635  1.2940  0.2731 -0.1043
 5686SOL    HW228521   1.194   4.339   6.548 -0.3708 -0.2583 -0.0320
 5687SOL     OW28522   4.709   2.455   2.835  0.5199  0.0668 -0.0903
 5687SOL    HW128523   4.677   2.536   2.795  0.6053  0.0731 -0.1455
 5687SOL    HW228524   4.625   2.414   2.859 -0.5728  2.2759 -0.1431
 5688SOL     OW28525   3.551   1.308   7.237  0.4096 -0.1837  0.0969
 5688SOL    HW128526   3.529   1.242   7.302  0.6175  1.1531  1.5399
 5688SOL    HW228527   3.545   1.251   7.161  0.1140 -0.3861  0.2669
 5689SOL     OW28528   2.885   2.018   5.104 -0.3216 -0.1059  0.2388
 5689SOL    HW128529   2.904   1.975   5.021 -2.0518  0.5947 -0.5254
 5689SOL    HW228530   2.930   1.955   5.161 -1.5768 -1.3383 -0.1161
 5690SOL     OW28531   1.662   4.198   5.201  0.1730  0.0904  0.2853
 5690SOL    HW128532   1.617   4.259   5.260 -3.4414 -1.7555 -0.5582
 5690SOL    HW228533   1.672   4.119   5.254  1.2794 -0.7211 -1.1437
 5691SOL     OW28534   3.873   3.258   8.053  0.4552  1.2705  0.4314
 5691SOL    HW128535   3.865   3.350   8.079 -4.6484  0.6502  1.0953
 5691SOL    HW228536   3.810   3.273   7.982  1.7030 -1.5700 -1.2879
 5692SOL     OW28537   1.545   0.179   3.497 -1.1787  0.0534  0.3578
 5692SOL    HW128538   1.543   0.112   3.428  2.6170  0.2897  0.0367
 5692SOL    HW228539   1.511   0.131   3.574  0.6368 -3.5707 -1.0775
 5693SOL     OW28540   4.312   4.551   5.915  0.2656 -0.5059  0.0046
 5693SOL    HW128541   4.364   4.523   5.839  2.2136  1.1827  0.7182
 5693SOL    HW228542   4.375   4.547   5.988 -0.5050  0.6386  0.7298
 5694SOL     OW28543   0.553   0.299   3.925 -0.0073 -0.0151  0.0845
 5694SOL    HW128544   0.561   0.225   3.864 -1.5255 -0.4497  0.4014
 5694SOL    HW228545   0.471   0.342   3.901  0.2213  0.8372  0.8387
 5695SOL     OW28546   3.279   4.047  15.727 -0.2397 -0.3502  0.0431
 5695SOL    HW128547   3.280   4.125  15.671 -1.0670 -0.6049 -0.3230
 5695SOL    HW228548   3.193   4.011  15.703 -0.2235 -0.7414  0.5632
 5696SOL     OW28549   1.727   3.877  13.497 -0.1055  0.1799 -0.4317
 5696SOL    HW128550   1.785   3.917  13.563  0.8148  0.2911 -1.3155
 5696SOL    HW228551   1.735   3.788  13.531  1.7054  0.1765 -0.8491
 5697SOL     OW28552   0.667   2.468   7.070 -0.0040 -0.2494  0.7666
 5697SOL    HW128553   0.739   2.528   7.050 -2.3746  0.9873 -4.0858
 5697SOL    HW228554   0.721   2.393   7.093  1.6776  0.9796  0.7860
 5698SOL     OW28555   1.623   1.876  16.509  0.1043  0.5357 -0.4032
 5698SOL    HW128556   1.634   1.900  16.601  2.3829 -2.6672  0.1718
 5698SOL    HW228557   1.635   1.781  16.514 -0.2414  0.4703 -0.8156
 5699SOL     OW28558   3.921   1.800  10.904  0.2605 -0.4987  0.3114
 5699SOL    HW128559   3.874   1.803  10.988 -1.1679 -1.8362 -0.4314
 5699SOL    HW228560   4.013   1.819  10.923 -0.0490  1.0153  0.3230
 5700SOL     OW28561   0.870   3.380   0.625 -0.1158 -0.5111 -0.5558
 5700SOL    HW128562   0.796   3.385   0.685 -1.9379 -0.9790 -2.7462
 5700SOL    HW228563   0.839   3.415   0.541 -2.1497 -1.9222 -0.3901
 5701SOL     OW28564   2.091   3.035  14.741 -0.3480 -0.4989 -0.0365
 5701SOL    HW128565   2.055   2.996  14.661  0.8602 -0.8648 -0.3979
 5701SOL    HW228566   2.123   3.119  14.710 -4.3188  1.9490  2.5109
 5702SOL     OW28567   1.697   4.041   2.829  0.0502 -0.4131 -0.1823
 5702SOL    HW128568   1.627   4.081   2.880  2.9792  2.8052  1.3037
 5702SOL    HW228569   1.766   4.107   2.837  0.6566 -1.2546  1.5038
 5703SOL     OW28570   0.977   2.503   5.808  0.2728 -0.2537 -0.1877
 5703SOL    HW128571   0.987   2.409   5.826 -1.7450 -0.1085  1.6581
 5703SOL    HW228572   1.027   2.531   5.885 -2.3130 -1.0705  1.7618
 5704SOL     OW28573   2.945   2.894  13.900  0.1680 -0.1698  0.2644
 5704SOL    HW128574   2.990   2.879  13.982  0.0414  0.5544  0.4625
 5704SOL    HW228575   2.876   2.827  13.894 -0.5247  0.3814  2.1636
 5705SOL     OW28576   4.011   3.901   5.036  0.0407  0.0606 -0.4017
 5705SOL    HW128577   4.030   3.826   4.980 -0.9686 -0.5442  0.0736
 5705SOL    HW228578   4.038   3.866   5.121 -1.1848 -1.0030 -0.4582
 5706SOL     OW28579   3.810   2.904   6.660  0.0371 -0.4959  0.6653
 5706SOL    HW128580   3.729   2.909   6.710 -0.1120 -0.2708  0.3977
 5706SOL    HW228581   3.799   2.834   6.595  0.1997 -0.4596  0.5985
 5707SOL     OW28582   0.411   2.737   6.984  0.0647  0.2931  0.1460
 5707SOL    HW128583   0.341   2.766   6.927 -0.6814  0.5396  1.1894
 5707SOL    HW228584   0.365   2.686   7.051 -1.7080  0.6960 -0.7742
 5708SOL     OW28585   4.502   4.435  12.166  0.1732  0.0667  0.1228
 5708SOL    HW128586   4.553   4.363  12.130  1.5667  0.5330  1.1809
 5708SOL    HW228587   4.551   4.462  12.244  0.3083 -0.9337  0.3806
 5709SOL     OW28588   4.097   3.860   5.300  0.0288  0.2181 -0.2330
 5709SOL    HW128589   4.187   3.829   5.312  0.1108  1.2161  1.8543
 5709SOL    HW228590   4.081   3.900   5.386  1.2067  2.3933 -1.0154
 5710SOL     OW28591   2.353   0.460  14.491  0.5389  0.2074 -0.1660
 5710SOL    HW128592   2.376   0.488  14.402  0.0556 -0.3124 -0.4565
 5710SOL    HW228593   2.434   0.457  14.541  0.6924  0.1987 -0.4134
 5711SOL     OW28594   2.752   2.003  11.924 -0.0553  0.8348  0.5471
 5711SOL    HW128595   2.739   2.003  12.019  1.4241 -0.3906  0.7552
 5711SOL    HW228596   2.662   1.974  11.908  0.1227 -0.0474  1.1297
 5712SOL     OW28597   2.937   3.640   7.452  0.0871 -0.0656  0.6635
 5712SOL    HW128598   2.887   3.606   7.526  0.2352 -1.5581  0.0754
 5712SOL    HW228599   2.956   3.732   7.472 -1.0707  0.5783 -1.1675
 5713SOL     OW28600   1.344   2.344   5.570 -0.0783  0.2258 -0.0951
 5713SOL    HW128601   1.335   2.255   5.536 -2.0689  0.9006 -1.2732
 5713SOL    HW228602   1.296   2.348   5.653  1.3712 -0.5996  0.8006
 5714SOL     OW28603   4.089   2.752   7.475 -0.5370 -0.2796 -0.2801
 5714SOL    HW128604   4.105   2.691   7.403 -1.1747 -0.0230 -0.6443
 5714SOL    HW228605   4.008   2.714   7.509 -0.0870 -0.3378  0.7252
 5715SOL     OW28606   3.652   3.015   1.577  0.4637 -0.2932  0.7090
 5715SOL    HW128607   3.686   2.937   1.621  1.7157 -0.7376 -1.0557
 5715SOL    HW228608   3.576   2.975   1.534 -0.8089  0.3949  2.3276
 5716SOL     OW28609   1.004   0.732   9.000 -0.1433 -0.3878  0.2280
 5716SOL    HW128610   1.074   0.749   8.938 -0.4060 -0.9876 -0.2381
 5716SOL    HW228611   0.929   0.758   8.946  1.3640  1.6818 -0.8457
 5717SOL     OW28612   2.580   3.734   1.590  0.0621 -0.5403 -0.2751
 5717SOL    HW128613   2.572   3.639   1.592  0.8779 -0.6011  0.0609
 5717SOL    HW228614   2.559   3.756   1.680 -1.9246 -3.3548 -0.0559
 5718SOL     OW28615   1.418   4.489   8.636  0.1432 -0.4014  0.0216
 5718SOL    HW128616   1.356   4.417   8.626  0.3389 -0.8651  2.0378
 5718SOL    HW228617   1.496   4.439   8.612  1.2903  1.4922 -0.1672
 5719SOL     OW28618   2.828   4.711  10.246  0.2523  0.4746  0.3061
 5719SOL    HW128619   2.883   0.002  10.323  1.3377  4.4571 -1.1420
 5719SOL    HW228620   2.740   4.697  10.280 -0.2142  2.1795 -0.1939
 5720SOL     OW28621   0.865   1.694   6.921 -0.1185 -0.0230  0.1267
 5720SOL    HW128622   0.775   1.722   6.939  0.2854  0.0336  2.1188
 5720SOL    HW228623   0.897   1.694   7.011  0.7219  1.0421 -0.1769
 5721SOL     OW28624   3.843   2.306  12.128 -0.0443 -0.7249  0.3421
 5721SOL    HW128625   3.908   2.342  12.068  0.8191 -0.2953  1.5237
 5721SOL    HW228626   3.859   2.212  12.137 -0.0167 -0.5791  1.8613
 5722SOL     OW28627   0.463   4.155  10.438  0.1810 -0.4788  0.0424
 5722SOL    HW128628   0.553   4.182  10.420  0.8065 -0.4781  3.2366
 5722SOL    HW228629   0.444   4.114  10.354 -2.0679  0.1915  0.2342
 5723SOL     OW28630   2.776   1.279   2.088  0.2545 -0.0817 -0.1721
 5723SOL    HW128631   2.787   1.189   2.058  2.7156 -1.1801  4.0473
 5723SOL    HW228632   2.786   1.326   2.005  1.0121  0.8853  0.4693
 5724SOL     OW28633   0.637   4.017  12.048 -0.5383 -0.7900  0.2450
 5724SOL    HW128634   0.669   3.945  11.994  0.2209 -0.6394  0.5006
 5724SOL    HW228635   0.701   4.015  12.119 -0.2419  1.0594  0.0311
 5725SOL     OW28636   0.915   3.562   6.005  0.2202 -0.4959  0.3638
 5725SOL    HW128637   0.855   3.604   6.067 -0.8361  0.6589 -1.4489
 5725SOL    HW228638   0.851   3.544   5.936  1.2042  1.6998 -1.1121
 5726SOL     OW28639   1.141   0.778   8.397 -0.2919  0.5696 -0.1898
 5726SOL    HW128640   1.088   0.712   8.441  0.4458  0.0160 -0.1332
 5726SOL    HW228641   1.173   0.829   8.472 -0.7277  0.1343  0.2920
 5727SOL     OW28642   1.335   3.614   7.538  0.5329 -0.2185 -0.0307
 5727SOL    HW128643   1.344   3.653   7.625 -3.8573  0.0649  0.3018
 5727SOL    HW228644   1.377   3.677   7.479 -0.8053  1.2143  0.5310
 5728SOL     OW28645   2.058   2.608   3.670  0.1103  0.2976 -0.3971
 5728SOL    HW128646   2.030   2.619   3.761 -0.2536 -2.1453 -0.2125
 5728SOL    HW228647   2.035   2.517   3.651  1.8907 -0.7048  2.4205
 5729SOL     OW28648   3.101   3.493   3.975 -0.2225 -0.1898  0.1696
 5729SOL    HW128649   3.161   3.554   4.017  2.0933 -2.1517 -0.2664
 5729SOL    HW228650   3.014   3.493   4.016 -0.4154  0.0738 -0.2480
 5730SOL     OW28651   3.361   0.398   3.038  0.1116  0.4929  0.1428
 5730SOL    HW128652   3.305   0.321   3.044  0.4325  0.1711 -0.9596
 5730SOL    HW228653   3.398   0.395   2.950  0.6956  0.4864  0.3897
 5731SOL     OW28654   0.701   3.658   7.801  0.0262  0.1565  0.6024
 5731SOL    HW128655   0.746   3.682   7.720 -0.2289 -1.0172  0.1130
 5731SOL    HW228656   0.612   3.645   7.769  0.4053 -0.5084 -0.1907
 5732SOL     OW28657   1.477   1.164   4.699 -0.5776 -0.3015  0.0532
 5732SOL    HW128658   1.396   1.121   4.671 -0.1668 -0.3836 -1.0129
 5732SOL    HW228659   1.433   1.247   4.713 -0.8937 -0.3448 -0.6636
 5733SOL     OW28660   0.171   4.594   2.659  0.2954  0.2852 -0.0940
 5733SOL    HW128661   0.157   4.547   2.741  2.6905  0.9402  0.6987
 5733SOL    HW228662   0.257   4.563   2.631  0.4532 -0.1728  0.9099
 5734SOL     OW28663   1.853   1.942   5.010  0.0328  0.1471  0.2407
 5734SOL    HW128664   1.835   1.877   5.078  1.9447  0.6415  1.2303
 5734SOL    HW228665   1.889   2.014   5.061  1.0563  0.2347 -0.5965
 5735SOL     OW28666   0.978   3.438   2.499 -0.1533 -0.2697  0.4609
 5735SOL    HW128667   0.996   3.488   2.419  0.8870  1.5466  1.8390
 5735SOL    HW228668   1.057   3.449   2.552  0.4809 -1.6069 -0.2007
 5736SOL     OW28669   3.704   3.860   2.545 -0.1790  0.0713 -0.5893
 5736SOL    HW128670   3.707   3.842   2.639 -1.1512 -2.4015 -1.0293
 5736SOL    HW228671   3.738   3.949   2.550  0.9739 -0.4760  1.5485
 5737SOL     OW28672   0.392   3.999   6.712 -0.7363 -0.0773  0.3063
 5737SOL    HW128673   0.413   4.003   6.805 -1.6581  1.1969  0.4629
 5737SOL    HW228674   0.467   4.048   6.678 -1.6039  1.0880  0.0570
 5738SOL     OW28675   0.729   3.580   8.858  0.2829 -0.6654 -0.0310
 5738SOL    HW128676   0.727   3.484   8.860  0.9421 -0.6774 -0.0733
 5738SOL    HW228677   0.672   3.579   8.781 -1.4667 -0.0916  1.2596
 5739SOL     OW28678   4.367   2.344   9.580  0.5243  0.2694 -0.3222
 5739SOL    HW128679   4.292   2.403   9.581 -1.8325 -2.7953  5.0192
 5739SOL    HW228680   4.401   2.370   9.666 -0.6281 -1.5709  0.6934
 5740SOL     OW28681   1.617   3.671   8.025  0.1299  0.4128 -0.2819
 5740SOL    HW128682   1.571   3.596   8.061 -0.9413  1.6375  0.9286
 5740SOL    HW228683   1.551   3.736   8.051  0.1786  0.1564  0.4995
 5741SOL     OW28684   4.178   0.786   5.531 -0.1796 -0.1159 -0.0123
 5741SOL    HW128685   4.254   0.735   5.560 -1.3517  0.6662  4.4560
 5741SOL    HW228686   4.130   0.807   5.611  3.2028  3.0805  1.1234
 5742SOL     OW28687   4.304   3.472   5.234 -0.2664  0.0720 -0.1056
 5742SOL    HW128688   4.387   3.436   5.204 -0.3731  0.4618 -0.8545
 5742SOL    HW228689   4.246   3.397   5.250 -0.3614  0.3861  1.0518
 5743SOL     OW28690   4.159   2.892  15.413  0.0696  1.0950  0.4720
 5743SOL    HW128691   4.080   2.845  15.439 -1.6706  4.0884  0.6211
 5743SOL    HW228692   4.210   2.819  15.377  0.8704  0.7477  2.3048
 5744SOL     OW28693   0.290   0.911   4.826 -0.2510  0.1138  0.1626
 5744SOL    HW128694   0.371   0.960   4.813  0.5442 -0.8818  1.3134
 5744SOL    HW228695   0.301   0.826   4.784 -0.9130 -0.7447  1.7058
 5745SOL     OW28696   0.820   0.804   1.656 -0.1355  0.7225 -0.2415
 5745SOL    HW128697   0.733   0.802   1.616  0.0124  0.0234 -0.5355
 5745SOL    HW228698   0.871   0.737   1.610 -1.3338  0.9891 -1.9401
 5746SOL     OW28699   0.203   3.444   9.232  0.1564  0.2263 -0.0994
 5746SOL    HW128700   0.228   3.511   9.168 -0.2106 -0.1599 -0.6522
 5746SOL    HW228701   0.113   3.426   9.205  0.0628  0.1793  0.2505
 5747SOL     OW28702   0.377   3.612   5.717  0.3517  0.2082 -0.3109
 5747SOL    HW128703   0.397   3.581   5.805 -0.0231 -0.3161 -0.4147
 5747SOL    HW228704   0.282   3.604   5.710  0.4432 -0.2287 -1.0870
 5748SOL     OW28705   2.042   2.439   4.414  0.3011 -0.0415 -0.4637
 5748SOL    HW128706   2.130   2.474   4.402 -0.9911  3.3364 -0.2979
 5748SOL    HW228707   2.053   2.354   4.372 -0.5269  0.2195 -1.2084
 5749SOL     OW28708   2.480   0.735   8.966 -0.1387  0.3703 -0.2684
 5749SOL    HW128709   2.427   0.784   8.902 -0.7838 -0.7938 -0.6148
 5749SOL    HW228710   2.547   0.803   8.978 -0.4712  0.6472  0.0529
 5750SOL     OW28711   0.770   2.030   0.388  0.4420  0.3143 -0.1266
 5750SOL    HW128712   0.825   2.108   0.390  1.3049 -0.3170  1.5515
 5750SOL    HW228713   0.732   2.039   0.476 -0.1790 -1.9437 -0.1654
 5751SOL     OW28714   4.269   0.111  11.754 -0.2838 -0.1838  0.1974
 5751SOL    HW128715   4.311   0.137  11.673 -0.2271  2.4586  1.0742
 5751SOL    HW228716   4.276   0.016  11.743  0.4525 -0.3294  1.9355
 5752SOL     OW28717   2.355   3.301   7.901 -0.1431 -0.2510  0.0445
 5752SOL    HW128718   2.331   3.217   7.940  0.3916 -2.1012 -3.5681
 5752SOL    HW228719   2.419   3.323   7.969 -0.6717  0.6232  0.2577
 5753SOL     OW28720   4.430   3.821   8.705  0.8880  0.3806 -0.0800
 5753SOL    HW128721   4.482   3.853   8.779  0.2331 -0.6379  0.8158
 5753SOL    HW228722   4.344   3.844   8.740  0.2394 -0.8171 -0.9005
 5754SOL     OW28723   0.568   0.303   0.527  0.2500 -0.2162 -0.0870
 5754SOL    HW128724   0.543   0.395   0.532  1.1921  0.0267  0.0688
 5754SOL    HW228725   0.478   0.269   0.526 -0.2797  1.1519  1.0382
 5755SOL     OW28726   0.675   2.478   2.730 -0.4225 -0.4159 -0.1851
 5755SOL    HW128727   0.654   2.517   2.815 -0.7629 -1.1753  0.0723
 5755SOL    HW228728   0.595   2.454   2.683 -0.3987 -1.8102  0.5136
 5756SOL     OW28729   4.647   2.118   7.286  0.3980  0.4017 -0.3642
 5756SOL    HW128730   4.709   2.086   7.221  1.5854  1.2668  0.3395
 5756SOL    HW228731   4.697   2.100   7.366  0.1327  0.1477 -0.2549
 5757SOL     OW28732   3.809   4.250   3.273  0.0825 -0.5580 -0.6403
 5757SOL    HW128733   3.746   4.314   3.305 -0.2194 -2.0402  1.7412
 5757SOL    HW228734   3.862   4.259   3.352  0.4593 -0.5721 -0.8907
 5758SOL     OW28735   3.700   0.882  10.009 -0.1138  0.3416  0.0009
 5758SOL    HW128736   3.747   0.869   9.926  1.6615 -0.4014  1.1280
 5758SOL    HW228737   3.781   0.902  10.055  0.1696  0.5639 -0.5965
 5759SOL     OW28738   4.718   2.268   3.603  0.1846  0.3627 -0.1237
 5759SOL    HW128739   4.640   2.221   3.575 -0.9987  3.0194 -1.3297
 5759SOL    HW228740   4.718   2.250   3.697  1.8893  2.0753  0.2063
 5760SOL     OW28741   0.463   2.608  12.552  0.0995  0.2521  0.4045
 5760SOL    HW128742   0.423   2.591  12.637  2.2899  0.9979  1.5724
 5760SOL    HW228743   0.549   2.568  12.560  0.0178  0.1464  0.7579
 5761SOL     OW28744   2.113   1.144  10.789  0.2331 -0.4586  0.0656
 5761SOL    HW128745   2.082   1.069  10.739  0.5894  0.1931 -1.1290
 5761SOL    HW228746   2.188   1.109  10.837 -1.8223 -0.7145  3.0441
 5762SOL     OW28747   2.978   0.333   6.011  0.3019 -0.4195 -0.3164
 5762SOL    HW128748   2.930   0.410   5.978  0.7754 -0.0012 -0.0352
 5762SOL    HW228749   3.022   0.298   5.933 -2.0467  0.5948 -2.1213
 5763SOL     OW28750   4.170   0.830  12.651  0.0078  0.1377 -0.2380
 5763SOL    HW128751   4.180   0.915  12.609  0.4323  1.0784  1.7689
 5763SOL    HW228752   4.262   0.821  12.675 -0.5841 -0.0520  1.9771
 5764SOL     OW28753   4.308   0.047   9.444 -0.3311  0.4280 -0.0350
 5764SOL    HW128754   4.292   0.000   9.526  0.5143  2.2869  1.1962
 5764SOL    HW228755   4.337   0.130   9.482 -0.0630  0.0453  0.5973
 5765SOL     OW28756   1.667   2.868  10.867 -0.6513  0.5103  0.1461
 5765SOL    HW128757   1.656   2.910  10.952  0.5250 -1.1626  1.1376
 5765SOL    HW228758   1.682   2.776  10.892  3.1004  1.0238 -0.2686
 5766SOL     OW28759   2.819   2.979   1.657 -0.5773  0.0821 -0.9504
 5766SOL    HW128760   2.780   2.896   1.628  0.9477 -1.7741  2.3909
 5766SOL    HW228761   2.838   2.964   1.749  1.8906  0.2018 -1.4384
 5767SOL     OW28762   2.670   4.034   3.610  0.1137  0.2812  0.5002
 5767SOL    HW128763   2.721   4.039   3.530 -0.3311 -1.1023  0.1400
 5767SOL    HW228764   2.738   3.991   3.661  2.3037 -0.8394 -3.3829
 5768SOL     OW28765   1.372   4.030   1.670 -0.3388 -0.3477  0.3736
 5768SOL    HW128766   1.412   4.098   1.725  1.2559 -1.9685  1.2452
 5768SOL    HW228767   1.301   4.080   1.632  1.1168 -0.0011 -1.9236
 5769SOL     OW28768   4.626   2.436  15.238  0.3747 -0.1650  0.0303
 5769SOL    HW128769   4.669   2.458  15.321  1.6115 -0.9407 -0.4051
 5769SOL    HW228770   4.700   2.394  15.196  0.6440 -0.0871  0.4223
 5770SOL     OW28771   1.375   0.508   9.903  0.1784  0.6810  0.1004
 5770SOL    HW128772   1.307   0.442   9.914  0.4094  0.5154  0.5027
 5770SOL    HW228773   1.367   0.568   9.977  0.2133  0.0967  0.5677
 5771SOL     OW28774   3.967   2.113   2.461 -1.1844 -0.5214  0.0235
 5771SOL    HW128775   4.024   2.051   2.415  0.8452  0.7869  0.8122
 5771SOL    HW228776   3.972   2.195   2.413  0.6758 -1.5826 -1.5950
 5772SOL     OW28777   3.686   4.451   3.381  0.6139  0.8643  0.0712
 5772SOL    HW128778   3.722   4.516   3.440 -0.7962 -1.4087  3.4473
 5772SOL    HW228779   3.628   4.408   3.444  1.5971 -0.4901  0.0483
 5773SOL     OW28780   0.901   2.468   3.133 -0.1461  0.1961 -0.1073
 5773SOL    HW128781   0.863   2.528   3.197 -0.5980  0.6219 -0.7662
 5773SOL    HW228782   0.962   2.534   3.102 -1.0056  0.4592 -1.2421
 5774SOL     OW28783   1.989   2.379   2.450 -0.0969 -0.2358  0.0619
 5774SOL    HW128784   2.051   2.440   2.409  0.2833 -0.2795  0.5694
 5774SOL    HW228785   1.910   2.415   2.409  0.7952  0.2635 -1.1900
 5775SOL     OW28786   3.532   4.421   0.648 -0.7376  0.1436  0.8447
 5775SOL    HW128787   3.585   4.351   0.687 -1.1111 -0.5929  0.0273
 5775SOL    HW228788   3.511   4.476   0.724 -1.7844  1.6223 -0.5212
 5776SOL     OW28789   3.609   4.657   9.530  0.1729 -0.3663 -1.0169
 5776SOL    HW128790   3.685   4.704   9.494 -2.1837  2.6346 -2.1243
 5776SOL    HW228791   3.569   4.715   9.595 -0.8750 -2.1707 -0.0587
 5777SOL     OW28792   3.717   2.704   3.176  0.1262  0.2518  0.0827
 5777SOL    HW128793   3.640   2.704   3.234 -0.3480  1.1217 -0.5474
 5777SOL    HW228794   3.738   2.797   3.185 -0.0487  0.2374  0.6900
 5778SOL     OW28795   0.695   4.556   2.948  0.1308 -0.2281 -0.1044
 5778SOL    HW128796   0.685   4.649   2.968  2.8501  0.4399 -1.9023
 5778SOL    HW228797   0.602   4.538   2.957  0.2757  0.0752  1.9500
 5779SOL     OW28798   0.325   1.870   3.172  0.2679  0.3009  0.2433
 5779SOL    HW128799   0.268   1.947   3.183 -1.4478 -1.2958  2.6038
 5779SOL    HW228800   0.396   1.892   3.232 -0.0987 -0.9885  1.1574
 5780SOL     OW28801   3.188   3.192   1.766 -0.2680 -0.1616  0.0358
 5780SOL    HW128802   3.140   3.113   1.789 -0.1112 -0.2187  0.1639
 5780SOL    HW228803   3.116   3.237   1.721 -0.8194 -0.1141  0.9619
 5781SOL     OW28804   4.307   3.288   7.864 -0.1075 -0.0833  0.0796
 5781SOL    HW128805   4.254   3.214   7.891  0.0279 -0.6095 -1.0929
 5781SOL    HW228806   4.243   3.357   7.846 -1.0209 -0.7857  0.6739
 5782SOL     OW28807   3.467   4.494  11.263 -0.2777 -0.1462  0.8043
 5782SOL    HW128808   3.437   4.518  11.351 -0.2518  0.1367  0.7382
 5782SOL    HW228809   3.498   4.580  11.233 -0.8048  0.1633  1.1430
 5783SOL     OW28810   2.240   3.930   5.138  0.6104 -0.8684  0.0428
 5783SOL    HW128811   2.162   3.985   5.148  1.7510  0.7933 -0.2087
 5783SOL    HW228812   2.242   3.884   5.222 -1.0762 -1.9046 -0.4842
 5784SOL     OW28813   3.677   4.268   6.171  0.0207  0.1692  0.0844
 5784SOL    HW128814   3.607   4.264   6.236 -0.3388 -1.3557 -0.3826
 5784SOL    HW228815   3.752   4.282   6.230 -0.8965 -1.0414  1.5273
 5785SOL     OW28816   3.258   3.316   6.907  0.0635  0.3984  0.7161
 5785SOL    HW128817   3.318   3.264   6.854 -0.2943  0.0801  0.6197
 5785SOL    HW228818   3.264   3.405   6.875  3.1195  0.6061  1.7879
 5786SOL     OW28819   0.864   2.561  17.672 -0.1905  0.2749  0.0259
 5786SOL    HW128820   0.838   2.469  17.665  0.3104  0.0693  0.9363
 5786SOL    HW228821   0.792   2.608  17.630  0.1891 -0.4683 -1.4890
 5787SOL     OW28822   3.575   2.710   8.590  0.4837  0.0605 -0.4945
 5787SOL    HW128823   3.520   2.652   8.538 -0.3281 -0.4543  0.9408
 5787SOL    HW228824   3.613   2.775   8.531  2.1461  0.9414  1.5232
 5788SOL     OW28825   2.211   4.705   4.470 -0.0989 -0.2333  0.3384
 5788SOL    HW128826   2.158   0.044   4.419 -1.6325 -1.1135  0.8717
 5788SOL    HW228827   2.168   4.718   4.554  2.4949 -0.6083  1.7319
 5789SOL     OW28828   1.074   3.850   9.258 -0.4139  0.4479  0.4021
 5789SOL    HW128829   1.088   3.899   9.340 -1.0810  0.1693  0.6782
 5789SOL    HW228830   1.065   3.921   9.194 -1.9267 -0.5287 -0.4649
 5790SOL     OW28831   4.624   1.324   8.919  0.0487 -0.6482  0.4873
 5790SOL    HW128832   4.536   1.294   8.940 -0.7689  0.0070 -1.9267
 5790SOL    HW228833   4.651   1.364   9.002 -0.0250 -1.9635  1.1420
 5791SOL     OW28834   4.654   0.616   9.144 -0.1237  0.4198 -0.7869
 5791SOL    HW128835   4.652   0.531   9.100 -1.0559 -0.9257  1.8643
 5791SOL    HW228836   4.697   0.579   9.221 -1.2748 -0.0636 -0.3830
 5792SOL     OW28837   2.124   4.141   9.251 -0.1893  0.0553  0.3472
 5792SOL    HW128838   2.039   4.180   9.270  0.3156  0.6816  1.2922
 5792SOL    HW228839   2.180   4.182   9.317  0.3994  1.3060 -0.9329
 5793SOL     OW28840   1.515   1.882  12.199 -0.1466 -0.3167  0.1988
 5793SOL    HW128841   1.597   1.919  12.233  1.9493 -3.2340 -1.6221
 5793SOL    HW228842   1.551   1.825  12.131 -0.2609 -0.3008  0.1244
 5794SOL     OW28843   1.178   0.029  14.444 -0.4798  0.0878 -0.4315
 5794SOL    HW128844   1.188   4.691  14.518 -1.5010 -0.7148 -0.9600
 5794SOL    HW228845   1.239   4.719  14.378 -0.4422 -0.4834 -0.1154
 5795SOL     OW28846   0.542   2.301   7.957  0.0948  0.4999 -0.1255
 5795SOL    HW128847   0.582   2.370   7.904  0.2855  1.7252  1.6429
 5795SOL    HW228848   0.534   2.347   8.040 -0.5427  0.7296 -0.3125
 5796SOL     OW28849   1.454   3.020   9.913  0.2070  0.1907  0.7161
 5796SOL    HW128850   1.362   3.022   9.938  0.7028  1.7429  2.3971
 5796SOL    HW228851   1.442   2.966   9.835  2.8128  1.6782 -0.6959
 5797SOL     OW28852   3.263   4.485  13.210 -0.1794 -0.6906  0.3773
 5797SOL    HW128853   3.261   4.510  13.118  1.1553  1.0032  0.8120
 5797SOL    HW228854   3.333   4.420  13.216 -1.3941 -1.9396  0.9613
 5798SOL     OW28855   2.091   2.470   6.821  0.1733 -0.9356 -0.5628
 5798SOL    HW128856   2.168   2.483   6.877 -1.3053 -0.7449  1.4338
 5798SOL    HW228857   2.094   2.546   6.762 -1.3143 -0.8166 -0.4805
 5799SOL     OW28858   0.706   3.372  13.495  0.2295 -0.6253 -0.4422
 5799SOL    HW128859   0.637   3.354  13.431 -0.4520 -2.3999  0.8016
 5799SOL    HW228860   0.675   3.325  13.572  1.1385 -1.0643 -0.3432
 5800SOL     OW28861   2.168   2.956   2.931  0.6628 -0.5476 -0.3620
 5800SOL    HW128862   2.102   3.024   2.942  1.3029 -0.2004  1.3595
 5800SOL    HW228863   2.237   2.977   2.994 -1.4705  0.9286  1.4926
 5801SOL     OW28864   3.858   1.689   6.367  0.2924 -0.3514  0.6505
 5801SOL    HW128865   3.935   1.631   6.371  0.8145  0.1933 -1.1922
 5801SOL    HW228866   3.803   1.668   6.442  1.8571  1.3317  2.2813
 5802SOL     OW28867   2.839   4.577   7.816 -0.5367 -0.0584 -0.2485
 5802SOL    HW128868   2.853   4.620   7.901  2.2638 -3.1891  0.8695
 5802SOL    HW228869   2.860   4.490   7.850 -2.0225  0.5688  2.2743
 5803SOL     OW28870   2.436   1.941  12.260  0.2707 -0.4115  0.0024
 5803SOL    HW128871   2.355   1.992  12.263  2.2145  2.6811 -0.2561
 5803SOL    HW228872   2.408   1.865  12.208  1.4429 -0.6578 -0.2601
 5804SOL     OW28873   1.714   3.443  17.149 -0.2596  0.5248 -0.1409
 5804SOL    HW128874   1.707   3.538  17.144  0.4077  0.6107  0.6062
 5804SOL    HW228875   1.799   3.442  17.192  0.3968 -0.0365 -1.4451
 5805SOL     OW28876   0.917   2.428   1.039 -0.0312 -0.0675  0.6416
 5805SOL    HW128877   0.848   2.401   1.099  1.0796 -2.5302  0.7799
 5805SOL    HW228878   0.987   2.370   1.065 -0.3041  0.3256  2.2694
 5806SOL     OW28879   2.596   0.650   4.961  0.1935  0.1829 -0.0172
 5806SOL    HW128880   2.659   0.718   4.937 -0.3478 -0.6769 -3.8388
 5806SOL    HW228881   2.645   0.618   5.038  1.8834 -0.1207 -1.2203
 5807SOL     OW28882   1.423   2.130  16.070 -0.5056  0.7474 -0.7472
 5807SOL    HW128883   1.439   2.175  15.988  1.3186  2.2016  0.4068
 5807SOL    HW228884   1.344   2.171  16.105 -1.4876 -1.2670 -0.5780
 5808SOL     OW28885   2.004   0.590   2.774  0.6153  1.1039  0.1775
 5808SOL    HW128886   2.001   0.518   2.838  0.7550 -1.4595 -2.6625
 5808SOL    HW228887   1.937   0.578   2.706  0.0358 -2.2129  1.3081
 5809SOL     OW28888   0.468   3.072   3.654  0.3584  0.3064  1.0538
 5809SOL    HW128889   0.372   3.072   3.647  0.5642  1.3759 -1.6826
 5809SOL    HW228890   0.486   3.148   3.709  2.7230  1.7152 -1.7272
 5810SOL     OW28891   2.783   1.340   9.179 -0.2160 -0.2149  0.3266
 5810SOL    HW128892   2.799   1.322   9.271  0.5365 -0.6194  0.1167
 5810SOL    HW228893   2.754   1.255   9.144 -0.4928  1.1478 -2.7890
 5811SOL     OW28894   4.581   2.597  15.845  0.3912 -0.1334 -0.2465
 5811SOL    HW128895   4.525   2.560  15.777 -1.1017  0.4728  0.6700
 5811SOL    HW228896   4.533   2.673  15.877 -1.2032  0.3066 -3.6825
 5812SOL     OW28897   0.305   2.843   7.854  0.5507 -0.3379  0.1253
 5812SOL    HW128898   0.270   2.788   7.784  0.4175 -1.7908  1.3447
 5812SOL    HW228899   0.361   2.901   7.801  0.9502 -0.3176  0.5677
 5813SOL     OW28900   0.918   3.684   2.639  0.0724 -0.0158  0.5653
 5813SOL    HW128901   0.903   3.604   2.590 -1.1141 -1.1073  2.7059
 5813SOL    HW228902   0.977   3.731   2.581 -2.1041 -0.5325 -2.0459
 5814SOL     OW28903   4.340   2.483   8.845  0.4976 -0.5702 -0.1750
 5814SOL    HW128904   4.386   2.412   8.801 -1.3901 -1.3666 -0.8419
 5814SOL    HW228905   4.340   2.442   8.931  0.1762 -1.8837 -0.8043
 5815SOL     OW28906   0.771   2.174   5.930  0.1881  0.6641 -0.4198
 5815SOL    HW128907   0.704   2.138   5.871  0.0962  1.7913 -1.0184
 5815SOL    HW228908   0.859   2.139   5.916  0.3756  0.1584  1.9875
 5816SOL     OW28909   2.248   0.683   2.758 -0.6011 -0.5218 -0.0844
 5816SOL    HW128910   2.155   0.668   2.775 -0.3809 -1.7093  0.0564
 5816SOL    HW228911   2.278   0.628   2.830  0.0292 -0.6800 -0.4726
 5817SOL     OW28912   4.448   1.128  12.287 -0.5293  0.6571  0.4149
 5817SOL    HW128913   4.481   1.042  12.313  1.9064  0.6653 -2.6677
 5817SOL    HW228914   4.366   1.137  12.336 -0.8627 -1.3230  0.2069
 5818SOL     OW28915   2.345   3.073   2.582 -0.2711 -0.2037 -0.2220
 5818SOL    HW128916   2.374   3.126   2.508  0.7221  1.5776  1.4637
 5818SOL    HW228917   2.291   3.138   2.626 -0.2665 -1.3151  1.4447
 5819SOL     OW28918   0.970   1.895   6.056  0.1102 -0.4468  0.0746
 5819SOL    HW128919   0.877   1.896   6.076  0.3129  2.0294  0.9115
 5819SOL    HW228920   0.969   1.823   5.993  2.3802 -1.7411  1.4974
 5820SOL     OW28921   2.838   4.013   6.895 -0.8212 -0.9386  0.6544
 5820SOL    HW128922   2.748   3.979   6.894 -2.1015  2.4075 -1.8180
 5820SOL    HW228923   2.854   3.981   6.806  2.1807  0.4096  0.7309
 5821SOL     OW28924   3.848   3.643  16.283  0.5869  0.0839 -0.0146
 5821SOL    HW128925   3.890   3.597  16.210  0.0920 -0.2054 -0.1133
 5821SOL    HW228926   3.869   3.595  16.363 -0.6003  0.2703  0.4104
 5822SOL     OW28927   1.331   1.593   6.570 -0.0003 -0.1548 -0.2041
 5822SOL    HW128928   1.309   1.676   6.528 -0.1271 -0.5299 -0.8701
 5822SOL    HW228929   1.407   1.620   6.622 -0.2142 -2.9476  1.5493
 5823SOL     OW28930   2.572   3.792   8.631  0.0473 -0.1393 -0.2576
 5823SOL    HW128931   2.615   3.719   8.586 -0.2219  0.3303 -1.2864
 5823SOL    HW228932   2.491   3.752   8.662  0.0286  0.5846  0.6202
 5824SOL     OW28933   0.722   4.194  10.297  0.3938  0.2900 -0.2728
 5824SOL    HW128934   0.666   4.250  10.244  0.5569  1.6710  1.0093
 5824SOL    HW228935   0.785   4.165  10.232  0.6774 -1.5947  0.8408
 5825SOL     OW28936   4.017   0.497   7.086 -1.0386 -0.1492  0.1516
 5825SOL    HW128937   3.983   0.570   7.137 -2.3517 -1.6965  1.5408
 5825SOL    HW228938   3.982   0.420   7.132 -1.7537  1.0755  1.6345
 5826SOL     OW28939   1.423   3.362   2.601  0.3180  0.3957  0.2145
 5826SOL    HW128940   1.499   3.334   2.652 -0.0216 -0.8295  0.0432
 5826SOL    HW228941   1.461   3.361   2.513  0.6117 -0.4579  0.3512
 5827SOL     OW28942   0.408   4.440   2.234  0.3779  0.1710 -0.8612
 5827SOL    HW128943   0.312   4.442   2.237  0.4586  1.1250  1.3027
 5827SOL    HW228944   0.431   4.350   2.256 -0.3669 -0.2948 -1.9705
 5828SOL     OW28945   3.762   0.757   7.732 -0.2134 -0.2471  0.3345
 5828SOL    HW128946   3.736   0.756   7.824  1.1041 -0.0503  0.7070
 5828SOL    HW228947   3.730   0.844   7.706 -1.9284 -0.6105  1.2267
 5829SOL     OW28948   4.003   0.011   3.068  0.0111 -0.1098  0.4678
 5829SOL    HW128949   3.926   0.055   3.105 -1.3864 -0.4652 -2.0112
 5829SOL    HW228950   3.970   4.644   3.056 -1.4085  0.8914 -2.9188
 5830SOL     OW28951   1.796   3.771   0.430  0.3722  0.6925 -0.2070
 5830SOL    HW128952   1.742   3.827   0.375 -0.0285  0.3735 -0.1438
 5830SOL    HW228953   1.778   3.807   0.516 -3.1237  1.4359 -1.2676
 5831SOL     OW28954   4.404   0.624   5.693  0.2151 -0.6438  0.0249
 5831SOL    HW128955   4.390   0.638   5.787  1.3276  1.0344 -0.0586
 5831SOL    HW228956   4.448   0.539   5.690 -1.5651 -1.5200 -0.9818
 5832SOL     OW28957   0.108   1.402   8.778 -0.4851 -0.4687 -0.0618
 5832SOL    HW128958   0.033   1.373   8.831  0.9506 -1.0876  1.6393
 5832SOL    HW228959   0.087   1.377   8.688 -1.2756  1.0405 -0.2834
 5833SOL     OW28960   1.287   1.802  16.656  0.2182 -0.5312 -0.6176
 5833SOL    HW128961   1.300   1.862  16.583 -2.0004  0.6050 -0.0787
 5833SOL    HW228962   1.278   1.718  16.611 -0.3094 -0.1033 -1.3147
 5834SOL     OW28963   0.631   4.151   6.780 -0.1091 -1.1750  0.0926
 5834SOL    HW128964   0.614   4.089   6.852 -2.5439  0.8827  1.2781
 5834SOL    HW228965   0.697   4.201   6.827 -0.6047 -1.1107  0.7267
 5835SOL     OW28966   0.181   2.570   2.279 -0.0179 -0.3530  0.1993
 5835SOL    HW128967   0.195   2.643   2.340 -0.2215 -1.7067  1.8554
 5835SOL    HW228968   0.095   2.543   2.310  0.2649 -0.6851  0.6950
 5836SOL     OW28969   0.688   3.266   8.681  0.2509 -0.5593 -0.0375
 5836SOL    HW128970   0.644   3.351   8.673  1.6976  0.5735  3.6758
 5836SOL    HW228971   0.650   3.212   8.612 -0.0238 -1.4594  0.8114
 5837SOL     OW28972   1.461   1.071   3.826  0.0859 -0.0270 -0.5589
 5837SOL    HW128973   1.511   1.008   3.774 -0.4874  1.3714 -2.8283
 5837SOL    HW228974   1.466   1.028   3.912 -1.2254  0.2788 -0.3215
 5838SOL     OW28975   1.854   0.133   8.446 -0.2785 -0.2772  0.1909
 5838SOL    HW128976   1.791   0.076   8.490  0.1704 -1.7999 -1.1606
 5838SOL    HW228977   1.912   0.066   8.411 -0.8505  0.3188 -1.8560
 5839SOL     OW28978   3.022   3.320   1.332  0.5762 -0.1183  0.5053
 5839SOL    HW128979   3.116   3.336   1.339  0.3515  1.6562 -0.4632
 5839SOL    HW228980   3.020   3.224   1.334 -0.1132 -0.1621 -2.5359
 5840SOL     OW28981   4.466   3.803   3.572 -0.7280 -0.2458  0.2530
 5840SOL    HW128982   4.500   3.766   3.491 -3.2635  0.1647 -0.9882
 5840SOL    HW228983   4.387   3.846   3.539 -1.6447 -1.6856  0.5668
 5841SOL     OW28984   1.546   1.620  11.556  0.2910 -0.4000 -0.4232
 5841SOL    HW128985   1.637   1.647  11.544  0.2749 -1.2956 -2.5460
 5841SOL    HW228986   1.536   1.535  11.513 -0.6668 -0.5210  0.0395
 5842SOL     OW28987   2.394   2.609  15.152 -0.3881  0.2271  0.2996
 5842SOL    HW128988   2.368   2.692  15.114 -0.3859  0.2939  0.4438
 5842SOL    HW228989   2.438   2.578  15.072 -2.7983  0.0836 -0.9657
 5843SOL     OW28990   4.609   3.629   0.282 -0.0833  0.0084 -0.3124
 5843SOL    HW128991   4.642   3.655   0.368  0.2305 -0.5747 -0.2526
 5843SOL    HW228992   4.536   3.690   0.273 -1.0656 -1.2792 -0.9533
 5844SOL     OW28993   0.218   0.389   5.083  0.0561 -0.0879 -0.1240
 5844SOL    HW128994   0.210   0.353   5.171 -0.8409 -0.5594 -0.3963
 5844SOL    HW228995   0.312   0.405   5.073  0.0692 -1.0312 -1.5801
 5845SOL     OW28996   4.552   2.280   5.992  0.2172 -0.4845  0.2527
 5845SOL    HW128997   4.580   2.332   6.067  0.7137 -1.0726  0.4773
 5845SOL    HW228998   4.590   2.196   6.016  0.1392 -0.8446 -0.8851
 5846SOL     OW28999   0.386   1.718   7.240 -0.1922  0.1303  0.2740
 5846SOL    HW129000   0.317   1.660   7.208 -1.1400  1.3234  0.1323
 5846SOL    HW229001   0.452   1.656   7.271 -0.1719  1.1070  2.2288
 5847SOL     OW29002   3.158   4.013   8.570  0.0247  0.3073  0.3365
 5847SOL    HW129003   3.189   4.091   8.523 -1.8048  0.2671 -0.9283
 5847SOL    HW229004   3.072   4.033   8.606 -0.6191 -1.0688 -0.4478
 5848SOL     OW29005   1.119   1.810   2.462  0.4923 -0.0223 -0.2940
 5848SOL    HW129006   1.201   1.836   2.419  1.1428 -0.1494  0.8572
 5848SOL    HW229007   1.050   1.865   2.425 -0.8533 -1.1834  0.4773
 5849SOL     OW29008   4.123   3.934   5.560  0.2713 -0.8890  0.6306
 5849SOL    HW129009   4.162   3.860   5.607  0.3898 -2.2949 -1.6919
 5849SOL    HW229010   4.138   4.002   5.626 -0.9199  1.2414 -1.2994
 5850SOL     OW29011   3.783   3.994  15.795  0.0300  0.2634 -0.4870
 5850SOL    HW129012   3.695   4.017  15.824  2.0855  2.1141  4.3499
 5850SOL    HW229013   3.787   4.043  15.713 -1.7422 -1.4568 -1.5890
 5851SOL     OW29014   0.732   3.810  16.855 -0.1281 -0.7794  0.2401
 5851SOL    HW129015   0.719   3.756  16.934  1.8468  0.2715  1.2778
 5851SOL    HW229016   0.730   3.896  16.898 -1.0657 -1.7282  2.1125
 5852SOL     OW29017   3.942   2.510   8.968  0.2511  0.0232  0.1420
 5852SOL    HW129018   3.990   2.448   8.913  1.2256 -0.6651  1.7579
 5852SOL    HW229019   3.999   2.586   8.961 -0.2826  0.5299  1.2336
 5853SOL     OW29020   3.885   1.983  16.779 -0.7565 -0.4405  0.4290
 5853SOL    HW129021   3.901   1.937  16.696  0.1734  0.7502 -0.0403
 5853SOL    HW229022   3.836   1.916  16.827 -0.3487 -1.9025 -1.1954
 5854SOL     OW29023   2.182   1.120   6.267  0.2407 -0.2140 -0.4000
 5854SOL    HW129024   2.144   1.169   6.194 -1.0518 -2.0698 -0.9736
 5854SOL    HW229025   2.222   1.041   6.231  2.0070  1.2689 -1.7633
 5855SOL     OW29026   3.286   1.656   1.448  0.0045  0.8100  0.3863
 5855SOL    HW129027   3.197   1.633   1.473 -0.2169 -0.5913 -1.6469
 5855SOL    HW229028   3.340   1.604   1.507 -1.4515 -1.3560 -0.1739
 5856SOL     OW29029   0.065   3.330   2.019 -0.4942  0.3797  0.6715
 5856SOL    HW129030   0.047   3.424   2.011 -2.3151 -0.0400 -0.1536
 5856SOL    HW229031   0.079   3.305   1.928 -0.5674  2.5948  0.0672
 5857SOL     OW29032   0.733   4.058  11.596  0.1354  0.1308  0.3783
 5857SOL    HW129033   0.801   4.034  11.659 -1.4496 -0.6786  1.7877
 5857SOL    HW229034   0.651   4.065  11.647 -0.1390  1.9775 -0.3308
 5858SOL     OW29035   4.596   4.646   3.655 -0.2215  0.5176 -0.5162
 5858SOL    HW129036   4.686   4.641   3.685 -0.0727  0.6056 -0.9517
 5858SOL    HW229037   4.573   0.002   3.706 -0.9332 -0.3400  0.4778
 5859SOL     OW29038   3.591   3.917   6.615 -0.3738  0.2600 -0.1601
 5859SOL    HW129039   3.612   3.830   6.648 -0.2055  0.1766 -0.4866
 5859SOL    HW229040   3.639   3.929   6.534 -0.1649 -1.6173 -0.3195
 5860SOL     OW29041   3.532   4.508   8.171 -0.1663  0.2717 -0.4976
 5860SOL    HW129042   3.566   4.425   8.137 -2.0634 -1.4242  1.7300
 5860SOL    HW229043   3.491   4.475   8.251  1.4080 -0.3348  0.0583
 5861SOL     OW29044   1.143   3.414   4.278  0.5830  0.1296 -0.0970
 5861SOL    HW129045   1.050   3.422   4.300 -0.0049 -0.7678 -2.2159
 5861SOL    HW229046   1.161   3.488   4.220 -1.1178  2.1315  1.9550
 5862SOL     OW29047   1.363   1.011   4.274  0.4924  0.0041 -0.3155
 5862SOL    HW129048   1.445   0.962   4.274 -0.2390 -1.2421 -0.2263
 5862SOL    HW229049   1.298   0.944   4.295  1.5862 -1.1669 -0.6678
 5863SOL     OW29050   0.962   2.293   5.070 -0.2247  0.0472 -0.2605
 5863SOL    HW129051   0.978   2.317   5.162  1.4041 -0.1771 -0.4863
 5863SOL    HW229052   0.968   2.198   5.074 -1.1289  0.0101  0.1588
 5864SOL     OW29053   2.567   3.638   8.269 -0.3970  0.2054 -0.0279
 5864SOL    HW129054   2.499   3.627   8.203  0.6323 -2.6756 -0.5965
 5864SOL    HW229055   2.642   3.678   8.224  0.3932 -0.5949  0.5749
 5865SOL     OW29056   3.968   1.518   6.788  0.1225  0.2141  0.5309
 5865SOL    HW129057   3.915   1.471   6.852  0.4544 -0.0951  0.5770
 5865SOL    HW229058   3.939   1.478   6.706  1.4966 -0.3604  0.3266
 5866SOL     OW29059   0.407   3.258  13.023 -0.2961  0.1237 -0.1263
 5866SOL    HW129060   0.477   3.194  13.009  0.6985  1.5695 -1.7608
 5866SOL    HW229061   0.330   3.208  12.995 -0.2611 -0.8020  1.4235
 5867SOL     OW29062   0.759   2.429  13.521 -0.0864 -0.0904 -0.2826
 5867SOL    HW129063   0.679   2.383  13.494 -0.4705  0.3454  0.1149
 5867SOL    HW229064   0.807   2.446  13.440  0.3647 -0.6598 -0.1369
 5868SOL     OW29065   1.117   0.546   5.057  0.0245  0.1899  0.4463
 5868SOL    HW129066   1.099   0.593   4.975 -0.6897 -1.1638 -0.1698
 5868SOL    HW229067   1.107   0.617   5.120 -0.7800  0.1635  0.3525
 5869SOL     OW29068   3.306   1.548  16.517  0.2044 -0.0588 -0.0169
 5869SOL    HW129069   3.380   1.608  16.513 -0.2536  0.4604 -0.5968
 5869SOL    HW229070   3.338   1.464  16.484 -1.2400 -1.1435  1.3236
 5870SOL     OW29071   0.386   1.688   3.421 -0.4475  0.1197  0.0039
 5870SOL    HW129072   0.317   1.732   3.371 -0.2743 -0.2174 -0.5220
 5870SOL    HW229073   0.415   1.758   3.479 -0.5459  0.2428 -0.0938
 5871SOL     OW29074   1.965   2.024  11.768  0.0258  0.0017  0.7705
 5871SOL    HW129075   1.983   2.118  11.775 -2.7324  0.5332  0.7368
 5871SOL    HW229076   1.962   2.012  11.673  0.3744 -0.1744  0.7825
 5872SOL     OW29077   2.173   0.382   3.472 -0.7324 -0.4932 -0.7751
 5872SOL    HW129078   2.189   0.450   3.406  0.6264  0.4665  0.5492
 5872SOL    HW229079   2.088   0.347   3.443 -0.8766 -2.2796  1.7725
 5873SOL     OW29080   3.537   2.120  10.283 -0.2781  0.1195  0.1795
 5873SOL    HW129081   3.583   2.080  10.357 -0.3810 -0.8917 -0.3132
 5873SOL    HW229082   3.513   2.043  10.232  0.4880 -0.1630  0.2510
 5874SOL     OW29083   2.323   3.707   2.501  0.0784  0.2128 -0.2299
 5874SOL    HW129084   2.295   3.715   2.410  0.3256 -1.2910 -0.4359
 5874SOL    HW229085   2.414   3.733   2.489 -0.1801  1.9216  1.4453
 5875SOL     OW29086   2.183   2.265   3.030 -0.1618 -0.0098  0.4794
 5875SOL    HW129087   2.157   2.358   3.034 -1.1463 -0.2862  0.6074
 5875SOL    HW229088   2.116   2.230   3.089 -1.5046  1.4923 -0.1330
 5876SOL     OW29089   3.632   3.871   8.553  0.0368 -0.2264 -0.2072
 5876SOL    HW129090   3.574   3.945   8.538 -2.1234 -2.0399 -0.9769
 5876SOL    HW229091   3.689   3.867   8.476  0.5590  0.5535  0.1463
 5877SOL     OW29092   2.229   3.702  13.379  0.7696  0.0625 -0.1017
 5877SOL    HW129093   2.162   3.741  13.322  0.1471  0.6124  1.0067
 5877SOL    HW229094   2.249   3.621  13.331 -1.1202  0.7794 -2.1071
 5878SOL     OW29095   2.287   2.232   2.309  0.5582 -0.5220 -0.7012
 5878SOL    HW129096   2.233   2.170   2.359  2.2093  0.6927  2.5825
 5878SOL    HW229097   2.309   2.300   2.372 -2.6435 -0.2624  0.1214
 5879SOL     OW29098   1.666   2.719   7.751 -0.3494 -0.1588 -0.5442
 5879SOL    HW129099   1.647   2.811   7.734  2.9673  0.9405  1.6527
 5879SOL    HW229100   1.578   2.687   7.773 -1.2719  1.2570 -2.1850
 5880SOL     OW29101   3.815   2.609   4.504 -0.1624 -0.3810 -0.5149
 5880SOL    HW129102   3.892   2.637   4.554 -0.6978  0.0698  0.0593
 5880SOL    HW229103   3.748   2.599   4.571 -1.6799  0.8859 -1.8288
 5881SOL     OW29104   1.364   2.612  16.879 -0.3087  0.2536 -0.4952
 5881SOL    HW129105   1.315   2.632  16.959  0.3982 -0.8822  0.2217
 5881SOL    HW229106   1.444   2.663  16.890  0.0752 -0.7687  1.4408
 5882SOL     OW29107   4.516   4.318   1.784 -0.1357 -0.3726 -0.4624
 5882SOL    HW129108   4.575   4.341   1.712  0.0559  0.4162 -0.0500
 5882SOL    HW229109   4.568   4.251   1.829 -0.6120 -1.0489 -0.9257
 5883SOL     OW29110   4.100   2.207   6.855 -0.3633 -0.6310 -0.1013
 5883SOL    HW129111   4.147   2.124   6.856 -3.1156 -2.1844  0.7275
 5883SOL    HW229112   4.008   2.180   6.862 -0.7919  0.7272 -0.4897
 5884SOL     OW29113   3.024   1.348   5.343 -0.2562  0.1388  0.1917
 5884SOL    HW129114   3.010   1.347   5.438 -1.9263  0.0542 -0.0611
 5884SOL    HW229115   2.938   1.382   5.319  0.2309  2.1884  1.4246
 5885SOL     OW29116   4.678   2.323   5.662 -0.4509  0.0743 -0.2130
 5885SOL    HW129117   4.600   2.269   5.676 -1.0389  0.4453 -2.0745
 5885SOL    HW229118   4.647   2.412   5.679 -0.9447 -0.0221 -0.5818
 5886SOL     OW29119   2.632   0.198   1.432  0.2927  0.1842 -0.0661
 5886SOL    HW129120   2.630   0.220   1.339 -0.8555 -0.0927 -0.1093
 5886SOL    HW229121   2.713   0.150   1.450  0.1510 -0.3937 -0.9399
 5887SOL     OW29122   2.032   0.024   3.767 -0.1873 -0.5221 -0.2215
 5887SOL    HW129123   2.027   4.689   3.844 -2.7173 -0.6498 -0.4796
 5887SOL    HW229124   1.947   0.067   3.769  0.2620  0.4079 -1.1240
 5888SOL     OW29125   2.877   4.346  16.367  0.6345  0.1858 -0.5275
 5888SOL    HW129126   2.885   4.289  16.290 -0.4829  0.0478 -0.5431
 5888SOL    HW229127   2.910   4.280  16.428  1.0915  0.1717 -0.7860
 5889SOL     OW29128   1.123   2.089   1.914 -0.2381 -0.3051 -0.1543
 5889SOL    HW129129   1.139   2.089   2.009 -1.2245 -0.1003  0.0130
 5889SOL    HW229130   1.182   2.020   1.885  1.4720  0.0466  2.5111
 5890SOL     OW29131   1.712   2.078  14.023 -0.0767 -0.0670  0.3586
 5890SOL    HW129132   1.777   2.013  13.999 -0.6839 -1.0335  1.3142
 5890SOL    HW229133   1.748   2.092  14.111  2.5879 -1.8651 -0.4814
 5891SOL     OW29134   2.428   0.701  15.576  0.6800  0.8198  0.8012
 5891SOL    HW129135   2.422   0.711  15.672  1.2141 -0.2589  0.9399
 5891SOL    HW229136   2.469   0.615  15.572 -0.5787  0.2579  0.2966
 5892SOL     OW29137   1.126   0.541   3.198 -0.0656  0.5536  0.0615
 5892SOL    HW129138   1.106   0.470   3.259 -1.4589 -0.1822 -1.2514
 5892SOL    HW229139   1.189   0.586   3.255 -1.0878  1.2720  0.6179
 5893SOL     OW29140   4.220   3.579   1.424 -0.3414  0.2053  0.3032
 5893SOL    HW129141   4.153   3.531   1.473 -0.4223 -2.2713 -2.2419
 5893SOL    HW229142   4.302   3.543   1.458 -1.5944 -3.2445 -0.2977
 5894SOL     OW29143   4.176   2.990  16.082 -0.1667 -0.1996  0.5440
 5894SOL    HW129144   4.147   3.052  16.149  0.9367 -0.6524  1.4372
 5894SOL    HW229145   4.167   3.036  15.999  0.8589 -0.2325  0.4184
 5895SOL     OW29146   4.094   2.524   7.311 -0.7003  0.3564  0.5396
 5895SOL    HW129147   4.081   2.468   7.234  1.7625 -0.5232  0.7727
 5895SOL    HW229148   4.080   2.463   7.383  1.0960  1.3423  1.7145
 5896SOL     OW29149   3.830   3.068  14.934 -0.3479  0.6806 -0.8229
 5896SOL    HW129150   3.778   3.093  15.011  0.3079 -0.1085 -0.1175
 5896SOL    HW229151   3.777   2.994  14.904  1.0948 -1.2450  1.4065
 5897SOL     OW29152   1.561   2.648   5.257  0.0715 -0.0408 -0.6738
 5897SOL    HW129153   1.533   2.629   5.346  0.1925 -1.7366 -0.9963
 5897SOL    HW229154   1.486   2.702   5.229  1.0060  1.5860 -0.0333
 5898SOL     OW29155   4.437   1.197  11.817 -0.5458 -0.4437 -0.5022
 5898SOL    HW129156   4.385   1.273  11.845  0.9697 -0.1769  1.5931
 5898SOL    HW229157   4.491   1.244  11.753 -0.8029 -1.1486 -1.2354
 5899SOL     OW29158   1.614   0.384   8.394  0.2289  0.2132 -0.1937
 5899SOL    HW129159   1.524   0.416   8.385 -0.2062 -0.4910  1.5836
 5899SOL    HW229160   1.624   0.363   8.487 -0.3296  2.2713  0.3159
 5900SOL     OW29161   0.359   2.868  17.551  0.0870 -0.5827  0.1378
 5900SOL    HW129162   0.389   2.864  17.461 -3.6127 -0.8744 -1.0792
 5900SOL    HW229163   0.269   2.899  17.540  0.6712  0.9572 -0.2914
 5901SOL     OW29164   0.540   4.223   4.856 -0.4748  0.5577 -0.1441
 5901SOL    HW129165   0.596   4.152   4.827 -2.9608 -1.6091  0.3942
 5901SOL    HW229166   0.464   4.172   4.883 -0.0450 -0.7686 -1.4795
 5902SOL     OW29167   3.596   3.823   4.773  0.0947 -0.0484  0.2899
 5902SOL    HW129168   3.512   3.778   4.765  0.0698 -0.2879  1.8869
 5902SOL    HW229169   3.650   3.753   4.811 -1.1172 -0.6847  0.8638
 5903SOL     OW29170   1.260   2.942   0.855 -0.0218  0.3756 -0.3403
 5903SOL    HW129171   1.351   2.962   0.877 -0.2193 -0.7409  1.5243
 5903SOL    HW229172   1.215   3.022   0.882 -0.8569 -0.9629  2.2292
 5904SOL     OW29173   4.254   0.637   9.690 -0.6992  0.3767 -0.3367
 5904SOL    HW129174   4.337   0.668   9.654  0.6541 -0.9223  1.6424
 5904SOL    HW229175   4.202   0.715   9.672  0.7604  1.7999  1.5562
 5905SOL     OW29176   1.087   3.741  11.557 -0.4272  0.0993  0.3190
 5905SOL    HW129177   1.163   3.747  11.616  0.7557 -0.6505 -1.1368
 5905SOL    HW229178   1.061   3.649  11.563 -1.2828  0.4463  1.9437
 5906SOL     OW29179   3.790   4.162   1.076 -0.4282  0.2602 -0.1590
 5906SOL    HW129180   3.766   4.143   1.166  1.1667  1.4145  0.5168
 5906SOL    HW229181   3.706   4.159   1.031 -0.4980 -0.3501  0.0051
 5907SOL     OW29182   1.204   4.492   2.860  0.1714  0.2701 -0.0886
 5907SOL    HW129183   1.247   4.414   2.894  0.8689  0.4203 -0.6294
 5907SOL    HW229184   1.216   4.468   2.768 -0.9278 -0.4273 -0.0535
 5908SOL     OW29185   2.434   1.566   0.635 -0.1554  0.1013  0.8404
 5908SOL    HW129186   2.466   1.647   0.673 -2.8020  0.3274  2.6133
 5908SOL    HW229187   2.459   1.565   0.542  2.3284 -2.1656  1.5562
 5909SOL     OW29188   1.292   1.386  12.743  0.6896  0.1256  0.1939
 5909SOL    HW129189   1.251   1.322  12.684 -2.7888  1.9200  0.7044
 5909SOL    HW229190   1.358   1.419  12.682 -0.6009  2.9003  0.3114
 5910SOL     OW29191   1.470   2.088  16.401  0.1038 -0.1145  0.2510
 5910SOL    HW129192   1.514   2.018  16.450  0.2718 -1.3894 -1.7251
 5910SOL    HW229193   1.381   2.056  16.386 -0.1745  0.0897  1.4402
 5911SOL     OW29194   1.926   2.821   5.680  0.2869 -0.1117 -0.2537
 5911SOL    HW129195   1.946   2.729   5.701 -1.1503 -0.7169 -1.5241
 5911SOL    HW229196   1.947   2.815   5.587  4.1301  0.7124  0.5597
 5912SOL     OW29197   0.983   3.582   2.283  0.1948 -0.0356 -0.0021
 5912SOL    HW129198   0.983   3.558   2.191 -2.8075  0.8388 -0.2487
 5912SOL    HW229199   1.071   3.618   2.295 -0.0108  0.6190 -0.4241
 5913SOL     OW29200   0.612   3.129   0.566  0.2426 -0.6770  0.0211
 5913SOL    HW129201   0.621   3.041   0.528  0.1244 -0.0041 -1.5714
 5913SOL    HW229202   0.688   3.122   0.624 -0.3111  3.7207  1.2615
 5914SOL     OW29203   4.564   3.133   9.380  0.6806 -0.0621  0.1257
 5914SOL    HW129204   4.586   3.211   9.431 -0.6356  0.4298 -0.0584
 5914SOL    HW229205   4.562   3.164   9.289 -0.1826 -0.3502  0.0492
 5915SOL     OW29206   3.853   3.752  15.687  0.0921 -0.5575 -0.6492
 5915SOL    HW129207   3.844   3.838  15.728  1.3379 -0.4598 -0.5630
 5915SOL    HW229208   3.868   3.765  15.594 -0.1839 -0.6846 -0.7126
 5916SOL     OW29209   4.210   4.071   2.465 -0.2499  0.1251 -0.5443
 5916SOL    HW129210   4.217   4.112   2.551  1.3880  1.5155 -1.3552
 5916SOL    HW229211   4.121   4.093   2.439 -0.2100  0.0449 -0.7517
 5917SOL     OW29212   4.597   2.683   2.742  0.5453 -0.8706 -0.1081
 5917SOL    HW129213   4.524   2.685   2.679 -0.3018 -1.2763  0.8542
 5917SOL    HW229214   4.635   2.770   2.734 -0.6182 -0.1835  1.9524
 5918SOL     OW29215   2.694   0.178   7.212  0.7112 -0.0015 -0.3641
 5918SOL    HW129216   2.646   0.245   7.262  0.3983 -0.8120  0.4164
 5918SOL    HW229217   2.650   0.098   7.238 -0.0641  0.6055  0.1868
 5919SOL     OW29218   4.213   1.943   6.870 -0.2368  0.2775 -0.3336
 5919SOL    HW129219   4.232   1.919   6.960 -0.1963 -1.6548 -0.8672
 5919SOL    HW229220   4.143   1.884   6.842  0.3650 -0.2904 -0.6176
 5920SOL     OW29221   0.757   3.806   8.554 -0.7815  0.1475  1.1869
 5920SOL    HW129222   0.743   3.881   8.612 -2.7174  0.4540  0.3009
 5920SOL    HW229223   0.786   3.747   8.623  3.5148  1.2668  0.3849
 5921SOL     OW29224   0.682   4.705   7.686  0.2891  0.1263  0.2588
 5921SOL    HW129225   0.614   0.029   7.736 -0.4434 -0.0664 -0.5611
 5921SOL    HW229226   0.759   4.718   7.743  1.5308  0.5681 -1.5253
 5922SOL     OW29227   1.687   1.473   8.464 -0.2801  0.4762 -0.4883
 5922SOL    HW129228   1.770   1.436   8.435  0.4435  1.7810 -0.0774
 5922SOL    HW229229   1.631   1.453   8.390 -2.0922 -0.6534  1.1781
 5923SOL     OW29230   0.271   0.047   5.090  0.2824 -0.0006  0.2312
 5923SOL    HW129231   0.318   0.097   5.156 -0.4583  0.9211  0.0486
 5923SOL    HW229232   0.189   0.047   5.139 -1.3588 -1.2357 -2.4906
 5924SOL     OW29233   0.248   2.374   0.763  0.1943  0.4015 -0.2903
 5924SOL    HW129234   0.255   2.459   0.719  2.2823  0.0466 -0.6368
 5924SOL    HW229235   0.288   2.394   0.847 -0.1785 -1.1129  0.2479
 5925SOL     OW29236   1.845   0.953  10.837 -1.1697  0.1795 -0.5724
 5925SOL    HW129237   1.919   0.906  10.798 -0.9366 -0.8569  1.1383
 5925SOL    HW229238   1.800   0.876  10.872 -0.7978 -0.2675 -1.0562
 5926SOL     OW29239   0.072   3.118   4.823 -0.2781  0.8720  0.1386
 5926SOL    HW129240   0.033   3.138   4.908  0.0028  2.0500 -0.0099
 5926SOL    HW229241   0.089   3.024   4.831  0.0518  1.0320  1.2247
 5927SOL     OW29242   1.483   1.169   2.789 -0.3904  0.2819 -0.2821
 5927SOL    HW129243   1.545   1.102   2.817 -0.5575  0.6832  1.0335
 5927SOL    HW229244   1.415   1.110   2.757  1.0569 -1.6118  0.1953
 5928SOL     OW29245   3.683   2.873   4.906  0.2534  0.0072  0.2540
 5928SOL    HW129246   3.622   2.879   4.980  0.6409  0.4803  0.5328
 5928SOL    HW229247   3.627   2.909   4.837  1.5955  0.5275 -0.5581
 5929SOL     OW29248   3.803   3.714   7.210  0.4339  0.6636  0.1678
 5929SOL    HW129249   3.887   3.668   7.201  0.7224  0.7277  2.7135
 5929SOL    HW229250   3.796   3.781   7.142  2.8306  1.6183  0.8648
 5930SOL     OW29251   3.846   2.538   3.944 -0.1450  0.1950 -0.0040
 5930SOL    HW129252   3.899   2.617   3.936  2.0004 -1.2318  0.3031
 5930SOL    HW229253   3.780   2.540   3.874  2.0625 -0.5709 -2.1292
 5931SOL     OW29254   2.388   0.921   7.099 -0.2426  0.1614 -0.0102
 5931SOL    HW129255   2.377   0.954   7.188 -2.2785 -1.8800  0.4896
 5931SOL    HW229256   2.344   0.836   7.103  1.0587 -0.4175  1.8657
 5932SOL     OW29257   1.822   0.355  14.387 -0.0863  0.5148 -0.3538
 5932SOL    HW129258   1.792   0.424  14.446  1.0959  2.6251 -2.2031
 5932SOL    HW229259   1.896   0.316  14.434 -0.6043  1.1865  1.0360
 5933SOL     OW29260   1.124   4.690   4.149  0.3460  0.0714 -0.7895
 5933SOL    HW129261   1.143   4.613   4.201  0.1293 -0.2191 -1.1426
 5933SOL    HW229262   1.114   0.035   4.216 -2.1593 -0.7295 -0.3901
 5934SOL     OW29263   2.916   0.417  16.061  0.3319  0.2132 -0.1603
 5934SOL    HW129264   2.833   0.391  16.020 -0.0866  2.1910 -0.5674
 5934SOL    HW229265   2.900   0.373  16.144  1.0628  0.1592 -0.0458
 5935SOL     OW29266   2.526   2.210   5.628 -0.5991  0.0336 -0.0922
 5935SOL    HW129267   2.551   2.256   5.547 -2.4914 -0.8265 -1.1846
 5935SOL    HW229268   2.558   2.271   5.695 -0.5783 -0.4241  0.3075
 5936SOL     OW29269   1.247   1.037   1.847  0.2473  0.4262 -0.4295
 5936SOL    HW129270   1.179   0.971   1.830  0.9278 -0.9418  2.1218
 5936SOL    HW229271   1.303   1.018   1.772 -1.2538 -1.4395 -1.0878
 5937SOL     OW29272   0.235   2.050  17.106  0.3315 -0.5021 -0.2693
 5937SOL    HW129273   0.199   2.076  17.191 -0.1379 -0.1512 -0.5757
 5937SOL    HW229274   0.158   2.014  17.061  0.1631  0.0964 -0.4602
 5938SOL     OW29275   1.617   0.272   0.898  0.3446  0.3899 -0.7775
 5938SOL    HW129276   1.691   0.219   0.926 -1.5083 -1.5600  0.4035
 5938SOL    HW229277   1.585   0.226   0.820  0.4585 -1.6007  0.3443
 5939SOL     OW29278   0.336   3.739  12.127  0.0923  0.7108  0.0939
 5939SOL    HW129279   0.287   3.797  12.068  1.5272  1.0365 -0.7823
 5939SOL    HW229280   0.359   3.670  12.065  0.3356  0.6668  0.2331
 5940SOL     OW29281   3.202   3.117   8.071  0.7879  0.4844 -0.2638
 5940SOL    HW129282   3.160   3.040   8.032 -0.5629  0.9347  0.3262
 5940SOL    HW229283   3.292   3.085   8.077  1.0218  0.9956 -0.9969
 5941SOL     OW29284   0.574   0.691   8.133 -0.9719 -0.9580 -0.4548
 5941SOL    HW129285   0.528   0.733   8.060 -1.0971  0.6847  0.5767
 5941SOL    HW229286   0.549   0.758   8.196  1.7328  0.5428 -0.9624
 5942SOL     OW29287   3.195   3.368   7.348  0.5637  0.2341 -0.4097
 5942SOL    HW129288   3.283   3.344   7.316 -0.4137 -0.0603 -2.8764
 5942SOL    HW229289   3.139   3.311   7.296 -0.2633  0.7997 -0.1441
 5943SOL     OW29290   0.167   1.994  16.367 -0.3676  0.0901  0.1103
 5943SOL    HW129291   0.158   2.089  16.370  1.3368  0.1649  3.1560
 5943SOL    HW229292   0.260   1.972  16.360 -0.1539  1.0361 -0.0057
 5944SOL     OW29293   0.594   2.724  12.829 -0.1840  0.4810 -0.2761
 5944SOL    HW129294   0.673   2.777  12.818  0.1250  0.9019  4.3271
 5944SOL    HW229295   0.550   2.759  12.752 -1.2856  0.9926  0.5928
 5945SOL     OW29296   2.010   2.741   4.994 -0.5798 -0.0988  0.4971
 5945SOL    HW129297   1.950   2.751   4.920 -0.6274 -1.9027  0.3117
 5945SOL    HW229298   1.963   2.688   5.058 -0.9751 -2.4801 -1.7423
 5946SOL     OW29299   0.514   1.613   1.284  0.1331  0.4283 -0.1705
 5946SOL    HW129300   0.530   1.559   1.361  1.1448  0.9258 -0.0186
 5946SOL    HW229301   0.542   1.559   1.210  0.0209 -2.7309  2.0959
 5947SOL     OW29302   0.367   2.952   7.389 -0.1685 -0.0189 -0.3840
 5947SOL    HW129303   0.316   3.032   7.372  2.7895  2.0647  0.4627
 5947SOL    HW229304   0.375   2.968   7.483 -2.7423 -0.1386 -0.1380
 5948SOL     OW29305   1.920   2.434   8.146 -0.0795 -0.3254 -1.3416
 5948SOL    HW129306   1.906   2.528   8.131  0.8426 -0.4007 -2.7044
 5948SOL    HW229307   2.000   2.419   8.095  1.4023  1.6409  0.3967
 5949SOL     OW29308   3.314   2.648   5.853  0.1086  0.5986 -0.0809
 5949SOL    HW129309   3.378   2.618   5.918 -0.5836 -0.2326  0.2091
 5949SOL    HW229310   3.373   2.665   5.779  2.2246 -0.0595  1.4566
 5950SOL     OW29311   1.714   1.564   2.288 -0.7073  0.1323  0.5366
 5950SOL    HW129312   1.625   1.593   2.309 -0.1490  1.7002  0.7643
 5950SOL    HW229313   1.714   1.600   2.199 -0.1508  0.0444  0.5002
 5951SOL     OW29314   3.455   2.829  13.849 -0.1903 -0.3673 -0.5681
 5951SOL    HW129315   3.542   2.789  13.843  0.4844  1.2467 -1.4934
 5951SOL    HW229316   3.476   2.911  13.892 -2.0556 -0.0584 -0.2257
 5952SOL     OW29317   0.014   3.278   8.519 -0.7817  0.6075 -0.4364
 5952SOL    HW129318   0.096   3.324   8.540  1.3506 -2.7122 -1.5175
 5952SOL    HW229319   0.048   3.246   8.435 -1.4401  0.6764 -0.7332
 5953SOL     OW29320   2.510   0.141   5.416 -0.1221 -0.3398  0.2262
 5953SOL    HW129321   2.422   0.140   5.454 -0.5261  2.3941 -0.6052
 5953SOL    HW229322   2.563   0.078   5.465 -0.1473 -0.1928  0.4477
 5954SOL     OW29323   0.590   3.592   4.914  0.0635  0.7340 -0.0088
 5954SOL    HW129324   0.617   3.647   4.988  0.5964  0.9890 -0.3952
 5954SOL    HW229325   0.656   3.523   4.912 -0.4966  0.1554  1.1637
 5955SOL     OW29326   0.805   3.137   7.794 -0.4747  0.2812 -0.1052
 5955SOL    HW129327   0.844   3.101   7.874 -0.3965  0.7277  0.0584
 5955SOL    HW229328   0.778   3.064   7.738  1.3639  1.0769 -2.0350
 5956SOL     OW29329   0.159   3.221   7.086 -0.6445  0.1997 -0.4569
 5956SOL    HW129330   0.248   3.228   7.051 -0.4068 -0.7554 -0.0552
 5956SOL    HW229331   0.106   3.214   7.007 -1.6338  1.5109  0.0934
 5957SOL     OW29332   0.523   3.390  11.105  0.6047 -0.7943  0.0934
 5957SOL    HW129333   0.455   3.326  11.128  0.9091 -1.3829 -0.6376
 5957SOL    HW229334   0.556   3.406  11.193  0.1333  0.7236 -0.0132
 5958SOL     OW29335   0.770   2.200   6.609 -0.1785  0.4533  0.1600
 5958SOL    HW129336   0.783   2.291   6.637 -1.2995  0.9352 -0.8987
 5958SOL    HW229337   0.821   2.150   6.673 -0.4381  0.3741  0.3023
 5959SOL     OW29338   0.922   3.426  15.111 -0.2255  0.4949 -0.0929
 5959SOL    HW129339   1.017   3.419  15.123 -0.2619 -1.0300 -0.7638
 5959SOL    HW229340   0.891   3.377  15.187  2.4094  2.0154  1.9771
 5960SOL     OW29341   2.923   1.435   4.241  0.1593  0.0010 -0.0477
 5960SOL    HW129342   2.993   1.404   4.299  0.0003  0.8052  0.5758
 5960SOL    HW229343   2.843   1.406   4.285  0.4838  1.2515  1.3466
 5961SOL     OW29344   0.851   1.052   8.445 -0.1118  0.1537 -0.4459
 5961SOL    HW129345   0.904   1.077   8.521 -0.2915 -0.5980 -0.0755
 5961SOL    HW229346   0.827   0.965   8.476 -0.0433 -0.4860 -2.2117
 5962SOL     OW29347   3.928   2.067   8.798  0.2246 -0.3025 -0.4180
 5962SOL    HW129348   3.834   2.057   8.784  0.1660  0.9147 -0.8998
 5962SOL    HW229349   3.963   1.992   8.750 -0.8340 -0.0216 -1.6175
 5963SOL     OW29350   2.622   0.423   4.571  0.9217  0.1066 -0.2670
 5963SOL    HW129351   2.539   0.390   4.606  0.5252  0.3610 -0.9475
 5963SOL    HW229352   2.601   0.513   4.546 -2.9490 -0.8497 -0.4273
 5964SOL     OW29353   4.076   4.237   7.541 -0.0144 -0.7530 -0.8047
 5964SOL    HW129354   4.084   4.247   7.446 -1.7722 -2.1380 -1.0839
 5964SOL    HW229355   3.981   4.234   7.544 -0.0057  0.6038  0.4937
 5965SOL     OW29356   0.153   2.074   2.650  0.3190  0.5358  0.4018
 5965SOL    HW129357   0.226   2.015   2.634 -0.0163  0.5429 -1.1440
 5965SOL    HW229358   0.116   2.033   2.729  0.9118  1.1207  0.9837
 5966SOL     OW29359   1.624   0.039   7.150 -0.0775 -0.4587  0.2174
 5966SOL    HW129360   1.712   0.031   7.113 -0.4025 -0.4728 -0.5747
 5966SOL    HW229361   1.602   4.668   7.146  1.4908 -0.7932 -0.8772
 5967SOL     OW29362   2.484   2.711   4.787 -0.5242 -0.3186  0.0956
 5967SOL    HW129363   2.473   2.703   4.692 -0.0640  2.1891 -0.1710
 5967SOL    HW229364   2.435   2.631   4.805  0.3085 -0.2084  2.9019
 5968SOL     OW29365   3.577   2.022   5.591 -0.3912  0.3919 -0.2400
 5968SOL    HW129366   3.641   2.006   5.522 -0.0520 -2.4557  0.7023
 5968SOL    HW229367   3.498   2.029   5.538 -0.8034 -1.3898  0.1226
 5969SOL     OW29368   2.446   0.753   3.752 -0.3417 -0.3862 -0.2958
 5969SOL    HW129369   2.429   0.673   3.801  0.1493  0.1521  0.7646
 5969SOL    HW229370   2.514   0.733   3.688  0.7626  0.7560  0.5232
 5970SOL     OW29371   4.438   2.194  16.661  0.3759 -0.2472  0.1427
 5970SOL    HW129372   4.482   2.141  16.595  2.0449  0.0072  1.0527
 5970SOL    HW229373   4.502   2.168  16.727  0.0937  1.5926  1.1513
 5971SOL     OW29374   0.418   0.040   6.421 -0.0740  0.0740  0.3849
 5971SOL    HW129375   0.431   0.064   6.513  3.1499  1.4722 -0.4419
 5971SOL    HW229376   0.406   0.127   6.384  0.2819  0.1495  0.4450
 5972SOL     OW29377   3.348   1.532   7.217 -0.4458  0.6619 -0.4286
 5972SOL    HW129378   3.326   1.560   7.305  0.0755  0.2872 -0.1825
 5972SOL    HW229379   3.422   1.474   7.234 -0.5703  0.4512 -0.5999
 5973SOL     OW29380   4.711   1.702   4.853 -0.3249 -0.1495  0.8839
 5973SOL    HW129381   4.621   1.733   4.847 -1.3381 -2.9843  1.2416
 5973SOL    HW229382   0.027   1.760   4.919  0.5724 -0.3628  0.5609
 5974SOL     OW29383   3.001   2.744   3.243  0.0453 -0.4123 -0.4139
 5974SOL    HW129384   3.054   2.669   3.269  1.7772  1.1981  0.6876
 5974SOL    HW229385   3.015   2.762   3.150 -1.3477  0.6365 -0.4124
 5975SOL     OW29386   2.099   1.806  10.761  0.2190 -0.4500  0.5724
 5975SOL    HW129387   2.095   1.831  10.669  1.9857 -0.4658  0.4960
 5975SOL    HW229388   2.172   1.745  10.762  0.9749  0.4343 -0.3923
 5976SOL     OW29389   1.595   2.979   8.074 -0.0833  0.0799  0.0441
 5976SOL    HW129390   1.675   2.994   8.124  0.2170  0.2535 -0.4864
 5976SOL    HW229391   1.594   3.051   8.011  0.6278 -0.7367 -0.8908
 5977SOL     OW29392   1.788   4.518  14.449  0.5149  0.0472 -0.1047
 5977SOL    HW129393   1.781   4.605  14.410  1.6702 -0.7003 -1.9665
 5977SOL    HW229394   1.700   4.483  14.436  0.5340 -0.7233  1.8553
 5978SOL     OW29395   3.887   2.485   2.665 -0.1491 -0.1907  0.2965
 5978SOL    HW129396   3.865   2.392   2.660  0.5752 -0.3722  0.4232
 5978SOL    HW229397   3.880   2.503   2.758 -1.1085 -1.1564  0.4137
 5979SOL     OW29398   3.394   2.440   4.839  0.5351 -0.2103  0.3141
 5979SOL    HW129399   3.371   2.532   4.856  4.3589  0.5439  1.3421
 5979SOL    HW229400   3.362   2.408   4.924 -1.4034 -1.3518 -0.8378
 5980SOL     OW29401   2.661   0.185   8.232  0.3139 -0.2327 -0.8819
 5980SOL    HW129402   2.601   0.132   8.285 -1.9300  0.9629 -2.1922
 5980SOL    HW229403   2.668   0.125   8.158 -5.6551 -0.0997 -1.5951
 5981SOL     OW29404   2.618   2.973  15.124 -0.3709 -0.0248 -0.1466
 5981SOL    HW129405   2.599   3.064  15.103 -1.3153 -0.0403  0.6303
 5981SOL    HW229406   2.709   2.957  15.098 -0.4046 -0.3307 -0.0834
 5982SOL     OW29407   1.279   1.272  10.987  0.0208  0.0850  0.5089
 5982SOL    HW129408   1.207   1.222  11.025 -0.8254  0.5350 -0.5156
 5982SOL    HW229409   1.247   1.303  10.902  1.0350  1.0033  0.4632
 5983SOL     OW29410   3.754   0.846   4.916 -0.0653  0.1036 -0.3666
 5983SOL    HW129411   3.659   0.850   4.928  0.1996  0.4931  1.4623
 5983SOL    HW229412   3.771   0.937   4.940  1.2790 -0.6984  1.6766
 5984SOL     OW29413   1.434   1.773  11.162  0.1378 -0.1402  0.5042
 5984SOL    HW129414   1.527   1.791  11.176  0.1540  0.3839 -0.2642
 5984SOL    HW229415   1.402   1.807  11.245 -0.1628 -0.0426  0.3477
 5985SOL     OW29416   4.290   2.464   6.364  0.2696 -0.0017  0.4545
 5985SOL    HW129417   4.353   2.493   6.429 -1.4230  2.3038  1.0613
 5985SOL    HW229418   4.229   2.413   6.416 -0.6537 -0.9787 -1.5627
 5986SOL     OW29419   2.205   1.278   8.499 -0.2703  0.5710  0.4600
 5986SOL    HW129420   2.260   1.329   8.439  0.9708  0.5492  1.5656
 5986SOL    HW229421   2.256   1.283   8.580 -0.2357 -0.2865  0.4906
 5987SOL     OW29422   4.704   2.322   9.777  0.0271  0.2068  0.2892
 5987SOL    HW129423   4.665   2.292   9.695  1.5635  1.6382 -0.9727
 5987SOL    HW229424   0.002   2.412   9.751 -1.4833  0.3942 -0.1642
 5988SOL     OW29425   0.672   1.472  17.417  0.8657  0.6477  0.0516
 5988SOL    HW129426   0.630   1.476  17.331 -0.3006 -1.1138  0.5513
 5988SOL    HW229427   0.704   1.561  17.425  1.8987  0.6090 -3.3317
 5989SOL     OW29428   3.847   2.373   8.506  0.6233 -0.4226 -0.0873
 5989SOL    HW129429   3.911   2.390   8.437  0.5873 -0.4734 -0.1331
 5989SOL    HW229430   3.829   2.463   8.532 -1.6821 -0.4101 -1.7517
 5990SOL     OW29431   1.171   0.655   4.615 -0.0849  0.3432  0.1084
 5990SOL    HW129432   1.246   0.684   4.667  0.2202  0.6509 -0.5022
 5990SOL    HW229433   1.155   0.725   4.551 -1.3082  0.7081  0.8187
 5991SOL     OW29434   2.896   1.010   4.121 -0.5513  0.1698  0.3759
 5991SOL    HW129435   2.955   1.083   4.142  0.5413  0.1103 -2.5822
 5991SOL    HW229436   2.908   0.946   4.192 -1.6232 -2.7692 -2.0893
 5992SOL     OW29437   2.404   1.964   4.477 -0.2099 -0.3430  0.3850
 5992SOL    HW129438   2.462   1.917   4.537 -0.4896 -1.9174 -0.5774
 5992SOL    HW229439   2.417   2.059   4.487 -0.4691 -0.1600 -0.9688
 5993SOL     OW29440   2.175   2.937   6.778  0.2835 -0.1647 -0.3693
 5993SOL    HW129441   2.205   3.015   6.731  1.1041 -0.3116 -0.0831
 5993SOL    HW229442   2.104   2.968   6.834 -0.7519  0.3164 -1.9346
 5994SOL     OW29443   0.887   3.853   3.791 -0.0112  0.3413  0.2084
 5994SOL    HW129444   0.851   3.869   3.879 -0.9374 -0.8781  0.0515
 5994SOL    HW229445   0.932   3.772   3.814  1.0264  0.5576 -1.0800
 5995SOL     OW29446   0.636   4.654   3.346  0.0257  0.0855 -0.3752
 5995SOL    HW129447   0.568   4.714   3.377  0.3295 -0.0208  0.5008
 5995SOL    HW229448   0.718   4.703   3.355 -0.0527 -0.6308  4.5386
 5996SOL     OW29449   1.118   0.292   3.323  0.3825 -0.4532  0.2122
 5996SOL    HW129450   1.032   0.249   3.333 -0.8938  1.5791 -2.1091
 5996SOL    HW229451   1.166   0.249   3.253  2.4739  2.1787  0.0537
 5997SOL     OW29452   1.703   2.581   6.710  0.0954 -0.2279 -0.3578
 5997SOL    HW129453   1.632   2.594   6.647  0.7450  1.6182 -0.7001
 5997SOL    HW229454   1.740   2.499   6.679 -0.4862 -0.4525 -0.4513
 5998SOL     OW29455   2.041   3.542   1.616 -0.0300  0.5659  0.1432
 5998SOL    HW129456   1.949   3.531   1.596  0.2078  0.6165 -0.9739
 5998SOL    HW229457   2.038   3.638   1.616 -2.1522  0.4797 -2.5312
 5999SOL     OW29458   0.729   1.213   8.774 -0.2287  0.5521 -0.5304
 5999SOL    HW129459   0.774   1.293   8.803  0.2429 -0.1297  0.6065
 5999SOL    HW229460   0.801   1.153   8.755 -0.5580  0.2718 -0.9034
 6000SOL     OW29461   2.257   3.645   7.820  0.0596 -0.1217 -0.3903
 6000SOL    HW129462   2.214   3.643   7.735 -0.9818  1.8168  0.0853
 6000SOL    HW229463   2.178   3.627   7.872  1.8486 -0.5745  2.1977
 6001SOL     OW29464   2.070   1.595   3.641 -0.0181  0.2987 -0.0904
 6001SOL    HW129465   2.092   1.597   3.735 -2.2363 -0.3387  0.4428
 6001SOL    HW229466   2.151   1.615   3.594 -1.4271  2.0866 -1.7274
 6002SOL     OW29467   1.117   1.130  13.085 -0.5343  0.1323  0.3686
 6002SOL    HW129468   1.196   1.160  13.040 -1.0157  1.5447  0.4373
 6002SOL    HW229469   1.051   1.196  13.061  0.2529  0.2459 -1.5019
 6003SOL     OW29470   2.902   3.755   4.228  0.0318 -0.1865  0.1637
 6003SOL    HW129471   2.834   3.789   4.287 -3.8890 -0.1277 -4.4126
 6003SOL    HW229472   2.960   3.830   4.243 -1.3542  0.6855  1.2526
 6004SOL     OW29473   0.304   4.372   3.175  0.2138 -0.4845  0.0902
 6004SOL    HW129474   0.313   4.277   3.166  1.0465 -0.3400 -0.7046
 6004SOL    HW229475   0.221   4.391   3.132  0.7471 -0.7064 -1.0581
 6005SOL     OW29476   1.049   1.091   2.730  0.0019 -1.1701 -0.4669
 6005SOL    HW129477   1.006   1.035   2.795 -1.0006  1.8153  1.4636
 6005SOL    HW229478   1.137   1.054   2.727  0.9592  0.9817  0.3317
 6006SOL     OW29479   2.135   3.402   6.053  0.5954 -0.6964  0.0823
 6006SOL    HW129480   2.153   3.362   6.138 -1.8076 -0.8018  0.5605
 6006SOL    HW229481   2.205   3.467   6.052 -1.0431  1.0431 -2.0798
 6007SOL     OW29482   0.073   4.291   4.893  0.4492 -0.4081 -0.1893
 6007SOL    HW129483   0.125   4.345   4.952  0.7812  1.0379 -1.7964
 6007SOL    HW229484   0.014   4.262   4.963  1.5931 -0.4316  0.7576
 6008SOL     OW29485   2.720   0.359   2.285 -0.3615 -0.1523  0.2621
 6008SOL    HW129486   2.714   0.264   2.272 -1.2260 -0.2486  1.4091
 6008SOL    HW229487   2.784   0.371   2.214 -0.4530  0.0397  0.2116
 6009SOL     OW29488   3.703   0.381   7.196  0.4505 -0.1940  0.5858
 6009SOL    HW129489   3.638   0.444   7.228  0.2871 -0.3635  0.5886
 6009SOL    HW229490   3.746   0.343   7.272  1.1432 -1.0790 -0.2589
 6010SOL     OW29491   2.840   3.868   4.607 -0.0964 -0.6673 -0.5545
 6010SOL    HW129492   2.793   3.799   4.654 -0.6763 -0.8088 -1.3385
 6010SOL    HW229493   2.781   3.882   4.533 -0.3368 -1.1223 -0.4535
 6011SOL     OW29494   3.097   2.266   3.580 -0.1428  0.1665  0.5436
 6011SOL    HW129495   3.019   2.283   3.527  2.1232  1.2392 -2.4699
 6011SOL    HW229496   3.074   2.175   3.599  0.7355  0.2862  2.1581
 6012SOL     OW29497   2.214   3.985   3.233  0.1889 -0.0458 -0.1272
 6012SOL    HW129498   2.220   4.041   3.155 -2.8871  0.9949  0.3646
 6012SOL    HW229499   2.269   3.908   3.220 -0.1685 -0.4481  0.7622
 6013SOL     OW29500   0.015   3.315   0.334  0.2964  0.2282  0.7890
 6013SOL    HW129501   0.074   3.374   0.288  0.0395  0.1499  0.3645
 6013SOL    HW229502   0.074   3.281   0.401  2.0888 -1.3560 -1.6281
 6014SOL     OW29503   0.642   3.337   5.457 -0.2627  0.2248  0.5621
 6014SOL    HW129504   0.583   3.271   5.491  0.3690 -0.8271 -0.3808
 6014SOL    HW229505   0.582   3.411   5.445 -1.2335 -0.1807  2.8835
 6015SOL     OW29506   0.466   4.097   7.857 -0.8752 -0.5278  0.2377
 6015SOL    HW129507   0.490   4.075   7.947  1.8004  0.9576 -0.1108
 6015SOL    HW229508   0.372   4.088   7.872 -1.2082  0.3697 -1.3600
 6016SOL     OW29509   0.388   1.851   3.848  0.0731  0.2855  0.3587
 6016SOL    HW129510   0.429   1.937   3.842 -0.6671  0.6180  0.0352
 6016SOL    HW229511   0.342   1.848   3.763 -1.1573  0.1548  1.0306
 6017SOL     OW29512   2.224   1.253   7.379 -0.0277 -0.1584 -0.0486
 6017SOL    HW129513   2.238   1.320   7.445  1.9846  0.1633 -0.8068
 6017SOL    HW229514   2.267   1.175   7.414  1.0195  0.6563  0.4348
 6018SOL     OW29515   2.391   2.508   9.785 -0.2838  0.5391 -0.4914
 6018SOL    HW129516   2.462   2.487   9.846  1.8481  0.4905 -3.0440
 6018SOL    HW229517   2.444   2.529   9.709  1.9035  2.2625  1.4999
 6019SOL     OW29518   1.554   1.928  16.189 -0.3153  0.0455 -0.4061
 6019SOL    HW129519   1.550   1.937  16.284  1.5141  1.6725 -0.5013
 6019SOL    HW229520   1.508   2.008  16.163 -0.8217 -0.5543 -1.3750
 6020SOL     OW29521   0.818   3.519   3.576  0.1348  0.1387 -0.1883
 6020SOL    HW129522   0.758   3.467   3.630 -0.5069 -0.1602 -1.1870
 6020SOL    HW229523   0.788   3.609   3.578 -1.0840 -0.2224 -2.9740
 6021SOL     OW29524   3.848   2.329   9.567 -0.3344 -0.1353 -0.3143
 6021SOL    HW129525   3.807   2.359   9.486  0.1903  0.0360 -0.5137
 6021SOL    HW229526   3.778   2.340   9.631 -0.4818 -1.5280 -0.2308
 6022SOL     OW29527   4.339   3.076  14.591  0.0169  0.0846  0.2422
 6022SOL    HW129528   4.329   3.115  14.678 -1.8451 -1.4611  0.7330
 6022SOL    HW229529   4.274   3.006  14.590  0.8326 -0.6206 -1.9152
 6023SOL     OW29530   1.622   3.322   5.313  0.0937 -0.4003  0.9829
 6023SOL    HW129531   1.663   3.407   5.295 -0.5273 -0.3814 -0.3259
 6023SOL    HW229532   1.682   3.297   5.383  0.8326  0.6120  0.7286
 6024SOL     OW29533   1.400   0.236   4.206 -0.2015 -0.6294  0.1588
 6024SOL    HW129534   1.393   0.178   4.131  0.9058 -1.2560  0.5464
 6024SOL    HW229535   1.346   0.202   4.277 -0.0941  1.2349  1.1365
 6025SOL     OW29536   3.729   0.352   2.453  0.1840 -0.3644 -0.3883
 6025SOL    HW129537   3.666   0.418   2.423  0.3328  0.4032  0.9712
 6025SOL    HW229538   3.680   0.274   2.428 -1.1097  0.6223 -0.9165
 6026SOL     OW29539   0.504   1.695  13.571 -0.0651 -0.1919 -0.5481
 6026SOL    HW129540   0.528   1.676  13.661 -0.6923  0.5191 -0.2331
 6026SOL    HW229541   0.574   1.644  13.530  0.0078 -1.2675  0.9476
 6027SOL     OW29542   1.036   3.492  15.789 -0.0652 -0.5463 -0.0761
 6027SOL    HW129543   1.024   3.484  15.694 -0.8802 -0.8240  0.0512
 6027SOL    HW229544   1.100   3.424  15.807  0.3386  0.3839  1.9056
 6028SOL     OW29545   2.933   1.123   2.385  0.5815 -0.1013 -0.7452
 6028SOL    HW129546   2.979   1.126   2.302 -0.0934 -1.3828 -1.1598
 6028SOL    HW229547   2.858   1.068   2.363  1.1742 -1.4962  0.7429
 6029SOL     OW29548   2.084   3.323   5.816 -0.1998 -0.5662  0.4965
 6029SOL    HW129549   2.107   3.333   5.908  1.2088 -1.0933  0.2029
 6029SOL    HW229550   2.012   3.259   5.819  3.5697 -4.7096  3.0900
 6030SOL     OW29551   1.097   0.141   4.412  0.0613  0.1688 -0.6843
 6030SOL    HW129552   1.118   0.228   4.445  0.4699  0.2691 -1.2153
 6030SOL    HW229553   1.089   0.099   4.498  1.5215  1.3584  0.0208
 6031SOL     OW29554   4.165   0.609  16.265 -0.1028  0.2247  0.5940
 6031SOL    HW129555   4.222   0.667  16.316  0.2912  0.1953  0.1815
 6031SOL    HW229556   4.079   0.633  16.299 -0.4465  1.4570 -1.2023
 6032SOL     OW29557   1.789   3.231   9.511  0.7821 -0.1305  0.2562
 6032SOL    HW129558   1.702   3.262   9.536 -0.1526 -2.6038  0.0247
 6032SOL    HW229559   1.775   3.140   9.483 -1.4344  0.3827 -0.2937
 6033SOL     OW29560   2.155   0.688   7.652  0.2180  0.0396  0.0247
 6033SOL    HW129561   2.241   0.664   7.687  0.4198 -0.1536 -0.6036
 6033SOL    HW229562   2.086   0.666   7.715 -0.0245 -1.2910 -0.7017
 6034SOL     OW29563   0.535   3.905   7.170 -0.3353 -0.1052  0.0521
 6034SOL    HW129564   0.501   3.905   7.260  1.9942  0.2191  0.9304
 6034SOL    HW229565   0.472   3.854   7.121 -0.0480 -2.8490  2.5255
 6035SOL     OW29566   0.710   4.231   9.670  0.7262 -0.4117  0.5607
 6035SOL    HW129567   0.643   4.274   9.618  1.5384 -2.4948 -2.2278
 6035SOL    HW229568   0.744   4.297   9.730 -3.4984  0.4697  1.9197
 6036SOL     OW29569   3.035   2.049   3.318  0.8908  0.3997 -0.3750
 6036SOL    HW129570   2.944   2.080   3.314  0.9183  0.4768 -0.4018
 6036SOL    HW229571   3.034   2.003   3.403  0.3427  0.0528 -0.5667
 6037SOL     OW29572   2.375   3.701   6.935  0.1317  0.3148  0.0989
 6037SOL    HW129573   2.390   3.651   7.015 -3.1073  0.5364  0.8683
 6037SOL    HW229574   2.297   3.746   6.968  0.3181  1.0577 -0.4794
 6038SOL     OW29575   1.682   1.504   1.241  0.5677  0.0783 -0.2379
 6038SOL    HW129576   1.671   1.408   1.244  0.1434  0.1146 -0.6184
 6038SOL    HW229577   1.771   1.508   1.276  0.3535 -0.8722  0.4321
 6039SOL     OW29578   3.601   0.778  12.212 -0.0310 -0.7310 -0.2621
 6039SOL    HW129579   3.518   0.765  12.258  1.1814 -2.3658  1.4716
 6039SOL    HW229580   3.614   0.686  12.192  1.8858 -0.4285 -0.3533
 6040SOL     OW29581   3.384   4.156   5.389 -0.7076 -0.0363 -0.1349
 6040SOL    HW129582   3.419   4.162   5.300  2.7777 -0.6668  1.1892
 6040SOL    HW229583   3.340   4.073   5.375 -3.4506  1.3610  0.2500
 6041SOL     OW29584   3.661   0.617   2.303 -0.3322 -0.1483  0.4514
 6041SOL    HW129585   3.595   0.636   2.370 -0.4285 -0.9255  0.5793
 6041SOL    HW229586   3.719   0.693   2.306 -0.3241 -0.2092  1.8732
 6042SOL     OW29587   1.239   4.288   8.638  0.0409  0.2448  0.3863
 6042SOL    HW129588   1.273   4.204   8.669 -2.8501 -0.6095  1.2474
 6042SOL    HW229589   1.161   4.263   8.588 -0.4187 -0.4798  1.4755
 6043SOL     OW29590   1.125   0.294   2.314  0.2030  0.0632 -0.2295
 6043SOL    HW129591   1.108   0.274   2.406 -2.0892 -0.6861 -0.8279
 6043SOL    HW229592   1.051   0.247   2.276  0.2604 -1.2801  1.3013
 6044SOL     OW29593   0.097   1.821  14.859 -0.1228  0.1830 -0.1407
 6044SOL    HW129594   0.024   1.826  14.920 -0.2084  1.8656 -0.3744
 6044SOL    HW229595   0.052   1.796  14.778 -0.2880 -1.7267  0.5475
 6045SOL     OW29596   2.094   2.010   4.867  0.2026  0.1961  0.3134
 6045SOL    HW129597   2.063   1.958   4.794 -0.7420 -0.0797  0.9076
 6045SOL    HW229598   2.020   1.990   4.926 -1.3297  0.5885 -1.4659
 6046SOL     OW29599   1.075   3.845  11.317 -0.3863  0.8488  0.0798
 6046SOL    HW129600   1.160   3.801  11.314 -0.9498 -0.0273 -2.7980
 6046SOL    HW229601   1.039   3.816  11.401 -2.6800  2.5752 -0.3039
 6047SOL     OW29602   4.640   1.096   7.525  0.6131  0.7998 -0.1738
 6047SOL    HW129603   4.592   1.175   7.546 -1.1665 -0.6342  1.1466
 6047SOL    HW229604   4.571   1.043   7.485  0.8379 -0.3319  0.9380
 6048SOL     OW29605   0.573   3.005  12.966 -0.3055 -0.4602  0.3235
 6048SOL    HW129606   0.649   3.036  13.016  0.6024 -0.8434 -0.8199
 6048SOL    HW229607   0.613   2.974  12.885 -0.3071  0.0025  0.1457
 6049SOL     OW29608   1.677   2.672   1.366  0.3301 -0.4230 -0.0351
 6049SOL    HW129609   1.758   2.622   1.358 -0.1315 -1.2732  0.5775
 6049SOL    HW229610   1.701   2.715   1.448  0.9214  1.4624 -1.1924
 6050SOL     OW29611   3.286   4.374   2.030 -0.3097  0.4420 -0.0803
 6050SOL    HW129612   3.315   4.451   1.981 -0.8283  1.3962  1.1144
 6050SOL    HW229613   3.211   4.348   1.977 -0.2419 -0.0582  0.0709
 6051SOL     OW29614   3.085   4.341   3.230 -0.5239  0.0612 -0.2562
 6051SOL    HW129615   3.157   4.373   3.285 -0.9356 -0.2570  0.4571
 6051SOL    HW229616   3.116   4.251   3.226  2.7877  1.1124  1.0631
 6052SOL     OW29617   0.818   3.113   4.706  0.5380 -0.0981  0.1530
 6052SOL    HW129618   0.789   3.047   4.643 -0.8024 -0.4268  1.1239
 6052SOL    HW229619   0.912   3.117   4.686  0.2672 -0.2066 -1.1056
 6053SOL     OW29620   4.090   3.472  11.607  0.1148  0.3083 -0.2760
 6053SOL    HW129621   4.019   3.507  11.554 -2.1678 -3.0156  0.6092
 6053SOL    HW229622   4.049   3.395  11.646  0.2256  1.2885  1.8093
 6054SOL     OW29623   4.271   4.693   2.269  0.4635 -0.4660 -0.7470
 6054SOL    HW129624   4.228   4.607   2.261 -0.4315 -0.0865 -0.0295
 6054SOL    HW229625   4.268   4.704   2.364  1.2425 -1.2529 -0.6308
 6055SOL     OW29626   3.503   0.712   5.716  0.2011  0.4678  0.0402
 6055SOL    HW129627   3.579   0.745   5.764  1.3398 -1.3492 -0.5085
 6055SOL    HW229628   3.515   0.735   5.624 -0.3726 -0.1701 -0.1937
 6056SOL     OW29629   4.546   2.813  15.200 -0.2122 -0.0477  0.1956
 6056SOL    HW129630   4.578   2.805  15.290 -1.2583  0.1107  0.5834
 6056SOL    HW229631   4.508   2.728  15.181  2.2146 -0.9172 -0.6698
 6057SOL     OW29632   2.471   2.149   9.880 -0.2509 -0.0272  0.5222
 6057SOL    HW129633   2.508   2.072   9.924 -0.7951 -0.7592 -0.3029
 6057SOL    HW229634   2.455   2.202   9.958  0.7798  1.1501 -0.0647
 6058SOL     OW29635   4.353   1.283   4.210  0.4524 -0.1353  0.4871
 6058SOL    HW129636   4.424   1.298   4.148 -1.0405 -1.2632 -1.5046
 6058SOL    HW229637   4.314   1.370   4.220  1.0028  0.1183  0.4044
 6059SOL     OW29638   0.457   1.095   3.310  0.4867 -0.3003 -0.4470
 6059SOL    HW129639   0.488   1.028   3.371  0.0416 -0.3944 -0.3236
 6059SOL    HW229640   0.536   1.147   3.298  0.3735  0.5237  2.2945
 6060SOL     OW29641   1.241   2.019   5.608  0.5947 -0.5968  0.6010
 6060SOL    HW129642   1.336   2.026   5.604  0.4012  1.8146  0.4074
 6060SOL    HW229643   1.218   1.941   5.658  1.9741  0.4305  2.8457
 6061SOL     OW29644   0.987   4.339   7.407 -0.0572 -0.0014 -0.3378
 6061SOL    HW129645   0.996   4.370   7.317  0.5086  0.5457 -0.0965
 6061SOL    HW229646   0.961   4.423   7.445 -0.6152 -0.1019 -0.4996
 6062SOL     OW29647   0.017   2.031  16.002 -0.1738  0.1873  0.6526
 6062SOL    HW129648   0.089   1.978  15.968  1.0461  0.6825  2.4971
 6062SOL    HW229649   0.028   2.117  15.961  0.1083 -0.4897 -0.6829
 6063SOL     OW29650   2.534   4.604   0.712  0.0783 -0.1896 -0.0879
 6063SOL    HW129651   2.614   4.567   0.748 -0.0649 -0.0293  0.3859
 6063SOL    HW229652   2.553   4.689   0.672 -0.8730  0.0836  0.0243
 6064SOL     OW29653   2.159   0.458  13.624 -0.3324 -0.2668  0.1220
 6064SOL    HW129654   2.131   0.527  13.684  1.7185  1.0136 -0.3719
 6064SOL    HW229655   2.104   0.381  13.635 -0.2894 -0.0003  2.0841
 6065SOL     OW29656   4.315   2.714   2.827  0.2952 -0.1845 -0.3368
 6065SOL    HW129657   4.380   2.654   2.864  3.0209  3.2417  0.5113
 6065SOL    HW229658   4.232   2.675   2.853 -0.6409  2.0157  0.0004
 6066SOL     OW29659   4.327   0.684   1.943 -0.5158 -0.7632 -0.7012
 6066SOL    HW129660   4.354   0.670   1.852  0.0235 -1.8873 -0.3757
 6066SOL    HW229661   4.392   0.637   1.995  0.4263 -1.2783 -2.3492
 6067SOL     OW29662   1.023   4.426   5.542  0.3089 -0.0952 -0.0893
 6067SOL    HW129663   1.043   4.468   5.459  2.1078  3.5655  2.2360
 6067SOL    HW229664   1.059   4.341   5.515 -0.4799 -0.4466 -0.0376
 6068SOL     OW29665   3.137   4.214   9.645 -0.5228  0.1382 -0.5486
 6068SOL    HW129666   3.084   4.156   9.590  0.3902 -1.7633  0.5968
 6068SOL    HW229667   3.115   4.185   9.733 -1.2723  0.7237 -0.5382
 6069SOL     OW29668   1.797   4.646  15.160 -0.1869 -0.2253 -0.3117
 6069SOL    HW129669   1.833   4.597  15.086  0.1566 -2.1250  1.1069
 6069SOL    HW229670   1.810   4.578  15.226 -1.0013 -0.7353 -0.6876
 6070SOL     OW29671   3.244   0.059   6.056  0.6209  0.1185 -0.3081
 6070SOL    HW129672   3.199   0.086   6.136  2.4021  1.4776  0.2251
 6070SOL    HW229673   3.214   4.691   6.068  2.3368 -0.3203  0.6326
 6071SOL     OW29674   4.677   4.123   1.451  0.1176  0.5472  0.6009
 6071SOL    HW129675   4.611   4.054   1.464  0.6877  0.0509  0.8900
 6071SOL    HW229676   0.040   4.079   1.447  0.0394  0.5456 -1.0455
 6072SOL     OW29677   1.222   3.135   7.147 -0.2980  0.2065  0.2680
 6072SOL    HW129678   1.300   3.125   7.202  0.0008  0.6992 -0.0654
 6072SOL    HW229679   1.179   3.211   7.187  3.8758  3.0356 -0.5934
 6073SOL     OW29680   4.708   4.209   8.184  0.2521 -0.5013 -0.1183
 6073SOL    HW129681   4.712   4.271   8.256  0.4444 -1.6206  0.8483
 6073SOL    HW229682   0.006   4.133   8.239 -0.7453 -2.3357 -2.2587
 6074SOL     OW29683   0.496   4.540  12.475 -0.0699  0.2761  0.0156
 6074SOL    HW129684   0.436   4.590  12.419  0.3109  0.3666 -0.3104
 6074SOL    HW229685   0.441   4.497  12.541 -1.3397  1.2932 -0.3718
 6075SOL     OW29686   2.424   0.666   4.225  0.2614 -0.1540 -0.7049
 6075SOL    HW129687   2.518   0.663   4.243 -0.4285 -1.8126  2.5244
 6075SOL    HW229688   2.413   0.579   4.188  3.2295 -1.4775  1.5665
 6076SOL     OW29689   2.284   3.888  11.756  0.4976  0.0257  0.5739
 6076SOL    HW129690   2.284   3.983  11.749  2.0054 -0.1471 -1.8084
 6076SOL    HW229691   2.285   3.879  11.852  3.8682  0.9018  0.6058
 6077SOL     OW29692   2.694   1.079   9.132  0.5355 -0.0814 -0.2188
 6077SOL    HW129693   2.649   1.053   9.052  0.1533  0.7015 -0.2509
 6077SOL    HW229694   2.623   1.131   9.169  0.5090  0.1881 -0.6506
 6078SOL     OW29695   0.198   1.665  12.147 -0.1212  0.2858 -0.1270
 6078SOL    HW129696   0.286   1.653  12.112 -0.5900 -0.0076 -1.1837
 6078SOL    HW229697   0.218   1.647  12.239  0.9664  0.3699 -0.3474
 6079SOL     OW29698   0.731   0.066   5.445  0.0854  0.2721 -0.3624
 6079SOL    HW129699   0.759   0.157   5.444  0.0042  0.2983 -0.2626
 6079SOL    HW229700   0.794   0.040   5.378 -0.3780  2.7751 -1.7658
 6080SOL     OW29701   4.605   1.845   3.293 -0.3048  0.3123  0.4481
 6080SOL    HW129702   4.515   1.860   3.322 -0.2101 -3.1806  2.5224
 6080SOL    HW229703   4.627   1.764   3.340 -0.0903 -0.1577 -0.4518
 6081SOL     OW29704   1.466   0.805   2.216 -0.5902  0.5075 -0.6084
 6081SOL    HW129705   1.505   0.720   2.195 -0.3590  0.4587  0.0106
 6081SOL    HW229706   1.376   0.803   2.183 -1.2860 -0.1264  1.3547
 6082SOL     OW29707   3.397   4.357   0.408  0.2778 -0.0525  0.2740
 6082SOL    HW129708   3.462   4.368   0.338  0.4508  0.1936  0.4749
 6082SOL    HW229709   3.448   4.374   0.487  0.3566  0.0658  0.1969
 6083SOL     OW29710   2.579   3.421   6.107  0.3553  1.1587  0.0672
 6083SOL    HW129711   2.535   3.336   6.105 -1.8018  2.2724 -1.1482
 6083SOL    HW229712   2.658   3.401   6.056  0.3228  1.5043 -0.1239
 6084SOL     OW29713   1.098   3.160   0.910 -0.0669  0.3966 -0.0933
 6084SOL    HW129714   1.007   3.150   0.938  0.2617  2.1042  1.5114
 6084SOL    HW229715   1.088   3.212   0.831 -0.9197  3.6574  2.1735
 6085SOL     OW29716   0.156   1.440   4.824  0.3412 -0.3864  0.5009
 6085SOL    HW129717   0.091   1.370   4.826  0.0522 -0.1412 -0.2686
 6085SOL    HW229718   0.104   1.521   4.830 -0.0360 -0.4643 -1.5754
 6086SOL     OW29719   2.525   1.136  13.123 -0.4448 -0.1602 -0.5092
 6086SOL    HW129720   2.433   1.117  13.141  0.0709 -3.1020 -1.0096
 6086SOL    HW229721   2.551   1.080  13.049  0.1988 -1.6197  0.8318
 6087SOL     OW29722   2.655   3.779   5.831 -0.0530 -0.5546  0.1604
 6087SOL    HW129723   2.739   3.742   5.858  1.0482  2.4181  0.7659
 6087SOL    HW229724   2.685   3.839   5.764  1.5105  1.8879  3.0333
 6088SOL     OW29725   1.883   3.367  10.475 -0.3989  0.4707  0.2700
 6088SOL    HW129726   1.874   3.273  10.462  1.3228  0.5189 -1.1639
 6088SOL    HW229727   1.798   3.399  10.445 -1.1202 -0.3364  1.4532
 6089SOL     OW29728   3.478   2.689  16.022 -0.1486  0.1776 -0.1433
 6089SOL    HW129729   3.498   2.711  15.931 -2.2795 -2.9933 -1.3756
 6089SOL    HW229730   3.455   2.597  16.013  1.0839 -0.1982  0.5381
 6090SOL     OW29731   4.661   4.390   1.530 -0.0504  0.7727  0.1397
 6090SOL    HW129732   4.676   4.297   1.513 -2.5234 -0.5959  5.7072
 6090SOL    HW229733   4.638   4.425   1.443 -0.5834  1.4447  0.5491
 6091SOL     OW29734   1.809   3.729   8.642 -0.0967 -0.1288  0.1394
 6091SOL    HW129735   1.725   3.689   8.668 -1.2153  2.8631  1.0554
 6091SOL    HW229736   1.770   3.783   8.573  0.2906 -0.8719 -0.6798
 6092SOL     OW29737   0.196   0.794   8.040 -0.0495  0.5534  0.2961
 6092SOL    HW129738   0.110   0.834   8.052 -1.4298 -2.0538 -0.8828
 6092SOL    HW229739   0.177   0.748   7.958  2.5106 -1.8944  1.0582
 6093SOL     OW29740   0.599   4.201  16.658  0.1200 -0.0049 -0.0714
 6093SOL    HW129741   0.526   4.216  16.598 -1.0519 -1.9264  0.8447
 6093SOL    HW229742   0.640   4.126  16.616 -0.9582 -0.7446  0.1894
 6094SOL     OW29743   0.567   2.799   1.907  0.5065  0.2736  0.3786
 6094SOL    HW129744   0.517   2.749   1.971 -1.7034  0.0519 -1.5229
 6094SOL    HW229745   0.607   2.865   1.965  0.0385  1.5858 -0.7915
 6095SOL     OW29746   4.021   1.533   9.904  0.0123 -0.4820  0.2902
 6095SOL    HW129747   3.974   1.452   9.880 -0.0930  0.0131 -1.2183
 6095SOL    HW229748   4.077   1.556   9.829 -1.9811 -0.1676 -1.1112
 6096SOL     OW29749   1.909   0.660   5.910  0.5001  0.3029  0.4397
 6096SOL    HW129750   1.817   0.637   5.893  0.8404 -0.9564  0.3164
 6096SOL    HW229751   1.909   0.755   5.921 -1.8701  0.2936  0.4753
 6097SOL     OW29752   0.684   0.206  12.453 -0.1741  0.2912 -0.1793
 6097SOL    HW129753   0.724   0.179  12.536 -1.4458  1.5141  0.8386
 6097SOL    HW229754   0.636   0.283  12.483  0.0850  0.5662 -0.4690
 6098SOL     OW29755   4.394   1.994   2.430 -0.3987  0.3937  0.0616
 6098SOL    HW129756   4.378   2.067   2.490 -1.4094  0.7115 -0.5918
 6098SOL    HW229757   4.387   1.917   2.487 -1.0016  0.0329 -0.5075
 6099SOL     OW29758   2.325   3.974   6.688  0.1109 -0.0132 -0.0852
 6099SOL    HW129759   2.296   3.943   6.602  0.5118  0.5408 -0.4197
 6099SOL    HW229760   2.267   4.049   6.699  1.3348  0.5596  2.5508
 6100SOL     OW29761   4.291   4.177  13.485  0.6201 -0.4884 -0.1741
 6100SOL    HW129762   4.209   4.133  13.509  1.0620 -1.8586 -1.1676
 6100SOL    HW229763   4.348   4.153  13.558  1.4178 -5.2935 -2.3657
 6101SOL     OW29764   2.272   3.754   2.227 -0.2047  0.2679  0.4858
 6101SOL    HW129765   2.208   3.821   2.253 -0.8309 -0.0806 -0.1463
 6101SOL    HW229766   2.345   3.810   2.201 -1.2205  2.5571  2.4577
 6102SOL     OW29767   2.856   2.801   2.657  0.0449  0.0634  0.2731
 6102SOL    HW129768   2.855   2.714   2.618 -1.7135 -0.5876  1.7427
 6102SOL    HW229769   2.841   2.778   2.749 -1.5322 -1.6769 -0.4072
 6103SOL     OW29770   4.431   1.613   4.686  0.2799 -0.2587 -0.3671
 6103SOL    HW129771   4.442   1.615   4.591  0.2400  3.0024 -0.3203
 6103SOL    HW229772   4.452   1.703   4.711  2.3828 -1.3781  1.9485
 6104SOL     OW29773   2.565   0.808   8.144  0.8732  0.0050  0.6843
 6104SOL    HW129774   2.584   0.720   8.111  3.1945 -0.3569  2.9461
 6104SOL    HW229775   2.627   0.858   8.091 -0.2049  1.4491  0.7948
 6105SOL     OW29776   3.813   3.658   8.877  0.6943 -0.3156 -0.2320
 6105SOL    HW129777   3.817   3.634   8.969  2.8055  0.5516 -0.0917
 6105SOL    HW229778   3.815   3.754   8.875 -1.3903 -0.2708  0.7149
 6106SOL     OW29779   0.227   0.871   8.432 -0.4308  0.0535 -0.2250
 6106SOL    HW129780   0.166   0.943   8.413  0.1416  0.3779 -0.8566
 6106SOL    HW229781   0.261   0.894   8.518 -3.1314  1.0871  0.5717
 6107SOL     OW29782   4.472   1.983   6.763 -0.3748 -0.0012  0.4492
 6107SOL    HW129783   4.455   2.076   6.749 -3.0989 -0.6283 -0.2674
 6107SOL    HW229784   4.388   1.960   6.803  0.0006 -1.9967  0.0715
 6108SOL     OW29785   3.367   1.663   4.686 -0.2889  0.4965 -0.1609
 6108SOL    HW129786   3.362   1.605   4.610  0.3702 -2.7015  2.2264
 6108SOL    HW229787   3.458   1.691   4.676 -0.6071  1.8770  0.7765
 6109SOL     OW29788   3.948   0.428   3.301 -0.3374 -0.7932  0.1046
 6109SOL    HW129789   4.004   0.505   3.312 -2.4265  0.9752 -1.4164
 6109SOL    HW229790   3.965   0.426   3.207 -1.5706  1.2012 -0.1664
 6110SOL     OW29791   1.844   1.875   5.781  0.7508  0.0405  0.2294
 6110SOL    HW129792   1.753   1.856   5.804 -0.2375  1.1680 -2.7187
 6110SOL    HW229793   1.834   1.899   5.689  0.5051 -0.6323  0.0837
 6111SOL     OW29794   2.768   0.414   8.836 -0.1573  0.2550 -0.1719
 6111SOL    HW129795   2.690   0.376   8.794  0.5441  0.1374 -1.3549
 6111SOL    HW229796   2.747   0.398   8.928 -1.8876  1.2921 -0.3766
 6112SOL     OW29797   1.969   2.295  11.833 -0.0829 -0.6239 -0.4270
 6112SOL    HW129798   1.915   2.364  11.873  0.0539 -1.5928  1.4546
 6112SOL    HW229799   2.008   2.338  11.757 -2.7663  1.0376 -0.8783
 6113SOL     OW29800   3.003   3.309   1.618 -0.0108 -0.5402  0.4046
 6113SOL    HW129801   3.018   3.398   1.649  1.4031 -0.3884 -0.7333
 6113SOL    HW229802   2.996   3.319   1.523  1.5273 -0.1759  0.3295
 6114SOL     OW29803   1.539   1.949  10.928 -0.1742  0.0105 -0.2577
 6114SOL    HW129804   1.621   1.919  10.889  0.5638  0.4402  0.9543
 6114SOL    HW229805   1.499   2.005  10.862 -0.3308 -1.6111 -1.5407
 6115SOL     OW29806   2.871   0.098   3.853 -0.1299  0.1068 -0.0794
 6115SOL    HW129807   2.847   0.124   3.764  1.9293  1.3509 -0.2782
 6115SOL    HW229808   2.886   0.003   3.851 -0.5654 -0.0592  3.2983
 6116SOL     OW29809   4.589   3.415   6.447 -0.2546 -0.1842 -1.0168
 6116SOL    HW129810   4.519   3.441   6.507 -1.3907 -4.0000 -0.6525
 6116SOL    HW229811   4.640   3.364   6.510  0.2209  1.1613 -0.3210
 6117SOL     OW29812   3.832   0.994   2.289  0.1116  0.0564 -0.0463
 6117SOL    HW129813   3.868   0.908   2.267 -0.1703 -0.0216 -0.2136
 6117SOL    HW229814   3.763   1.008   2.224 -0.5965  1.0290  0.9312
 6118SOL     OW29815   0.879   0.103   3.137 -0.1716 -0.6174  0.1201
 6118SOL    HW129816   0.918   0.042   3.075  0.0485 -0.7655  0.4044
 6118SOL    HW229817   0.918   0.184   3.105 -1.7293 -0.2617 -0.9086
 6119SOL     OW29818   0.962   4.589  15.091  0.0035 -0.4270  0.7160
 6119SOL    HW129819   0.870   4.567  15.074 -0.2320  0.5673  0.6864
 6119SOL    HW229820   0.964   4.682  15.067 -1.7223 -1.0717 -1.7963
 6120SOL     OW29821   3.445   0.220  16.852  0.3518 -0.7087 -0.4205
 6120SOL    HW129822   3.424   0.252  16.940  1.6323 -0.5352 -0.1718
 6120SOL    HW229823   3.359   0.220  16.810  0.1530  0.2801 -0.0088
 6121SOL     OW29824   3.129   3.976   1.965 -0.3121  0.1264 -0.1941
 6121SOL    HW129825   3.138   3.882   1.950 -2.0945 -0.6769  3.7100
 6121SOL    HW229826   3.183   4.013   1.895  0.5376  2.0943  1.5207
 6122SOL     OW29827   2.225   0.824  10.276 -0.3451 -0.2666 -0.2263
 6122SOL    HW129828   2.286   0.888  10.240 -0.2809 -0.5992 -0.7014
 6122SOL    HW229829   2.225   0.841  10.370 -1.3011 -0.2131 -0.2287
 6123SOL     OW29830   1.119   3.995   4.687  0.4446 -0.1720 -0.1445
 6123SOL    HW129831   1.150   4.050   4.759  0.1220 -0.6269  0.3460
 6123SOL    HW229832   1.037   3.968   4.728  1.0878 -2.3904 -0.2812
 6124SOL     OW29833   0.718   2.495  12.630  0.1950 -0.6567 -0.2370
 6124SOL    HW129834   0.788   2.512  12.693  0.0938 -1.0266 -0.0233
 6124SOL    HW229835   0.695   2.404  12.649 -0.9827  0.1651  2.3698
 6125SOL     OW29836   1.453   1.231   5.483  0.2608 -0.0128  0.3299
 6125SOL    HW129837   1.541   1.249   5.450  0.4527 -2.1793 -0.3458
 6125SOL    HW229838   1.474   1.192   5.567  1.2087  1.0490  0.6002
 6126SOL     OW29839   0.006   2.464   8.517  0.4121 -0.7525  0.1157
 6126SOL    HW129840   4.650   2.407   8.516  0.3419 -0.6669  0.7451
 6126SOL    HW229841   0.006   2.472   8.422 -1.6752  1.9501  0.3636
 6127SOL     OW29842   2.339   1.143  16.516  0.6891 -0.2530  0.4285
 6127SOL    HW129843   2.389   1.091  16.453 -0.9037 -2.0901  0.6871
 6127SOL    HW229844   2.287   1.074  16.558  0.9137 -1.1504 -0.7586
 6128SOL     OW29845   4.178   0.235   2.519  0.1373  0.5929 -0.3347
 6128SOL    HW129846   4.109   0.267   2.460 -1.4521 -1.8609  0.2350
 6128SOL    HW229847   4.186   0.320   2.562  1.6187  0.7946 -1.0269
 6129SOL     OW29848   2.241   1.968  14.644 -0.2449  0.2427  0.0968
 6129SOL    HW129849   2.289   1.929  14.571  2.3694  3.8632 -0.1342
 6129SOL    HW229850   2.291   1.935  14.719 -1.3407  0.1943  0.8044
 6130SOL     OW29851   1.997   3.925   3.421  0.1661 -0.5036 -0.2264
 6130SOL    HW129852   2.072   3.952   3.369  0.8827  0.6927  1.4285
 6130SOL    HW229853   1.961   4.005   3.460  1.1516  0.5905 -1.5643
 6131SOL     OW29854   3.423   2.152  17.071 -0.4132 -0.3971 -0.0991
 6131SOL    HW129855   3.502   2.129  17.120 -1.2236  0.4125  1.5737
 6131SOL    HW229856   3.412   2.073  17.018  4.4913 -0.4710 -1.1056
 6132SOL     OW29857   2.853   3.382   6.050  0.0341 -0.2633  0.3888
 6132SOL    HW129858   2.930   3.361   5.996  1.3331  1.5402  1.5541
 6132SOL    HW229859   2.848   3.308   6.110  0.0879  0.2665  1.0419
 6133SOL     OW29860   3.970   2.601   9.520  0.4184  0.4308  0.2605
 6133SOL    HW129861   3.892   2.636   9.563  0.3564  0.4087  0.1655
 6133SOL    HW229862   3.923   2.537   9.467  1.3287 -1.8131  2.1474
 6134SOL     OW29863   3.695   0.760   8.091  0.2953  0.2489  0.0566
 6134SOL    HW129864   3.701   0.729   8.182  0.0367  1.7442  0.5943
 6134SOL    HW229865   3.611   0.807   8.090 -0.7409 -1.6001  0.0599
 6135SOL     OW29866   2.694   1.751   0.177  0.2721  0.5110 -0.1373
 6135SOL    HW129867   2.786   1.733   0.195  0.7140 -0.2318 -3.0340
 6135SOL    HW229868   2.657   1.675   0.222 -0.8573  1.3397  0.3604
 6136SOL     OW29869   3.798   1.177   2.048  0.1327 -0.2995 -0.3102
 6136SOL    HW129870   3.883   1.168   2.091 -0.4866  1.5165  1.2990
 6136SOL    HW229871   3.792   1.272   2.040  0.4371 -0.2242  0.2820
 6137SOL     OW29872   4.241   3.680  14.269 -0.0018 -0.8676 -1.0222
 6137SOL    HW129873   4.212   3.737  14.340  0.0235 -1.3565 -0.6163
 6137SOL    HW229874   4.268   3.747  14.206  1.1665  0.8630  1.3436
 6138SOL     OW29875   4.585   3.921   8.493  0.0538 -0.0414 -0.2347
 6138SOL    HW129876   4.543   3.870   8.562 -1.1990 -0.8981 -1.6401
 6138SOL    HW229877   4.549   4.009   8.509 -0.1913 -0.6265  2.4828
 6139SOL     OW29878   2.605   4.420   1.447  0.0945  0.3490  0.1455
 6139SOL    HW129879   2.566   4.482   1.386  0.8136  0.6798  0.0268
 6139SOL    HW229880   2.580   4.341   1.399 -0.3577  0.4762  0.1660
 6140SOL     OW29881   0.308   4.080  10.731  0.3880 -0.0383  0.3514
 6140SOL    HW129882   0.342   4.004  10.683 -0.1395 -1.6025  2.4535
 6140SOL    HW229883   0.390   4.112  10.768 -0.3217  0.2810  1.6391
 6141SOL     OW29884   0.477   2.944   6.370  0.2529 -0.3752  0.4174
 6141SOL    HW129885   0.487   2.941   6.465  0.4985 -0.0200  0.4024
 6141SOL    HW229886   0.562   2.971   6.335 -0.0295 -1.9822 -1.5226
 6142SOL     OW29887   3.779   4.062  11.381 -0.0847  0.0667 -0.3371
 6142SOL    HW129888   3.803   4.091  11.469  1.8846 -0.1300 -0.7979
 6142SOL    HW229889   3.763   3.968  11.392  0.3242 -0.0793 -0.9749
 6143SOL     OW29890   1.002   4.675   2.926  0.3128  0.3609  0.0661
 6143SOL    HW129891   1.067   4.608   2.906 -0.9138 -0.7933 -0.0260
 6143SOL    HW229892   0.952   4.660   2.846  0.0458  1.2899  0.0553
 6144SOL     OW29893   0.608   3.778  12.668  0.4625  0.4143 -0.0255
 6144SOL    HW129894   0.687   3.737  12.702  0.7354  0.5599 -0.4840
 6144SOL    HW229895   0.580   3.701  12.618  1.1603  0.4064 -0.4035
 6145SOL     OW29896   3.834   1.417  16.536  0.5805 -0.1069  0.0864
 6145SOL    HW129897   3.862   1.415  16.628  0.2803  1.1295  0.2126
 6145SOL    HW229898   3.893   1.353  16.499 -0.1229  0.0675 -1.3482
 6146SOL     OW29899   1.662   4.591   4.118  0.1492 -0.0377 -0.0874
 6146SOL    HW129900   1.598   4.660   4.102 -0.4428 -0.3591  0.8676
 6146SOL    HW229901   1.745   4.639   4.114 -1.1791  2.3474  0.9439
 6147SOL     OW29902   0.851   4.677   9.382 -0.1403  0.4502  0.5883
 6147SOL    HW129903   0.890   4.625   9.452  1.1217  1.1317  0.3959
 6147SOL    HW229904   0.910   4.655   9.310 -1.9112 -0.0205 -0.7152
 6148SOL     OW29905   0.028   1.577   2.337  0.4586 -0.8618 -0.5939
 6148SOL    HW129906   4.685   1.580   2.407 -1.9584 -0.8156 -2.8653
 6148SOL    HW229907   0.104   1.550   2.389  1.7027  0.8703 -1.4810
 6149SOL     OW29908   2.885   4.118   5.120  0.0449  0.2897 -0.1996
 6149SOL    HW129909   2.886   4.062   5.042 -0.9530 -2.7235  1.9526
 6149SOL    HW229910   2.844   4.067   5.190 -0.0778  1.4784  0.6082
 6150SOL     OW29911   1.378   2.753   6.986 -0.1254  0.6449  0.5140
 6150SOL    HW129912   1.299   2.751   6.931  0.4024 -5.0872 -0.0143
 6150SOL    HW229913   1.427   2.825   6.946  0.2780 -0.8486 -1.6793
 6151SOL     OW29914   1.300   2.116  13.147  0.6504 -0.0325  0.2456
 6151SOL    HW129915   1.268   2.197  13.106 -0.4028 -0.4679  0.2240
 6151SOL    HW229916   1.213   2.078  13.147  0.3692  0.6081 -2.0303
 6152SOL     OW29917   0.498   4.016   4.011 -0.2396  0.8446 -0.3678
 6152SOL    HW129918   0.405   4.008   4.030 -0.0640 -0.8569 -0.1908
 6152SOL    HW229919   0.515   4.110   4.021 -0.6190  0.7432  1.1592
 6153SOL     OW29920   3.685   2.685   7.737  0.3717  0.0806  0.0574
 6153SOL    HW129921   3.685   2.605   7.684 -1.2504  1.2435 -1.6945
 6153SOL    HW229922   3.687   2.749   7.666 -0.0353 -1.3866 -1.2729
 6154SOL     OW29923   4.244   3.297   6.042 -0.2189  0.5563 -0.0202
 6154SOL    HW129924   4.304   3.266   5.974 -0.8693 -0.5636 -0.0623
 6154SOL    HW229925   4.280   3.385   6.056  1.1582  0.0402 -0.3213
 6155SOL     OW29926   2.336   2.448  11.392  0.3724 -0.3165 -0.1443
 6155SOL    HW129927   2.261   2.457  11.451  1.4498 -0.6118  1.2760
 6155SOL    HW229928   2.293   2.427  11.310  2.0079 -0.7839 -0.8902
 6156SOL     OW29929   0.460   3.393   8.198 -0.0811 -0.1430  0.0113
 6156SOL    HW129930   0.502   3.318   8.156  0.9314 -0.7034  2.0013
 6156SOL    HW229931   0.508   3.394   8.281  0.2733 -1.3101 -0.1770
 6157SOL     OW29932   1.776   1.262   6.221  0.0380 -0.0219  0.6609
 6157SOL    HW129933   1.758   1.333   6.160  0.2397  1.8877  2.8056
 6157SOL    HW229934   1.767   1.311   6.303 -3.3001 -0.4844  0.5421
 6158SOL     OW29935   4.047   0.991   1.642 -0.1601 -0.0005  0.2481
 6158SOL    HW129936   4.031   1.037   1.560 -0.6691 -0.6206  0.0003
 6158SOL    HW229937   4.128   0.942   1.629 -0.7194 -0.6504 -0.8014
 6159SOL     OW29938   2.008   2.034   8.326  0.2727  0.2739  0.5591
 6159SOL    HW129939   2.096   2.056   8.358 -0.1199 -1.0386  2.5036
 6159SOL    HW229940   1.965   2.111   8.363 -0.6212 -0.7587  1.6660
 6160SOL     OW29941   1.324   4.476   7.124  0.1038 -0.2113 -0.0311
 6160SOL    HW129942   1.419   4.469   7.123  0.1972  1.2944 -0.7772
 6160SOL    HW229943   1.306   4.407   7.189  4.4534  0.0849  1.4955
 6161SOL     OW29944   1.515   1.686   4.248 -0.1052 -0.7281  0.1148
 6161SOL    HW129945   1.494   1.614   4.307 -2.0708  0.1930  0.5604
 6161SOL    HW229946   1.529   1.636   4.168 -0.9915  1.7603 -1.6141
 6162SOL     OW29947   4.129   3.822  14.477 -0.0410 -0.3818  0.5344
 6162SOL    HW129948   4.063   3.838  14.544 -1.3716  1.0085 -1.0863
 6162SOL    HW229949   4.069   3.809  14.403  1.5367 -0.5309 -0.7176
 6163SOL     OW29950   0.418   3.601   9.306 -0.2839 -0.0250 -0.2542
 6163SOL    HW129951   0.351   3.532   9.305 -0.5183  0.1800  0.6305
 6163SOL    HW229952   0.381   3.665   9.368  1.7026  0.0546  0.8398
 6164SOL     OW29953   3.830   3.079   4.856 -0.7939 -0.2263  0.0738
 6164SOL    HW129954   3.887   3.056   4.782 -2.0588 -2.3237 -0.2472
 6164SOL    HW229955   3.778   3.000   4.867  0.4116 -1.3398 -2.3426
 6165SOL     OW29956   4.145   0.557  10.082  0.0149 -0.3051  0.2826
 6165SOL    HW129957   4.177   0.505  10.008  0.1198 -1.1309  0.9164
 6165SOL    HW229958   4.202   0.535  10.155  0.4210  1.3153  0.4552
 6166SOL     OW29959   3.501   0.840   3.192 -0.1476 -0.0339 -0.3664
 6166SOL    HW129960   3.595   0.853   3.181 -0.1326  0.9521  0.9477
 6166SOL    HW229961   3.496   0.745   3.186 -0.2000  0.0687 -2.1270
 6167SOL     OW29962   1.296   2.496   1.057 -0.1532  0.6788 -0.0132
 6167SOL    HW129963   1.246   2.545   0.992  1.1364  1.3892 -0.4523
 6167SOL    HW229964   1.255   2.412   1.035  1.6018  0.1460 -1.1932
 6168SOL     OW29965   2.458   1.377   3.795  0.3064 -0.2944 -0.1260
 6168SOL    HW129966   2.378   1.429   3.807  0.1460 -0.7236  0.7085
 6168SOL    HW229967   2.424   1.299   3.750  0.3231  0.1484 -0.8948
 6169SOL     OW29968   2.124   3.855   0.170 -0.5288 -0.2452 -0.6861
 6169SOL    HW129969   2.167   3.772   0.191  1.7795  1.9199  3.2083
 6169SOL    HW229970   2.138   3.865   0.076  1.8095 -1.4252 -0.4748
 6170SOL     OW29971   2.134   4.377  17.320  0.1532  0.2341 -0.0205
 6170SOL    HW129972   2.048   4.345  17.293  1.1454 -1.5195 -1.1658
 6170SOL    HW229973   2.204   4.343  17.265  2.2757  0.4216  2.5368
 6171SOL     OW29974   1.882   0.917  13.734 -0.4541  0.7719 -0.1362
 6171SOL    HW129975   1.917   0.977  13.669  1.0230 -0.4433 -0.4627
 6171SOL    HW229976   1.812   0.880  13.680 -0.2240  0.7273 -0.4010
 6172SOL     OW29977   3.364   2.542   7.116  1.0889 -0.0603 -0.3620
 6172SOL    HW129978   3.406   2.589   7.044  1.5353 -2.1774 -1.4849
 6172SOL    HW229979   3.433   2.552   7.182 -0.4905  0.3526  1.2002
 6173SOL     OW29980   2.113   4.215  16.574  0.4145  0.1378 -0.5308
 6173SOL    HW129981   2.067   4.179  16.499  2.3955  4.2018 -3.7189
 6173SOL    HW229982   2.054   4.287  16.598  0.9543  1.0492 -1.9338
 6174SOL     OW29983   4.521   2.440   2.268  0.1569 -0.2885 -0.0851
 6174SOL    HW129984   4.538   2.530   2.242  1.3182 -0.2637  0.7381
 6174SOL    HW229985   4.452   2.420   2.205  1.0525 -2.0924 -0.5110
 6175SOL     OW29986   2.433   0.570  14.226  0.2195 -0.3171 -0.3628
 6175SOL    HW129987   2.516   0.550  14.182  0.3987 -1.5337  0.5163
 6175SOL    HW229988   2.385   0.615  14.157 -1.7140 -1.1625  0.4365
 6176SOL     OW29989   0.777   1.108   4.523 -0.3826 -0.9091  0.1176
 6176SOL    HW129990   0.844   1.046   4.552  0.9234 -1.2173 -3.5647
 6176SOL    HW229991   0.780   1.174   4.593 -0.8028 -2.2168  1.3612
 6177SOL     OW29992   3.510   1.837   7.812  0.1089  0.1641 -0.1407
 6177SOL    HW129993   3.560   1.768   7.855 -0.5719  0.1190  0.5571
 6177SOL    HW229994   3.478   1.788   7.737  2.5996 -2.2501  0.3919
 6178SOL     OW29995   3.852   0.388   9.119  0.1123  0.3229 -0.3852
 6178SOL    HW129996   3.888   0.301   9.134 -0.1095  0.4822  1.1043
 6178SOL    HW229997   3.838   0.384   9.025 -0.2953 -0.0278 -0.3087
 6179SOL     OW29998   2.413   0.310   8.056 -0.4672 -0.6691  0.4878
 6179SOL    HW129999   2.431   0.232   8.110  1.4215 -1.8295 -1.8129
 6179SOL    HW230000   2.392   0.267   7.973 -3.3344  0.1208  0.8286
 6180SOL     OW30001   2.379   3.664   5.622  0.2018 -0.4752  0.5872
 6180SOL    HW130002   2.436   3.740   5.629 -2.3030  1.3603  0.7966
 6180SOL    HW230003   2.316   3.679   5.692 -0.1406  0.7040  0.0170
 6181SOL     OW30004   3.853   1.269   4.261  0.4046 -0.0367 -0.3487
 6181SOL    HW130005   3.797   1.191   4.262  0.8703 -0.3736 -0.7636
 6181SOL    HW230006   3.936   1.242   4.300 -0.0341 -0.0041  0.6219
 6182SOL     OW30007   3.467   4.516   9.059  0.4403 -0.5531 -0.1051
 6182SOL    HW130008   3.537   4.507   9.123  1.9013 -1.7765 -1.8427
 6182SOL    HW230009   3.397   4.514   9.123  0.4197  1.5664 -0.0691
 6183SOL     OW30010   4.400   1.573  10.140 -0.2564  0.7008 -0.1729
 6183SOL    HW130011   4.331   1.623  10.185 -1.3962  0.7005 -1.9084
 6183SOL    HW230012   4.452   1.632  10.086 -1.0794 -0.6470 -2.4291
 6184SOL     OW30013   1.158   1.460   0.627  0.6739  0.0788 -0.5772
 6184SOL    HW130014   1.142   1.499   0.541  0.0347 -2.8871 -1.8044
 6184SOL    HW230015   1.174   1.544   0.671  2.1017 -1.1821  1.3171
 6185SOL     OW30016   3.910   0.294  12.476 -0.3594 -0.0037 -0.4163
 6185SOL    HW130017   3.935   0.205  12.498  1.2854  0.2732 -1.1299
 6185SOL    HW230018   3.979   0.317  12.414 -0.5793  0.9253 -0.3181
 6186SOL     OW30019   0.297   1.889  13.408  0.0034  0.1341  0.2879
 6186SOL    HW130020   0.282   1.851  13.495 -0.0464  2.2552  1.2202
 6186SOL    HW230021   0.320   1.812  13.356 -0.6635  0.4782 -0.5099
 6187SOL     OW30022   2.680   1.731  16.953 -0.0994  0.0605 -0.0294
 6187SOL    HW130023   2.596   1.708  16.992 -0.2441 -2.2769 -1.7626
 6187SOL    HW230024   2.739   1.707  17.025  0.2858  1.8384  0.2510
 6188SOL     OW30025   0.801   1.379   7.882 -0.3359 -0.7309  0.3560
 6188SOL    HW130026   0.733   1.320   7.849 -2.0665  0.6906  1.4177
 6188SOL    HW230027   0.814   1.424   7.799  1.4019 -1.7329  0.0668
 6189SOL     OW30028   4.013   2.801   8.608 -0.0238 -0.4022 -0.0395
 6189SOL    HW130029   4.072   2.873   8.584 -1.1000 -0.9667 -4.3990
 6189SOL    HW230030   4.077   2.734   8.632  2.2602  1.5038 -0.8537
 6190SOL     OW30031   0.907   1.731   6.643  0.6425  0.6716 -0.4334
 6190SOL    HW130032   0.890   1.714   6.736 -1.1520  0.4772 -0.8079
 6190SOL    HW230033   0.816   1.737   6.614  0.8046  1.0192 -0.8756
 6191SOL     OW30034   0.631   1.210  14.951  0.0233 -0.0790 -0.2457
 6191SOL    HW130035   0.577   1.231  14.875 -0.2080 -1.5282 -0.4965
 6191SOL    HW230036   0.703   1.271  14.941 -0.6846  0.7865 -0.0943
 6192SOL     OW30037   3.358   2.229   6.267 -0.2208 -0.4155 -0.6999
 6192SOL    HW130038   3.417   2.285   6.217  1.7100 -1.9046 -0.1050
 6192SOL    HW230039   3.308   2.190   6.195  0.2444 -0.4742 -0.9924
 6193SOL     OW30040   3.772   2.176   1.329 -0.5677  0.0517 -0.0298
 6193SOL    HW130041   3.698   2.235   1.317 -1.7520 -1.3432  0.3582
 6193SOL    HW230042   3.718   2.097   1.325 -0.8893  0.2251  0.9943
 6194SOL     OW30043   3.223   2.654   2.982 -0.0973 -0.1579 -0.3639
 6194SOL    HW130044   3.169   2.732   2.997 -1.9988 -1.4924 -0.3185
 6194SOL    HW230045   3.280   2.662   3.059 -0.1204 -0.6476 -0.2955
 6195SOL     OW30046   2.634   3.491   4.229  0.2326  0.1291  0.0348
 6195SOL    HW130047   2.621   3.396   4.222  2.0220  0.1395 -3.1295
 6195SOL    HW230048   2.545   3.516   4.205  0.4342 -1.0307 -1.8794
 6196SOL     OW30049   0.165   0.025   5.426 -0.4523 -0.1167  0.1917
 6196SOL    HW130050   0.115   4.700   5.493 -0.0084  0.8764  1.2233
 6196SOL    HW230051   0.255   0.015   5.459  0.2028  2.1293 -0.9090
 6197SOL     OW30052   1.014   4.449   2.205  0.1588 -0.0351  0.1098
 6197SOL    HW130053   1.058   4.485   2.282 -0.6722 -1.2229  1.1359
 6197SOL    HW230054   1.072   4.484   2.137 -0.3620  0.1106 -0.2552
 6198SOL     OW30055   3.932   2.382   0.218  1.0931 -0.0785  0.2041
 6198SOL    HW130056   3.889   2.299   0.202 -0.2428  0.8764 -1.1811
 6198SOL    HW230057   3.878   2.419   0.288 -1.0144  1.7773 -2.3836
 6199SOL     OW30058   1.656   3.777   5.056  0.4767  0.1910  0.1225
 6199SOL    HW130059   1.709   3.855   5.038  3.2950 -0.9179  3.5818
 6199SOL    HW230060   1.691   3.712   4.995 -0.4280 -0.1447 -0.0353
 6200SOL     OW30061   4.212   1.065   1.034 -0.4309  0.7302  0.1546
 6200SOL    HW130062   4.272   1.053   0.961  0.0722 -0.3995  0.7524
 6200SOL    HW230063   4.142   1.014   0.994  0.2686  0.9668 -1.3811
 6201SOL     OW30064   2.597   2.214   3.524 -0.0601 -0.8174  0.4207
 6201SOL    HW130065   2.589   2.299   3.568 -0.8490 -0.2752 -0.7573
 6201SOL    HW230066   2.617   2.245   3.435  0.6100 -0.8036  0.5746
 6202SOL     OW30067   2.811   1.984   1.835 -0.0107  0.2197  0.3661
 6202SOL    HW130068   2.725   1.960   1.868 -0.7291  1.4474 -0.6220
 6202SOL    HW230069   2.863   1.923   1.887 -0.9696 -0.0951  0.9531
 6203SOL     OW30070   1.557   3.147  12.813  0.4107 -0.2065 -0.4727
 6203SOL    HW130071   1.638   3.100  12.795  1.9136  1.6118  1.5223
 6203SOL    HW230072   1.492   3.085  12.779 -0.7943 -0.8744  3.0738
 6204SOL     OW30073   0.083   1.115   8.340  0.7009 -0.2982  0.3845
 6204SOL    HW130074   0.038   1.063   8.273 -0.2575 -0.3774  1.0858
 6204SOL    HW230075   0.157   1.141   8.285 -1.1587  1.1989 -1.4467
 6205SOL     OW30076   4.217   4.365  15.397 -0.5124 -0.0669  0.2141
 6205SOL    HW130077   4.131   4.395  15.367  0.5942  1.3926 -1.4639
 6205SOL    HW230078   4.241   4.444  15.446  1.1434 -0.2440 -0.3096
 6206SOL     OW30079   3.091   2.429   2.682  0.0564 -0.0356  0.4920
 6206SOL    HW130080   3.103   2.407   2.774 -1.9188  0.9333  0.9763
 6206SOL    HW230081   3.116   2.521   2.683 -0.6801  0.1629  0.8710
 6207SOL     OW30082   4.607   1.467   1.653 -0.4120  0.3857  0.0386
 6207SOL    HW130083   4.673   1.412   1.611 -0.1842  1.6002 -1.1965
 6207SOL    HW230084   4.548   1.410   1.703 -0.5215  0.9741  0.5637
 6208SOL     OW30085   3.992   2.516   6.753 -0.0748 -0.1686 -0.0520
 6208SOL    HW130086   4.030   2.598   6.785 -0.5867 -0.5771  1.6046
 6208SOL    HW230087   3.937   2.492   6.827  0.5481 -1.2934  0.0400
 6209SOL     OW30088   0.250   4.133   5.236  0.1018  0.1290  0.9457
 6209SOL    HW130089   0.183   4.084   5.189  1.6203 -0.7446 -0.2851
 6209SOL    HW230090   0.193   4.179   5.298  0.3472  1.1253  0.4303
 6210SOL     OW30091   0.316   0.705  15.672 -0.1883  0.3105 -0.4422
 6210SOL    HW130092   0.400   0.751  15.666  0.7210 -0.8472  3.1590
 6210SOL    HW230093   0.347   0.627  15.720  0.4133  0.7176 -0.1621
 6211SOL     OW30094   1.319   2.999   1.960 -0.1468 -0.5089 -0.1585
 6211SOL    HW130095   1.337   3.080   2.008 -0.7089 -0.5700  0.1591
 6211SOL    HW230096   1.342   2.934   2.026 -1.2581  0.0346  0.7672
 6212SOL     OW30097   1.173   4.322   6.036  0.0687  0.2315  0.6110
 6212SOL    HW130098   1.152   4.259   5.968  0.1106  0.6351  0.2282
 6212SOL    HW230099   1.141   4.401   5.992 -0.0173 -0.6924 -0.9772
 6213SOL     OW30100   3.264   0.785  11.490 -0.0903  0.0448 -0.5857
 6213SOL    HW130101   3.176   0.804  11.524 -0.5072 -1.0016 -1.1060
 6213SOL    HW230102   3.313   0.866  11.507  0.9749 -0.9110  0.8213
 6214SOL     OW30103   2.000   2.101   7.700  0.5463 -0.7865  0.5166
 6214SOL    HW130104   1.988   2.091   7.794 -0.1403  0.0416  0.5137
 6214SOL    HW230105   1.955   2.021   7.674 -1.5588 -0.1717  2.3734
 6215SOL     OW30106   1.281   2.238   0.382  0.1208 -0.6511 -0.1445
 6215SOL    HW130107   1.261   2.229   0.289 -1.5591 -0.3747  0.1943
 6215SOL    HW230108   1.362   2.188   0.398  0.6078  1.5316  3.9899
 6216SOL     OW30109   4.394   0.726  12.197  0.1153 -0.0609 -0.3087
 6216SOL    HW130110   4.481   0.705  12.231 -0.4970 -0.5144  1.0241
 6216SOL    HW230111   4.371   0.641  12.159 -1.0565 -0.0515  0.3734
 6217SOL     OW30112   2.056   0.054  16.956  0.0862  0.0075  0.5782
 6217SOL    HW130113   2.130   0.061  16.895 -0.3288 -0.6411  0.0103
 6217SOL    HW230114   2.100   0.030  17.037  0.6558  0.1854  0.3213
 6218SOL     OW30115   3.011   1.895   5.870 -0.5132  0.5096 -0.1302
 6218SOL    HW130116   2.993   1.931   5.957  1.9875 -1.7196  1.3065
 6218SOL    HW230117   3.066   1.820   5.892  1.0054  1.4576 -0.6566
 6219SOL     OW30118   0.747   0.627   5.746 -0.5573  0.0909 -0.2068
 6219SOL    HW130119   0.838   0.610   5.721 -1.0921 -1.9106 -0.7976
 6219SOL    HW230120   0.713   0.537   5.752  0.3703 -0.2367  0.2041
 6220SOL     OW30121   1.759   2.288   1.120 -0.3306 -0.6273  0.4700
 6220SOL    HW130122   1.780   2.314   1.209  0.2653  1.7156 -0.3580
 6220SOL    HW230123   1.697   2.354   1.089  0.9257  0.3716  0.1069
 6221SOL     OW30124   4.496   0.915  17.527  0.0946 -0.4989 -0.0064
 6221SOL    HW130125   4.562   0.846  17.523  0.2070 -0.4161  0.3638
 6221SOL    HW230126   4.553   0.992  17.518  0.6967 -0.7219  1.7725
 6222SOL     OW30127   2.813   1.371   7.967  0.6574  1.0468  0.2763
 6222SOL    HW130128   2.870   1.426   7.912  1.2700  0.0193 -0.1231
 6222SOL    HW230129   2.877   1.317   8.013  0.2080  0.5652  0.3332
 6223SOL     OW30130   3.234   0.866   0.815 -0.2428 -0.1548 -0.2565
 6223SOL    HW130131   3.315   0.915   0.805 -0.0042 -1.0412 -2.5484
 6223SOL    HW230132   3.257   0.773   0.819  2.4284  0.6291  2.2042
 6224SOL     OW30133   3.339   2.299   3.101  0.4659  0.0676 -0.0661
 6224SOL    HW130134   3.427   2.324   3.073  0.6456 -1.9273 -1.3156
 6224SOL    HW230135   3.357   2.304   3.195 -3.0122  0.9557  0.5367
 6225SOL     OW30136   2.771   0.276   1.857 -0.4648 -0.1143  0.0378
 6225SOL    HW130137   2.810   0.268   1.770  1.6379  0.4236  0.9317
 6225SOL    HW230138   2.812   0.206   1.908  2.1188  0.6469 -1.0521
 6226SOL     OW30139   3.810   2.611   8.716  0.0146 -0.1981 -0.4026
 6226SOL    HW130140   3.733   2.632   8.663 -1.2780 -1.3354  1.0163
 6226SOL    HW230141   3.874   2.676   8.687  0.1036 -0.9358 -1.8156
 6227SOL     OW30142   0.451   0.142  14.798 -0.2665  0.5349  0.4685
 6227SOL    HW130143   0.423   0.222  14.842  0.1766  0.7968  0.2738
 6227SOL    HW230144   0.429   0.148  14.705 -1.5058  2.2699  0.8828
 6228SOL     OW30145   0.157   2.313  15.152  0.5213  0.3155 -0.0611
 6228SOL    HW130146   0.174   2.389  15.097  0.1349  1.5555  1.5538
 6228SOL    HW230147   0.142   2.239  15.093  0.5168  0.5627 -0.3662
 6229SOL     OW30148   1.328   1.764   8.952  0.1176 -0.6486 -0.3298
 6229SOL    HW130149   1.406   1.761   9.007 -0.7692  0.0090  0.9837
 6229SOL    HW230150   1.299   1.855   8.963  0.1427 -0.4441 -1.9699
 6230SOL     OW30151   0.628   3.722   2.696 -0.4860  0.4120  0.0398
 6230SOL    HW130152   0.718   3.699   2.674 -0.8630 -1.3656  0.3110
 6230SOL    HW230153   0.637   3.815   2.716  0.3597  0.4273 -0.4230
 6231SOL     OW30154   4.446   0.842  12.687  0.0508  0.0394 -0.1713
 6231SOL    HW130155   4.536   0.851  12.657  0.3792 -0.9106  0.5341
 6231SOL    HW230156   4.462   0.823  12.779  1.0684  1.0613 -0.1442
 6232SOL     OW30157   3.470   0.790   9.830 -1.1519 -0.3467 -0.1576
 6232SOL    HW130158   3.460   0.835   9.913  1.7755  0.2510 -0.1138
 6232SOL    HW230159   3.530   0.718   9.849  0.5956  0.7365 -1.4552
 6233SOL     OW30160   4.671   2.990  16.040  0.0528 -0.1385  0.4825
 6233SOL    HW130161   4.700   2.980  15.949 -1.6205 -2.7498  0.2437
 6233SOL    HW230162   4.598   2.930  16.056  1.6333 -1.9257  1.0719
 6234SOL     OW30163   1.932   0.574  13.878 -0.9812  0.3289  0.1094
 6234SOL    HW130164   1.899   0.570  13.968  1.7525  2.3484  1.2176
 6234SOL    HW230165   1.978   0.657  13.890  1.9774 -1.0940 -1.5446
 6235SOL     OW30166   3.160   2.548   5.209  0.1568  0.2303 -0.3433
 6235SOL    HW130167   3.243   2.508   5.235  2.2922  2.6781 -3.3486
 6235SOL    HW230168   3.098   2.478   5.229  0.6705 -0.3339 -0.7117
 6236SOL     OW30169   2.837   3.064   5.745  0.0131  0.4135  0.3636
 6236SOL    HW130170   2.914   3.102   5.702 -0.8450  0.8478 -0.7927
 6236SOL    HW230171   2.786   3.145   5.741 -1.4851 -0.5031  1.0604
 6237SOL     OW30172   0.647   2.143  15.487 -0.3699  0.4615 -0.2800
 6237SOL    HW130173   0.603   2.134  15.571 -1.5347 -0.2658 -0.9586
 6237SOL    HW230174   0.722   2.087  15.504 -0.5377 -0.0215 -1.1017
 6238SOL     OW30175   4.250   3.959   3.501 -0.4451  0.1540  0.0080
 6238SOL    HW130176   4.231   4.018   3.573 -1.5880 -0.2369  0.0250
 6238SOL    HW230177   4.272   4.021   3.431 -1.1700  0.2768 -0.1099
 6239SOL     OW30178   3.332   4.332   2.297  0.5873  0.3456 -0.0754
 6239SOL    HW130179   3.303   4.359   2.210 -0.4416  0.1923  0.2161
 6239SOL    HW230180   3.415   4.379   2.296  0.0749  1.3658  3.0722
 6240SOL     OW30181   4.428   1.624   9.444  0.4346 -0.3247  0.4644
 6240SOL    HW130182   4.463   1.589   9.525  0.8757  1.0256  0.8454
 6240SOL    HW230183   4.491   1.588   9.382 -2.2911 -2.1463 -1.2812
 6241SOL     OW30184   4.589   0.742   7.973  0.2951 -0.2930  0.0533
 6241SOL    HW130185   4.604   0.682   8.046 -2.9447 -0.1311  0.8578
 6241SOL    HW230186   4.496   0.754   7.992  0.6653 -1.5383  2.6572
 6242SOL     OW30187   0.985   3.990   7.696  0.8230  0.4025  0.0326
 6242SOL    HW130188   0.909   4.039   7.664  0.3255 -1.0221 -0.9788
 6242SOL    HW230189   1.044   3.993   7.620  0.7464 -2.2005 -0.1467
 6243SOL     OW30190   4.321   4.390   2.359  0.7708 -0.2554  0.0667
 6243SOL    HW130191   4.270   4.312   2.379 -0.8862  0.7384 -0.2944
 6243SOL    HW230192   4.260   4.463   2.366  0.1233 -0.7251 -0.6043
 6244SOL     OW30193   3.880   0.595   7.985 -0.6092 -0.3765 -0.3487
 6244SOL    HW130194   3.836   0.510   7.976 -0.0520 -0.6516 -0.4508
 6244SOL    HW230195   3.805   0.640   8.024 -0.4529  0.1724 -0.6794
 6245SOL     OW30196   3.230   4.701  16.441  0.3391  0.4020  0.0396
 6245SOL    HW130197   3.249   4.613  16.474 -0.0413 -0.3299 -1.6958
 6245SOL    HW230198   3.322   0.000  16.424  0.6020  1.1223  2.4526
 6246SOL     OW30199   2.746   0.654   1.464 -0.1688 -0.4844 -0.1059
 6246SOL    HW130200   2.815   0.597   1.498  1.3069  1.1085 -0.4213
 6246SOL    HW230201   2.786   0.740   1.453  0.6593 -0.6571  1.5539
 6247SOL     OW30202   3.259   2.295  17.560  0.1318 -0.4244  0.0166
 6247SOL    HW130203   3.282   2.388  17.567  1.5639 -0.9014  1.5420
 6247SOL    HW230204   3.225   2.306  17.471  0.0176  2.6593  0.4312
 6248SOL     OW30205   3.649   0.730  13.621  0.1769 -0.8505  0.1113
 6248SOL    HW130206   3.662   0.636  13.606 -0.2634 -0.8600 -0.1920
 6248SOL    HW230207   3.607   0.738  13.707  1.3222 -0.9497  0.6796
 6249SOL     OW30208   4.209   1.620   2.819 -0.3130  0.2013  0.1827
 6249SOL    HW130209   4.120   1.654   2.831  0.5924  2.2002  1.1901
 6249SOL    HW230210   4.225   1.606   2.912 -1.5766 -0.8078  0.2498
 6250SOL     OW30211   2.166   0.656   3.257  0.3409 -0.0805  0.8778
 6250SOL    HW130212   2.211   0.739   3.243 -1.0329  0.3770 -0.8763
 6250SOL    HW230213   2.097   0.691   3.313 -0.5573  1.0271 -0.9209
 6251SOL     OW30214   2.674   3.790   4.389 -0.5678 -0.7144  0.4407
 6251SOL    HW130215   2.666   3.698   4.415  1.8955 -1.4477 -1.4348
 6251SOL    HW230216   2.600   3.799   4.329  0.7851  2.7314 -0.6556
 6252SOL     OW30217   1.351   2.306   2.144  0.2126  0.1752  0.0345
 6252SOL    HW130218   1.301   2.226   2.159  1.0026 -0.4725 -0.7150
 6252SOL    HW230219   1.277   2.352   2.105 -0.2302 -0.9061 -0.4084
 6253SOL     OW30220   3.146   1.453   4.930  0.1226  0.0393  0.2488
 6253SOL    HW130221   3.111   1.369   4.900  0.4427 -0.9511  2.6707
 6253SOL    HW230222   3.188   1.488   4.852  1.2609 -1.1559  0.3239
 6254SOL     OW30223   4.210   2.094  11.480 -0.0465  0.1215  0.2328
 6254SOL    HW130224   4.229   2.069  11.389 -0.0339 -0.9093  0.5273
 6254SOL    HW230225   4.279   2.159  11.487 -1.1062  1.0003  2.3939
 6255SOL     OW30226   0.909   0.421   5.922 -0.6409 -0.0252  0.6784
 6255SOL    HW130227   0.977   0.463   5.976 -1.3644  0.3937  1.2551
 6255SOL    HW230228   0.918   0.334   5.961  0.2380  0.1468  0.8559
 6256SOL     OW30229   1.633   3.727  16.922  0.1062  0.3189  0.0416
 6256SOL    HW130230   1.613   3.648  16.974  1.9364 -0.5021 -0.4934
 6256SOL    HW230231   1.706   3.771  16.965  1.0366 -0.6885 -0.5108
 6257SOL     OW30232   2.677   2.193  13.509 -0.1526  0.2238 -0.6077
 6257SOL    HW130233   2.692   2.228  13.421  1.5472 -0.8303 -0.7220
 6257SOL    HW230234   2.632   2.264  13.556  0.0014 -0.8335  1.1301
 6258SOL     OW30235   3.886   2.147   7.698 -0.6857  0.7165 -0.0871
 6258SOL    HW130236   3.835   2.080   7.742  0.1104 -0.0681 -0.3611
 6258SOL    HW230237   3.897   2.201   7.777 -0.0589 -0.3936  0.5784
 6259SOL     OW30238   2.772   2.341   6.440  0.0399 -0.6235  0.6321
 6259SOL    HW130239   2.837   2.281   6.403 -0.0856  1.9141 -3.7790
 6259SOL    HW230240   2.811   2.425   6.417 -0.4967 -0.0451  1.8386
 6260SOL     OW30241   2.770   0.955  16.447  0.9865  0.4556 -0.1218
 6260SOL    HW130242   2.763   0.860  16.460  0.8823  0.6333  1.1436
 6260SOL    HW230243   2.841   0.960  16.384  0.3369  2.2748 -0.7139
 6261SOL     OW30244   2.024   4.447   4.750  0.1351 -0.6723  0.2189
 6261SOL    HW130245   1.932   4.443   4.776  0.0915  1.5504  0.3764
 6261SOL    HW230246   2.060   4.359   4.763 -1.3063 -1.4744 -1.2416
 6262SOL     OW30247   4.126   2.551   8.649 -0.2474 -0.2570  0.5158
 6262SOL    HW130248   4.089   2.471   8.687 -0.6823  0.0404  0.7123
 6262SOL    HW230249   4.212   2.549   8.693 -1.7743  1.0974  3.5866
 6263SOL     OW30250   3.233   1.814   8.760  0.1293  0.6283 -0.7668
 6263SOL    HW130251   3.156   1.841   8.810 -0.5226  0.9255 -1.9505
 6263SOL    HW230252   3.220   1.719   8.753 -0.6498  0.7745 -1.2195
 6264SOL     OW30253   3.196   0.115  10.733  0.5265 -0.0981 -0.6966
 6264SOL    HW130254   3.210   0.079  10.820 -1.2231  1.3398  0.1727
 6264SOL    HW230255   3.101   0.107  10.726  0.5321  0.2898 -1.2535
 6265SOL     OW30256   1.199   2.337   4.359  0.0729  0.7195  0.2825
 6265SOL    HW130257   1.111   2.370   4.340 -0.5019 -0.3737  1.0521
 6265SOL    HW230258   1.205   2.289   4.277 -0.8486 -0.3870  0.8613
 6266SOL     OW30259   1.044   0.187   5.442  0.0190  0.1288  0.3141
 6266SOL    HW130260   1.091   0.264   5.409  0.3831 -0.3863 -0.3601
 6266SOL    HW230261   1.011   0.144   5.364 -0.7443  0.4175  0.4764
 6267SOL     OW30262   1.344   2.765   7.962 -0.4506 -0.2512 -0.0322
 6267SOL    HW130263   1.311   2.853   7.946 -0.5124 -0.3521 -0.4589
 6267SOL    HW230264   1.380   2.745   7.876 -1.5554  1.0276 -0.7897
 6268SOL     OW30265   2.664   2.944   4.911  0.7055 -0.2087  0.7577
 6268SOL    HW130266   2.631   2.857   4.888 -1.9212  0.8807  0.5012
 6268SOL    HW230267   2.753   2.944   4.874  0.4268 -0.6427  0.0922
 6269SOL     OW30268   0.406   1.161   3.966  0.3007 -0.3862  0.0597
 6269SOL    HW130269   0.483   1.152   4.021 -0.6340 -0.1270  1.4123
 6269SOL    HW230270   0.334   1.131   4.021  0.8785 -0.0138  1.0323
 6270SOL     OW30271   3.710   1.539   3.228 -0.0122 -0.4231 -0.2139
 6270SOL    HW130272   3.799   1.564   3.256 -0.9820  2.1289  0.6387
 6270SOL    HW230273   3.686   1.630   3.209 -1.5429 -0.6305  0.7160
 6271SOL     OW30274   0.353   2.134  10.376 -0.4046  0.2652  0.4641
 6271SOL    HW130275   0.392   2.063  10.427  2.7756  2.2656  0.7801
 6271SOL    HW230276   0.275   2.152  10.428 -0.6354  0.8819 -0.1061
 6272SOL     OW30277   2.764   0.857   8.648  0.6104  0.2764  0.3345
 6272SOL    HW130278   2.703   0.862   8.575  3.0125  0.0182 -1.6734
 6272SOL    HW230279   2.781   0.763   8.653 -1.6239 -0.0985  0.9152
 6273SOL     OW30280   0.218   2.684  12.952  0.3901 -0.4247 -0.0707
 6273SOL    HW130281   0.304   2.721  12.970 -0.0138 -0.4416  1.9495
 6273SOL    HW230282   0.171   2.712  13.031 -1.8095 -1.8049 -0.8803
 6274SOL     OW30283   1.889   3.582   7.321  0.1709 -0.8074  0.1715
 6274SOL    HW130284   1.814   3.573   7.262 -0.8283  1.7520  1.0387
 6274SOL    HW230285   1.924   3.493   7.321 -2.4351 -1.8465 -1.2763
 6275SOL     OW30286   3.683   4.368   4.268 -0.8311 -0.1965 -0.1433
 6275SOL    HW130287   3.647   4.394   4.353 -1.3879 -2.5069  0.3107
 6275SOL    HW230288   3.739   4.446   4.265 -0.2798 -0.6755 -1.6379
 6276SOL     OW30289   3.990   0.260   2.317 -0.0406 -0.3775  0.3064
 6276SOL    HW130290   3.895   0.247   2.306 -0.0490  0.5971 -0.8463
 6276SOL    HW230291   4.033   0.207   2.249  2.5485  0.2603  1.4758
 6277SOL     OW30292   2.205   1.921   1.936 -0.6781 -0.3490  0.6400
 6277SOL    HW130293   2.129   1.863   1.930 -0.9206  0.0666 -0.4592
 6277SOL    HW230294   2.277   1.858   1.943 -0.6390 -0.1374  2.0830
 6278SOL     OW30295   4.006   1.473   3.574 -0.5470 -0.1524 -0.0066
 6278SOL    HW130296   3.935   1.441   3.631 -0.9400  0.9717  0.1336
 6278SOL    HW230297   3.984   1.565   3.566 -0.6368 -0.2273 -0.6293
 6279SOL     OW30298   2.593   3.119  16.214 -0.0648 -0.2563 -0.1358
 6279SOL    HW130299   2.644   3.192  16.180  0.5709 -0.1764  0.9957
 6279SOL    HW230300   2.543   3.154  16.288 -0.3391 -0.7122 -0.1017
 6280SOL     OW30301   3.808   2.697   8.397 -0.4639 -0.3311 -1.3218
 6280SOL    HW130302   3.901   2.716   8.385 -0.1551 -1.7511 -1.1842
 6280SOL    HW230303   3.784   2.690   8.305  0.9140  0.3975 -1.7337
 6281SOL     OW30304   2.795   2.058   7.767 -0.1618  0.3906 -0.3805
 6281SOL    HW130305   2.762   2.063   7.857 -0.8205  1.6911 -0.6883
 6281SOL    HW230306   2.820   2.150   7.759  2.1672 -0.0650  1.8974
 6282SOL     OW30307   3.649   3.183   7.639  0.2851  0.4114 -0.4098
 6282SOL    HW130308   3.564   3.143   7.622  0.0892 -0.2017  2.1139
 6282SOL    HW230309   3.657   3.241   7.563 -1.1885  0.4140 -0.5576
 6283SOL     OW30310   3.277   4.500   8.843 -0.5619  0.3167 -0.6980
 6283SOL    HW130311   3.279   4.406   8.858 -1.7817  0.6333  1.4842
 6283SOL    HW230312   3.349   4.531   8.897 -1.2971  1.0560 -0.1409
 6284SOL     OW30313   2.176   3.276   6.300  0.0937  0.0320  0.1018
 6284SOL    HW130314   2.128   3.329   6.362 -0.2521  0.3078 -0.4035
 6284SOL    HW230315   2.245   3.225   6.343  0.2130 -0.4107 -0.5971
 6285SOL     OW30316   2.471   2.608   7.573 -0.1171  0.4891  0.2582
 6285SOL    HW130317   2.495   2.700   7.581  0.8077  0.2076  0.7788
 6285SOL    HW230318   2.454   2.606   7.479 -0.5611  1.4618  0.3142
 6286SOL     OW30319   1.285   2.045   8.984  0.1466  0.3630 -0.0324
 6286SOL    HW130320   1.362   2.083   8.941 -2.1458  1.0493 -3.5596
 6286SOL    HW230321   1.287   2.098   9.064  0.5035 -0.1440  0.2925
 6287SOL     OW30322   2.036   0.358   2.064  0.8909 -0.3815 -0.4984
 6287SOL    HW130323   2.072   0.291   2.122 -0.2338 -0.6037 -0.0424
 6287SOL    HW230324   1.971   0.306   2.016 -0.8628  1.6503 -0.3365
 6288SOL     OW30325   2.135   0.156   2.933 -0.0000 -0.2365 -0.6217
 6288SOL    HW130326   2.097   0.127   3.016  0.1883 -0.8133 -0.7396
 6288SOL    HW230327   2.057   0.208   2.912  0.2263 -0.3136 -1.6735
 6289SOL     OW30328   3.119   2.774   6.819 -0.4324  0.3658  0.4432
 6289SOL    HW130329   3.042   2.718   6.822 -0.9419  1.0230 -0.3171
 6289SOL    HW230330   3.191   2.713   6.803 -1.8032 -0.8148 -1.2841
 6290SOL     OW30331   3.079   1.097  10.347  0.5723  0.2381 -0.1394
 6290SOL    HW130332   3.109   1.006  10.347 -0.8719 -0.2390 -0.1230
 6290SOL    HW230333   2.986   1.083  10.329  0.8623 -2.1840  0.3449
 6291SOL     OW30334   4.326   2.459  14.928  0.1438  0.0400  0.5037
 6291SOL    HW130335   4.362   2.372  14.946 -1.0726 -0.6367 -0.3077
 6291SOL    HW230336   4.245   2.433  14.884  0.8528 -1.0960 -0.1293
 6292SOL     OW30337   4.469   3.397   7.313 -0.1754 -0.1711 -0.4171
 6292SOL    HW130338   4.417   3.475   7.333  0.8340  0.8112 -1.6656
 6292SOL    HW230339   4.493   3.405   7.221  0.2429 -1.0554 -0.3889
 6293SOL     OW30340   0.122   3.291   3.219 -0.3880 -0.0408  0.4338
 6293SOL    HW130341   0.040   3.315   3.176  0.2522  0.6259 -0.4336
 6293SOL    HW230342   0.146   3.370   3.268  1.0016 -0.2943  0.1718
 6294SOL     OW30343   4.252   3.694   6.894 -0.1982  0.3815 -0.3836
 6294SOL    HW130344   4.181   3.753   6.920 -0.7203  0.6966 -2.5735
 6294SOL    HW230345   4.214   3.620   6.847  1.2981 -0.9269  0.4811
 6295SOL     OW30346   1.410   1.062   0.246 -0.1220  0.2155  0.0899
 6295SOL    HW130347   1.358   0.993   0.206 -0.6948  0.6611  0.0629
 6295SOL    HW230348   1.483   1.016   0.286  1.9016  1.0635 -2.6895
 6296SOL     OW30349   1.815   3.902   2.158 -0.3511  0.2524  0.4644
 6296SOL    HW130350   1.720   3.915   2.152 -0.4582 -0.5081  0.4659
 6296SOL    HW230351   1.807   3.813   2.194 -0.3869  0.0630 -0.0040
 6297SOL     OW30352   0.811   1.792   5.101 -0.0052  0.4063 -0.4183
 6297SOL    HW130353   0.735   1.805   5.159  0.4796 -0.0488  0.3142
 6297SOL    HW230354   0.789   1.711   5.056  0.8817  0.1368 -0.3622
 6298SOL     OW30355   3.445   2.553  12.395  0.1256  0.0017 -0.4158
 6298SOL    HW130356   3.418   2.489  12.460 -3.1599  1.3258 -0.4829
 6298SOL    HW230357   3.487   2.615  12.455  1.1801  0.7827 -1.9470
 6299SOL     OW30358   0.616   4.480   2.059  0.1049  0.4915  0.0189
 6299SOL    HW130359   0.575   4.548   2.006 -1.2954  0.1793  0.7140
 6299SOL    HW230360   0.542   4.452   2.113  0.0253  1.2774  0.3107
 6300SOL     OW30361   3.544   0.226  16.289 -0.1813 -0.2616  0.4118
 6300SOL    HW130362   3.635   0.223  16.259 -0.2900  0.3855  0.0162
 6300SOL    HW230363   3.545   0.157  16.356 -0.0588  0.3459  1.0231
 6301SOL     OW30364   1.742   1.708  16.123 -0.1979  0.1611  0.3379
 6301SOL    HW130365   1.775   1.679  16.208  1.5824 -0.2297 -0.4946
 6301SOL    HW230366   1.705   1.794  16.142  0.1575  0.2665  0.5586
 6302SOL     OW30367   0.635   3.199   7.349  0.6087  0.0929  0.1591
 6302SOL    HW130368   0.597   3.210   7.436  0.2010  2.0678 -0.2654
 6302SOL    HW230369   0.607   3.283   7.313 -3.4856 -2.0705 -1.6906
 6303SOL     OW30370   1.449   4.239   1.825 -0.2313  0.0158  1.1200
 6303SOL    HW130371   1.538   4.269   1.808 -0.7974  0.0974 -1.8567
 6303SOL    HW230372   1.407   4.314   1.783  1.3063  1.0880  1.4827
 6304SOL     OW30373   1.303   2.891   1.439  0.3516 -0.3135  0.1301
 6304SOL    HW130374   1.285   2.845   1.521 -2.6978 -1.9063 -1.4070
 6304SOL    HW230375   1.353   2.966   1.471 -0.0857  1.6192 -3.6942
 6305SOL     OW30376   1.259   2.556  10.954 -0.0957 -0.5336  0.1588
 6305SOL    HW130377   1.335   2.565  11.012 -0.6360  0.1166  0.7634
 6305SOL    HW230378   1.235   2.649  10.947 -0.5617 -0.8045 -1.7272
 6306SOL     OW30379   1.398   0.163   4.498 -0.3736 -0.3860 -0.0038
 6306SOL    HW130380   1.478   0.146   4.447  0.5379  0.0298  1.3062
 6306SOL    HW230381   1.425   0.243   4.542 -2.0626  0.8903 -1.2777
 6307SOL     OW30382   2.697   4.589   8.756  0.5590 -0.1222 -0.1359
 6307SOL    HW130383   2.612   4.547   8.770  1.8419 -1.8352  2.5460
 6307SOL    HW230384   2.762   4.524   8.786  2.2218  2.3775  1.6648
 6308SOL     OW30385   0.322   1.759   4.096  0.2295 -0.2336 -0.4283
 6308SOL    HW130386   0.227   1.756   4.108  0.2739  0.1891  0.0084
 6308SOL    HW230387   0.333   1.764   4.001 -0.2093 -0.7326 -0.5040
 6309SOL     OW30388   1.490   2.304   6.615 -0.4491 -0.2627 -0.5203
 6309SOL    HW130389   1.426   2.362   6.574  2.1269  1.5467 -1.9853
 6309SOL    HW230390   1.569   2.323   6.565 -0.0329 -0.5319  0.0317
 6310SOL     OW30391   0.545   3.181   4.140  0.5166  0.6868 -0.5191
 6310SOL    HW130392   0.628   3.145   4.107  0.8853  0.4162  0.7002
 6310SOL    HW230393   0.478   3.114   4.139  0.7537  0.4587 -1.4114
 6311SOL     OW30394   3.457   1.172   9.617 -0.2836 -0.1262 -0.4849
 6311SOL    HW130395   3.519   1.150   9.548  0.5301 -0.7323  0.4257
 6311SOL    HW230396   3.489   1.129   9.696  4.6242  2.5660 -1.0078
 6312SOL     OW30397   1.358   1.718  16.160 -0.5617 -0.1896  0.0152
 6312SOL    HW130398   1.445   1.756  16.149 -0.3524 -0.2274  1.5901
 6312SOL    HW230399   1.323   1.734  16.072 -1.8439 -1.5537  0.2748
 6313SOL     OW30400   0.924   3.878   6.197  0.0209  0.4438  0.6752
 6313SOL    HW130401   0.866   3.955   6.198  1.2621  1.4414 -2.7476
 6313SOL    HW230402   0.954   3.891   6.287 -0.4657 -1.9706  1.1831
 6314SOL     OW30403   3.893   3.234   7.078 -0.1716 -0.7407  0.0758
 6314SOL    HW130404   3.802   3.235   7.048  0.2454  0.2572 -1.1663
 6314SOL    HW230405   3.945   3.265   7.004  0.3891 -1.0589  0.3343
 6315SOL     OW30406   4.492   0.714   1.712 -0.0321  0.2678  0.3305
 6315SOL    HW130407   4.510   0.692   1.621  0.5249 -1.7761  0.9503
 6315SOL    HW230408   4.553   0.784   1.735  0.1329  0.0993  0.4022
 6316SOL     OW30409   0.970   1.733  10.740 -0.2110  0.1329 -0.3295
 6316SOL    HW130410   1.007   1.735  10.651 -2.5296 -1.4967 -1.3427
 6316SOL    HW230411   0.999   1.817  10.776  1.7411  1.6904 -5.4226
 6317SOL     OW30412   4.519   3.622   6.191  0.0232 -0.4928  0.3903
 6317SOL    HW130413   4.468   3.551   6.231  0.4021  0.2164  2.1611
 6317SOL    HW230414   4.491   3.688   6.255 -0.4475 -2.0195  1.7745
 6318SOL     OW30415   2.823   2.930   6.965 -0.2623 -0.1908 -0.1975
 6318SOL    HW130416   2.759   2.973   7.023 -1.4399 -0.4014 -1.3253
 6318SOL    HW230417   2.768   2.912   6.889 -0.8999  0.3314  0.1311
 6319SOL     OW30418   2.961   2.662  17.284  0.1086  0.3236  0.3507
 6319SOL    HW130419   3.003   2.714  17.215  1.9025  0.1912  1.3439
 6319SOL    HW230420   3.025   2.593  17.302 -0.9766 -0.0224  2.8352
 6320SOL     OW30421   1.389   0.379   4.781 -0.4099  0.6090 -0.3138
 6320SOL    HW130422   1.438   0.458   4.804  0.3817  0.1685 -0.4689
 6320SOL    HW230423   1.342   0.366   4.864 -0.4091 -1.8014 -0.6955
 6321SOL     OW30424   2.279   4.512   8.617 -0.0223  0.1243 -0.0818
 6321SOL    HW130425   2.225   4.583   8.653 -0.1303  0.0394 -0.0744
 6321SOL    HW230426   2.224   4.474   8.549 -0.3232  1.0555 -0.3562
 6322SOL     OW30427   1.203   2.408   2.790  0.0343  0.3338  0.0358
 6322SOL    HW130428   1.289   2.368   2.802 -2.2566 -3.0551  4.8975
 6322SOL    HW230429   1.161   2.344   2.731 -1.9351  1.3277  0.3769
 6323SOL     OW30430   4.077   1.467  13.752  0.1315 -0.4538 -0.4624
 6323SOL    HW130431   4.158   1.501  13.789  0.0427 -0.8145  0.0621
 6323SOL    HW230432   4.021   1.441  13.825 -1.6933 -0.3224 -1.8037
 6324SOL     OW30433   4.482   2.900  15.648  0.0760  0.1102  0.5291
 6324SOL    HW130434   4.522   2.958  15.712 -1.2859  1.6987 -0.0415
 6324SOL    HW230435   4.411   2.953  15.612  0.4909 -0.3629 -1.0170
 6325SOL     OW30436   1.276   2.986   4.511 -0.4120  0.1037  0.1423
 6325SOL    HW130437   1.311   2.938   4.436  0.2586 -0.0075  0.5238
 6325SOL    HW230438   1.307   3.071   4.483 -0.3806 -0.2481 -0.8917
 6326SOL     OW30439   3.208   4.398  14.969  0.1144  0.5288 -0.0613
 6326SOL    HW130440   3.116   4.383  14.945  0.2401 -1.7945  0.9496
 6326SOL    HW230441   3.262   4.351  14.905 -1.6325 -1.7551  0.1452
 6327SOL     OW30442   4.356   1.863   1.518  0.1251 -0.3280  0.0823
 6327SOL    HW130443   4.424   1.924   1.548 -0.4752  0.0948  0.5776
 6327SOL    HW230444   4.410   1.784   1.516 -1.2515 -1.3140  2.9809
 6328SOL     OW30445   0.414   2.430   9.094 -0.1194  0.8649 -0.4261
 6328SOL    HW130446   0.370   2.497   9.042  0.2703 -0.0107 -1.8733
 6328SOL    HW230447   0.401   2.489   9.168 -1.8718 -1.5607  1.2158
 6329SOL     OW30448   2.218   1.451  13.916 -0.1391 -0.5738 -0.1772
 6329SOL    HW130449   2.272   1.373  13.904  2.5126  1.0102  1.3457
 6329SOL    HW230450   2.285   1.513  13.944 -0.4437 -0.9085  1.2645
 6330SOL     OW30451   2.570   2.435   9.997  0.2580 -0.9059  0.2099
 6330SOL    HW130452   2.644   2.377  10.013  1.6280  0.5407 -0.9185
 6330SOL    HW230453   2.496   2.382  10.028 -0.8716  1.9580  2.3933
 6331SOL     OW30454   0.066   1.900   1.049  0.4057 -0.5581  0.4679
 6331SOL    HW130455   0.007   1.962   1.007  0.8109 -0.2348  0.3739
 6331SOL    HW230456   0.150   1.938   1.023  0.7863 -0.4912  1.7938
 6332SOL     OW30457   3.727   4.305   5.907 -0.4982 -0.5625  0.2752
 6332SOL    HW130458   3.726   4.316   6.002 -2.1839  1.8239 -0.0238
 6332SOL    HW230459   3.750   4.212   5.916 -0.4112 -0.5854 -0.1562
 6333SOL     OW30460   3.667   1.199   4.700 -0.2263 -0.1194 -0.3755
 6333SOL    HW130461   3.753   1.158   4.707 -1.1686 -1.9868  0.3398
 6333SOL    HW230462   3.652   1.210   4.794 -2.1836 -1.1496 -0.5536
 6334SOL     OW30463   0.284   1.222   8.177  0.0707 -0.0607  0.1859
 6334SOL    HW130464   0.350   1.261   8.120 -0.8418 -0.1504 -0.9268
 6334SOL    HW230465   0.264   1.299   8.230 -2.3210  0.3372 -1.2912
 6335SOL     OW30466   4.344   2.009   5.471 -0.0776  0.4311  0.6428
 6335SOL    HW130467   4.299   2.093   5.467 -0.7460  0.0253 -0.3263
 6335SOL    HW230468   4.312   1.966   5.550 -1.5745  1.8065  0.7865
 6336SOL     OW30469   0.281   4.475   4.791  0.1098 -0.2201 -0.1193
 6336SOL    HW130470   0.288   4.466   4.886 -1.1297 -1.6762 -0.1612
 6336SOL    HW230471   0.291   4.382   4.772  0.9310  0.2812 -2.2234
 6337SOL     OW30472   4.586   3.671  16.877 -0.6624  0.0416 -0.3279
 6337SOL    HW130473   4.626   3.691  16.792 -0.6008  2.3966  0.2659
 6337SOL    HW230474   4.639   3.728  16.933 -2.8337 -0.4305  2.1654
 6338SOL     OW30475   4.205   3.318  11.423 -0.9332  0.1875 -0.1720
 6338SOL    HW130476   4.276   3.371  11.387  0.8452 -0.9569  1.6761
 6338SOL    HW230477   4.162   3.378  11.484  3.4026  1.7635  1.3031
 6339SOL     OW30478   2.391   3.193   4.230  0.2111 -0.4181 -0.2008
 6339SOL    HW130479   2.315   3.202   4.174 -1.2656 -1.5688  1.6126
 6339SOL    HW230480   2.358   3.161   4.314  0.0916  2.4216  0.8252
 6340SOL     OW30481   0.669   1.413  10.778 -0.8869 -0.1057  0.1994
 6340SOL    HW130482   0.664   1.462  10.696 -1.0592  1.0865  0.9144
 6340SOL    HW230483   0.723   1.475  10.828  0.8602 -1.4045 -0.0850
 6341SOL     OW30484   1.797   1.007   8.345  0.5212  0.2077  1.0097
 6341SOL    HW130485   1.853   1.067   8.394 -0.7415  2.2746 -0.0988
 6341SOL    HW230486   1.865   0.989   8.280 -1.2736 -2.8332 -0.0067
 6342SOL     OW30487   0.897   2.380   4.620  0.6400  0.0664  0.4350
 6342SOL    HW130488   0.942   2.464   4.611  2.1936 -0.9231 -1.0806
 6342SOL    HW230489   0.870   2.361   4.530 -0.2798  0.5267  0.6248
 6343SOL     OW30490   1.452   4.410  16.129  0.0019  0.0560  0.3475
 6343SOL    HW130491   1.534   4.452  16.155 -0.8639 -0.1294  3.4121
 6343SOL    HW230492   1.414   4.464  16.059  1.1548 -1.4640 -1.4582
 6344SOL     OW30493   1.772   3.435  11.639  0.3769 -0.9396 -0.7417
 6344SOL    HW130494   1.851   3.469  11.598 -0.1220  0.4419 -0.5654
 6344SOL    HW230495   1.810   3.349  11.660 -1.9327 -1.9404 -0.6914
 6345SOL     OW30496   1.744   2.004   7.459  0.0485  0.3976  0.6536
 6345SOL    HW130497   1.649   1.991   7.456  0.1799 -0.3670 -0.1318
 6345SOL    HW230498   1.751   2.092   7.423  1.8883  0.7306  1.8304
 6346SOL     OW30499   3.047   0.018   3.421 -0.2497  0.1156  0.7245
 6346SOL    HW130500   3.124   0.012   3.364 -0.7057  0.0189  0.1106
 6346SOL    HW230501   3.088   4.708   3.501  1.3951  0.5797  0.0851
 6347SOL     OW30502   3.704   2.055   1.838  0.0305  0.1078  0.2608
 6347SOL    HW130503   3.752   2.126   1.795  0.4610  0.2236  0.9463
 6347SOL    HW230504   3.764   2.044   1.912 -3.2618 -3.0827  2.4532
 6348SOL     OW30505   2.724   1.325   4.426  0.0464  0.0243  0.4576
 6348SOL    HW130506   2.747   1.278   4.506 -0.8712 -3.3820 -1.2761
 6348SOL    HW230507   2.676   1.249   4.393 -0.0943 -0.7645  2.4805
 6349SOL     OW30508   3.217   3.330   8.228  0.2535 -0.1346 -0.3520
 6349SOL    HW130509   3.124   3.345   8.238  0.5692  1.0853  0.7014
 6349SOL    HW230510   3.218   3.247   8.179  1.2571  2.1709 -4.2613
 6350SOL     OW30511   4.215   3.343   5.482  0.6461 -0.9420  0.4328
 6350SOL    HW130512   4.299   3.390   5.485 -0.0549  0.3579  0.0805
 6350SOL    HW230513   4.207   3.335   5.577  2.9345 -3.7294  0.3714
 6351SOL     OW30514   1.679   0.412   5.670  0.4641 -0.4850 -0.7181
 6351SOL    HW130515   1.678   0.334   5.725 -1.5975  0.5779  0.7506
 6351SOL    HW230516   1.745   0.388   5.605  2.6579  1.6922  0.7163
 6352SOL     OW30517   0.282   2.559   2.633  0.0933  0.0635  0.1445
 6352SOL    HW130518   0.224   2.543   2.559 -0.6856 -0.9451  0.9768
 6352SOL    HW230519   0.285   2.471   2.671  0.8379 -0.7934 -1.8698
 6353SOL     OW30520   3.794   1.522   8.350  0.4629 -0.0311 -0.6273
 6353SOL    HW130521   3.778   1.599   8.403  1.3281 -0.4316  0.2249
 6353SOL    HW230522   3.823   1.460   8.417  1.9297  2.2582  0.8263
 6354SOL     OW30523   2.546   3.095   3.536 -0.4405  0.8143  0.2093
 6354SOL    HW130524   2.484   3.028   3.506  1.3461 -1.4452  1.5817
 6354SOL    HW230525   2.529   3.171   3.480  1.2793  0.4725 -0.8097
 6355SOL     OW30526   2.672   3.906  11.563  0.1375 -0.7431 -0.1511
 6355SOL    HW130527   2.582   3.939  11.570  0.1671 -0.5801 -0.5325
 6355SOL    HW230528   2.713   3.991  11.575  0.9151 -1.3824  1.6879
 6356SOL     OW30529   2.237   1.222   4.481 -0.0491  0.3675 -0.1895
 6356SOL    HW130530   2.292   1.285   4.434  1.6659 -1.2900 -0.3876
 6356SOL    HW230531   2.151   1.260   4.465 -0.6087 -0.5282  0.7664
 6357SOL     OW30532   3.460   3.832   3.355  0.1404  0.1710  0.4061
 6357SOL    HW130533   3.518   3.757   3.353  0.9813  0.7696  2.0524
 6357SOL    HW230534   3.427   3.834   3.265  1.4295 -0.4538 -0.0663
 6358SOL     OW30535   1.851   0.873   6.849 -0.1730 -0.2948 -0.4016
 6358SOL    HW130536   1.945   0.873   6.829 -0.2698 -2.0642 -0.8212
 6358SOL    HW230537   1.818   0.942   6.793 -0.4789 -1.2204 -1.3613
 6359SOL     OW30538   0.349   1.964   9.342  0.2698  0.3847 -0.0512
 6359SOL    HW130539   0.324   1.979   9.433  2.1882 -0.1993  0.5734
 6359SOL    HW230540   0.429   2.016   9.334 -0.1887  0.6808 -2.7357
 6360SOL     OW30541   2.397   0.169   7.722 -0.3525 -0.0592 -0.1220
 6360SOL    HW130542   2.373   0.259   7.698 -1.2609 -0.1012  0.6313
 6360SOL    HW230543   2.310   0.142   7.749 -0.5457 -1.1096 -1.7777
 6361SOL     OW30544   3.055   3.618   4.689  0.1418 -0.1341 -0.1035
 6361SOL    HW130545   3.042   3.580   4.602  1.8759  2.0135 -1.3149
 6361SOL    HW230546   2.970   3.651   4.716 -0.0223 -1.8141  1.4044
 6362SOL     OW30547   3.626   0.907  10.461  0.4721  0.1945  0.3729
 6362SOL    HW130548   3.598   0.865  10.380  1.8204  2.7164 -1.3964
 6362SOL    HW230549   3.715   0.874  10.475  0.7350  0.4067 -0.7567
 6363SOL     OW30550   1.832   3.511   0.659  0.3419 -0.8932  0.1291
 6363SOL    HW130551   1.919   3.546   0.640 -0.8728  0.8694 -2.1292
 6363SOL    HW230552   1.796   3.593   0.692  2.1081  0.5380 -1.5082
 6364SOL     OW30553   0.275   1.315   7.033 -0.2587  0.2619  0.4142
 6364SOL    HW130554   0.353   1.353   6.992 -0.3038 -2.1646 -1.8804
 6364SOL    HW230555   0.207   1.325   6.967  1.3909 -0.8939 -1.4498
 6365SOL     OW30556   1.337   0.606   1.661  0.1914  1.0512 -0.2340
 6365SOL    HW130557   1.352   0.535   1.724  2.6516  0.9157 -0.9982
 6365SOL    HW230558   1.242   0.613   1.671  0.2533  1.4142  0.0939
 6366SOL     OW30559   3.087   4.038  12.358 -0.0174 -0.0225  0.0250
 6366SOL    HW130560   3.139   4.012  12.434 -1.0050  3.0187  1.7327
 6366SOL    HW230561   3.154   4.034  12.290 -1.4396  0.2303 -1.3632
 6367SOL     OW30562   1.604   2.313   7.736  0.0879  0.0881 -0.3745
 6367SOL    HW130563   1.563   2.250   7.796  0.4580 -0.6900 -0.9512
 6367SOL    HW230564   1.631   2.378   7.801  0.9760 -0.2636 -0.3969
 6368SOL     OW30565   3.184   3.710   5.238  0.0897 -0.5754 -0.2834
 6368SOL    HW130566   3.209   3.624   5.206  2.8493  0.1534 -0.0935
 6368SOL    HW230567   3.189   3.759   5.156  1.0266  0.5767  0.4614
 6369SOL     OW30568   2.903   2.162   8.776  0.3919  0.6130 -0.0078
 6369SOL    HW130569   2.864   2.081   8.745 -2.1674  1.5394  0.7429
 6369SOL    HW230570   2.969   2.141   8.842 -1.7689 -1.6626  1.4128
 6370SOL     OW30571   0.173   1.486  13.656  0.1495 -0.7946  0.2953
 6370SOL    HW130572   0.185   1.577  13.631  1.0284 -1.3874 -1.4708
 6370SOL    HW230573   0.081   1.492  13.679  0.0947 -1.6368  0.2967
 6371SOL     OW30574   4.113   3.257   3.551 -0.4778  0.5059 -0.4044
 6371SOL    HW130575   4.040   3.271   3.491 -0.6858  2.5573  0.3305
 6371SOL    HW230576   4.118   3.344   3.590  0.8558  0.1855  0.1552
 6372SOL     OW30577   2.641   2.873   7.185 -0.0494  0.6839  0.3131
 6372SOL    HW130578   2.617   2.962   7.213  1.1268  0.3567  2.3511
 6372SOL    HW230579   2.583   2.849   7.113  0.2349 -1.0573  0.6867
 6373SOL     OW30580   2.608   1.530   3.479 -0.4070  0.5359  0.1064
 6373SOL    HW130581   2.644   1.542   3.567  1.5626  1.1707 -0.7827
 6373SOL    HW230582   2.673   1.580   3.429  2.7125  0.0046  3.6069
 6374SOL     OW30583   0.207   4.457  13.713 -0.4847  0.3176 -0.2749
 6374SOL    HW130584   0.163   4.504  13.642  2.6502  1.1751 -1.6129
 6374SOL    HW230585   0.153   4.378  13.721 -1.7451  1.1086 -1.0229
 6375SOL     OW30586   4.693   1.386   7.840 -0.7891  0.6638 -0.2179
 6375SOL    HW130587   0.055   1.420   7.809 -0.4155  1.3944  1.6128
 6375SOL    HW230588   4.656   1.370   7.753 -1.6773 -1.5426  0.5518
 6376SOL     OW30589   1.413   3.129   0.558  0.5473 -0.2528  0.4057
 6376SOL    HW130590   1.478   3.153   0.491 -1.2639 -0.3155 -1.3626
 6376SOL    HW230591   1.358   3.207   0.553  1.9395  0.5168 -3.0012
 6377SOL     OW30592   1.446   1.370   6.381  0.1912  0.6056  0.0731
 6377SOL    HW130593   1.510   1.441   6.376 -1.1522  1.8648  0.8171
 6377SOL    HW230594   1.385   1.420   6.436 -0.1540 -1.2270  1.3311
 6378SOL     OW30595   2.778   2.141   3.227  0.3307 -0.2527 -0.4896
 6378SOL    HW130596   2.760   2.059   3.181 -0.7761 -1.5063  2.1725
 6378SOL    HW230597   2.738   2.203   3.166  2.6957  1.1525 -0.6305
 6379SOL     OW30598   0.881   2.611   4.477  0.6019 -0.1213  0.5523
 6379SOL    HW130599   0.802   2.659   4.500  2.0537  1.8130  1.5233
 6379SOL    HW230600   0.948   2.679   4.484 -0.8353  1.2322  0.9448
 6380SOL     OW30601   0.023   0.610   7.357 -0.3764 -0.2196  0.3951
 6380SOL    HW130602   0.118   0.602   7.358 -0.4442 -1.0562 -0.4629
 6380SOL    HW230603   0.015   0.674   7.428 -0.3316 -0.6735  0.8050
 6381SOL     OW30604   3.817   3.319   8.537  0.0503  0.9118 -0.6846
 6381SOL    HW130605   3.822   3.295   8.630 -3.2561  2.2555 -0.1376
 6381SOL    HW230606   3.817   3.415   8.537  0.0340  0.9127 -1.2546
 6382SOL     OW30607   0.777   3.134   5.035  0.3972  0.4198  0.3697
 6382SOL    HW130608   0.707   3.135   4.971 -1.8586 -2.4797  2.7807
 6382SOL    HW230609   0.731   3.135   5.119 -0.5896  1.0735 -0.1874
 6383SOL     OW30610   3.634   1.176   3.969  0.3377  0.3543 -0.4879
 6383SOL    HW130611   3.611   1.176   3.877 -0.7727  0.8967 -0.2172
 6383SOL    HW230612   3.599   1.263   3.991 -3.0408 -0.8301 -1.0691
 6384SOL     OW30613   4.371   4.269   3.548  0.2380  0.2752  0.0289
 6384SOL    HW130614   4.348   4.310   3.464 -0.1620  0.3863  0.1929
 6384SOL    HW230615   4.368   4.338   3.614  0.4965 -0.4204  0.7731
 6385SOL     OW30616   0.833   4.717  13.373 -0.4723 -0.4009 -0.0194
 6385SOL    HW130617   0.755   4.669  13.344  1.0687 -2.8789 -0.0220
 6385SOL    HW230618   0.811   0.073  13.322  0.7337 -1.3864 -2.0643
 6386SOL     OW30619   2.684   3.876   0.335  0.1421  0.1666  0.0423
 6386SOL    HW130620   2.687   3.910   0.245  0.7376 -0.8650 -0.3237
 6386SOL    HW230621   2.765   3.825   0.327 -1.3670 -2.0793 -0.8534
 6387SOL     OW30622   0.711   0.533   8.538 -0.3725  0.2562 -0.0184
 6387SOL    HW130623   0.694   0.537   8.632  1.0316 -0.1381  0.2468
 6387SOL    HW230624   0.714   0.438   8.523 -1.9018  0.2617 -0.3914
 6388SOL     OW30625   0.831   1.941  14.843  0.3548 -0.5816 -0.0791
 6388SOL    HW130626   0.749   1.990  14.846  1.6476  1.4794  2.1818
 6388SOL    HW230627   0.837   1.937  14.748  0.5853 -0.6338 -0.0619
 6389SOL     OW30628   2.006   1.940   7.083  0.0332 -0.3782  0.2284
 6389SOL    HW130629   2.049   1.945   6.998  0.1443 -0.2098  0.2949
 6389SOL    HW230630   2.084   1.936   7.139 -0.1485  0.4537  0.5411
 6390SOL     OW30631   2.762   3.081   3.123  0.0561  0.0957 -0.0689
 6390SOL    HW130632   2.697   3.142   3.091 -0.7021 -1.7510 -2.0884
 6390SOL    HW230633   2.764   3.085   3.218  1.6285  0.0689 -0.0934
 6391SOL     OW30634   0.068   4.508  11.867  1.0547 -0.1899 -0.5057
 6391SOL    HW130635   0.154   4.475  11.840  1.0149 -0.3643 -0.4189
 6391SOL    HW230636   0.022   4.433  11.905  2.1950 -1.6240 -1.9548
 6392SOL     OW30637   1.182   2.583  10.664  0.5827 -0.1241 -0.1460
 6392SOL    HW130638   1.221   2.664  10.630 -1.5655  1.0491  0.1436
 6392SOL    HW230639   1.216   2.579  10.754  1.8602 -1.5337 -0.7061
 6393SOL     OW30640   4.378   4.480   8.967  0.3787 -0.1586  0.6816
 6393SOL    HW130641   4.351   4.568   8.993 -0.3015 -0.0184 -0.5106
 6393SOL    HW230642   4.374   4.497   8.873  0.0527  0.8016  0.8625
 6394SOL     OW30643   2.450   2.507   6.311 -0.8318  0.0600  0.3126
 6394SOL    HW130644   2.468   2.427   6.361 -0.9393  0.4583  0.9788
 6394SOL    HW230645   2.356   2.498   6.296 -0.6682  0.0438 -0.7225
 6395SOL     OW30646   3.628   3.611   1.342 -0.4591  0.4947  0.1698
 6395SOL    HW130647   3.612   3.657   1.259  0.2470 -0.1486 -0.3146
 6395SOL    HW230648   3.608   3.683   1.402  1.1638 -0.6192  2.0209
 6396SOL     OW30649   3.570   2.090   0.182 -0.2931 -0.1753  0.2346
 6396SOL    HW130650   3.524   2.029   0.124  0.7222 -1.1534  0.4726
 6396SOL    HW230651   3.610   2.147   0.117  0.3419  1.3996  2.0013
 6397SOL     OW30652   1.590   0.188  12.741  0.7578 -0.4993  0.5599
 6397SOL    HW130653   1.618   0.200  12.832 -0.7997 -1.2173  1.1354
 6397SOL    HW230654   1.674   0.214  12.702  0.9436 -0.7126  0.8203
 6398SOL     OW30655   2.277   0.687   5.903 -0.5121  0.6497  0.0547
 6398SOL    HW130656   2.303   0.770   5.944  0.5019  0.2958  0.1048
 6398SOL    HW230657   2.352   0.673   5.845 -0.6626 -0.6630  0.1968
 6399SOL     OW30658   4.527   0.507   1.306  0.0531  0.0779  0.7524
 6399SOL    HW130659   4.545   0.463   1.389  1.1933  0.4556  0.7092
 6399SOL    HW230660   4.509   0.599   1.324 -3.2907 -0.3820 -0.2465
 6400SOL     OW30661   4.422   4.407   8.097  0.3960 -0.1457  0.2352
 6400SOL    HW130662   4.502   4.424   8.048  0.6495  1.0067  1.0363
 6400SOL    HW230663   4.358   4.453   8.043  0.1962  1.6097  1.9547
 6401SOL     OW30664   1.570   1.642   5.678 -0.0167 -0.4236 -0.3460
 6401SOL    HW130665   1.518   1.686   5.611  0.6998 -0.2831 -0.8102
 6401SOL    HW230666   1.576   1.714   5.741 -0.4544 -0.4871 -0.2318
 6402SOL     OW30667   4.316   2.129  15.751  0.2299 -0.3497  0.8402
 6402SOL    HW130668   4.360   2.212  15.770 -0.5131  0.1720  0.2552
 6402SOL    HW230669   4.345   2.107  15.663 -2.3815 -2.4234  0.5200
 6403SOL     OW30670   3.790   4.646   5.773  0.1049 -0.1576 -0.1066
 6403SOL    HW130671   3.705   4.607   5.753  0.0909 -1.0819  1.7420
 6403SOL    HW230672   3.822   4.653   5.683 -1.3287  0.4961 -0.5692
 6404SOL     OW30673   2.731   2.272   6.713  0.0056 -0.2868  0.1951
 6404SOL    HW130674   2.743   2.278   6.618 -2.5554 -2.3896 -0.2356
 6404SOL    HW230675   2.819   2.297   6.743  0.1261 -0.8888  0.3258
 6405SOL     OW30676   0.693   3.558   5.816  0.1139  0.0106 -1.0322
 6405SOL    HW130677   0.653   3.645   5.815 -0.2852 -0.1653  0.0649
 6405SOL    HW230678   0.614   3.504   5.810  0.0421 -0.0867  0.7620
 6406SOL     OW30679   0.839   0.619   3.986 -0.4587 -0.7704 -0.0030
 6406SOL    HW130680   0.766   0.557   3.991 -0.6353 -0.4453  1.4156
 6406SOL    HW230681   0.897   0.587   3.917 -1.6606 -0.3736 -1.2035
 6407SOL     OW30682   2.332   1.086   4.269 -0.2117  1.0547 -0.2389
 6407SOL    HW130683   2.303   0.997   4.286  0.3019  0.7319 -1.0662
 6407SOL    HW230684   2.306   1.128   4.352 -0.1074  1.6879 -0.5299
 6408SOL     OW30685   2.820   2.714   5.838  0.6389  0.1149 -0.9308
 6408SOL    HW130686   2.837   2.760   5.755 -0.0483  1.3900 -0.3622
 6408SOL    HW230687   2.801   2.784   5.900 -0.6022 -0.2305 -0.9113
 6409SOL     OW30688   1.004   0.589  14.208  0.4164 -0.2775 -0.4868
 6409SOL    HW130689   1.025   0.557  14.120 -0.2719 -1.3279 -0.2706
 6409SOL    HW230690   0.943   0.658  14.183 -0.4745 -0.2922  1.6379
 6410SOL     OW30691   1.431   3.830  16.499 -0.3985 -0.2330 -0.3293
 6410SOL    HW130692   1.470   3.747  16.527 -0.2960  0.9639  3.1177
 6410SOL    HW230693   1.347   3.808  16.539 -1.0449  0.3362 -1.3966
 6411SOL     OW30694   4.091   0.898  17.130 -0.0341  0.4971  0.0512
 6411SOL    HW130695   4.157   0.900  17.199 -3.3533  1.5339  3.2537
 6411SOL    HW230696   4.071   0.806  17.117  2.9638  0.3215 -3.0959
 6412SOL     OW30697   0.981   2.516  16.031 -0.1620  0.1121  0.3236
 6412SOL    HW130698   0.983   2.513  15.935 -1.9486 -0.7847  0.3266
 6412SOL    HW230699   0.890   2.495  16.053  0.2557  1.2061  3.0602
 6413SOL     OW30700   4.299   0.204   5.936 -0.1814  0.0794  0.5072
 6413SOL    HW130701   4.310   0.298   5.922  0.9533 -0.1172  0.0531
 6413SOL    HW230702   4.361   0.184   6.006  1.1254 -0.4903 -0.8088
 6414SOL     OW30703   3.492   3.390   2.060  0.1471  0.2241 -0.3966
 6414SOL    HW130704   3.539   3.325   2.009  1.0078  1.1487 -0.7696
 6414SOL    HW230705   3.460   3.453   1.995  0.8368  0.9897  0.0047
 6415SOL     OW30706   1.272   2.229  15.304  0.0755 -0.7798 -0.3115
 6415SOL    HW130707   1.198   2.241  15.243  0.5314  0.7135 -0.5866
 6415SOL    HW230708   1.327   2.301  15.272  0.1798 -0.8538 -0.2997
 6416SOL     OW30709   4.092   4.157  14.752  0.2888  0.6128  0.1143
 6416SOL    HW130710   4.107   4.171  14.658  0.0459 -2.2989 -0.3547
 6416SOL    HW230711   4.120   4.065  14.755  0.3646  0.6906  1.9251
 6417SOL     OW30712   1.689   4.317   8.072 -0.3574 -0.1897  0.4477
 6417SOL    HW130713   1.732   4.337   7.989  0.2688 -0.7482  0.6344
 6417SOL    HW230714   1.654   4.402   8.097  0.2308  0.2817 -0.3708
 6418SOL     OW30715   0.224   1.278   2.804 -0.3187 -0.5459  0.0612
 6418SOL    HW130716   0.293   1.300   2.742  0.7260 -0.0894  1.3759
 6418SOL    HW230717   0.216   1.359   2.855 -1.7102 -1.0070  0.5842
 6419SOL     OW30718   2.429   4.232   0.448  0.2123  0.4267 -0.6099
 6419SOL    HW130719   2.364   4.181   0.399  1.8152 -0.3995 -1.8507
 6419SOL    HW230720   2.491   4.161   0.465 -0.0569  0.9444  2.5775
 6420SOL     OW30721   3.036   0.428  12.645  0.0393 -0.1517 -0.0028
 6420SOL    HW130722   3.111   0.480  12.673  0.5398 -0.6019 -0.5141
 6420SOL    HW230723   2.976   0.462  12.711  1.3730 -2.3151  2.3038
 6421SOL     OW30724   1.309   1.918   4.547  0.1136 -0.5646  0.2292
 6421SOL    HW130725   1.235   1.963   4.588 -0.3830 -1.1047 -0.0703
 6421SOL    HW230726   1.350   1.999   4.517 -0.3677 -0.4971 -0.2423
 6422SOL     OW30727   1.558   3.060   3.132  0.0280  0.2791  0.0063
 6422SOL    HW130728   1.516   3.014   3.205  0.7953  0.4121  0.5405
 6422SOL    HW230729   1.482   3.103   3.096 -0.7660  1.0636  2.6008
 6423SOL     OW30730   1.510   0.580   8.947  0.2288 -0.4744 -0.1050
 6423SOL    HW130731   1.504   0.506   9.007  0.2090 -1.6454 -1.5367
 6423SOL    HW230732   1.578   0.633   8.989 -0.8195  0.0338  0.9360
 6424SOL     OW30733   2.970   1.752   0.175  0.7071  0.1839 -0.3141
 6424SOL    HW130734   3.018   1.827   0.209 -0.6841  0.5212  0.9266
 6424SOL    HW230735   3.046   1.694   0.184 -1.1720 -2.2292  0.0565
 6425SOL     OW30736   2.417   4.148   7.323 -0.4274  0.1884  0.3832
 6425SOL    HW130737   2.368   4.225   7.294 -2.6554 -1.5519 -0.4896
 6425SOL    HW230738   2.364   4.111   7.393  0.0076  2.0976  1.7278
 6426SOL     OW30739   1.517   4.360   6.922  0.8528  0.7039 -0.1654
 6426SOL    HW130740   1.537   4.275   6.962 -0.1038  1.2492  1.4765
 6426SOL    HW230741   1.541   4.341   6.832  2.3112 -1.4912  0.6759
 6427SOL     OW30742   4.147   2.402  15.248 -0.0623 -0.0280  0.3274
 6427SOL    HW130743   4.079   2.336  15.232 -2.5917  3.2643 -2.3483
 6427SOL    HW230744   4.100   2.467  15.196  2.0790 -0.0514 -1.6481
 6428SOL     OW30745   1.714   3.306   3.117  0.3219  0.5468 -0.5245
 6428SOL    HW130746   1.782   3.256   3.071 -0.1963  0.8342 -1.5969
 6428SOL    HW230747   1.650   3.237   3.137 -1.4055  2.5241  0.7823
 6429SOL     OW30748   3.516   3.865   2.066 -0.5038 -0.1950 -0.7128
 6429SOL    HW130749   3.484   3.951   2.092  1.5576  0.6924 -1.1283
 6429SOL    HW230750   3.545   3.828   2.150  0.3064  1.4830 -0.2423
 6430SOL     OW30751   1.145   0.302  14.546 -0.2284  0.0764 -0.2207
 6430SOL    HW130752   1.210   0.294  14.615 -0.3118 -0.0998 -0.1623
 6430SOL    HW230753   1.141   0.210  14.517  3.3887  0.0017 -0.5346
 6431SOL     OW30754   1.465   1.359   2.317 -0.0705  0.1676  0.3727
 6431SOL    HW130755   1.373   1.365   2.294  0.0456 -2.2433 -0.8175
 6431SOL    HW230756   1.459   1.356   2.412 -1.2743 -0.6750  0.2697
 6432SOL     OW30757   1.728   3.126   4.136  0.6940 -0.3692 -0.1324
 6432SOL    HW130758   1.674   3.193   4.177 -0.1636 -1.6305  0.8064
 6432SOL    HW230759   1.714   3.050   4.193 -1.3299 -0.3235 -0.5811
 6433SOL     OW30760   2.823   2.017   9.855  0.0797  0.0956 -0.5182
 6433SOL    HW130761   2.864   1.984   9.935  0.8029  1.0085 -0.5181
 6433SOL    HW230762   2.730   2.003   9.873  0.2377  2.1671  2.0872
 6434SOL     OW30763   0.294   0.017  13.502 -0.4820 -0.2273  0.4547
 6434SOL    HW130764   0.281   0.093  13.559  0.6999  0.4887 -0.2510
 6434SOL    HW230765   0.380   0.034  13.463 -1.7274  1.7445 -1.4497
 6435SOL     OW30766   3.078   3.985   4.282  0.2015  0.0283  0.1702
 6435SOL    HW130767   3.073   4.079   4.298 -1.3915 -0.1891  0.9929
 6435SOL    HW230768   3.158   3.955   4.326  0.4924 -1.1448 -1.1393
 6436SOL     OW30769   3.762   2.759  17.479 -0.3525  0.1496 -0.1122
 6436SOL    HW130770   3.858   2.757  17.474 -0.2215  2.7324  1.3508
 6436SOL    HW230771   3.744   2.804  17.397 -2.1535 -1.0176 -0.3501
 6437SOL     OW30772   3.464   1.036   5.885  0.4949  0.3790  0.1622
 6437SOL    HW130773   3.449   1.041   5.791 -0.5517 -3.2033  0.1343
 6437SOL    HW230774   3.519   0.958   5.895 -0.1236  0.4111  4.0144
 6438SOL     OW30775   0.573   2.105  15.745 -0.6043 -0.3941  0.0473
 6438SOL    HW130776   0.507   2.039  15.722  0.7255 -0.9521 -2.1868
 6438SOL    HW230777   0.513   2.154  15.801 -0.5689 -1.3953  0.9648
 6439SOL     OW30778   1.219   0.077  16.630 -0.2820 -0.1527  0.0954
 6439SOL    HW130779   1.278   0.127  16.575  0.3083  0.4858  1.2967
 6439SOL    HW230780   1.164   0.036  16.563  0.1403 -2.0956  0.9227
 6440SOL     OW30781   2.077   3.329   3.603  0.0601 -0.2849 -0.9321
 6440SOL    HW130782   1.986   3.359   3.606 -0.6273 -2.3173 -1.3939
 6440SOL    HW230783   2.070   3.235   3.619  0.2785 -0.3710 -1.3473
 6441SOL     OW30784   3.761   4.670   4.342  0.3093  0.0829  0.3563
 6441SOL    HW130785   3.825   4.640   4.407 -0.3685  2.6225  2.2027
 6441SOL    HW230786   3.813   0.001   4.282 -0.4940  0.9447  0.4328
 6442SOL     OW30787   3.697   3.356   7.867 -0.1416 -0.4050  0.1892
 6442SOL    HW130788   3.674   3.295   7.797 -2.2970  1.3410 -0.6425
 6442SOL    HW230789   3.612   3.396   7.887  0.4927  0.8823  0.3537
 6443SOL     OW30790   2.409   3.712   4.883 -0.3668 -0.7882 -0.7737
 6443SOL    HW130791   2.496   3.703   4.921 -2.3007  0.0039  3.9078
 6443SOL    HW230792   2.431   3.711   4.790  0.2005 -1.5290 -0.6289
 6444SOL     OW30793   4.412   1.024   5.729 -0.0871 -0.1773  0.6227
 6444SOL    HW130794   4.343   1.001   5.792 -1.3358 -0.3801 -0.8185
 6444SOL    HW230795   4.367   1.103   5.699  1.7514  1.8582  3.2569
 6445SOL     OW30796   4.055   0.342   0.759  0.1279  0.0324  0.7864
 6445SOL    HW130797   4.092   0.311   0.676 -0.4897 -1.3142  1.0049
 6445SOL    HW230798   4.137   0.382   0.789 -0.2071  0.7932  0.6869
 6446SOL     OW30799   1.306   3.684   3.371 -0.0113 -0.3502 -0.2782
 6446SOL    HW130800   1.219   3.651   3.348 -0.2098  1.9527 -2.8694
 6446SOL    HW230801   1.311   3.773   3.335  0.4028  0.1458  1.0061
 6447SOL     OW30802   4.125   1.095  16.930  0.2214  0.2063 -0.2913
 6447SOL    HW130803   4.034   1.120  16.916  0.2106  0.2788 -0.1028
 6447SOL    HW230804   4.116   1.027  16.997 -0.4135  2.3809  1.8514
 6448SOL     OW30805   2.885   3.639   5.879 -0.4275 -0.3156 -0.9379
 6448SOL    HW130806   2.937   3.561   5.893  1.0547  0.7713 -0.3648
 6448SOL    HW230807   2.941   3.701   5.926 -0.3399  0.1841 -1.6979
 6449SOL     OW30808   3.227   3.504  11.095  0.1429  0.1448 -0.7560
 6449SOL    HW130809   3.309   3.532  11.136 -0.4653 -1.1433  1.3370
 6449SOL    HW230810   3.246   3.410  11.088  0.0527  0.0848 -0.2061
 6450SOL     OW30811   1.239   1.961   4.892  0.9334 -0.1034 -0.2552
 6450SOL    HW130812   1.183   2.007   4.830  0.5582  0.3479  0.4150
 6450SOL    HW230813   1.233   2.010   4.974 -0.6470  0.0657 -0.4838
 6451SOL     OW30814   2.075   1.848   6.537  0.2251  0.3033  0.0504
 6451SOL    HW130815   2.066   1.864   6.631  1.5572  3.5091 -0.3800
 6451SOL    HW230816   2.170   1.857   6.530  0.6172 -2.3873  1.8454
 6452SOL     OW30817   4.440   0.165   7.374 -0.4451  0.4319 -0.6982
 6452SOL    HW130818   4.414   0.075   7.357  1.1347 -0.0733 -0.4158
 6452SOL    HW230819   4.416   0.183   7.465  0.7290 -0.0485 -0.2983
 6453SOL     OW30820   1.526   0.308   8.045  0.0160 -0.6239  1.1994
 6453SOL    HW130821   1.435   0.337   8.053 -0.3974 -1.8115  0.7785
 6453SOL    HW230822   1.531   0.266   8.131  1.1417 -0.5187  1.1848
 6454SOL     OW30823   0.063   3.256   1.750 -0.2026 -0.8686 -0.2577
 6454SOL    HW130824   4.720   3.290   1.689 -0.4219 -2.2829 -0.7962
 6454SOL    HW230825   0.118   3.188   1.713 -0.0073 -0.8020 -0.0912
 6455SOL     OW30826   2.691   2.433  10.400  0.1127  1.0769 -0.2723
 6455SOL    HW130827   2.672   2.380  10.323  2.1451  1.2976 -0.9245
 6455SOL    HW230828   2.604   2.456  10.434  0.0556 -0.8320  0.8805
 6456SOL     OW30829   0.131   0.534   0.270 -0.0102  0.2415  0.4164
 6456SOL    HW130830   0.146   0.628   0.281 -0.7802  0.3540  0.4925
 6456SOL    HW230831   0.137   0.525   0.175  0.3066 -1.6061  0.6265
 6457SOL     OW30832   3.604   4.015   5.758 -0.5841  0.0428  0.1041
 6457SOL    HW130833   3.670   3.986   5.695  0.4194  3.7898 -0.5648
 6457SOL    HW230834   3.525   3.989   5.710  0.5843 -0.1802 -1.6808
 6458SOL     OW30835   2.480   4.113   6.018  0.1552  0.3672 -0.2756
 6458SOL    HW130836   2.426   4.094   5.942  0.4240 -1.9552  0.1250
 6458SOL    HW230837   2.561   4.153   5.985  0.0147  0.4745 -0.4937
 6459SOL     OW30838   0.957   2.845   4.178 -0.5491  0.0769  0.2074
 6459SOL    HW130839   1.025   2.891   4.128 -0.1876 -1.1390 -0.4030
 6459SOL    HW230840   0.936   2.764   4.133 -2.6095  2.6821 -3.5583
 6460SOL     OW30841   0.371   3.536  12.342 -0.0897 -0.2148  0.2111
 6460SOL    HW130842   0.292   3.482  12.356 -0.0440 -1.1659 -3.2221
 6460SOL    HW230843   0.352   3.576  12.257  0.3126  1.8467  1.0892
 6461SOL     OW30844   3.312   2.896   6.654  0.3244  1.0275 -0.7450
 6461SOL    HW130845   3.328   2.811   6.612 -1.0518  0.6406 -0.4953
 6461SOL    HW230846   3.239   2.877   6.714  2.7640 -2.1047  1.2170
 6462SOL     OW30847   3.541   0.385   9.145 -0.2229 -0.5647  0.1742
 6462SOL    HW130848   3.592   0.458   9.182  0.8901 -1.6340  0.7639
 6462SOL    HW230849   3.485   0.425   9.078  1.4083 -1.1503 -1.5568
 6463SOL     OW30850   0.298   2.874   2.098  0.1430 -0.0687 -0.4822
 6463SOL    HW130851   0.294   2.797   2.154 -0.6013  0.7878  0.6505
 6463SOL    HW230852   0.358   2.923   2.154 -2.2814  1.1233  1.1199
 6464SOL     OW30853   3.043   3.266   2.061  0.1675  0.1208  0.3004
 6464SOL    HW130854   2.969   3.213   2.031 -0.3875  1.8075 -1.2781
 6464SOL    HW230855   3.117   3.231   2.010  0.6381  0.4236  0.7751
 6465SOL     OW30856   2.593   2.027  11.587  0.4116  0.2325 -0.0359
 6465SOL    HW130857   2.666   2.083  11.612  0.5990  0.4692 -1.1061
 6465SOL    HW230858   2.592   2.026  11.491 -1.6957 -2.4813  0.0230
 6466SOL     OW30859   1.033   3.086  12.367 -0.8642  0.2100  0.0291
 6466SOL    HW130860   1.096   3.029  12.322  1.0169  3.1411 -1.0133
 6466SOL    HW230861   1.036   3.036  12.449 -0.6103  2.1949  1.2317
 6467SOL     OW30862   2.324   1.622   3.540 -0.4646  0.0963 -0.1231
 6467SOL    HW130863   2.401   1.569   3.522 -0.4548 -0.4507  1.5684
 6467SOL    HW230864   2.352   1.647   3.628  0.6256  2.0988 -1.0341
 6468SOL     OW30865   3.501   0.676   1.142 -0.0012 -0.6082  0.2194
 6468SOL    HW130866   3.412   0.668   1.108 -0.2689 -0.0527  0.7842
 6468SOL    HW230867   3.539   0.745   1.088  0.9783 -1.1379  0.2263
 6469SOL     OW30868   4.534   3.401   7.947  0.2292 -0.5417  0.3532
 6469SOL    HW130869   4.447   3.362   7.933 -0.4707  1.2546 -0.3884
 6469SOL    HW230870   4.561   3.420   7.857 -1.6305 -0.4621 -0.1954
 6470SOL     OW30871   1.867   1.505   3.396  0.1283 -0.3099 -0.3117
 6470SOL    HW130872   1.948   1.544   3.363  0.7152 -0.2755  1.1714
 6470SOL    HW230873   1.809   1.581   3.398  0.1467 -0.2550 -1.9483
 6471SOL     OW30874   1.654   3.896   0.216  0.0503  0.4975  0.4430
 6471SOL    HW130875   1.587   3.954   0.254  0.0222  0.5072  0.3785
 6471SOL    HW230876   1.674   3.950   0.140 -2.4724 -0.3963 -0.8414
 6472SOL     OW30877   3.310   0.512   4.906 -0.2201 -0.2533 -0.6017
 6472SOL    HW130878   3.231   0.463   4.932 -0.1949  0.0821  0.1242
 6472SOL    HW230879   3.302   0.509   4.811 -0.0894 -0.7285 -0.5980
 6473SOL     OW30880   4.416   2.492   9.187 -0.9907  0.2327  0.5754
 6473SOL    HW130881   4.494   2.463   9.235 -0.1104  1.1489 -0.2981
 6473SOL    HW230882   4.384   2.406   9.160 -1.7336  0.8655 -0.5298
 6474SOL     OW30883   1.500   3.737  14.224 -0.2692 -0.3027 -0.3561
 6474SOL    HW130884   1.508   3.832  14.222  2.2363 -0.5410 -0.4872
 6474SOL    HW230885   1.409   3.727  14.194 -0.3860  1.5737 -0.6169
 6475SOL     OW30886   3.809   4.307  11.252 -0.2143 -0.6310 -0.3859
 6475SOL    HW130887   3.871   4.295  11.180  0.5847 -1.3802  0.4305
 6475SOL    HW230888   3.825   4.232  11.309 -2.5737 -1.7684 -1.2347
 6476SOL     OW30889   2.122   0.534   4.145 -0.3263 -0.4378  0.0669
 6476SOL    HW130890   2.203   0.559   4.100 -1.0380 -0.7838 -1.4034
 6476SOL    HW230891   2.087   0.623   4.148  2.8530  0.7907  0.6128
 6477SOL     OW30892   0.294   3.899   9.681  0.6231 -0.3110 -0.6114
 6477SOL    HW130893   0.322   3.939   9.763  1.6302 -0.4292 -0.8990
 6477SOL    HW230894   0.285   3.806   9.702 -2.5726  0.1958  0.2508
 6478SOL     OW30895   1.878   1.550  10.717  0.0096 -0.2715 -0.4040
 6478SOL    HW130896   1.952   1.591  10.762 -1.8665  1.9538  0.6588
 6478SOL    HW230897   1.883   1.458  10.743 -2.0862 -0.3230 -0.2284
 6479SOL     OW30898   0.663   2.361  15.737 -0.7635  0.0788  0.2922
 6479SOL    HW130899   0.654   2.269  15.761 -0.3755 -0.2215 -0.7406
 6479SOL    HW230900   0.667   2.401  15.824 -0.0277 -0.9050  0.7090
 6480SOL     OW30901   1.874   2.853   4.405 -0.3692 -0.4159 -0.6969
 6480SOL    HW130902   1.799   2.912   4.410 -0.9933 -1.3533  0.9433
 6480SOL    HW230903   1.840   2.765   4.425 -2.0645  0.1601 -1.0163
 6481SOL     OW30904   0.680   2.038   1.089  0.0141  0.0660 -0.2576
 6481SOL    HW130905   0.598   1.998   1.062 -0.8068  2.5207 -1.3853
 6481SOL    HW230906   0.720   1.958   1.123 -2.0279 -0.7813  0.1559
 6482SOL     OW30907   3.080   3.307   5.928 -0.5404 -0.3063 -0.1804
 6482SOL    HW130908   3.167   3.344   5.940  0.1092 -1.2974 -1.7936
 6482SOL    HW230909   3.111   3.219   5.905 -0.5495 -0.6905  1.2783
 6483SOL     OW30910   3.725   1.828  11.115 -0.4244  0.0210 -0.0088
 6483SOL    HW130911   3.635   1.846  11.086  0.4230 -0.4079 -2.9432
 6483SOL    HW230912   3.738   1.909  11.164 -0.5388 -1.3333  2.2644
 6484SOL     OW30913   2.254   1.328   5.793 -0.3933  0.2894  0.1290
 6484SOL    HW130914   2.248   1.349   5.700 -0.0005 -1.7766 -0.3598
 6484SOL    HW230915   2.210   1.244   5.802  0.5342 -0.3392 -1.1420
 6485SOL     OW30916   2.912   2.905   6.655  0.7249 -0.1402 -0.6714
 6485SOL    HW130917   2.948   2.911   6.743 -1.4696  0.1971  0.2076
 6485SOL    HW230918   2.978   2.950   6.603  0.5091  0.4031 -0.4689
 6486SOL     OW30919   0.924   1.372   1.210 -0.2502 -0.2398 -0.0145
 6486SOL    HW130920   0.923   1.294   1.156  1.4164 -1.4012  1.6278
 6486SOL    HW230921   0.919   1.439   1.142  0.5116 -0.6362 -0.4575
 6487SOL     OW30922   2.780   0.649  15.694  0.4218 -0.0443 -0.1305
 6487SOL    HW130923   2.807   0.655  15.786  0.7541 -0.5448 -0.1954
 6487SOL    HW230924   2.790   0.741  15.668 -0.3897 -0.3670 -1.5603
 6488SOL     OW30925   3.089   1.436   2.773  0.4472 -0.2182  0.0733
 6488SOL    HW130926   3.076   1.379   2.697  0.2066 -0.8508  0.5887
 6488SOL    HW230927   3.098   1.375   2.847  1.1931  0.0053  0.1597
 6489SOL     OW30928   3.145   1.906   6.996 -0.2823  0.0675  0.5164
 6489SOL    HW130929   3.072   1.927   6.937  1.5630  1.0324 -1.3992
 6489SOL    HW230930   3.102   1.874   7.076  1.0125 -0.3054  1.0683
 6490SOL     OW30931   1.841   0.365   5.442  0.4196 -0.2360 -0.1126
 6490SOL    HW130932   1.920   0.363   5.388  0.6068 -1.2348  0.1916
 6490SOL    HW230933   1.784   0.314   5.385 -0.0339  1.0136 -0.7723
 6491SOL     OW30934   4.174   0.659  17.570  0.0797  0.7202  0.1403
 6491SOL    HW130935   4.128   0.740  17.591 -2.1691 -0.3560 -0.6193
 6491SOL    HW230936   4.098   0.612  17.535  0.9842  0.6429 -1.7675
 6492SOL     OW30937   0.690   3.054  13.458  0.0418  0.5703 -0.3747
 6492SOL    HW130938   0.678   3.078  13.550  0.0403 -0.1607 -0.1818
 6492SOL    HW230939   0.598   3.051  13.433  0.0348  0.7132 -0.3677
 6493SOL     OW30940   1.386   2.895   4.750 -0.3843 -0.2795  0.0213
 6493SOL    HW130941   1.352   2.928   4.667  1.7713  0.6447 -0.4989
 6493SOL    HW230942   1.369   2.802   4.733  0.9845 -0.3948 -0.7271
 6494SOL     OW30943   0.879   0.626   0.617 -0.4307 -0.4002  0.0400
 6494SOL    HW130944   0.940   0.697   0.639 -0.4459 -0.3727 -0.0059
 6494SOL    HW230945   0.828   0.672   0.550  0.6950  0.4193 -0.2576
 6495SOL     OW30946   2.032   2.997   8.032 -0.2445  0.4351 -0.1893
 6495SOL    HW130947   1.964   2.999   7.965 -0.6908  0.7759  0.2646
 6495SOL    HW230948   2.013   3.083   8.072 -1.0808  0.1088  0.1077
 6496SOL     OW30949   3.603   0.607   9.332  0.2912 -0.5158 -0.2185
 6496SOL    HW130950   3.541   0.680   9.340  2.4782  1.0473  2.5978
 6496SOL    HW230951   3.580   0.563   9.414  0.3333  1.3518  0.7988
 6497SOL     OW30952   1.880   2.966  17.506  0.4404 -0.3481  0.3227
 6497SOL    HW130953   1.799   3.003  17.540  1.9467  1.7656  1.5638
 6497SOL    HW230954   1.940   3.039  17.522 -0.1045  0.2167 -0.1990
 6498SOL     OW30955   4.200   4.116   9.951  0.6215  0.2148 -0.2612
 6498SOL    HW130956   4.114   4.122   9.908  1.1768 -1.0662 -1.5228
 6498SOL    HW230957   4.260   4.109   9.877  1.0296  0.0889  0.0823
 6499SOL     OW30958   4.195   1.527  10.367 -0.0958 -0.2360  0.0706
 6499SOL    HW130959   4.117   1.562  10.410 -0.1587 -0.3119  0.0178
 6499SOL    HW230960   4.171   1.434  10.361 -0.3349 -0.2946  1.8878
 6500SOL     OW30961   3.001   2.718   7.260  0.0305  0.1048 -0.5320
 6500SOL    HW130962   3.079   2.698   7.311  0.8409  4.7789  0.0037
 6500SOL    HW230963   3.029   2.788   7.201  1.6038  1.5844  1.9881
 6501SOL     OW30964   0.735   0.078   8.005  0.0567 -0.0638  0.7195
 6501SOL    HW130965   0.648   0.046   7.981  0.6453  0.0541 -1.5538
 6501SOL    HW230966   0.697   0.134   8.073  2.7358  1.0012  1.3398
 6502SOL     OW30967   4.018   4.306   3.435  0.3565  0.2250 -0.6168
 6502SOL    HW130968   4.034   4.348   3.520 -0.2265 -3.2430  1.2310
 6502SOL    HW230969   4.102   4.267   3.412  0.4772  0.6620 -0.9131
 6503SOL     OW30970   4.187   2.242  16.650  0.4198 -0.6503  0.3561
 6503SOL    HW130971   4.280   2.221  16.654  0.5227 -0.1662  0.4676
 6503SOL    HW230972   4.153   2.174  16.591 -0.6069  0.1238  0.0374
 6504SOL     OW30973   3.993   1.636  11.166 -0.2138  0.3654 -0.0129
 6504SOL    HW130974   4.067   1.655  11.223 -0.0019 -1.5370  0.3390
 6504SOL    HW230975   4.027   1.576  11.099 -0.6795 -1.8611  1.7646
 6505SOL     OW30976   3.508   1.388   1.968 -0.2134  0.4886 -0.2820
 6505SOL    HW130977   3.428   1.433   1.943 -0.5593 -0.2672 -0.5369
 6505SOL    HW230978   3.495   1.294   1.957 -2.4559  0.6139  1.4063
 6506SOL     OW30979   3.479   3.947  14.179 -0.1835  0.5742 -0.4537
 6506SOL    HW130980   3.441   4.033  14.167 -0.2570  0.7355  0.8856
 6506SOL    HW230981   3.540   3.972  14.249  0.4403 -1.4848 -0.2465
 6507SOL     OW30982   3.126   2.710   8.218  0.5818  0.0428  0.2081
 6507SOL    HW130983   3.094   2.628   8.257  2.4407  0.0084  1.6590
 6507SOL    HW230984   3.083   2.782   8.265  0.7422  1.0182 -1.1396
 6508SOL     OW30985   2.593   3.404   8.839  0.3128 -0.1701 -0.0453
 6508SOL    HW130986   2.503   3.427   8.862  0.8661  1.2513  0.7566
 6508SOL    HW230987   2.638   3.475   8.886  1.3098 -1.5952  1.1716
 6509SOL     OW30988   0.076   0.120   4.609  0.1854 -0.1607 -0.0899
 6509SOL    HW130989   0.121   0.110   4.693 -0.3538 -0.1136  0.2073
 6509SOL    HW230990   0.059   0.028   4.588  0.7315 -0.7295  1.9685
 6510SOL     OW30991   0.959   3.440   8.178  0.4078  0.5595 -0.2023
 6510SOL    HW130992   0.871   3.437   8.139  0.4321 -1.1031 -0.1294
 6510SOL    HW230993   0.987   3.350   8.188  1.3542  1.0482  1.5136
 6511SOL     OW30994   0.386   2.168   5.257 -0.7256  0.0514 -0.1333
 6511SOL    HW130995   0.402   2.176   5.351 -1.5693  0.3756 -0.0097
 6511SOL    HW230996   0.450   2.235   5.235 -0.9592  0.9537  1.9970
 6512SOL     OW30997   4.100   1.724   5.298 -0.0925 -0.5406  0.3230
 6512SOL    HW130998   4.166   1.655   5.303 -0.1417 -0.4968  1.6747
 6512SOL    HW230999   4.087   1.752   5.389  0.3223 -1.8512  0.7860
 6513SOL     OW31000   4.300   3.981   3.029  0.5907  0.1403 -0.9314
 6513SOL    HW131001   4.209   4.011   3.020  0.7122  0.5032 -0.9611
 6513SOL    HW231002   4.298   3.906   2.969  0.5129 -0.1724 -0.5378
 6514SOL     OW31003   1.875   2.971   7.681  0.4952  0.2218 -0.2570
 6514SOL    HW131004   1.907   2.892   7.638 -0.0990 -0.3247  0.3108
 6514SOL    HW231005   1.780   2.964   7.675  0.3734  1.2330  0.4416
 6515SOL     OW31006   3.010   4.557  16.267 -0.3168 -0.4665  0.6882
 6515SOL    HW131007   2.984   4.490  16.330 -1.5121 -0.4767  0.1694
 6515SOL    HW231008   2.933   4.556  16.211  0.5647 -1.3839 -0.4882
 6516SOL     OW31009   1.997   3.991   5.753  0.5094 -0.1553  0.2326
 6516SOL    HW131010   1.951   4.075   5.747  1.3266  0.3745  1.3135
 6516SOL    HW231011   1.947   3.932   5.697  0.8878 -0.7238  0.4888
 6517SOL     OW31012   4.291   0.580  10.604 -0.2685  0.0145  0.5701
 6517SOL    HW131013   4.260   0.632  10.678  1.7440 -0.0292  1.4406
 6517SOL    HW231014   4.386   0.582  10.617 -0.1558 -1.1904 -0.0426
 6518SOL     OW31015   4.018   1.612   4.077  0.5209  0.2740  0.2301
 6518SOL    HW131016   4.020   1.674   4.149 -1.2998 -2.1757  2.3984
 6518SOL    HW231017   4.107   1.606   4.042 -0.0029  0.4216 -1.1314
 6519SOL     OW31018   1.016   4.036   7.389 -0.4396  0.3572 -0.4426
 6519SOL    HW131019   0.988   3.966   7.329 -2.1897  0.6234  0.0550
 6519SOL    HW231020   0.964   4.116   7.378 -0.7150  0.2686  0.2051
 6520SOL     OW31021   1.325   4.407   5.381  0.3230  0.2290  0.3135
 6520SOL    HW131022   1.420   4.412   5.389  0.6496 -0.8472 -2.9131
 6520SOL    HW231023   1.289   4.414   5.469 -0.5418 -1.3089  0.0714
 6521SOL     OW31024   4.482   1.472   3.186  0.0440  0.7925 -0.2224
 6521SOL    HW131025   4.534   1.407   3.139 -0.6690  0.2829 -0.3160
 6521SOL    HW231026   4.544   1.513   3.246  0.8050 -1.3693  0.4678
 6522SOL     OW31027   0.186   0.141   7.277 -0.4519  0.1402 -0.1936
 6522SOL    HW131028   0.151   0.136   7.187  3.5308 -1.8487 -1.6493
 6522SOL    HW231029   0.243   0.217   7.274  0.1504 -0.2840  0.6602
 6523SOL     OW31030   0.130   0.391   0.013 -0.2911  0.4109  0.4394
 6523SOL    HW131031   0.064   0.352  17.647  0.5755  0.3936 -0.5658
 6523SOL    HW231032   0.162   0.310   0.053  1.5867 -0.5890 -3.0628
 6524SOL     OW31033   4.209   1.148   8.768  0.0918 -0.2616 -0.9961
 6524SOL    HW131034   4.157   1.211   8.717  1.9968 -0.1534 -2.8042
 6524SOL    HW231035   4.219   1.075   8.707 -0.0104 -2.5410  1.7464
 6525SOL     OW31036   0.981   1.642   3.694  0.4477 -0.0689 -0.3282
 6525SOL    HW131037   0.982   1.640   3.790  0.9928  2.7530 -0.2681
 6525SOL    HW231038   0.889   1.629   3.672  0.1126  0.7327  0.5740
 6526SOL     OW31039   1.007   0.800   3.337  0.2871 -0.2804  0.3969
 6526SOL    HW131040   1.026   0.730   3.399  0.4526  1.0822  1.8811
 6526SOL    HW231041   1.021   0.879   3.390 -0.6851 -0.1456  0.4538
 6527SOL     OW31042   4.695   4.373   2.105 -0.0678  0.1135  0.4264
 6527SOL    HW131043   4.716   4.432   2.033  1.9751 -0.2972  0.6878
 6527SOL    HW231044   4.685   4.290   2.058  0.5890 -0.4265  1.2396
 6528SOL     OW31045   3.844   0.374  14.153  0.2941  0.2379  0.0247
 6528SOL    HW131046   3.816   0.461  14.182 -0.1545 -1.0719  3.6037
 6528SOL    HW231047   3.869   0.326  14.233  0.1779  0.1389  0.0015
 6529SOL     OW31048   3.649   0.783   1.424 -0.6109 -0.5034 -0.2169
 6529SOL    HW131049   3.635   0.849   1.356 -1.5543 -1.8015 -1.2885
 6529SOL    HW231050   3.567   0.734   1.414 -0.4688 -0.6554 -0.6602
 6530SOL     OW31051   0.645   3.446   9.477 -0.0677  0.2171 -0.0500
 6530SOL    HW131052   0.585   3.459   9.403  1.3521  0.8382 -1.0989
 6530SOL    HW231053   0.660   3.538   9.499  0.8100 -0.6137  2.7893
 6531SOL     OW31054   1.986   4.366  11.354 -1.0614 -0.4985 -0.0052
 6531SOL    HW131055   1.973   4.367  11.449  0.0458  1.8465  0.1369
 6531SOL    HW231056   2.018   4.457  11.350 -0.9359 -0.5438 -0.0349
 6532SOL     OW31057   0.466   1.455   3.302  0.1059 -0.1187  0.8690
 6532SOL    HW131058   0.434   1.544   3.314  2.8727  0.8496  1.2102
 6532SOL    HW231059   0.543   1.466   3.359 -0.4242  3.6669  0.8169
 6533SOL     OW31060   0.937   2.717  14.197  0.0197  0.1409 -0.0197
 6533SOL    HW131061   0.865   2.664  14.163  0.3613  0.0988 -0.6881
 6533SOL    HW231062   0.899   2.787  14.249  0.2945  1.5157 -1.6587
 6534SOL     OW31063   3.674   4.063   1.310 -0.5273  0.1012  0.1891
 6534SOL    HW131064   3.641   3.989   1.259  1.3954 -0.5757 -0.0328
 6534SOL    HW231065   3.721   4.010   1.374 -1.0953 -0.5609  0.0607
 6535SOL     OW31066   2.233   2.267   7.710 -0.1381 -0.5946  0.0903
 6535SOL    HW131067   2.249   2.288   7.618  0.7198  1.1889  0.6543
 6535SOL    HW231068   2.149   2.222   7.716 -1.3971  1.3814 -2.3824
 6536SOL     OW31069   2.177   1.993   8.978 -0.7509  0.1110  0.0352
 6536SOL    HW131070   2.086   2.013   8.956 -0.6666  0.5005  0.0283
 6536SOL    HW231071   2.225   2.061   8.930  1.1708  0.0718  1.9018
 6537SOL     OW31072   4.233   1.553   9.156  0.1100 -0.0906 -0.5142
 6537SOL    HW131073   4.209   1.644   9.176  0.5603 -0.2147  0.5493
 6537SOL    HW231074   4.172   1.502   9.208  0.1003 -1.0217 -1.4289
 6538SOL     OW31075   2.308   3.471  10.795  0.3846  0.4623 -0.1583
 6538SOL    HW131076   2.397   3.493  10.824 -0.2174  0.2568  1.8602
 6538SOL    HW231077   2.252   3.504  10.865 -0.2758  0.7343 -0.8182
 6539SOL     OW31078   2.283   0.581   9.018 -0.5943 -0.0045 -0.3306
 6539SOL    HW131079   2.288   0.541   9.104 -3.6141 -1.3278 -0.7437
 6539SOL    HW231080   2.362   0.633   9.001 -0.2357 -1.3185 -2.7038
 6540SOL     OW31081   4.558   1.794   7.043  0.4747 -0.4411  0.0978
 6540SOL    HW131082   4.466   1.772   7.055  0.0889  0.2592 -1.6172
 6540SOL    HW231083   4.544   1.878   7.086  2.2690  0.4930 -1.1326
 6541SOL     OW31084   1.686   2.609   8.329  0.3699  0.0906  0.3111
 6541SOL    HW131085   1.649   2.523   8.349 -2.9558  2.0263  2.4596
 6541SOL    HW231086   1.629   2.639   8.258  0.3717 -1.8145 -0.4999
 6542SOL     OW31087   1.334   1.352   1.025  0.3587  0.1592 -0.0574
 6542SOL    HW131088   1.369   1.400   1.100  4.0435 -1.8099 -0.5153
 6542SOL    HW231089   1.302   1.419   0.964  0.7107 -0.1018 -0.5319
 6543SOL     OW31090   3.204   0.173   7.018 -0.1417  0.2942 -1.0075
 6543SOL    HW131091   3.114   0.201   7.006 -0.9764 -1.3340  1.4488
 6543SOL    HW231092   3.254   0.220   6.951 -0.8163  0.1535 -1.5994
 6544SOL     OW31093   3.001   4.177   2.368 -0.2209 -0.4807  0.6999
 6544SOL    HW131094   2.931   4.138   2.421 -0.2131 -1.0165  0.3169
 6544SOL    HW231095   3.008   4.267   2.399 -0.8235 -0.1298 -0.1605
 6545SOL     OW31096   0.435   2.587   4.826  0.4047 -0.7672  0.0895
 6545SOL    HW131097   0.490   2.536   4.767  0.2530 -0.0090 -0.6944
 6545SOL    HW231098   0.403   2.522   4.889 -1.5772 -0.9077 -1.0470
 6546SOL     OW31099   1.662   4.653   1.345  0.1281 -0.6820 -0.5330
 6546SOL    HW131100   1.636   4.624   1.432 -2.0559  0.5264 -0.7898
 6546SOL    HW231101   1.596   4.603   1.297 -0.2863 -0.9942  0.3690
 6547SOL     OW31102   2.336   3.404  13.984 -0.5363  0.0370  0.3413
 6547SOL    HW131103   2.417   3.383  14.031  0.3166 -1.4436 -1.7660
 6547SOL    HW231104   2.337   3.328  13.925 -0.7775 -0.0059  0.3922
 6548SOL     OW31105   0.478   1.038   9.552 -0.4377 -0.1976  0.8838
 6548SOL    HW131106   0.450   1.128   9.569  1.7200  0.6734 -0.1550
 6548SOL    HW231107   0.557   1.023   9.603  0.6691  2.2641 -0.0924
 6549SOL     OW31108   2.933   1.084   6.354  0.5259  0.1018 -0.4085
 6549SOL    HW131109   2.966   1.017   6.294 -0.4111  1.8386 -2.8556
 6549SOL    HW231110   3.010   1.119   6.397  1.4095 -1.5418 -0.6450
 6550SOL     OW31111   4.069   2.588   4.967 -0.3488  0.1312  0.1991
 6550SOL    HW131112   4.061   2.580   5.062 -1.4422  0.0111  0.0935
 6550SOL    HW231113   4.053   2.496   4.944  0.6136  0.0323 -0.0528
 6551SOL     OW31114   4.328   1.160   9.891  0.8752 -0.1156  0.1576
 6551SOL    HW131115   4.328   1.140   9.985  1.2252  0.4946  0.2863
 6551SOL    HW231116   4.240   1.138   9.859  1.1307  0.1048 -0.6985
 6552SOL     OW31117   1.070   1.183   7.792  0.0564 -0.1142 -0.1979
 6552SOL    HW131118   1.094   1.104   7.840  2.3529  2.6171  3.1483
 6552SOL    HW231119   0.985   1.151   7.763  0.0728  2.1332 -2.7270
 6553SOL     OW31120   2.147   2.299   8.545  0.5043  0.2924  0.2496
 6553SOL    HW131121   2.206   2.336   8.610 -0.8401  0.1952  1.5197
 6553SOL    HW231122   2.194   2.306   8.462 -0.3871 -0.9722 -0.3612
 6554SOL     OW31123   2.147   4.153   6.766  0.0326  0.4369  0.3207
 6554SOL    HW131124   2.134   4.150   6.861 -1.6728  1.9766  0.1433
 6554SOL    HW231125   2.148   4.249   6.761 -1.3149  0.5023  1.5084
 6555SOL     OW31126   4.459   1.537  16.494 -0.2908  0.4118 -0.7020
 6555SOL    HW131127   4.389   1.477  16.467 -1.1568  1.0670  0.0825
 6555SOL    HW231128   4.438   1.618  16.448  1.2541  0.4525 -1.3197
 6556SOL     OW31129   1.465   2.254   6.151  0.0604 -0.5815  0.1582
 6556SOL    HW131130   1.483   2.249   6.057 -0.8012 -0.8828  0.0058
 6556SOL    HW231131   1.469   2.348   6.168 -1.0130 -0.3425 -0.8730
 6557SOL     OW31132   0.242   0.773   6.292 -0.3279 -0.8535  0.3575
 6557SOL    HW131133   0.313   0.789   6.229 -1.4957  1.7058 -0.3091
 6557SOL    HW231134   0.291   0.784   6.373  1.6869 -1.9583 -0.6954
 6558SOL     OW31135   2.482   0.649   2.577  0.3017  0.3127  0.2607
 6558SOL    HW131136   2.536   0.642   2.656 -0.1263  1.0711  0.6160
 6558SOL    HW231137   2.402   0.682   2.618  0.0013  0.1698 -0.2125
 6559SOL     OW31138   3.259   0.994   1.583 -0.2451 -0.1292  0.1570
 6559SOL    HW131139   3.195   0.968   1.518  0.8529 -2.8309  0.1386
 6559SOL    HW231140   3.326   1.032   1.526 -2.3262 -0.2875 -2.3645
 6560SOL     OW31141   0.235   3.839  13.946  0.2042  0.0451  0.3546
 6560SOL    HW131142   0.298   3.877  14.008  0.5904  0.7672 -0.4796
 6560SOL    HW231143   0.213   3.762  13.998  0.6809  0.7596  1.6259
 6561SOL     OW31144   3.183   2.063   2.617 -0.0273 -0.2954 -0.2053
 6561SOL    HW131145   3.239   2.140   2.601 -0.7986  0.5632  1.2672
 6561SOL    HW231146   3.219   2.024   2.696 -3.3589 -0.2223  1.3657
 6562SOL     OW31147   2.472   3.416   5.492 -0.1809 -0.1181 -0.0114
 6562SOL    HW131148   2.437   3.494   5.536  0.2136 -0.0862  0.2440
 6562SOL    HW231149   2.391   3.384   5.452 -1.3554  1.0631  1.4008
 6563SOL     OW31150   1.563   0.220   6.413 -0.1275  0.2746 -0.3292
 6563SOL    HW131151   1.567   0.215   6.508  0.1066  0.3698 -0.3346
 6563SOL    HW231152   1.647   0.186   6.381  0.3014  0.3737  0.7046
 6564SOL     OW31153   1.392   1.155   6.243 -0.2037  0.2844  0.3459
 6564SOL    HW131154   1.365   1.117   6.327 -1.1453 -0.0964 -0.1386
 6564SOL    HW231155   1.418   1.239   6.280 -0.3039  1.2421 -1.7887
 6565SOL     OW31156   3.850   0.221   7.007 -0.2773  0.3613  0.2213
 6565SOL    HW131157   3.821   0.220   6.916 -2.0063 -0.4792  0.7820
 6565SOL    HW231158   3.778   0.271   7.045 -1.0690 -0.7107  0.1175
 6566SOL     OW31159   1.564   4.246   1.457  0.0309  0.0537 -0.6749
 6566SOL    HW131160   1.492   4.186   1.437 -0.0070 -0.5320  1.1647
 6566SOL    HW231161   1.515   4.326   1.437  0.6061  0.2528 -1.3097
 6567SOL     OW31162   3.407   2.388   4.564  0.2376  0.6700  0.0261
 6567SOL    HW131163   3.453   2.472   4.555  0.1586  1.0245  2.9490
 6567SOL    HW231164   3.370   2.404   4.651  0.1554  1.4857 -0.1572
 6568SOL     OW31165   2.256   4.368   0.145  0.1521 -0.0586  0.2164
 6568SOL    HW131166   2.208   4.350   0.064  0.5450  2.9967 -0.7159
 6568SOL    HW231167   2.308   4.289   0.150 -1.1906 -0.9924 -0.5438
 6569SOL     OW31168   3.964   0.248  14.394  0.0580  0.4824 -0.5831
 6569SOL    HW131169   3.896   0.238  14.462  0.0334  0.7160 -0.5718
 6569SOL    HW231170   4.022   0.173  14.405 -1.5237 -0.7046 -0.2380
 6570SOL     OW31171   0.608   4.670   5.713  0.0471 -0.4025 -0.2870
 6570SOL    HW131172   0.667   4.615   5.661  0.2575 -1.7595  1.3910
 6570SOL    HW231173   0.603   0.029   5.662 -1.2838 -0.2262  0.1279
 6571SOL     OW31174   1.893   0.954   1.671 -0.0292  0.0519  0.2743
 6571SOL    HW131175   1.968   1.001   1.708  0.2838  0.0911 -0.4025
 6571SOL    HW231176   1.818   0.974   1.727  1.0765  0.5103  1.6158
 6572SOL     OW31177   3.636   1.994  11.684  0.2190  0.3039 -0.9127
 6572SOL    HW131178   3.583   1.936  11.628  0.5437 -1.1235  0.2588
 6572SOL    HW231179   3.598   2.079  11.661 -1.2388  0.4451  2.0985
 6573SOL     OW31180   0.261   4.650  12.376  0.0236 -0.6916 -0.3558
 6573SOL    HW131181   0.193   4.716  12.384  1.9948  1.6130 -2.4321
 6573SOL    HW231182   0.224   4.618  12.294  0.6093  1.4540 -1.4572
 6574SOL     OW31183   0.081   4.082   7.459 -0.8081 -0.3740  0.1230
 6574SOL    HW131184   0.158   4.104   7.511 -0.5301  1.5777 -1.0853
 6574SOL    HW231185   0.098   4.135   7.381 -2.6011 -0.9586 -0.6690
 6575SOL     OW31186   4.043   3.548   9.016  0.1543 -0.2931 -0.2997
 6575SOL    HW131187   4.040   3.578   8.925  0.7700  1.6844  0.3260
 6575SOL    HW231188   3.966   3.597   9.046 -1.1267 -0.2397 -3.7476
 6576SOL     OW31189   2.157   4.328   5.324  0.0502  0.2048 -0.4578
 6576SOL    HW131190   2.073   4.314   5.279 -0.6101 -0.6219  1.0440
 6576SOL    HW231191   2.220   4.333   5.252  0.4538  1.6488 -0.0040
 6577SOL     OW31192   4.301   3.815   4.197  0.6681  0.0233  0.3669
 6577SOL    HW131193   4.339   3.901   4.215  1.2363  0.0282 -0.8550
 6577SOL    HW231194   4.381   3.764   4.197 -1.3115 -3.0909 -1.3151
 6578SOL     OW31195   2.612   3.235   8.064  0.8482  0.2309 -0.4953
 6578SOL    HW131196   2.678   3.272   8.006  0.4413  0.6405 -0.6997
 6578SOL    HW231197   2.669   3.168   8.104  0.9489  1.0516  0.7377
 6579SOL     OW31198   0.944   4.423   3.444  0.1216  0.2802 -0.1282
 6579SOL    HW131199   0.936   4.458   3.356  0.4422 -2.3625 -1.2056
 6579SOL    HW231200   0.900   4.339   3.433 -2.5811  1.5334  1.1655
 6580SOL     OW31201   4.464   0.342   6.825  0.1097 -0.2800 -0.4409
 6580SOL    HW131202   4.464   0.436   6.844 -0.1400 -0.3019 -0.3251
 6580SOL    HW231203   4.391   0.333   6.763 -1.0806 -1.4981  1.1484
 6581SOL     OW31204   3.847   3.536   2.734  0.0514  0.0140  0.7415
 6581SOL    HW131205   3.886   3.458   2.775 -1.0525 -1.5530 -1.2284
 6581SOL    HW231206   3.921   3.576   2.687 -0.2196  0.8125  0.9957
 6582SOL     OW31207   1.995   4.614   6.905 -0.6478 -0.1471  0.3020
 6582SOL    HW131208   2.087   4.596   6.886 -0.3492  0.2365  1.4061
 6582SOL    HW231209   1.976   4.644   6.816  1.6599  0.9201  0.1797
 6583SOL     OW31210   1.675   3.607   6.527 -0.4149  0.1580 -0.5265
 6583SOL    HW131211   1.647   3.569   6.610  0.8292 -2.5033 -1.3135
 6583SOL    HW231212   1.597   3.645   6.487 -1.1740  0.1205  0.9331
 6584SOL     OW31213   0.462   1.497   5.086 -0.2192 -0.2060 -0.6460
 6584SOL    HW131214   0.475   1.556   5.160  1.0291  1.1105 -1.9169
 6584SOL    HW231215   0.437   1.417   5.132 -0.9239  0.7987  0.7227
 6585SOL     OW31216   2.350   2.108   5.045 -0.0620 -0.0344  0.1570
 6585SOL    HW131217   2.257   2.094   5.025  0.4694  0.2707 -2.5802
 6585SOL    HW231218   2.337   2.117   5.139  2.6429 -0.1608  0.5351
 6586SOL     OW31219   1.124   3.866  12.319  0.5321  0.1578  0.3297
 6586SOL    HW131220   1.067   3.829  12.251 -1.3007 -1.2079  2.6299
 6586SOL    HW231221   1.073   3.865  12.400  0.1101  3.0004  0.0998
 6587SOL     OW31222   2.124   4.304   1.874  0.4776  0.1316  0.4271
 6587SOL    HW131223   2.126   4.209   1.866 -2.7320  0.0971 -0.2232
 6587SOL    HW231224   2.046   4.334   1.827  1.1980  0.9644 -0.2260
 6588SOL     OW31225   0.924   0.279  13.604 -0.5698 -0.2080  0.4439
 6588SOL    HW131226   0.984   0.206  13.591  1.8936  2.3215 -2.2299
 6588SOL    HW231227   0.850   0.219  13.616 -0.8091  0.4952  2.4804
 6589SOL     OW31228   4.081   2.825   3.095  0.2525 -0.5097  0.0655
 6589SOL    HW131229   4.121   2.747   3.056 -1.2874 -1.3637  0.1932
 6589SOL    HW231230   4.104   2.804   3.185  2.8909  0.6764 -0.3245
 6590SOL     OW31231   0.165   2.009  13.042  0.4405  0.2319 -0.6051
 6590SOL    HW131232   0.247   2.032  13.085  0.5324 -1.3050  0.0462
 6590SOL    HW231233   0.168   1.913  13.032 -0.4212  0.0957  0.5217
 6591SOL     OW31234   3.746   3.090   1.304 -0.7307 -0.1570  0.4645
 6591SOL    HW131235   3.731   3.182   1.284  0.5065 -0.7187 -2.9930
 6591SOL    HW231236   3.746   3.076   1.398  0.7240  0.6868  0.5863
 6592SOL     OW31237   0.177   4.211  16.529  0.3242 -0.2928  0.3733
 6592SOL    HW131238   0.127   4.292  16.540  1.8505  0.4871  1.5132
 6592SOL    HW231239   0.189   4.185  16.620  0.0171 -1.2334  0.1437
 6593SOL     OW31240   4.229   0.659  14.591  0.0524  0.0685 -0.4527
 6593SOL    HW131241   4.308   0.706  14.619  0.4790 -0.0272 -1.5238
 6593SOL    HW231242   4.260   0.634  14.504  0.5476  2.8903 -1.0895
 6594SOL     OW31243   3.599   4.023   5.205 -0.2040 -0.6208 -0.1868
 6594SOL    HW131244   3.653   4.043   5.281 -1.1697  1.3847 -0.0194
 6594SOL    HW231245   3.628   4.088   5.140  0.6035 -1.1484 -0.3617
 6595SOL     OW31246   1.117   0.814   7.007 -0.2359  0.6023 -0.1104
 6595SOL    HW131247   1.102   0.885   7.069  0.7957  0.7095  0.0140
 6595SOL    HW231248   1.210   0.802   7.026 -0.5072 -0.7541  0.3719
 6596SOL     OW31249   0.084   2.528   7.884  0.2526 -0.6536  0.4249
 6596SOL    HW131250   0.067   2.600   7.823 -2.7215 -1.1085  0.6913
 6596SOL    HW231251   0.165   2.553   7.927 -0.4141 -1.9531  2.4064
 6597SOL     OW31252   1.368   4.130   2.673  0.4582  0.8541 -0.5714
 6597SOL    HW131253   1.458   4.113   2.646 -0.0423  0.1893 -1.8072
 6597SOL    HW231254   1.360   4.225   2.676 -0.4017  0.7427  1.1025
 6598SOL     OW31255   1.784   2.791   0.626  0.4661 -0.3659 -0.2320
 6598SOL    HW131256   1.705   2.755   0.666 -0.2799 -0.8604 -2.1341
 6598SOL    HW231257   1.759   2.883   0.617 -0.6664 -0.5002  1.7637
 6599SOL     OW31258   3.553   0.232   1.684 -0.1560 -0.6388 -0.0909
 6599SOL    HW131259   3.589   0.280   1.610  0.2419 -2.2612 -0.9340
 6599SOL    HW231260   3.462   0.262   1.674  0.2992  1.0965  0.9325
 6600SOL     OW31261   0.703   1.101  16.889  0.2288 -0.3566 -0.1928
 6600SOL    HW131262   0.744   1.167  16.832 -2.0030  1.4209  0.2749
 6600SOL    HW231263   0.658   1.150  16.957  0.6367  0.2213 -0.3297
 6601SOL     OW31264   4.288   3.052  16.440  0.8769  0.4983 -0.0461
 6601SOL    HW131265   4.357   3.116  16.426  0.4896  1.1700  1.1035
 6601SOL    HW231266   4.296   3.039  16.534 -0.6836  1.3162  0.2036
 6602SOL     OW31267   0.068   2.137   0.709 -0.2922 -0.1315  0.0790
 6602SOL    HW131268   0.024   2.052   0.710 -3.8177  1.6827  0.4845
 6602SOL    HW231269   0.147   2.118   0.659 -0.2467 -0.6050  0.3332
 6603SOL     OW31270   0.556   3.422   7.203  0.0577  0.1215  0.0914
 6603SOL    HW131271   0.536   3.486   7.271  1.6767  0.4988  0.2279
 6603SOL    HW231272   0.486   3.424   7.138  1.6017  1.3557 -1.5722
 6604SOL     OW31273   2.182   1.033   8.288 -0.4583 -0.3072 -0.5117
 6604SOL    HW131274   2.272   1.066   8.284 -1.0431  1.5348  1.4283
 6604SOL    HW231275   2.129   1.109   8.312 -1.1136 -0.4808 -1.4157
 6605SOL     OW31276   0.527   1.217   1.002 -0.2861 -0.6527 -0.5983
 6605SOL    HW131277   0.505   1.124   1.012 -0.4143 -0.6991 -1.3182
 6605SOL    HW231278   0.439   1.257   1.003  0.0559  0.1158 -1.1368
 6606SOL     OW31279   0.149   4.403   2.308  0.3361 -0.0870  0.0861
 6606SOL    HW131280   0.145   4.308   2.311  0.2482 -0.1090 -0.7298
 6606SOL    HW231281   0.102   4.420   2.226  1.6017  0.3150 -0.5503
 6607SOL     OW31282   0.075   2.521   8.248  0.3028 -0.0378 -0.1016
 6607SOL    HW131283   0.160   2.563   8.258  0.5835 -0.5879 -0.1408
 6607SOL    HW231284   0.026   2.596   8.217 -0.0716  0.1125  0.8544
 6608SOL     OW31285   3.292   3.116   5.717  0.1295  0.2663  0.0589
 6608SOL    HW131286   3.234   3.088   5.789  0.0336  0.2975 -0.0066
 6608SOL    HW231287   3.348   3.043   5.693  1.2103  0.9672  0.4538
 6609SOL     OW31288   4.554   3.631   6.667 -0.4985 -0.0998  0.0886
 6609SOL    HW131289   4.461   3.645   6.648 -0.5639  0.1458  0.5970
 6609SOL    HW231290   4.546   3.554   6.723 -0.3135  0.9264  1.5062
 6610SOL     OW31291   4.475   1.762   2.804  0.0642 -0.0523  0.2861
 6610SOL    HW131292   4.432   1.677   2.792  1.9224 -0.7717 -1.2918
 6610SOL    HW231293   4.515   1.759   2.891  0.0135  3.7388  0.4296
 6611SOL     OW31294   4.526   4.330   7.171 -0.0564 -0.6260 -0.6644
 6611SOL    HW131295   4.587   4.404   7.178 -0.1474 -0.5998 -0.1667
 6611SOL    HW231296   4.565   4.293   7.091  1.9652  1.3979 -0.6244
 6612SOL     OW31297   2.326   1.795  10.289  0.2527  0.1981 -0.4081
 6612SOL    HW131298   2.409   1.833  10.260  1.0250 -0.7476  0.5782
 6612SOL    HW231299   2.273   1.818  10.213  2.2081  0.6579 -1.6362
 6613SOL     OW31300   0.157   4.156   2.855 -0.0083 -0.0039  0.1410
 6613SOL    HW131301   0.169   4.061   2.864 -0.1261  0.1884  2.4732
 6613SOL    HW231302   0.163   4.153   2.760  1.5238 -2.0540  0.2867
 6614SOL     OW31303   1.359   4.383  17.640 -0.7193 -0.0944  0.3573
 6614SOL    HW131304   1.341   4.331  17.561 -0.5504  1.6025 -0.8112
 6614SOL    HW231305   1.429   4.325  17.667  0.6707  1.1358 -0.5778
 6615SOL     OW31306   1.304   3.385   7.397 -0.0148 -0.5080 -0.2052
 6615SOL    HW131307   1.387   3.346   7.422  0.3839  0.1297 -0.5422
 6615SOL    HW231308   1.298   3.454   7.462  0.3973 -1.0697  0.4245
 6616SOL     OW31309   3.366   1.987   1.939  0.8843  0.2214 -0.2552
 6616SOL    HW131310   3.386   1.960   1.849  1.0693 -2.1176  0.4933
 6616SOL    HW231311   3.433   2.053   1.959  1.9834 -0.9892  0.0132
 6617SOL     OW31312   4.309   4.274   0.459 -0.2487  0.0832  0.1938
 6617SOL    HW131313   4.245   4.211   0.427 -2.4274  1.4832  1.8657
 6617SOL    HW231314   4.273   4.301   0.543  0.3453  0.2306  0.4041
 6618SOL     OW31315   3.231   4.184   1.518 -0.0027 -0.6520 -0.0361
 6618SOL    HW131316   3.191   4.263   1.480  0.6851 -0.5490 -0.5500
 6618SOL    HW231317   3.323   4.211   1.514 -0.2495  0.1005 -0.6523
 6619SOL     OW31318   0.268   3.506   7.237 -1.3087 -0.3700  0.8743
 6619SOL    HW131319   0.268   3.428   7.293 -1.6565 -0.6073  0.5438
 6619SOL    HW231320   0.176   3.531   7.227 -0.9652 -0.3033 -2.1502
 6620SOL     OW31321   3.379   0.490   3.536 -0.0396 -0.3066  0.3246
 6620SOL    HW131322   3.397   0.396   3.540  1.2100  0.0073  2.0048
 6620SOL    HW231323   3.408   0.526   3.620  0.1138 -0.3593  0.2952
 6621SOL     OW31324   0.374   2.287  17.017  0.2503  0.1355 -0.6067
 6621SOL    HW131325   0.344   2.205  17.057 -2.3294  1.6609  0.6151
 6621SOL    HW231326   0.414   2.334  17.090  0.1636 -0.0404 -0.4455
 6622SOL     OW31327   0.921   0.039   3.399 -0.5685  0.1857 -0.2010
 6622SOL    HW131328   1.013   0.013   3.404 -1.0669 -1.2408  1.7205
 6622SOL    HW231329   0.918   0.070   3.309 -2.6714 -0.2033 -0.2658
 6623SOL     OW31330   3.057   0.954   6.746  0.3870 -0.4022  0.1800
 6623SOL    HW131331   3.079   0.981   6.835 -0.1221  1.6765 -0.3415
 6623SOL    HW231332   3.138   0.969   6.698  0.3726  0.5847  0.4717
 6624SOL     OW31333   2.193   3.976  12.492 -0.0852 -0.2058 -0.1525
 6624SOL    HW131334   2.179   3.882  12.499  0.8853 -0.2931  0.5454
 6624SOL    HW231335   2.244   3.972  12.411 -1.5058 -0.8017 -1.0106
 6625SOL     OW31336   3.331   0.426   6.879 -0.5653  0.2717  0.1157
 6625SOL    HW131337   3.335   0.514   6.915 -2.4128  0.4795 -0.2221
 6625SOL    HW231338   3.241   0.424   6.847 -0.3533 -1.4475 -0.4141
 6626SOL     OW31339   4.473   4.074  13.688  0.3920  0.5243 -0.3161
 6626SOL    HW131340   4.531   4.025  13.631 -1.5956 -0.4819 -1.4759
 6626SOL    HW231341   4.497   4.049  13.777 -0.8542  0.8810  0.1227
 6627SOL     OW31342   3.793   0.609   7.484 -0.0938  0.0563  0.1940
 6627SOL    HW131343   3.702   0.578   7.483 -0.7543  2.0284 -0.1224
 6627SOL    HW231344   3.779   0.678   7.549 -1.0059  0.3611 -0.3191
 6628SOL     OW31345   3.516   0.180   1.992 -0.0759  0.0046  0.2728
 6628SOL    HW131346   3.579   0.245   2.022 -0.9348  1.2619 -0.6373
 6628SOL    HW231347   3.533   0.178   1.898 -1.4520  2.7264 -0.0413
 6629SOL     OW31348   2.925   2.552   6.813  0.2582 -0.2197  0.1507
 6629SOL    HW131349   2.832   2.566   6.796  1.0220  3.2618 -1.1125
 6629SOL    HW231350   2.956   2.530   6.725  1.0292  1.0531  0.0949
 6630SOL     OW31351   0.455   1.149   4.651 -0.2640 -0.4112  0.1160
 6630SOL    HW131352   0.542   1.113   4.669 -0.0402  0.8209  1.5135
 6630SOL    HW231353   0.445   1.218   4.717 -0.6053 -0.9796  0.6635
 6631SOL     OW31354   1.546   1.581   7.106  0.4039  0.1009  0.8173
 6631SOL    HW131355   1.622   1.577   7.049 -0.8417 -0.4848 -0.7981
 6631SOL    HW231356   1.561   1.508   7.166 -1.8185 -1.0704 -0.0391
 6632SOL     OW31357   2.746   4.353   3.095  0.7808 -0.4858 -0.2605
 6632SOL    HW131358   2.671   4.297   3.111 -0.3397  1.0997  0.0628
 6632SOL    HW231359   2.808   4.288   3.061  0.0558 -0.8882 -0.8251
 6633SOL     OW31360   4.703   2.867   4.134 -0.7465  0.0073  0.7356
 6633SOL    HW131361   4.626   2.919   4.157 -0.9020 -0.1266  0.5156
 6633SOL    HW231362   0.052   2.929   4.119 -0.5298  0.2543  2.7349
 6634SOL     OW31363   3.683   0.390   3.370  0.4070  0.2230 -0.2180
 6634SOL    HW131364   3.635   0.365   3.292  1.7800 -4.1841  0.3559
 6634SOL    HW231365   3.774   0.403   3.343  0.0205 -0.3427 -1.7542
 6635SOL     OW31366   4.326   1.555  16.071  0.1819  0.4458 -0.8209
 6635SOL    HW131367   4.356   1.489  16.008  4.4752  0.0537  1.6193
 6635SOL    HW231368   4.399   1.566  16.133  1.7406 -0.8884 -2.4146
 6636SOL     OW31369   3.516   4.466   6.018  0.7375  0.5001 -0.3688
 6636SOL    HW131370   3.586   4.403   6.033  0.7985  0.6969  0.1835
 6636SOL    HW231371   3.437   4.413   6.014  0.5305  0.6680  1.2545
 6637SOL     OW31372   0.084   3.738   9.324 -0.0926 -0.0823  0.2475
 6637SOL    HW131373   0.150   3.783   9.376 -1.3102  2.2235 -0.1916
 6637SOL    HW231374   0.088   3.663   9.382 -0.8295 -0.6029 -0.3668
 6638SOL     OW31375   0.526   1.302  10.264  0.7047  0.5690 -0.2419
 6638SOL    HW131376   0.451   1.319  10.321  0.3980 -2.2188  0.2098
 6638SOL    HW231377   0.579   1.374  10.298  0.3193  1.8992 -2.4912
 6639SOL     OW31378   2.123   1.514   4.438  0.5684  0.5177  0.3713
 6639SOL    HW131379   2.054   1.500   4.503  2.2202 -0.5443  1.9218
 6639SOL    HW231380   2.189   1.553   4.496 -0.1712 -0.4954  1.9154
 6640SOL     OW31381   0.811   1.408   5.131  0.0833  0.5597  0.2636
 6640SOL    HW131382   0.896   1.375   5.102 -1.1049 -3.2633  1.2008
 6640SOL    HW231383   0.795   1.483   5.073 -0.1342  1.9788  2.1474
 6641SOL     OW31384   0.641   1.067   5.772 -0.3849  0.0458 -0.5345
 6641SOL    HW131385   0.583   0.991   5.779 -0.7167  0.2991 -0.5211
 6641SOL    HW231386   0.597   1.136   5.722  1.9616  1.0066 -1.2779
 6642SOL     OW31387   4.678   1.602   9.282 -0.2059  0.6699  0.2043
 6642SOL    HW131388   0.014   1.573   9.211 -2.3713  1.2419 -1.7996
 6642SOL    HW231389   0.020   1.657   9.328  3.0181 -1.7029 -1.3934
 6643SOL     OW31390   1.078   3.225   2.240 -0.0887 -0.6731  0.4625
 6643SOL    HW131391   1.059   3.274   2.160  0.5555  0.5915  1.0726
 6643SOL    HW231392   1.157   3.274   2.266 -1.5422  1.7068  0.3556
 6644SOL     OW31393   1.761   0.046   1.663 -0.1112 -0.0129 -0.3329
 6644SOL    HW131394   1.725   0.130   1.637  4.1106  0.9882 -2.8704
 6644SOL    HW231395   1.786   0.055   1.755  0.9041  0.4210 -0.6470
 6645SOL     OW31396   0.406   3.954   2.492 -0.6644 -0.5996 -0.0128
 6645SOL    HW131397   0.486   3.902   2.488 -0.1228  0.1411  1.3177
 6645SOL    HW231398   0.361   3.932   2.410 -1.7764  2.2043 -0.1742
 6646SOL     OW31399   0.626   3.746   5.384 -0.2408 -0.2882 -0.1378
 6646SOL    HW131400   0.570   3.676   5.417 -0.3210 -0.4227 -0.5588
 6646SOL    HW231401   0.582   3.824   5.418  0.0299 -0.8715  1.5344
 6647SOL     OW31402   1.388   2.597   5.476 -0.3042 -0.2094  0.1404
 6647SOL    HW131403   1.402   2.509   5.512 -1.3423 -0.7923 -0.8502
 6647SOL    HW231404   1.321   2.632   5.535 -0.1587 -2.3916  1.6199
 6648SOL     OW31405   1.200   3.485   8.798  0.0473 -0.0430  0.1214
 6648SOL    HW131406   1.263   3.436   8.851 -1.3218 -0.8793  0.9732
 6648SOL    HW231407   1.134   3.420   8.777  0.7987 -0.8411  0.2059
 6649SOL     OW31408   3.247   2.262   7.639 -0.2705 -0.9698  0.5383
 6649SOL    HW131409   3.331   2.295   7.608 -0.4889 -0.8640  0.0473
 6649SOL    HW231410   3.197   2.294   7.563  1.0149 -1.5101 -0.5258
 6650SOL     OW31411   3.845   4.642  15.933 -0.3477 -0.1616  0.0887
 6650SOL    HW131412   3.923   4.645  15.988 -0.0124 -1.9149 -0.3071
 6650SOL    HW231413   3.862   4.567  15.876 -0.1307 -0.5761  0.6984
 6651SOL     OW31414   2.522   4.474  16.843  0.1401 -0.4640  0.3779
 6651SOL    HW131415   2.440   4.425  16.842  0.4965 -1.0198 -1.3497
 6651SOL    HW231416   2.530   4.488  16.749  1.0212  0.4209  0.5880
 6652SOL     OW31417   3.764   2.706   6.468 -0.5263  0.1238 -0.3443
 6652SOL    HW131418   3.696   2.738   6.409 -1.1687  1.2691  1.0189
 6652SOL    HW231419   3.765   2.611   6.458 -0.5623 -0.0352  1.1428
 6653SOL     OW31420   1.356   3.901  12.570 -0.4601  0.2769 -0.4811
 6653SOL    HW131421   1.285   3.963  12.589 -1.6137 -0.9401 -0.7795
 6653SOL    HW231422   1.308   3.827  12.609  1.9540 -1.4215 -0.7831
 6654SOL     OW31423   2.887   2.935  16.134  0.3310  0.1577  0.5362
 6654SOL    HW131424   2.930   2.982  16.063  0.6031 -1.7350 -0.5425
 6654SOL    HW231425   2.914   2.984  16.212  0.2896  1.1979 -0.0955
 6655SOL     OW31426   4.264   3.172  13.842 -0.0837  0.5176 -0.0777
 6655SOL    HW131427   4.250   3.255  13.886  3.8134  1.9612 -1.5263
 6655SOL    HW231428   4.178   3.130  13.836  0.8205 -1.2084 -0.9739
 6656SOL     OW31429   0.033   0.465   5.964  0.1636  0.2181  0.1995
 6656SOL    HW131430   0.054   0.500   6.050 -3.0106  0.4058  0.8845
 6656SOL    HW231431   0.115   0.492   5.921 -0.0365 -0.1540 -0.4208
 6657SOL     OW31432   2.544   1.008   2.516 -0.4616  0.1075 -0.0029
 6657SOL    HW131433   2.524   0.922   2.552 -1.1998  0.3958  0.2643
 6657SOL    HW231434   2.572   1.062   2.591 -0.9224  0.0585  0.2022
 6658SOL     OW31435   0.646   3.980  12.502  0.7168  0.0672 -0.2493
 6658SOL    HW131436   0.582   3.945  12.440  1.2852 -0.7104 -0.4008
 6658SOL    HW231437   0.640   3.929  12.582  1.1002  2.2032  1.1517
 6659SOL     OW31438   0.263   0.664  15.408 -0.1475 -0.9011 -0.1388
 6659SOL    HW131439   0.189   0.603  15.405  1.3869 -2.8842  1.6353
 6659SOL    HW231440   0.275   0.672  15.503 -0.7733 -3.0442  0.1212
 6660SOL     OW31441   2.797   1.650  12.793 -0.2866 -0.2717 -0.2686
 6660SOL    HW131442   2.716   1.599  12.800 -1.0055  0.7308 -1.2855
 6660SOL    HW231443   2.776   1.742  12.803  0.3271 -0.4340  2.4800
 6661SOL     OW31444   0.423   3.415   3.262 -0.2017 -0.7581 -0.1230
 6661SOL    HW131445   0.393   3.357   3.331 -1.4468 -0.4618 -0.4261
 6661SOL    HW231446   0.490   3.465   3.309  0.2392  1.4695 -3.1037
 6662SOL     OW31447   3.867   0.345   7.436  0.4664 -0.9112  0.0880
 6662SOL    HW131448   3.856   0.439   7.423 -1.2717 -0.9018  1.6440
 6662SOL    HW231449   3.961   0.338   7.454  0.5177 -1.0069 -0.2222
 6663SOL     OW31450   4.335   0.937  11.746 -0.2402  0.3471 -0.5074
 6663SOL    HW131451   4.374   1.018  11.779 -0.7460  0.6610 -0.6957
 6663SOL    HW231452   4.350   0.962  11.655 -1.1508  1.6875 -0.2822
 6664SOL     OW31453   3.375   2.819   7.848  0.4207 -0.3373  0.3575
 6664SOL    HW131454   3.419   2.904   7.853 -0.2242  0.2140 -3.8964
 6664SOL    HW231455   3.283   2.846   7.850 -0.0269 -1.8854  0.1737
 6665SOL     OW31456   3.723   3.955   6.379 -0.3201  0.0958 -0.1853
 6665SOL    HW131457   3.763   3.887   6.324  0.5280  0.2021  0.2970
 6665SOL    HW231458   3.787   4.024   6.368 -0.5680  0.7538  2.3486
 6666SOL     OW31459   0.631   0.324  15.378 -0.2422 -0.2984  0.1742
 6666SOL    HW131460   0.620   0.369  15.462 -0.0151 -0.5149  0.3202
 6666SOL    HW231461   0.585   0.388  15.324  1.4215  0.3775 -0.4560
 6667SOL     OW31462   3.144   0.510   7.161 -0.3379  0.7217  0.2197
 6667SOL    HW131463   3.082   0.540   7.227 -0.3824 -2.1237  1.4417
 6667SOL    HW231464   3.091   0.500   7.082 -1.1744 -0.2138  0.8999
 6668SOL     OW31465   2.852   2.314   7.744 -0.0467  0.0513 -0.1463
 6668SOL    HW131466   2.784   2.325   7.811  1.4622 -1.1113  1.5822
 6668SOL    HW231467   2.837   2.372   7.670  2.8102 -0.0173 -0.7643
 6669SOL     OW31468   0.801   4.702   5.001  0.0453  0.2231  0.1311
 6669SOL    HW131469   0.774   4.691   4.909 -1.1455  1.1452  0.3741
 6669SOL    HW231470   0.773   4.616   5.033  1.1982 -0.2109 -0.0089
 6670SOL     OW31471   0.776   3.535   3.981 -0.0638 -0.0486 -0.8010
 6670SOL    HW131472   0.694   3.579   3.957 -0.0857  0.9571  1.1238
 6670SOL    HW231473   0.741   3.496   4.062  1.1247  0.6262  0.0425
 6671SOL     OW31474   1.279   4.393   6.293  0.5085  0.6885 -0.1842
 6671SOL    HW131475   1.353   4.340   6.263  0.0669  0.3791 -0.7280
 6671SOL    HW231476   1.223   4.378   6.217 -0.6682 -0.3818  0.8908
 6672SOL     OW31477   3.656   0.420   3.939  0.1672 -0.4321  0.2718
 6672SOL    HW131478   3.631   0.328   3.940  1.4864 -0.7902  0.4914
 6672SOL    HW231479   3.725   0.414   4.006  1.0283  0.5569 -0.5172
 6673SOL     OW31480   4.543   4.306   9.455  0.6931 -0.1063  0.3461
 6673SOL    HW131481   4.626   4.260   9.445  1.1946  1.2905 -1.7484
 6673SOL    HW231482   4.512   4.317   9.365  1.3008 -1.6604 -0.0452
 6674SOL     OW31483   1.282   3.262   1.245 -0.2853  0.3550 -0.2393
 6674SOL    HW131484   1.350   3.328   1.230 -0.4347  0.3484 -0.9302
 6674SOL    HW231485   1.207   3.295   1.195 -0.0921  0.3223 -0.5506
 6675SOL     OW31486   1.553   3.954   3.462 -0.0441  0.3907 -0.1631
 6675SOL    HW131487   1.480   3.973   3.403  0.4082 -0.7174 -1.0781
 6675SOL    HW231488   1.538   3.861   3.477  0.1653  0.4565  0.4533
 6676SOL     OW31489   4.674   2.616   4.423 -0.2179  0.3709  0.4530
 6676SOL    HW131490   4.698   2.666   4.502 -0.7510 -0.0089  0.8554
 6676SOL    HW231491   4.658   2.532   4.465 -0.9123  0.1494 -0.2672
 6677SOL     OW31492   1.315   0.340   0.810 -0.2577 -0.0337  0.2150
 6677SOL    HW131493   1.320   0.310   0.900  0.7892  1.3388  0.6173
 6677SOL    HW231494   1.221   0.333   0.793  0.0319 -1.5077 -0.7449
 6678SOL     OW31495   3.638   4.630   4.094  0.0230 -0.0937 -0.3477
 6678SOL    HW131496   3.670   4.649   4.182  0.4717 -0.0271 -0.5235
 6678SOL    HW231497   3.579   4.555   4.108  2.6157 -2.7730 -3.7101
 6679SOL     OW31498   1.073   3.481   5.658  0.2794  0.1179 -0.0697
 6679SOL    HW131499   0.986   3.503   5.624 -0.1189  2.0647  2.1717
 6679SOL    HW231500   1.049   3.426   5.733  0.1525  1.3740  0.8204
 6680SOL     OW31501   2.436   3.821   3.198 -0.1941  0.2784  0.4026
 6680SOL    HW131502   2.422   3.756   3.267 -1.7733  0.5319  0.3263
 6680SOL    HW231503   2.466   3.889   3.258 -0.1093  0.9369 -0.3949
 6681SOL     OW31504   4.635   3.416   9.049 -0.3234 -0.4794 -0.0091
 6681SOL    HW131505   4.607   3.328   9.073 -1.6045 -0.4596 -1.4490
 6681SOL    HW231506   4.620   3.407   8.955 -2.5782  0.3299  0.2617
 6682SOL     OW31507   3.920   3.340   6.770 -0.2175  0.1006 -0.0721
 6682SOL    HW131508   3.828   3.359   6.785 -0.3805 -2.6593  2.3697
 6682SOL    HW231509   3.915   3.250   6.738 -0.8198  0.5829 -1.3474
 6683SOL     OW31510   1.661   0.966   4.014 -0.1069  0.1626  0.0675
 6683SOL    HW131511   1.593   0.901   4.034  1.3307 -1.0252  1.0988
 6683SOL    HW231512   1.725   0.915   3.965 -1.4671 -0.8175 -0.6888
 6684SOL     OW31513   0.342   1.391   2.101  0.3999  0.3559  0.2056
 6684SOL    HW131514   0.309   1.357   2.184  1.2231 -0.4017  0.2119
 6684SOL    HW231515   0.255   1.417   2.070  1.0839  2.9839  0.4496
 6685SOL     OW31516   1.292   4.344   5.638 -0.0493 -0.5136  0.4408
 6685SOL    HW131517   1.267   4.404   5.708 -2.5671 -0.8961 -0.1491
 6685SOL    HW231518   1.387   4.348   5.653  0.1833  0.4308 -1.2579
 6686SOL     OW31519   2.605   2.588   4.524 -0.6987 -0.8363 -0.3873
 6686SOL    HW131520   2.636   2.505   4.488  1.0463 -2.1163  4.0507
 6686SOL    HW231521   2.606   2.646   4.447  0.5021 -1.0241 -0.5056
 6687SOL     OW31522   0.897   2.595   0.251 -0.3926  0.5692  0.2368
 6687SOL    HW131523   0.946   2.515   0.234  0.3920  1.4166 -1.5538
 6687SOL    HW231524   0.868   2.615   0.162 -2.7054 -0.4876  0.7466
 6688SOL     OW31525   3.618   1.950   1.327 -0.4825  0.6694  0.8295
 6688SOL    HW131526   3.540   1.944   1.382 -0.1138  0.5445  1.3448
 6688SOL    HW231527   3.658   1.862   1.326  1.5481  1.5998  0.2413
 6689SOL     OW31528   0.673   2.332   4.338 -0.7588  0.4574 -0.3527
 6689SOL    HW131529   0.602   2.300   4.283 -1.6215  1.0818  0.3980
 6689SOL    HW231530   0.614   2.383   4.394 -1.0857  1.6782 -1.7966
 6690SOL     OW31531   0.491   0.055   1.249  0.7247 -0.3734 -0.2996
 6690SOL    HW131532   0.514   0.142   1.282  1.0179 -0.4502 -0.3032
 6690SOL    HW231533   0.484   0.078   1.156  0.2211 -0.8454 -0.3820
 6691SOL     OW31534   1.847   1.957   1.935 -0.4130  0.1046  0.1354
 6691SOL    HW131535   1.884   2.042   1.960 -3.2291  1.1231  0.8562
 6691SOL    HW231536   1.797   1.981   1.857 -1.1923  2.5629  1.4087
 6692SOL     OW31537   0.018   2.378  11.859  0.3256  0.0853  0.0317
 6692SOL    HW131538   0.045   2.286  11.860  0.0254 -0.0122 -0.5693
 6692SOL    HW231539   0.104   2.418  11.874 -0.1981  1.5885 -0.9620
 6693SOL     OW31540   0.010   0.981  10.133 -0.0141  0.1494  0.1755
 6693SOL    HW131541   0.035   0.962  10.042 -1.5414 -3.0794  0.4271
 6693SOL    HW231542   0.079   1.046  10.147  0.2280  0.0935 -0.7520
 6694SOL     OW31543   3.010   3.335   2.798  0.2322 -0.2029 -0.2901
 6694SOL    HW131544   3.068   3.380   2.860 -1.8251  0.6120  1.0514
 6694SOL    HW231545   2.921   3.330   2.835  0.0305 -1.1951 -0.9102
 6695SOL     OW31546   1.409   0.606   7.041 -0.3700 -0.8499 -0.5381
 6695SOL    HW131547   1.382   0.695   7.061 -1.5463 -1.3215  0.0170
 6695SOL    HW231548   1.501   0.609   7.065 -0.6805 -2.6690  0.9375
 6696SOL     OW31549   4.421   0.169   3.382 -0.4056 -0.3733  0.2076
 6696SOL    HW131550   4.356   0.123   3.329  0.6886 -0.2462 -1.2107
 6696SOL    HW231551   4.454   0.232   3.319 -0.1592 -3.0135 -2.2776
 6697SOL     OW31552   0.000   1.085   2.857 -0.2242  0.3885  0.2475
 6697SOL    HW131553   0.025   1.104   2.766  2.1064 -2.0232  0.3821
 6697SOL    HW231554   0.052   1.155   2.897  1.1745  0.6388 -1.9948
 6698SOL     OW31555   1.881   1.229   1.436 -0.1480 -0.2157  0.0298
 6698SOL    HW131556   1.856   1.137   1.427  1.6355 -0.3846 -3.1827
 6698SOL    HW231557   1.805   1.259   1.486 -0.9937 -1.2571 -0.6375
 6699SOL     OW31558   2.001   1.919  12.043  0.0458  0.1974  0.1808
 6699SOL    HW131559   1.974   1.940  11.953  1.7664 -0.2288 -0.4198
 6699SOL    HW231560   2.031   2.005  12.073 -1.4659  0.5236  0.7526
 6700SOL     OW31561   2.585   3.986  12.224  0.1038  0.3522 -0.0525
 6700SOL    HW131562   2.599   4.058  12.161  1.7918 -1.1755 -1.4244
 6700SOL    HW231563   2.643   3.915  12.197 -1.6428 -1.2592  0.4670
 6701SOL     OW31564   2.064   2.755   7.539  0.0652  0.0413 -0.5631
 6701SOL    HW131565   2.116   2.695   7.485 -0.2222  0.5134 -1.3647
 6701SOL    HW231566   1.984   2.702   7.539  0.7826 -1.0305 -0.6154
 6702SOL     OW31567   0.890   2.544   7.346  0.1218  0.0727  0.3604
 6702SOL    HW131568   0.948   2.485   7.299  0.3419 -1.6931  2.8787
 6702SOL    HW231569   0.824   2.489   7.388 -1.0104  2.7961  2.1147
 6703SOL     OW31570   2.659   3.983   2.891 -0.3542  0.1078 -0.0700
 6703SOL    HW131571   2.580   3.944   2.855 -1.4507  3.2755 -1.1186
 6703SOL    HW231572   2.620   4.064   2.925  0.2370  0.9165 -1.3189
 6704SOL     OW31573   2.636   2.281  12.068  0.0998  0.9086 -0.1228
 6704SOL    HW131574   2.682   2.324  12.140  0.7941  1.0381 -0.6476
 6704SOL    HW231575   2.679   2.196  12.062 -0.4378  0.5858  0.5799
 6705SOL     OW31576   2.818   3.976   0.623  0.3220 -0.2462  0.2245
 6705SOL    HW131577   2.793   3.984   0.531  1.2058 -0.7489 -0.0513
 6705SOL    HW231578   2.876   3.901   0.630  0.0887 -0.4037  0.4712
 6706SOL     OW31579   4.631   4.281   0.843  0.3897  0.3177 -0.6745
 6706SOL    HW131580   4.669   4.245   0.763  1.7308 -0.1578  0.1756
 6706SOL    HW231581   4.690   4.241   0.907 -1.0624  0.6132  0.8465
 6707SOL     OW31582   4.710   4.573   7.677 -0.0492  0.2643 -0.1115
 6707SOL    HW131583   0.050   4.638   7.709 -0.4731  0.6164 -0.0039
 6707SOL    HW231584   0.046   4.505   7.645  1.6923  0.6916  2.1278
 6708SOL     OW31585   4.456   3.225   7.024 -0.1892 -0.6185 -0.4272
 6708SOL    HW131586   4.386   3.204   6.962 -1.4410  0.2382  0.7112
 6708SOL    HW231587   4.533   3.207   6.970  0.0959 -0.6694 -0.0035
 6709SOL     OW31588   1.174   2.628  17.075  0.1256 -0.8338 -0.2776
 6709SOL    HW131589   1.179   2.594  17.164 -0.6203 -0.2934 -0.0289
 6709SOL    HW231590   1.093   2.588  17.043  0.7477 -2.7014  0.4796
 6710SOL     OW31591   0.916   4.521  10.182 -0.8106  0.0220 -0.1682
 6710SOL    HW131592   0.850   4.549  10.245  1.2406 -0.5452  2.2379
 6710SOL    HW231593   0.957   4.442  10.217  0.0398  0.8550  0.7318
 6711SOL     OW31594   2.569   0.541  14.671  0.0540  0.0206  0.2875
 6711SOL    HW131595   2.562   0.631  14.639  0.6456 -0.3493 -0.9013
 6711SOL    HW231596   2.650   0.553  14.720  0.7282  1.9357 -1.2912
 6712SOL     OW31597   0.376   4.203   4.660  0.2550 -0.2294 -0.1422
 6712SOL    HW131598   0.456   4.242   4.695 -0.8132  1.9083 -0.0335
 6712SOL    HW231599   0.364   4.129   4.720 -2.3842  0.8626  0.7271
 6713SOL     OW31600   0.640   2.856   2.975  0.0045  0.2579  0.1028
 6713SOL    HW131601   0.621   2.923   2.910  1.4336  1.4086  0.8772
 6713SOL    HW231602   0.618   2.911   3.051  0.8290 -1.2781  1.4619
 6714SOL     OW31603   3.204   2.595  16.358  0.0229 -0.1376  0.0034
 6714SOL    HW131604   3.215   2.663  16.292 -1.2498  1.1517  1.1507
 6714SOL    HW231605   3.197   2.645  16.439 -0.3237  1.3960 -0.9652
 6715SOL     OW31606   4.292   3.104  10.315 -0.2474  0.3672 -0.2721
 6715SOL    HW131607   4.378   3.122  10.277  0.8831 -1.2012  1.5376
 6715SOL    HW231608   4.310   3.141  10.401  0.8363 -0.8109 -0.0031
 6716SOL     OW31609   3.145   1.606   6.433 -0.2515 -0.4606  0.1921
 6716SOL    HW131610   3.155   1.681   6.491  1.2939 -0.0704 -0.5763
 6716SOL    HW231611   3.108   1.636   6.350  2.9559 -1.9256 -1.7736
 6717SOL     OW31612   4.588   0.155   9.161 -0.0370  0.0791 -0.3975
 6717SOL    HW131613   4.588   0.226   9.224 -3.1457 -0.0989 -0.2187
 6717SOL    HW231614   4.651   0.096   9.203 -1.1589  0.7687  2.2380
 6718SOL     OW31615   3.539   1.720   8.130  0.0694 -0.1904 -0.6868
 6718SOL    HW131616   3.539   1.661   8.205 -0.6065 -0.4101 -0.8594
 6718SOL    HW231617   3.461   1.774   8.133 -0.5357 -0.9971 -1.7171
 6719SOL     OW31618   1.033   0.998   9.193  0.2683  0.0066 -0.0092
 6719SOL    HW131619   1.028   1.056   9.117  1.8138 -1.5355 -1.2963
 6719SOL    HW231620   0.989   0.920   9.158  0.3967  0.7969 -1.9536
 6720SOL     OW31621   2.155   0.501   1.146 -0.1091 -0.0748 -0.0034
 6720SOL    HW131622   2.206   0.583   1.144 -0.0836 -0.0905 -0.0003
 6720SOL    HW231623   2.219   0.442   1.187 -0.4282  1.8797  3.3277
 6721SOL     OW31624   2.657   3.186   4.301  0.0219  0.2327  0.3650
 6721SOL    HW131625   2.571   3.170   4.262 -0.2735  0.7666  0.8126
 6721SOL    HW231626   2.691   3.098   4.283  2.0688  1.1159 -0.1667
 6722SOL     OW31627   1.476   1.087  14.793 -0.1024  0.2513  0.5803
 6722SOL    HW131628   1.447   1.172  14.759 -2.6314 -0.8998 -0.1556
 6722SOL    HW231629   1.462   1.022  14.724 -0.1338 -0.6276  1.4178
 6723SOL     OW31630   2.860   2.745   2.290  0.2132 -0.0711  0.5297
 6723SOL    HW131631   2.869   2.683   2.362  0.3975 -0.6170  0.0420
 6723SOL    HW231632   2.832   2.823   2.338 -1.0068  1.2209 -2.2690
 6724SOL     OW31633   3.332   4.478  16.533 -0.2807 -0.8846 -0.6151
 6724SOL    HW131634   3.326   4.416  16.606  0.1421  0.5457  0.6250
 6724SOL    HW231635   3.410   4.450  16.485 -1.0129 -0.7885 -1.8607
 6725SOL     OW31636   2.220   0.476  11.119  1.0464 -0.0181 -0.4927
 6725SOL    HW131637   2.152   0.457  11.054  0.7630 -0.2282 -0.1339
 6725SOL    HW231638   2.250   0.385  11.125  2.2349  0.5111  1.4943
 6726SOL     OW31639   4.360   0.082   7.990  0.0268 -0.8710  0.4370
 6726SOL    HW131640   4.366   0.146   7.919 -2.4347  0.7197  1.6656
 6726SOL    HW231641   4.370   0.004   7.936  4.1666  0.2608 -0.4244
 6727SOL     OW31642   2.270   1.673   4.673 -0.1722  0.5289 -0.0490
 6727SOL    HW131643   2.310   1.732   4.737 -0.2354  0.1321  0.3512
 6727SOL    HW231644   2.186   1.717   4.663 -0.3852 -0.4526 -2.5630
 6728SOL     OW31645   3.160   0.658   3.450  0.4304 -0.7890  0.1439
 6728SOL    HW131646   3.170   0.705   3.533 -0.0400 -0.8420  0.2282
 6728SOL    HW231647   3.239   0.602   3.451 -1.1740 -3.0585 -0.1625
 6729SOL     OW31648   2.179   0.702  13.113  0.5573  0.1832  0.0204
 6729SOL    HW131649   2.105   0.744  13.070  0.6145 -0.9942 -1.1887
 6729SOL    HW231650   2.131   0.650  13.177 -2.0265  3.2721  0.6422
 6730SOL     OW31651   4.001   2.008   5.235 -0.2824 -0.2755  0.2052
 6730SOL    HW131652   3.979   2.028   5.144 -2.0204 -1.7108  0.3269
 6730SOL    HW231653   4.043   1.924   5.218  0.0679  0.2610 -1.5180
 6731SOL     OW31654   0.294   2.391   3.270  0.4420  0.2544  0.3697
 6731SOL    HW131655   0.253   2.336   3.203  0.9081 -0.0217  0.3123
 6731SOL    HW231656   0.381   2.351   3.274  0.4899  0.1990 -1.1600
 6732SOL     OW31657   2.776   0.425   8.206 -0.1763  0.0507  0.2240
 6732SOL    HW131658   2.870   0.420   8.226 -0.1669 -0.4232  0.0727
 6732SOL    HW231659   2.740   0.338   8.226 -2.0479  1.9192  5.0623
 6733SOL     OW31660   4.598   2.430   6.210 -0.0408  0.1034 -0.0471
 6733SOL    HW131661   4.692   2.432   6.226  0.1666  0.2629 -1.2701
 6733SOL    HW231662   4.562   2.417   6.298  1.4046 -0.9263  0.3871
 6734SOL     OW31663   0.392   1.510   5.539 -0.4037 -0.1683  0.6289
 6734SOL    HW131664   0.430   1.537   5.622 -0.7524  1.1169  0.3758
 6734SOL    HW231665   0.298   1.527   5.545 -0.6429 -0.7350 -1.4603
 6735SOL     OW31666   3.767   0.518   1.267  0.3885 -0.5283 -0.1268
 6735SOL    HW131667   3.693   0.577   1.255  2.3952  2.2071  0.9167
 6735SOL    HW231668   3.810   0.527   1.182  0.3126  1.7012  0.0653
 6736SOL     OW31669   1.308   2.178   3.415  0.2757  0.4325  0.4158
 6736SOL    HW131670   1.371   2.127   3.466 -0.7775  1.0582  2.3372
 6736SOL    HW231671   1.307   2.140   3.327 -1.6650 -0.6556  0.9061
 6737SOL     OW31672   1.266   4.303   3.324 -0.2746 -0.4737 -0.1605
 6737SOL    HW131673   1.205   4.250   3.273  0.2786  0.2682 -1.5811
 6737SOL    HW231674   1.273   4.264   3.411  0.3039 -1.0667 -0.4738
 6738SOL     OW31675   1.880   1.022   9.083  0.5159 -0.1746  0.3514
 6738SOL    HW131676   1.875   1.100   9.138 -0.6666  0.7007 -0.9728
 6738SOL    HW231677   1.955   0.973   9.116  0.8013 -0.1402 -0.2523
 6739SOL     OW31678   4.059   1.371   5.813  0.5503  0.2236 -0.0171
 6739SOL    HW131679   4.053   1.377   5.718  1.6922 -0.2930 -0.1107
 6739SOL    HW231680   3.987   1.314   5.842 -0.7612  2.4659  1.1615
 6740SOL     OW31681   4.068   0.723  14.228  0.1838  0.1287 -0.2741
 6740SOL    HW131682   4.160   0.730  14.203 -0.5009 -0.6625 -3.0260
 6740SOL    HW231683   4.066   0.635  14.265 -0.1186  0.1377 -0.2688
 6741SOL     OW31684   1.331   1.992   3.993 -0.3431  0.4790  0.1963
 6741SOL    HW131685   1.299   1.935   3.923  0.9929 -2.0777  1.6523
 6741SOL    HW231686   1.311   1.937   4.069 -1.5389  2.6058  1.4315
 6742SOL     OW31687   1.143   0.065   8.140  0.0342 -0.4136 -0.7939
 6742SOL    HW131688   1.102   0.142   8.179 -0.0576 -0.9257  0.1238
 6742SOL    HW231689   1.188   0.093   8.060 -1.0494  1.7175 -0.6546
 6743SOL     OW31690   0.277   0.310  13.716 -0.1183 -0.0970 -0.4390
 6743SOL    HW131691   0.367   0.340  13.729 -0.7906  0.1780  3.4305
 6743SOL    HW231692   0.236   0.330  13.800 -0.9374  0.5239 -0.9914
 6744SOL     OW31693   2.179   4.720   9.504 -0.0990  0.3396 -0.3464
 6744SOL    HW131694   2.258   4.683   9.543 -1.0778 -0.8115  0.5256
 6744SOL    HW231695   2.129   0.008   9.584 -0.2021 -3.0236 -0.0103
 6745SOL     OW31696   1.879   0.462   1.258  0.0476  0.0383 -0.1031
 6745SOL    HW131697   1.828   0.436   1.181 -2.4431 -1.2593  1.9567
 6745SOL    HW231698   1.961   0.470   1.209 -1.4816  0.0192 -2.6414
 6746SOL     OW31699   0.749   4.092   6.201  0.8469  0.3089  0.0047
 6746SOL    HW131700   0.759   4.092   6.106 -2.1342 -0.5844 -0.2932
 6746SOL    HW231701   0.660   4.127   6.206  1.4943  1.8417  0.7430
 6747SOL     OW31702   1.761   1.649   7.447 -0.3628 -0.6683 -0.0168
 6747SOL    HW131703   1.816   1.571   7.436 -1.8617 -1.6373 -0.6513
 6747SOL    HW231704   1.769   1.694   7.363  1.8123 -1.3768 -0.1728
 6748SOL     OW31705   0.345   2.880   9.058 -0.7071 -0.5563 -0.0272
 6748SOL    HW131706   0.400   2.802   9.047  1.1271  0.9430 -1.4076
 6748SOL    HW231707   0.385   2.906   9.141  1.4105  2.2863 -1.9363
 6749SOL     OW31708   0.046   1.136   2.229 -0.1518 -0.1091 -0.2508
 6749SOL    HW131709   4.697   1.200   2.239 -0.6109 -0.5226 -0.8723
 6749SOL    HW231710   0.098   1.169   2.302 -1.4743 -1.3892  1.2348
 6750SOL     OW31711   1.689   0.243   4.551 -0.2951  0.2237  0.3052
 6750SOL    HW131712   1.729   0.307   4.492  0.8421  0.1948  1.0436
 6750SOL    HW231713   1.675   0.166   4.496  0.6001  0.9207 -0.9227
 6751SOL     OW31714   3.772   3.567   3.734  0.0891 -0.0857 -0.2268
 6751SOL    HW131715   3.698   3.532   3.684 -0.3925  1.0160 -0.2888
 6751SOL    HW231716   3.845   3.537   3.679  0.9664  2.7196 -0.5682
 6752SOL     OW31717   0.338   4.209   9.302 -0.5730 -0.1714 -0.3707
 6752SOL    HW131718   0.359   4.138   9.241  0.2572 -1.1432  1.0215
 6752SOL    HW231719   0.361   4.289   9.255 -0.4566 -1.0798 -1.8444
 6753SOL     OW31720   1.602   1.715   0.730  0.5603 -0.0141  0.0939
 6753SOL    HW131721   1.664   1.703   0.801  0.0150  1.5519  0.8421
 6753SOL    HW231722   1.523   1.666   0.754  1.2206  0.7543  3.7204
 6754SOL     OW31723   0.363   4.021  11.483  0.0965  0.1430 -0.6519
 6754SOL    HW131724   0.407   4.044  11.566 -1.5712  1.8946 -0.2326
 6754SOL    HW231725   0.339   4.108  11.450 -2.3288 -0.8157 -1.3821
 6755SOL     OW31726   4.016   4.334   8.238  0.2226  0.4260 -0.0918
 6755SOL    HW131727   3.992   4.413   8.286  0.9140  0.8431 -0.4335
 6755SOL    HW231728   4.043   4.275   8.308  0.8235 -0.8278 -1.3846
 6756SOL     OW31729   0.452   3.625   7.710  0.1367  0.4192 -0.0057
 6756SOL    HW131730   0.386   3.575   7.662  1.8743 -0.9515 -0.9629
 6756SOL    HW231731   0.437   3.711   7.672 -0.1460  0.0415 -0.7412
 6757SOL     OW31732   0.363   4.473  17.443  0.0565 -0.0724  0.2412
 6757SOL    HW131733   0.378   4.383  17.470  1.5858 -0.6980 -2.5841
 6757SOL    HW231734   0.276   4.469  17.402  0.5892 -0.1319 -0.8967
 6758SOL     OW31735   2.145   4.609   7.242 -0.5296 -0.0438  0.7584
 6758SOL    HW131736   2.072   4.632   7.185 -0.8053 -2.4760  0.1284
 6758SOL    HW231737   2.119   4.652   7.324 -0.6747 -0.2536  0.8212
 6759SOL     OW31738   4.411   4.450   8.374  0.1259 -0.1715  0.0732
 6759SOL    HW131739   4.412   4.426   8.282 -1.4368  0.9289 -0.2379
 6759SOL    HW231740   4.463   4.530   8.378  0.9628 -0.7185  0.2913
 6760SOL     OW31741   4.120   0.915   8.889 -0.0644  0.6981 -0.0620
 6760SOL    HW131742   4.077   0.859   8.954 -1.1412  1.9188  0.2787
 6760SOL    HW231743   4.129   1.001   8.931 -0.3980  0.6163  0.1724
 6761SOL     OW31744   3.538   1.099   9.904  0.4790  0.1633  0.3408
 6761SOL    HW131745   3.599   1.079   9.975 -1.3501 -0.5368  1.6836
 6761SOL    HW231746   3.452   1.084   9.942  1.9546 -0.2873  3.4817
 6762SOL     OW31747   3.692   4.685   5.375  0.2149 -0.3034  0.6161
 6762SOL    HW131748   3.784   4.679   5.400  0.5282 -0.5334 -0.5924
 6762SOL    HW231749   3.673   0.049   5.414 -1.6105 -0.1875 -0.5382
 6763SOL     OW31750   2.776   0.005   7.595  0.3225  0.3723 -0.4021
 6763SOL    HW131751   2.830   4.673   7.653  2.0310 -0.4068 -2.7042
 6763SOL    HW231752   2.757   4.659   7.530  1.2061  0.6850 -0.9885
 6764SOL     OW31753   2.366   0.170   3.821  1.1032  0.3805 -0.5721
 6764SOL    HW131754   2.350   0.075   3.822  3.6531 -0.0382 -0.3884
 6764SOL    HW231755   2.440   0.170   3.881  0.9601 -0.8748 -0.4007
 6765SOL     OW31756   0.682   3.374   2.505 -0.3097 -0.0942 -0.0739
 6765SOL    HW131757   0.656   3.398   2.594 -1.2708 -2.5814  0.3376
 6765SOL    HW231758   0.777   3.373   2.503 -0.3411 -0.6477 -1.7239
 6766SOL     OW31759   4.483   3.791   6.420 -0.4769  0.1977 -0.5570
 6766SOL    HW131760   4.485   3.886   6.415  1.5094  0.1786 -0.1224
 6766SOL    HW231761   4.574   3.776   6.446 -0.5226  2.0243  0.6899
 6767SOL     OW31762   3.182   0.863   2.013  0.4665  0.5126  0.4400
 6767SOL    HW131763   3.120   0.791   2.010 -0.0747  1.0253 -0.6692
 6767SOL    HW231764   3.235   0.851   1.934 -0.2084  0.5605 -0.0182
 6768SOL     OW31765   3.518   4.186   0.997  0.6106 -0.4330  0.0962
 6768SOL    HW131766   3.484   4.275   0.992  0.3423 -0.4856  0.9928
 6768SOL    HW231767   3.447   4.138   1.039  0.8061  0.2169  1.1685
 6769SOL     OW31768   3.794   1.750   5.476  0.0676 -0.1649  0.2493
 6769SOL    HW131769   3.786   1.836   5.435 -0.2116 -0.4484 -0.3028
 6769SOL    HW231770   3.885   1.760   5.505  0.4825  1.0829 -1.4425
 6770SOL     OW31771   4.406   3.626   9.743  0.3745  0.0366  0.1007
 6770SOL    HW131772   4.450   3.552   9.785 -0.1409  0.8249  1.9940
 6770SOL    HW231773   4.336   3.574   9.703  1.3411 -0.5749 -0.7988
 6771SOL     OW31774   1.456   1.694   2.330  0.6253 -0.3115 -0.1677
 6771SOL    HW131775   1.505   1.772   2.302 -0.8370  1.1254  1.2747
 6771SOL    HW231776   1.470   1.719   2.421  0.2740  2.1665 -0.7988
 6772SOL     OW31777   1.669   1.270   1.824  0.0940  0.7156 -0.1658
 6772SOL    HW131778   1.665   1.323   1.745  3.2922  0.7505 -0.2966
 6772SOL    HW231779   1.621   1.322   1.889  1.4878  2.8034 -0.7820
 6773SOL     OW31780   4.386   0.862   3.971 -0.3542  0.3535  0.3038
 6773SOL    HW131781   4.455   0.838   4.032  0.7115  1.1259 -0.5913
 6773SOL    HW231782   4.342   0.939   4.006  0.3945 -0.1142  2.2660
 6774SOL     OW31783   2.710   0.443  10.872  0.1328  0.1898  0.0454
 6774SOL    HW131784   2.666   0.379  10.928 -0.7011  0.5108 -0.2452
 6774SOL    HW231785   2.655   0.453  10.795 -1.5148 -1.1337  1.0568
 6775SOL     OW31786   1.037   4.537   9.194  0.7292  0.3228  0.4943
 6775SOL    HW131787   1.091   4.488   9.257 -1.4332  0.7876  2.6870
 6775SOL    HW231788   1.093   4.535   9.116  1.2617 -1.7015  0.9165
 6776SOL     OW31789   3.441   1.198   4.896  0.0813  0.1520 -0.3547
 6776SOL    HW131790   3.455   1.109   4.863  1.5098  0.5865 -0.9476
 6776SOL    HW231791   3.384   1.237   4.830 -0.6481 -2.5953 -1.3378
 6777SOL     OW31792   3.636   3.586   6.135  0.4573 -0.5167 -0.3377
 6777SOL    HW131793   3.558   3.629   6.101 -0.3193  0.0952  2.2483
 6777SOL    HW231794   3.635   3.606   6.228 -0.8388  2.7482 -1.0597
 6778SOL     OW31795   4.193   3.226  14.212 -0.0829 -0.1662 -0.3543
 6778SOL    HW131796   4.174   3.290  14.143  0.6148  1.3664  0.8897
 6778SOL    HW231797   4.240   3.278  14.277  0.7317 -2.2013  0.6926
 6779SOL     OW31798   2.068   0.620   3.875  0.2157  0.1561  0.6213
 6779SOL    HW131799   2.154   0.580   3.876  0.2578  0.3060  2.9136
 6779SOL    HW231800   2.025   0.552   3.823 -0.0762 -1.5233  3.0833
 6780SOL     OW31801   3.635   1.696   4.786 -0.1625 -0.1647 -0.5462
 6780SOL    HW131802   3.681   1.612   4.788 -2.1481 -1.2049  1.3638
 6780SOL    HW231803   3.707   1.756   4.806 -1.7922  0.6665  2.7429
 6781SOL     OW31804   3.062   1.690   5.046 -0.1138  0.4107  0.3032
 6781SOL    HW131805   3.091   1.610   5.004  1.8919  2.5731 -2.4147
 6781SOL    HW231806   3.078   1.671   5.139  0.0422  0.1841  0.2280
 6782SOL     OW31807   4.710   4.168  15.693  0.2339 -0.9544  0.5474
 6782SOL    HW131808   4.650   4.236  15.662  0.6384 -0.6975  0.3131
 6782SOL    HW231809   4.720   4.137  15.603 -1.8283  1.3674 -0.4875
 6783SOL     OW31810   2.865   2.968  15.034  0.3204  0.4531 -0.3888
 6783SOL    HW131811   2.899   2.944  14.948 -0.4744  0.5787 -0.7372
 6783SOL    HW231812   2.953   2.982  15.071  0.9757 -2.3586 -0.9050
 6784SOL     OW31813   2.214   1.711   6.189  0.0705 -0.4509  0.1953
 6784SOL    HW131814   2.253   1.647   6.130  3.0165 -0.6451  2.3790
 6784SOL    HW231815   2.287   1.772   6.194 -2.6860  2.8141  0.4705
 6785SOL     OW31816   0.049   3.697   7.848 -0.5936  0.1853  0.1761
 6785SOL    HW131817   0.127   3.734   7.808  0.3060 -0.8914  0.9382
 6785SOL    HW231818   4.710   3.723   7.779  0.2247  2.2892  0.2569
 6786SOL     OW31819   2.836   4.081   1.157 -0.5464  0.1255 -0.0990
 6786SOL    HW131820   2.885   4.061   1.077  1.0443  1.4176  0.5417
 6786SOL    HW231821   2.846   4.176   1.157 -3.0943  0.3782 -0.2818
 6787SOL     OW31822   2.024   3.951   0.536  0.4800  0.7120 -0.2160
 6787SOL    HW131823   1.947   3.896   0.523  0.0311  1.3662 -0.2901
 6787SOL    HW231824   1.996   4.032   0.579 -0.0847 -0.2756  1.2819
 6788SOL     OW31825   2.772   0.375   6.469  0.4726 -0.0777  0.0339
 6788SOL    HW131826   2.805   0.307   6.528 -2.7950 -1.4672  0.2566
 6788SOL    HW231827   2.832   0.447   6.489 -0.0986 -0.2939  2.5923
 6789SOL     OW31828   2.240   3.621   4.198  0.8434  0.0294  0.1662
 6789SOL    HW131829   2.145   3.605   4.197  0.4895  2.0000  1.5104
 6789SOL    HW231830   2.266   3.572   4.120  0.5766 -1.1162  0.8032
 6790SOL     OW31831   0.533   2.348  13.444  0.1563  0.4236  0.7261
 6790SOL    HW131832   0.469   2.372  13.377 -0.5943  0.5295  1.4770
 6790SOL    HW231833   0.493   2.265  13.472  0.3751  0.2061  0.3878
 6791SOL     OW31834   0.396   1.231   3.703  0.0847  0.1841 -0.8937
 6791SOL    HW131835   0.443   1.168   3.649  1.7327  1.1210 -0.5405
 6791SOL    HW231836   0.372   1.175   3.777  0.6928  0.4720 -0.4771
 6792SOL     OW31837   3.580   2.629  12.609 -0.1453 -0.2183  0.0251
 6792SOL    HW131838   3.674   2.620  12.625 -0.1842  0.8758  0.8594
 6792SOL    HW231839   3.534   2.600  12.688 -0.2324 -2.8480 -0.9988
 6793SOL     OW31840   0.850   4.345  11.607 -0.3536  0.0481  0.1058
 6793SOL    HW131841   0.852   4.399  11.528 -1.2930 -0.2875 -0.1410
 6793SOL    HW231842   0.784   4.280  11.581  1.0816 -1.0622 -0.7719
 6794SOL     OW31843   4.456   4.159  10.270 -0.0587  0.1862  0.2352
 6794SOL    HW131844   4.500   4.199  10.345  1.5434 -2.2983  0.5771
 6794SOL    HW231845   4.527   4.141  10.210  1.2533  1.7257  1.3196
 6795SOL     OW31846   4.164   1.819   3.797  0.2947 -0.4466 -0.2161
 6795SOL    HW131847   4.098   1.789   3.735 -0.7213 -0.6199  0.9481
 6795SOL    HW231848   4.204   1.891   3.748  0.6195 -1.6203 -1.6836
 6796SOL     OW31849   2.624   2.449   3.299 -0.5326  0.1549  0.0761
 6796SOL    HW131850   2.648   2.403   3.219  0.6039 -2.5557  1.9821
 6796SOL    HW231851   2.596   2.535   3.268  2.8316 -0.2197 -3.9990
 6797SOL     OW31852   1.298   1.473  10.174  0.2218 -0.2386 -0.8174
 6797SOL    HW131853   1.321   1.565  10.158 -3.2444  1.2045  2.5794
 6797SOL    HW231854   1.221   1.458  10.119  0.8594 -3.1810 -0.8970
 6798SOL     OW31855   3.007   3.159   3.618  0.8042  0.2814  0.3522
 6798SOL    HW131856   3.072   3.102   3.658 -2.0425 -2.6222  0.7280
 6798SOL    HW231857   3.046   3.247   3.623 -2.0885  1.6257 -0.4934
 6799SOL     OW31858   1.774   2.111   7.083 -0.5505  0.1615  0.5817
 6799SOL    HW131859   1.737   2.119   6.995  0.8578 -2.6287 -0.2788
 6799SOL    HW231860   1.846   2.048   7.076  0.2912  1.2964 -0.9304
 6800SOL     OW31861   3.506   2.487   3.914  0.0972 -0.9506 -0.4270
 6800SOL    HW131862   3.528   2.486   4.007  0.7800  3.0035 -0.5375
 6800SOL    HW231863   3.417   2.522   3.915 -0.1180 -1.4648 -2.0128
 6801SOL     OW31864   0.317   2.115   0.909  0.2892 -0.4055 -0.0648
 6801SOL    HW131865   0.251   2.157   0.853  0.6149 -0.4952 -0.5111
 6801SOL    HW231866   0.335   2.194   0.961 -0.7810  0.3069 -0.7598
 6802SOL     OW31867   0.740   4.186  10.549 -0.3028 -0.3111 -0.1108
 6802SOL    HW131868   0.737   4.190  10.454 -0.4956 -2.2918 -0.1854
 6802SOL    HW231869   0.807   4.250  10.574 -0.5315  0.5172 -1.5838
 6803SOL     OW31870   3.105   3.455   4.383  0.5893  0.5350 -0.3656
 6803SOL    HW131871   3.188   3.490   4.414  1.5330 -0.5319 -1.6861
 6803SOL    HW231872   3.114   3.480   4.291  2.3605  0.0817 -0.3182
 6804SOL     OW31873   1.949   1.435   2.868  0.2491  0.6632 -0.2116
 6804SOL    HW131874   1.972   1.528   2.867 -0.9192  0.9802  1.3061
 6804SOL    HW231875   2.019   1.392   2.819  1.6150  2.7923 -0.1487
 6805SOL     OW31876   0.005   1.532   2.769 -0.4315 -0.3438  0.3114
 6805SOL    HW131877   4.682   1.593   2.827 -0.8918  0.1643 -0.5717
 6805SOL    HW231878   0.079   1.582   2.734 -1.5266  0.6920 -0.4998
 6806SOL     OW31879   1.257   1.524   8.831 -0.3257 -0.1190 -0.4903
 6806SOL    HW131880   1.261   1.599   8.890  0.5216 -0.9726  0.5382
 6806SOL    HW231881   1.334   1.553   8.781  0.1006  0.1635  0.3262
 6807SOL     OW31882   0.479   1.325   6.404 -0.1094 -0.4659  0.2473
 6807SOL    HW131883   0.556   1.322   6.461  1.1088  1.8795 -1.2719
 6807SOL    HW231884   0.420   1.334   6.478 -0.6607 -1.7707 -0.0227
 6808SOL     OW31885   2.126   3.927  17.592 -0.1757  0.0117  0.5653
 6808SOL    HW131886   2.165   4.005  17.553  2.1622  0.2061  3.3124
 6808SOL    HW231887   2.190   3.862  17.563 -1.5373 -0.2034 -1.9809
 6809SOL     OW31888   1.000   3.863   6.452  0.0957  0.0514  0.0114
 6809SOL    HW131889   1.058   3.938   6.465  0.8076 -0.6540  0.8787
 6809SOL    HW231890   1.042   3.797   6.507 -0.1896 -1.2602 -1.3369
 6810SOL     OW31891   3.458   1.867   6.485 -0.0411  0.1168 -0.2258
 6810SOL    HW131892   3.397   1.876   6.411 -0.6049 -0.6505  0.1492
 6810SOL    HW231893   3.522   1.936   6.465  2.7133 -2.0495  1.1545
 6811SOL     OW31894   3.298   1.038   4.480 -0.3728  0.2904 -0.5533
 6811SOL    HW131895   3.386   1.067   4.505  0.0293 -2.1347  0.8236
 6811SOL    HW231896   3.313   0.947   4.505  0.4368  0.6189  0.1438
 6812SOL     OW31897   2.746   2.062  11.333 -0.0924 -0.3530  0.5580
 6812SOL    HW131898   2.743   2.088  11.241 -2.5606  1.6828  1.2050
 6812SOL    HW231899   2.824   2.105  11.367  0.4937 -1.7339  0.9476
 6813SOL     OW31900   3.526   1.262   1.585 -0.1004  0.7847  0.3016
 6813SOL    HW131901   3.506   1.225   1.671  1.2570 -1.0760 -0.1917
 6813SOL    HW231902   3.479   1.198   1.532  0.1479 -0.5080  1.6648
 6814SOL     OW31903   1.519   2.004   5.568  0.2691  0.4649 -0.2647
 6814SOL    HW131904   1.614   1.996   5.574  0.3048  1.4867  0.5213
 6814SOL    HW231905   1.512   2.054   5.487 -0.9538  1.2002  0.2827
 6815SOL     OW31906   3.116   0.007   1.584  0.3455 -0.3774  0.1767
 6815SOL    HW131907   3.146   0.040   1.669  0.6092  3.1934 -1.3262
 6815SOL    HW231908   3.022   0.008   1.600  0.5196 -0.3984  1.2221
 6816SOL     OW31909   1.933   1.707   2.906 -1.0090  0.1348 -0.1822
 6816SOL    HW131910   1.923   1.751   2.822 -0.8973  1.3867  0.4612
 6816SOL    HW231911   2.015   1.744   2.940 -2.1410 -0.8693  3.6770
 6817SOL     OW31912   1.270   1.784   4.149  0.3944  0.0416  0.1521
 6817SOL    HW131913   1.344   1.729   4.176  1.4933  2.3613  1.8819
 6817SOL    HW231914   1.219   1.720   4.101  0.1964  0.0164  0.3995
 6818SOL     OW31915   3.024   2.726  11.782  0.0826  0.0460  0.1011
 6818SOL    HW131916   2.937   2.713  11.742 -1.0060  0.9523  2.1828
 6818SOL    HW231917   3.030   2.668  11.858 -1.3111  2.5133  2.0981
 6819SOL     OW31918   4.108   4.640   6.141 -0.0466  0.7732  0.4849
 6819SOL    HW131919   4.056   4.595   6.075 -0.9979  1.2770  0.8995
 6819SOL    HW231920   4.187   4.651   6.088 -0.0986  1.4856  0.5639
 6820SOL     OW31921   2.659   4.445   4.752  0.2176  0.7562  0.2781
 6820SOL    HW131922   2.647   4.359   4.794  0.9681  0.1016 -0.8431
 6820SOL    HW231923   2.698   4.501   4.819 -2.4951  0.7498  1.8711
 6821SOL     OW31924   3.421   3.434   4.964  0.5496  0.1163 -0.4713
 6821SOL    HW131925   3.366   3.375   5.015  0.4926  0.9231  0.4178
 6821SOL    HW231926   3.462   3.495   5.026 -0.0832  1.9965 -1.8839
 6822SOL     OW31927   4.281   3.471   6.304  0.1413  0.1409  0.7886
 6822SOL    HW131928   4.190   3.447   6.287 -0.1567  1.3777  0.5861
 6822SOL    HW231929   4.257   3.564   6.309 -1.6290 -0.1577 -2.1511
 6823SOL     OW31930   1.152   0.529   4.261  0.0280  0.0189 -0.2354
 6823SOL    HW131931   1.198   0.476   4.325 -0.2552 -1.5269 -1.3288
 6823SOL    HW231932   1.064   0.490   4.259  0.2714 -0.7020  2.7146
 6824SOL     OW31933   2.306   4.236   9.447 -0.6009  0.3659  0.5379
 6824SOL    HW131934   2.262   4.317   9.423 -0.2288  0.1922 -0.7559
 6824SOL    HW231935   2.395   4.272   9.443 -0.5976  0.3641  0.5909
 6825SOL     OW31936   2.440   1.613   0.360 -0.2337  0.1014  0.2347
 6825SOL    HW131937   2.453   1.696   0.315 -0.9741  0.5429  0.8409
 6825SOL    HW231938   2.357   1.583   0.323 -0.3963  1.3880 -0.4381
 6826SOL     OW31939   3.363   1.632  16.200 -0.1763  0.3049  0.5982
 6826SOL    HW131940   3.351   1.644  16.105  1.3000  0.6308  0.4592
 6826SOL    HW231941   3.321   1.547  16.213  0.0518  0.0193 -0.5181
 6827SOL     OW31942   0.514   1.972   0.844  0.7028  0.7302 -0.2588
 6827SOL    HW131943   0.467   1.899   0.886  1.7041  1.1539  1.6107
 6827SOL    HW231944   0.451   2.040   0.866 -0.6946 -1.5783  2.9855
 6828SOL     OW31945   3.929   2.961   5.463  0.3807  0.0193 -0.2640
 6828SOL    HW131946   3.896   2.931   5.379 -1.5592  1.1227  0.0997
 6828SOL    HW231947   3.959   3.046   5.433  2.3231  0.3927  2.6985
 6829SOL     OW31948   4.093   0.107  12.137  0.3451 -0.3636 -0.3947
 6829SOL    HW131949   4.184   0.081  12.125 -0.3462 -1.7155 -2.7413
 6829SOL    HW231950   4.050   0.058  12.067 -1.8794  0.3919  0.4485
 6830SOL     OW31951   4.657   2.564   1.234 -0.1413 -0.8272  0.2446
 6830SOL    HW131952   4.564   2.563   1.259 -0.1438 -1.4876  0.2242
 6830SOL    HW231953   4.684   2.619   1.308 -0.7807  2.0608 -1.7151
 6831SOL     OW31954   1.709   4.131   5.968  0.5013 -0.0033  0.1694
 6831SOL    HW131955   1.697   4.217   6.007 -0.8270  0.8137 -2.0116
 6831SOL    HW231956   1.785   4.151   5.913  1.6891 -2.3646  0.9648
 6832SOL     OW31957   3.500   0.138  10.898 -0.5224  0.4287 -0.6191
 6832SOL    HW131958   3.542   0.119  10.982  0.4927 -3.9672 -2.1471
 6832SOL    HW231959   3.461   0.221  10.927  0.8586  1.1417 -0.7857
 6833SOL     OW31960   3.191   0.847   3.252 -0.3614 -0.3885 -0.1228
 6833SOL    HW131961   3.284   0.826   3.254 -0.3504 -0.1825  1.7003
 6833SOL    HW231962   3.151   0.775   3.301 -2.1751 -0.1498 -1.2426
 6834SOL     OW31963   0.845   3.789   8.138 -0.3081  0.1415  0.3782
 6834SOL    HW131964   0.907   3.753   8.201  0.3798 -0.6705 -0.7581
 6834SOL    HW231965   0.811   3.710   8.095 -1.1379  1.7912 -2.0045
 6835SOL     OW31966   2.134   3.479   2.881 -0.0697 -0.2609 -0.5248
 6835SOL    HW131967   2.104   3.533   2.954  2.7983  0.4579  0.1000
 6835SOL    HW231968   2.131   3.548   2.814 -1.9030  0.0787 -0.0977
 6836SOL     OW31969   2.372   1.327   2.852  0.0502  0.0211  0.2620
 6836SOL    HW131970   2.437   1.257   2.859  1.8126  1.5572 -0.5498
 6836SOL    HW231971   2.301   1.275   2.815  0.0157  1.5593 -1.8408
 6837SOL     OW31972   4.679   3.733   5.537  0.2734  0.7629  0.4482
 6837SOL    HW131973   4.610   3.670   5.557  0.2540  0.0504 -1.8447
 6837SOL    HW231974   0.027   3.681   5.576 -1.8969 -2.4280  0.0069
 6838SOL     OW31975   4.627   4.098  17.080 -0.1976 -0.0294 -0.1199
 6838SOL    HW131976   4.531   4.099  17.070 -0.2117  1.4569  0.1862
 6838SOL    HW231977   4.640   4.181  17.035  0.7701  0.6887  1.5142
 6839SOL     OW31978   2.937   4.469   2.060 -0.7552 -0.0289  0.1508
 6839SOL    HW131979   2.933   4.495   2.152 -0.6172  0.3286  0.0541
 6839SOL    HW231980   2.973   4.381   2.073  4.2665  1.8447 -1.0911
 6840SOL     OW31981   0.187   4.206   3.407 -0.2571 -0.0571 -0.2619
 6840SOL    HW131982   0.249   4.169   3.343  1.1061 -0.7193  1.4359
 6840SOL    HW231983   0.104   4.199   3.360  0.8001  1.9956 -2.4095
 6841SOL     OW31984   4.048   1.297   1.483 -0.3965  0.5246  0.3348
 6841SOL    HW131985   4.051   1.233   1.413 -1.3791  0.9942 -0.1325
 6841SOL    HW231986   3.978   1.259   1.535 -0.7230  0.3629 -0.2296
 6842SOL     OW31987   0.123   3.950   8.814  0.0803  0.1439 -0.3791
 6842SOL    HW131988   0.105   4.024   8.756  1.8647 -0.5019 -1.7484
 6842SOL    HW231989   0.214   3.929   8.795 -0.3174 -0.6514 -1.4410
 6843SOL     OW31990   3.375   3.951  10.695 -0.3152 -0.0978  0.0312
 6843SOL    HW131991   3.301   3.981  10.749 -0.9347  1.8741 -1.8893
 6843SOL    HW231992   3.318   3.910  10.630  0.0292  0.4668 -0.6312
 6844SOL     OW31993   4.182   3.836   3.841 -0.0466 -0.3299 -0.3899
 6844SOL    HW131994   4.277   3.841   3.830 -0.0704  2.0761  0.6227
 6844SOL    HW231995   4.155   3.927   3.834  0.4437  0.0543  2.8627
 6845SOL     OW31996   4.436   2.389  13.579  0.2157  0.1194 -0.8556
 6845SOL    HW131997   4.512   2.351  13.535  0.3659 -0.2210 -0.3143
 6845SOL    HW231998   4.482   2.394  13.663 -1.1892 -0.0118 -0.0833
 6846SOL     OW31999   0.070   3.573  17.649 -0.3092 -0.0702  0.1276
 6846SOL    HW132000   0.112   3.562   0.044 -1.0072  1.2314  0.6286
 6846SOL    HW232001   0.057   3.667  17.663  0.2194 -0.1081  0.8626
 6847SOL     OW32002   3.084   3.664   7.027  0.1437  0.1793  0.2961
 6847SOL    HW132003   3.060   3.756   7.038  1.2407  0.5262 -0.1719
 6847SOL    HW232004   3.119   3.665   7.116  0.9340 -0.9481 -0.0084
 6848SOL     OW32005   1.459   1.047   2.041  0.4592  0.1707 -0.4716
 6848SOL    HW132006   1.488   1.115   1.980 -1.1652  2.4254  1.2660
 6848SOL    HW232007   1.366   1.071   2.051 -0.3144 -2.3554 -1.6209
 6849SOL     OW32008   2.630   3.898   1.180 -0.3392 -0.2773 -0.4102
 6849SOL    HW132009   2.671   3.853   1.254  0.2320 -1.6569 -1.5512
 6849SOL    HW232010   2.703   3.950   1.145 -0.4967  0.1587 -0.0789
 6850SOL     OW32011   0.636   2.869   0.516  0.1235  0.0407 -0.0435
 6850SOL    HW132012   0.710   2.826   0.559 -0.1419 -0.5209 -0.1539
 6850SOL    HW232013   0.572   2.798   0.519  1.0402 -0.7659  0.1788
 6851SOL     OW32014   1.764   3.440   8.400  0.1290  0.0593 -0.5529
 6851SOL    HW132015   1.826   3.386   8.449  0.4028  0.4147 -0.5061
 6851SOL    HW232016   1.709   3.483   8.465 -0.2119 -1.6282  0.2577
 6852SOL     OW32017   4.217   0.218   6.723 -0.0627  0.2510  0.2186
 6852SOL    HW132018   4.141   0.258   6.682  0.7908 -0.4107 -1.9715
 6852SOL    HW232019   4.211   0.131   6.683 -0.4456 -0.1361  1.0995
 6853SOL     OW32020   3.992   0.819  12.373  0.0365 -0.6375 -0.0051
 6853SOL    HW132021   3.964   0.760  12.303 -1.4462  1.7658 -1.4242
 6853SOL    HW232022   4.065   0.853  12.322 -0.8683 -0.6783 -1.3243
 6854SOL     OW32023   3.773   3.837  10.798  0.5112 -0.0140 -0.1938
 6854SOL    HW132024   3.813   3.804  10.719 -1.8254 -0.0286 -1.3825
 6854SOL    HW232025   3.839   3.895  10.836 -0.0198  1.3238 -1.2968
 6855SOL     OW32026   0.473   0.718   9.542 -0.4114 -0.5628  0.2664
 6855SOL    HW132027   0.565   0.737   9.556 -0.3094 -0.0204 -1.1231
 6855SOL    HW232028   0.464   0.784   9.474  2.5826 -1.8602 -1.3965
 6856SOL     OW32029   3.069   4.365  12.743 -0.9549  0.6593  0.0568
 6856SOL    HW132030   3.050   4.459  12.751  0.0305  0.8927 -0.3480
 6856SOL    HW232031   3.158   4.358  12.778 -1.5643 -0.5378  1.3482
 6857SOL     OW32032   3.314   1.353   4.724 -0.7296 -0.1650  0.4094
 6857SOL    HW132033   3.353   1.392   4.646  0.2770  0.8109  1.3911
 6857SOL    HW232034   3.221   1.335   4.712 -0.5757 -0.0774 -0.8547
 6858SOL     OW32035   3.091   2.341  14.709  0.1158 -0.3072 -0.0528
 6858SOL    HW132036   3.180   2.308  14.715 -0.3727 -1.8388 -1.1371
 6858SOL    HW232037   3.107   2.428  14.673 -0.7558  0.2068  0.8085
 6859SOL     OW32038   3.085   1.995   3.744 -0.1296 -0.4760 -0.0023
 6859SOL    HW132039   2.992   1.972   3.744 -1.1486  3.3803  2.6069
 6859SOL    HW232040   3.091   2.035   3.831  2.3562  0.6093 -0.6827
 6860SOL     OW32041   2.926   4.491  10.439  0.8133  0.8000  0.6497
 6860SOL    HW132042   2.948   4.581  10.462 -0.4982  1.4381 -0.5526
 6860SOL    HW232043   2.998   4.446  10.480 -0.2282 -0.2785  1.2813
 6861SOL     OW32044   2.215   4.562   3.037  0.2810 -0.0190  0.1625
 6861SOL    HW132045   2.182   4.590   2.951  2.1688  0.8387 -0.2922
 6861SOL    HW232046   2.158   4.608   3.098  0.3445  1.9083 -1.2113
 6862SOL     OW32047   4.545   1.377   5.579 -0.4184  0.2339  0.0874
 6862SOL    HW132048   4.625   1.332   5.606 -0.6155 -1.0308 -1.4007
 6862SOL    HW232049   4.479   1.352   5.644  0.7632 -0.3624  1.0580
 6863SOL     OW32050   2.768   2.760   7.396 -0.2496  0.0845  0.6088
 6863SOL    HW132051   2.840   2.785   7.338 -1.3476 -0.8623 -1.1636
 6863SOL    HW232052   2.699   2.792   7.338 -0.4122  0.5534  1.0603
 6864SOL     OW32053   2.704   2.630   9.784  0.1499 -0.4979 -0.3077
 6864SOL    HW132054   2.711   2.578   9.863  1.9674 -0.5834 -0.5286
 6864SOL    HW232055   2.772   2.696   9.797 -0.5502 -0.2561  2.0511
 6865SOL     OW32056   4.341   2.168  12.744 -0.0183 -0.0680 -0.7192
 6865SOL    HW132057   4.426   2.185  12.784  0.4913  2.2376 -2.7492
 6865SOL    HW232058   4.309   2.087  12.783  0.9967 -0.8108 -1.3991
 6866SOL     OW32059   3.381   1.766   7.034 -0.1295  0.2423  0.6846
 6866SOL    HW132060   3.362   1.684   7.081 -0.0134 -0.4354 -0.4538
 6866SOL    HW232061   3.290   1.789   7.016  0.3338  1.1306 -0.5211
 6867SOL     OW32062   1.945   1.078  13.517 -0.2540 -0.6341 -0.6320
 6867SOL    HW132063   2.017   1.130  13.553 -1.2903  0.2536  0.1703
 6867SOL    HW232064   1.872   1.140  13.519 -1.4521 -2.0318 -1.4922
 6868SOL     OW32065   0.166   3.431   2.782  0.2219  0.6331  0.1698
 6868SOL    HW132066   0.237   3.495   2.776 -0.1433  1.1014  0.8538
 6868SOL    HW232067   0.188   3.388   2.864 -0.0077 -0.1815 -0.1919
 6869SOL     OW32068   1.003   0.214   3.994  0.4705  0.6438 -0.8694
 6869SOL    HW132069   0.917   0.233   4.031  0.4358  1.6834 -1.5041
 6869SOL    HW232070   1.024   0.127   4.029  1.9811  1.6402  0.7346
 6870SOL     OW32071   2.366   1.988  10.961 -0.3165 -0.0301  1.1301
 6870SOL    HW132072   2.280   2.027  10.976 -0.0480  1.3833 -1.0159
 6870SOL    HW232073   2.349   1.939  10.881  0.3541  0.2606  0.7993
 6871SOL     OW32074   2.108   4.095   7.729 -0.6889 -0.3955  0.0432
 6871SOL    HW132075   2.103   4.022   7.789 -2.3636 -1.6630 -1.6111
 6871SOL    HW232076   2.139   4.057   7.647  1.5809  0.1734  0.6331
 6872SOL     OW32077   2.091   1.063  13.288 -0.0768 -0.8168 -0.2952
 6872SOL    HW132078   2.021   1.097  13.344  0.8316  0.3313  0.1456
 6872SOL    HW232079   2.053   1.071  13.200 -0.8215  0.0950  0.1077
 6873SOL     OW32080   3.317   1.188   7.445 -0.8779 -0.6394  0.0479
 6873SOL    HW132081   3.266   1.211   7.522 -0.6871  1.0347 -0.3395
 6873SOL    HW232082   3.403   1.205   7.483 -0.7010 -1.7340  0.1546
 6874SOL     OW32083   4.216   3.888   5.894  0.2276 -0.0590 -0.5191
 6874SOL    HW132084   4.307   3.865   5.878  0.1694  0.0629 -1.0426
 6874SOL    HW232085   4.224   3.970   5.943 -2.2626 -0.0851 -0.0297
 6875SOL     OW32086   1.974   1.484   7.359 -0.3696  0.2632  0.7485
 6875SOL    HW132087   1.995   1.538   7.283  2.7424 -0.4187  1.1391
 6875SOL    HW232088   2.050   1.490   7.415 -0.1998 -0.8784  0.6336
 6876SOL     OW32089   1.668   0.984   2.888  0.3250 -0.1028 -0.4344
 6876SOL    HW132090   1.666   0.902   2.939 -0.4436  0.4323  0.3984
 6876SOL    HW232091   1.729   0.968   2.817 -0.1266 -1.5115 -0.5051
 6877SOL     OW32092   2.845   2.513   4.184 -0.0003 -0.1899 -0.3209
 6877SOL    HW132093   2.913   2.572   4.216 -0.5826  0.0853  0.3896
 6877SOL    HW232094   2.868   2.510   4.091  1.5495  0.9182  0.0222
 6878SOL     OW32095   1.026   3.429   7.025 -0.1952 -0.1991 -0.2564
 6878SOL    HW132096   0.955   3.384   7.071  0.1134  1.4210  1.7927
 6878SOL    HW232097   1.047   3.372   6.951 -1.1559  0.3500 -0.9556
 6879SOL     OW32098   4.267   3.581   9.159 -0.3626  0.0332 -0.0167
 6879SOL    HW132099   4.225   3.646   9.215 -0.7247  0.4291 -0.7408
 6879SOL    HW232100   4.196   3.551   9.102 -0.9327  1.1808  0.0966
 6880SOL     OW32101   0.423   1.458   8.554 -0.0875  0.3074  0.4492
 6880SOL    HW132102   0.437   1.411   8.636 -1.0058 -0.7483 -0.0038
 6880SOL    HW232103   0.515   1.463   8.529  0.0957 -1.1114  0.8424
 6881SOL     OW32104   1.777   4.542   4.527 -0.0291 -0.2346  0.4046
 6881SOL    HW132105   1.758   4.453   4.557  0.5651 -0.8169 -0.9739
 6881SOL    HW232106   1.838   4.517   4.458 -0.5343 -0.4194  0.0287
 6882SOL     OW32107   2.843   0.505  12.821  0.2827 -0.1873  0.1133
 6882SOL    HW132108   2.792   0.568  12.770 -0.3580 -0.5765  0.2654
 6882SOL    HW232109   2.766   0.489  12.876  0.6164  1.1891  0.9966
 6883SOL     OW32110   2.530   0.709   5.770 -0.3326 -0.4745  0.3435
 6883SOL    HW132111   2.564   0.661   5.694 -0.6426 -0.1719  0.0075
 6883SOL    HW232112   2.568   0.796   5.753 -2.0916  0.8235  3.0487
 6884SOL     OW32113   1.725   0.925   8.039 -0.7400 -0.2002  0.0082
 6884SOL    HW132114   1.817   0.902   8.047 -0.5451  0.0818 -1.3989
 6884SOL    HW232115   1.716   0.926   7.944 -0.1466 -2.3438 -0.0772
 6885SOL     OW32116   3.287   0.876   7.691  0.5377  0.4697  0.0529
 6885SOL    HW132117   3.270   0.968   7.672 -0.0891  0.5396  0.9218
 6885SOL    HW232118   3.333   0.848   7.612 -0.2115 -1.6359  0.3562
 6886SOL     OW32119   1.460   1.093   5.737 -0.1123 -0.4741  0.8632
 6886SOL    HW132120   1.518   1.019   5.719 -0.1676 -0.2837 -0.1331
 6886SOL    HW232121   1.508   1.136   5.807 -0.5142 -1.0766  1.5038
 6887SOL     OW32122   1.942   0.780   3.454  0.1468  0.1631 -0.0061
 6887SOL    HW132123   1.916   0.824   3.373  2.5192 -1.9449 -1.9131
 6887SOL    HW232124   1.945   0.850   3.519 -1.6183  2.4004 -2.3179
 6888SOL     OW32125   0.482   2.744  13.616  0.3269  0.1764  0.1507
 6888SOL    HW132126   0.577   2.749  13.622  0.3191 -1.1466  1.0962
 6888SOL    HW232127   0.455   2.730  13.706  0.1157  0.3977  0.1236
 6889SOL     OW32128   0.477   4.332   3.402  0.0404  0.2613 -0.5265
 6889SOL    HW132129   0.533   4.328   3.325  0.7931  0.0630  0.0243
 6889SOL    HW232130   0.394   4.359   3.361  0.0644  1.8763  0.5013
 6890SOL     OW32131   2.344   1.198   9.738 -0.0961  1.1887 -0.2102
 6890SOL    HW132132   2.350   1.215   9.832  0.7166  0.4739 -0.1269
 6890SOL    HW232133   2.268   1.140   9.735 -0.7685  2.0399  0.6495
 6891SOL     OW32134   4.165   0.920  10.215 -0.0386 -0.2977  0.2878
 6891SOL    HW132135   4.183   0.826  10.225  1.3421 -0.1053 -0.2876
 6891SOL    HW232136   4.250   0.956  10.243 -1.3132  1.4374  1.8800
 6892SOL     OW32137   2.265   1.804   2.789 -0.1869  0.0630 -0.6203
 6892SOL    HW132138   2.299   1.735   2.845 -0.6423 -0.2134 -0.6848
 6892SOL    HW232139   2.236   1.745   2.720  1.4531 -0.1204 -1.1644
 6893SOL     OW32140   1.575   3.880  17.230 -0.4615  0.5949 -0.7007
 6893SOL    HW132141   1.631   3.871  17.154  2.2263 -1.5859  1.5249
 6893SOL    HW232142   1.614   3.815  17.289 -2.4187 -0.0199 -0.0762
 6894SOL     OW32143   4.064   2.512   7.710 -0.8100 -0.0408 -0.1504
 6894SOL    HW132144   4.089   2.536   7.799 -4.8285 -1.0075  1.2442
 6894SOL    HW232145   4.127   2.567   7.664 -0.0579  0.4931  1.5105
 6895SOL     OW32146   3.216   0.084   5.356 -0.1107 -0.1808  0.3340
 6895SOL    HW132147   3.296   0.045   5.391  1.4551  2.6346 -0.0909
 6895SOL    HW232148   3.220   0.170   5.398  0.5747 -0.7932  1.5427
 6896SOL     OW32149   1.301   1.436   3.305  0.3340 -0.0840  0.5220
 6896SOL    HW132150   1.362   1.409   3.235 -0.9738 -1.4309 -0.0823
 6896SOL    HW232151   1.232   1.496   3.276  1.2684 -0.5909 -2.8014
 6897SOL     OW32152   0.207   1.828  14.517  0.5021  0.1572  0.0940
 6897SOL    HW132153   0.173   1.742  14.493  3.0468 -0.0199 -2.8998
 6897SOL    HW232154   0.130   1.882  14.533  0.9724  0.4310  1.3914
 6898SOL     OW32155   4.628   0.159   4.108 -0.3074 -0.2959  0.4741
 6898SOL    HW132156   4.643   0.165   4.014  0.9118  0.3770  0.7161
 6898SOL    HW232157   4.535   0.134   4.114 -0.7429  1.4050  0.7401
 6899SOL     OW32158   4.095   0.707   8.110  0.2410 -0.1134 -0.1183
 6899SOL    HW132159   4.021   0.672   8.061 -0.2973  1.3195 -0.3452
 6899SOL    HW232160   4.134   0.623   8.132  0.3949 -0.5490 -2.0797
 6900SOL     OW32161   0.073   4.230   9.377 -0.7421  0.1073 -0.4245
 6900SOL    HW132162   0.166   4.229   9.358 -0.1731  0.7227  2.3034
 6900SOL    HW232163   0.052   4.280   9.299  1.2405 -1.3211 -1.8592
 6901SOL     OW32164   3.331   1.379   5.968 -0.4214  0.8045 -0.5271
 6901SOL    HW132165   3.261   1.330   6.010  0.9908 -0.4836  0.3244
 6901SOL    HW232166   3.386   1.395   6.044 -0.8272 -1.6699  0.2925
 6902SOL     OW32167   0.964   1.697   3.058  0.0721  0.7568 -0.1512
 6902SOL    HW132168   0.917   1.614   3.053  0.6708  0.4545 -0.7921
 6902SOL    HW232169   0.907   1.753   3.111  0.0879  2.3367 -1.8026
 6903SOL     OW32170   4.537   3.058   2.301  0.6010 -0.6078 -0.5941
 6903SOL    HW132171   4.482   3.121   2.254  0.2691  0.5107  1.3167
 6903SOL    HW232172   4.622   3.066   2.257  0.5851 -1.0146 -0.6948
 6904SOL     OW32173   4.378   1.257   7.252 -0.1515 -0.2551  0.3096
 6904SOL    HW132174   4.332   1.229   7.331 -0.5761 -0.2173  0.0739
 6904SOL    HW232175   4.416   1.342   7.276 -1.7484  0.5330  0.0692
 6905SOL     OW32176   0.690   0.063   5.966 -0.0663  0.0074 -0.1740
 6905SOL    HW132177   0.682   0.031   5.877  1.9843  0.4734 -0.5333
 6905SOL    HW232178   0.601   0.094   5.986  0.1811 -0.7318  2.1315
 6906SOL     OW32179   1.133   3.384   4.772 -0.0820  0.1413 -0.2042
 6906SOL    HW132180   1.056   3.440   4.757  0.9358  0.9084 -2.5307
 6906SOL    HW232181   1.120   3.344   4.858  0.0825  1.7251  0.5622
 6907SOL     OW32182   3.771   1.317   2.452  0.5456 -0.3015 -0.0288
 6907SOL    HW132183   3.747   1.388   2.512  1.8257  0.4865 -0.4492
 6907SOL    HW232184   3.694   1.302   2.397  0.9760 -4.1545  0.4528
 6908SOL     OW32185   1.502   1.500  11.304 -0.0531  0.4851 -0.1114
 6908SOL    HW132186   1.414   1.482  11.334 -0.7637  2.8154 -0.7864
 6908SOL    HW232187   1.498   1.476  11.211  1.7968 -2.9298  0.6654
 6909SOL     OW32188   0.888   1.245   6.988 -0.0388  0.4934 -0.5295
 6909SOL    HW132189   0.882   1.326   6.936 -1.9441  0.4353 -0.4059
 6909SOL    HW232190   0.872   1.190   6.911 -2.8461  0.1162  0.3022
 6910SOL     OW32191   4.391   0.991  11.497 -0.6235 -0.1373  0.9474
 6910SOL    HW132192   4.444   1.066  11.526 -0.4164  0.3665 -0.7680
 6910SOL    HW232193   4.462   0.929  11.487 -1.3425 -0.9665  1.0006
 6911SOL     OW32194   2.366   1.561   2.382 -0.1401 -0.3045 -0.0869
 6911SOL    HW132195   2.416   1.534   2.459  0.1336  0.2226 -0.0799
 6911SOL    HW232196   2.395   1.652   2.374  0.4471 -0.5385 -0.5511
 6912SOL     OW32197   3.160   1.696   5.967 -0.3561  0.1356  0.4108
 6912SOL    HW132198   3.254   1.689   5.955 -0.5862  0.4226 -1.4960
 6912SOL    HW232199   3.127   1.613   5.933  1.0475 -0.7608  1.2469
 6913SOL     OW32200   0.316   3.973  13.443  0.3437  0.0554 -0.1084
 6913SOL    HW132201   0.375   4.020  13.384 -0.2426  0.3068 -0.4985
 6913SOL    HW232202   0.346   4.000  13.530 -0.3712 -2.3558  0.8706
 6914SOL     OW32203   0.062   3.664  13.639 -0.1091 -0.2386  0.8239
 6914SOL    HW132204   0.144   3.645  13.685  0.2363 -2.2112 -0.6134
 6914SOL    HW232205   0.008   3.587  13.659  0.8863 -1.2126 -0.2307
 6915SOL     OW32206   1.783   2.441   3.331  0.7769  0.3926 -0.1677
 6915SOL    HW132207   1.879   2.441   3.326  0.7198  0.2989 -1.1892
 6915SOL    HW232208   1.759   2.523   3.374 -1.7851 -0.1753 -0.5338
 6916SOL     OW32209   2.763   4.241  15.457  0.0689  0.1896  0.4645
 6916SOL    HW132210   2.717   4.289  15.388  1.7113  1.7246  0.4336
 6916SOL    HW232211   2.680   4.201  15.482  0.0924 -1.6016 -2.2473
 6917SOL     OW32212   1.253   2.775  14.020 -0.3300 -0.2228 -0.4586
 6917SOL    HW132213   1.335   2.807  14.057  0.7994 -1.8513 -1.5508
 6917SOL    HW232214   1.217   2.713  14.082 -1.2486  1.6211  0.8640
 6918SOL     OW32215   2.502   4.674   8.251 -0.7114 -0.1948 -0.1039
 6918SOL    HW132216   2.426   0.007   8.269 -1.2461 -0.9125 -0.1826
 6918SOL    HW232217   2.491   4.624   8.332 -2.6125 -1.5880 -1.2401
 6919SOL     OW32218   3.449   4.356   4.952 -0.1932  0.5449 -0.6079
 6919SOL    HW132219   3.434   4.450   4.954  0.2229  0.5902  0.3447
 6919SOL    HW232220   3.410   4.339   4.866 -0.8892 -1.0592  0.0142
 6920SOL     OW32221   0.737   3.039  16.211 -0.0559 -0.1736  0.2600
 6920SOL    HW132222   0.736   3.116  16.268 -0.5792 -0.0261  0.0578
 6920SOL    HW232223   0.827   3.039  16.179  0.4994  0.2522  1.7961
 6921SOL     OW32224   1.386   0.290  13.743 -0.3669  0.0282  0.3836
 6921SOL    HW132225   1.392   0.281  13.648 -1.6886  1.2796  0.1740
 6921SOL    HW232226   1.444   0.222  13.776 -1.3189 -1.1701 -0.3753
 6922SOL     OW32227   2.323   4.660   4.745  0.5618  0.3391 -0.1903
 6922SOL    HW132228   2.280   4.576   4.728 -0.6904  1.1860 -1.2055
 6922SOL    HW232229   2.375   4.629   4.819 -0.7345  1.8029  1.3616
 6923SOL     OW32230   2.601   4.088  13.658 -0.4856 -0.2827  0.2980
 6923SOL    HW132231   2.583   4.010  13.606  2.5132  0.0304 -1.2036
 6923SOL    HW232232   2.696   4.095  13.666 -0.2693 -2.3898 -0.4824
 6924SOL     OW32233   3.808   3.919   8.814  0.1154 -0.4194  0.1659
 6924SOL    HW132234   3.861   3.991   8.780 -0.5735 -0.0599 -0.1332
 6924SOL    HW232235   3.750   3.911   8.738  2.5661  0.3364 -1.7984
 6925SOL     OW32236   4.680   2.569  10.879 -1.1634 -0.5737  0.0413
 6925SOL    HW132237   4.655   2.536  10.966  0.3706  2.0213  1.4792
 6925SOL    HW232238   4.678   2.664  10.887  0.6094 -0.6208  1.1720
 6926SOL     OW32239   0.074   3.560  13.366  0.0586  0.0893 -0.0688
 6926SOL    HW132240   0.077   3.589  13.457  2.2226 -0.3728  0.0248
 6926SOL    HW232241   0.119   3.638  13.331  1.6139 -0.2069  1.2364
 6927SOL     OW32242   2.823   1.119   0.426 -0.0181 -0.1303 -0.0204
 6927SOL    HW132243   2.856   1.058   0.491 -1.5837 -0.2188  0.7007
 6927SOL    HW232244   2.816   1.194   0.485  0.6201  0.7945 -1.1222
 6928SOL     OW32245   3.053   1.046   3.135 -0.3319 -0.8417  0.1939
 6928SOL    HW132246   2.985   0.980   3.120 -0.1347 -0.7923 -0.8636
 6928SOL    HW232247   3.109   0.979   3.174 -1.1100 -1.7024 -0.1609
 6929SOL     OW32248   1.326   3.784   4.160 -0.1810  0.4046 -0.2163
 6929SOL    HW132249   1.263   3.748   4.223  0.3847  0.2657  0.2770
 6929SOL    HW232250   1.390   3.832   4.214  1.4413  0.0103 -1.7936
 6930SOL     OW32251   0.777   4.127   7.210  0.2915 -0.2058  0.1059
 6930SOL    HW132252   0.843   4.109   7.143 -1.2228 -0.2936 -1.3630
 6930SOL    HW232253   0.728   4.045   7.218  0.6892 -0.7636 -3.1198
 6931SOL     OW32254   3.667   3.976  14.504  0.1026  0.0117 -0.5726
 6931SOL    HW132255   3.612   3.916  14.453 -1.5788  2.6763 -1.9089
 6931SOL    HW232256   3.645   4.059  14.460  2.6187  0.4560 -0.9861
 6932SOL     OW32257   3.002   2.958   4.039 -0.2258  0.5272 -0.1248
 6932SOL    HW132258   3.082   2.962   4.091  0.9028 -2.3541 -1.6477
 6932SOL    HW232259   2.936   2.995   4.098  0.0778  1.3036 -0.2848
 6933SOL     OW32260   0.757   1.355   4.220  0.0570  0.0939  0.3695
 6933SOL    HW132261   0.699   1.396   4.156 -1.3749 -1.9780  0.3686
 6933SOL    HW232262   0.731   1.264   4.208  2.1585 -0.3118 -1.1407
 6934SOL     OW32263   0.458   1.163   8.414 -0.5864  0.1911  0.5211
 6934SOL    HW132264   0.412   1.235   8.369 -1.6739  0.3472  1.8861
 6934SOL    HW232265   0.545   1.202   8.414 -0.9078  0.9135  0.6406
 6935SOL     OW32266   4.635   4.461   2.912 -0.2425 -0.0062  0.4286
 6935SOL    HW132267   4.654   4.504   2.995  0.1562 -0.3213  0.5032
 6935SOL    HW232268   4.581   4.385   2.934  0.8053 -0.4420  1.5098
 6936SOL     OW32269   3.226   0.598   1.074 -1.0161 -0.1970 -0.2409
 6936SOL    HW132270   3.150   0.573   1.020 -0.6234  1.5915 -1.6218
 6936SOL    HW232271   3.284   0.523   1.060  0.0114  0.5189  0.2569
 6937SOL     OW32272   3.280   4.553   9.262  0.2156  0.3582 -0.2020
 6937SOL    HW132273   3.248   4.507   9.340  1.4380 -0.5300 -0.2076
 6937SOL    HW232274   3.301   4.637   9.303 -0.4436  0.9636 -1.1209
 6938SOL     OW32275   0.122   1.056   5.492 -0.5309  0.4654 -0.8347
 6938SOL    HW132276   0.197   1.009   5.528 -1.4669 -0.9430 -0.7558
 6938SOL    HW232277   0.164   1.097   5.416  0.6859 -0.0442 -0.4406
 6939SOL     OW32278   0.042   0.736   4.027 -0.2092  0.6846 -0.6550
 6939SOL    HW132279   0.112   0.786   3.986 -0.1977  1.9188  0.8646
 6939SOL    HW232280   0.026   0.675   3.955  0.9843 -1.7746  1.2024
 6940SOL     OW32281   1.864   2.433  16.843  0.0084  0.1009 -0.5835
 6940SOL    HW132282   1.808   2.456  16.769  1.8223 -0.3182 -2.0792
 6940SOL    HW232283   1.941   2.484  16.817  0.8852 -1.7339 -1.5065
 6941SOL     OW32284   4.547   1.605   5.896 -0.5813  0.5060 -0.4890
 6941SOL    HW132285   4.600   1.576   5.970  0.6375 -0.6493 -1.8156
 6941SOL    HW232286   4.481   1.535   5.890 -1.4350  1.3246 -0.7584
 6942SOL     OW32287   2.659   4.209  12.034  0.1232  0.4917 -0.5391
 6942SOL    HW132288   2.723   4.249  12.093  1.9863 -0.6537 -1.8263
 6942SOL    HW232289   2.585   4.269  12.030  0.0367  0.4570  0.5157
 6943SOL     OW32290   0.319   1.993  15.591  0.2412  0.3798  0.5014
 6943SOL    HW132291   0.259   2.068  15.597  0.7669  0.6222  2.8178
 6943SOL    HW232292   0.351   2.004  15.502 -1.0443  0.2584  0.0256
 6944SOL     OW32293   1.131   0.250  10.645 -0.4845  0.4854  0.1407
 6944SOL    HW132294   1.113   0.252  10.739 -0.1397  2.9029  0.1552
 6944SOL    HW232295   1.209   0.196  10.639 -0.6556  0.2616 -0.0804
 6945SOL     OW32296   3.027   2.846   3.002 -0.0522 -0.0629  0.7061
 6945SOL    HW132297   3.032   2.937   3.032  1.1639  1.0163 -2.7452
 6945SOL    HW232298   2.946   2.853   2.952  0.3888  1.3032  0.1845
 6946SOL     OW32299   3.862   2.892   2.477 -1.2297 -0.4461 -0.5758
 6946SOL    HW132300   3.890   2.831   2.408  1.3336 -0.1414  0.1935
 6946SOL    HW232301   3.932   2.878   2.540 -0.6128 -2.0408 -1.6169
 6947SOL     OW32302   3.602   1.657   7.506  0.2636 -0.4613  0.6460
 6947SOL    HW132303   3.682   1.605   7.500  0.3413 -0.2890  0.1828
 6947SOL    HW232304   3.540   1.586   7.493 -2.3281  2.0120 -0.4148
 6948SOL     OW32305   1.031   2.109   6.198 -0.0959  0.2023 -0.0570
 6948SOL    HW132306   0.961   2.080   6.257  0.6546  1.2897  1.3516
 6948SOL    HW232307   1.037   2.025   6.152 -2.6791 -1.0204  1.8489
 6949SOL     OW32308   2.950   3.301  10.261 -0.7568 -0.8917 -0.2183
 6949SOL    HW132309   2.891   3.227  10.246  0.2902 -2.1773  1.9527
 6949SOL    HW232310   2.963   3.330  10.171  0.4697  0.1805  0.3053
 6950SOL     OW32311   0.156   0.460   4.642 -0.1911 -0.0577  0.4668
 6950SOL    HW132312   0.089   0.407   4.598 -0.7792  1.1967 -0.1454
 6950SOL    HW232313   0.229   0.434   4.586  0.2234  0.6684  0.6725
 6951SOL     OW32314   4.474   0.219   6.469  0.1519  0.2947  0.4050
 6951SOL    HW132315   4.489   0.137   6.517  0.1432  1.3091  2.1261
 6951SOL    HW232316   4.394   0.198   6.422 -0.6824  1.5146  1.2888
 6952SOL     OW32317   1.758   4.128  17.445  0.3277 -0.1315  0.3742
 6952SOL    HW132318   1.797   4.042  17.460  2.6427  1.1120  1.5048
 6952SOL    HW232319   1.665   4.107  17.452  0.4453 -0.4307  1.0039
 6953SOL     OW32320   2.573   0.735   7.261  0.2484  0.1047  0.4364
 6953SOL    HW132321   2.588   0.773   7.174  1.6394  0.9969  1.0685
 6953SOL    HW232322   2.661   0.745   7.299  1.1780 -1.4110 -1.2718
 6954SOL     OW32323   4.365   1.136   9.212  0.2886 -0.6148  0.2809
 6954SOL    HW132324   4.302   1.076   9.173 -0.7846 -0.2894  1.5215
 6954SOL    HW232325   4.384   1.180   9.129  0.0526  0.8877  1.0189
 6955SOL     OW32326   3.981   3.035  17.364  0.0111 -0.1630 -0.4429
 6955SOL    HW132327   3.918   3.093  17.407 -0.6178 -1.6446  0.6210
 6955SOL    HW232328   4.020   3.094  17.300 -1.5491  0.1152 -1.1360
 6956SOL     OW32329   2.325   1.320  17.179 -0.5077  0.7720 -0.9113
 6956SOL    HW132330   2.263   1.383  17.142 -1.8375  0.1850  0.3114
 6956SOL    HW232331   2.375   1.373  17.241 -0.7712  0.8108 -0.7298
 6957SOL     OW32332   0.562   3.557  11.375  0.2193 -0.3577  0.5896
 6957SOL    HW132333   0.528   3.522  11.458 -5.4951 -1.2435 -2.0957
 6957SOL    HW232334   0.554   3.653  11.379  2.4161 -0.2477  2.1726
 6958SOL     OW32335   2.030   3.351   7.251 -0.1723 -0.1645  0.1992
 6958SOL    HW132336   2.051   3.280   7.191  1.2586  1.4550 -1.1853
 6958SOL    HW232337   2.096   3.344   7.320  0.3853 -0.0099 -0.3184
 6959SOL     OW32338   3.935   0.596  12.709 -0.2233 -0.5493 -0.2393
 6959SOL    HW132339   3.885   0.535  12.655 -1.1373  1.4534 -1.6571
 6959SOL    HW232340   3.986   0.527  12.752 -0.1664  1.5807  3.1430
 6960SOL     OW32341   4.102   1.760  14.377 -0.1482  0.4853  0.1174
 6960SOL    HW132342   4.029   1.819  14.393 -1.8762 -1.4012 -0.7152
 6960SOL    HW232343   4.051   1.682  14.355 -0.4635  1.0906 -1.2649
 6961SOL     OW32344   2.816   2.547   2.499 -0.0159 -0.1254 -0.3054
 6961SOL    HW132345   2.728   2.508   2.494  0.5962 -1.4472 -0.9574
 6961SOL    HW232346   2.869   2.477   2.536  0.1161 -0.6875 -1.5733
 6962SOL     OW32347   1.908   0.371   1.680 -0.0318 -0.3247 -0.2872
 6962SOL    HW132348   1.898   0.348   1.588 -1.9795  1.7547 -0.5891
 6962SOL    HW232349   1.889   0.465   1.680  1.0077 -0.1223  2.1330
 6963SOL     OW32350   3.769   3.741  11.441  0.0783 -0.3769 -0.6290
 6963SOL    HW132351   3.690   3.691  11.418 -0.6851 -0.2941  1.8148
 6963SOL    HW232352   3.833   3.670  11.444 -0.1123 -0.5204  0.0747
 6964SOL     OW32353   1.778   2.023   8.616 -0.3783 -0.3146 -0.3269
 6964SOL    HW132354   1.859   2.068   8.637 -0.6766 -0.3152  0.8184
 6964SOL    HW232355   1.771   1.959   8.687  1.4292  0.9519  0.9697
 6965SOL     OW32356   3.626   1.833   7.179  0.5626  0.0039 -0.0586
 6965SOL    HW132357   3.579   1.834   7.262 -1.1408  1.3241 -1.0347
 6965SOL    HW232358   3.567   1.875   7.117  0.4657 -0.1757 -0.0848
 6966SOL     OW32359   4.224   1.203   0.368 -0.1440  0.2036 -0.2108
 6966SOL    HW132360   4.272   1.183   0.448  1.9106  1.1309 -1.2283
 6966SOL    HW232361   4.142   1.162   0.395  0.0544  0.0545  0.1679
 6967SOL     OW32362   3.841   3.250  17.437  0.2935 -0.0113  0.3936
 6967SOL    HW132363   3.895   3.277  17.363 -1.3339  1.4353 -0.2652
 6967SOL    HW232364   3.755   3.261  17.397  0.0874 -2.2519  0.2202
 6968SOL     OW32365   4.319   4.067   4.512 -0.0135 -0.1778  0.0331
 6968SOL    HW132366   4.348   4.052   4.602  0.5016  0.7550  0.0251
 6968SOL    HW232367   4.224   4.065   4.521 -0.0995  4.4008  0.4632
 6969SOL     OW32368   4.711   2.531   5.211  0.3422 -0.0964  0.0017
 6969SOL    HW132369   4.698   2.469   5.139  2.4605 -1.4158  0.7528
 6969SOL    HW232370   4.684   2.466   5.276  2.3008  0.4053  1.3273
 6970SOL     OW32371   3.990   0.169  11.788  0.4798 -0.3844  0.0107
 6970SOL    HW132372   3.988   0.108  11.861 -1.1062  1.7099  1.7191
 6970SOL    HW232373   4.085   0.164  11.776  0.3684 -0.9248 -0.6595
 6971SOL     OW32374   3.363   2.029   2.851 -0.6017 -0.3901 -0.0065
 6971SOL    HW132375   3.295   1.961   2.854  0.3500 -1.2798  1.5804
 6971SOL    HW232376   3.427   1.977   2.804 -0.4416  2.6359 -3.1665
 6972SOL     OW32377   4.565   4.086   9.141 -0.2134 -0.5046 -0.4659
 6972SOL    HW132378   4.517   4.066   9.221  0.2981  0.6053  0.1215
 6972SOL    HW232379   4.549   4.180   9.133  2.0453 -0.0738  0.0681
 6973SOL     OW32380   0.633   3.666  15.067  0.4437  0.5939  0.9501
 6973SOL    HW132381   0.544   3.656  15.034  0.5642 -0.4924  0.9614
 6973SOL    HW232382   0.678   3.644  14.985  1.3272  2.8275  0.8188
 6974SOL     OW32383   1.958   0.100   0.439  0.2171  0.3867 -0.1389
 6974SOL    HW132384   1.910   0.120   0.359  1.5940 -0.3770 -1.1613
 6974SOL    HW232385   1.972   0.006   0.428 -0.1958  0.3036  0.0529
 6975SOL     OW32386   4.380   0.831  15.629  0.3854  0.4496 -0.0235
 6975SOL    HW132387   4.394   0.921  15.658  1.6635 -0.6797  2.9857
 6975SOL    HW232388   4.442   0.816  15.558 -0.4012 -0.1026 -0.5982
 6976SOL     OW32389   4.249   1.604   4.890 -0.3973  0.1038 -0.3262
 6976SOL    HW132390   4.318   1.631   4.830 -0.3484  1.2203  0.2471
 6976SOL    HW232391   4.211   1.526   4.848  1.3911 -0.6278 -0.6099
 6977SOL     OW32392   4.458   2.855   6.504 -1.0583 -1.0069  0.8895
 6977SOL    HW132393   4.377   2.835   6.458 -1.0278  2.3508 -0.6015
 6977SOL    HW232394   4.427   2.857   6.595 -2.0805  2.8537  0.4517
 6978SOL     OW32395   0.394   1.990  15.343 -0.0688 -0.2238 -0.3074
 6978SOL    HW132396   0.404   1.951  15.256  1.5567 -0.5385  0.0317
 6978SOL    HW232397   0.413   2.084  15.337  2.4669 -0.6840  0.4877
 6979SOL     OW32398   1.099   0.397   7.824 -0.3948  0.2957  0.4623
 6979SOL    HW132399   1.087   0.466   7.889 -1.3747  0.1266  0.4602
 6979SOL    HW232400   1.152   0.443   7.760  1.0748 -1.9203  0.0924
 6980SOL     OW32401   3.403   1.997   4.183  0.4241 -0.1214 -0.0658
 6980SOL    HW132402   3.478   1.940   4.174 -0.6566 -1.5618  0.1185
 6980SOL    HW232403   3.413   2.054   4.106  0.4144  1.1512  0.8793
 6981SOL     OW32404   3.092   2.357   7.448  0.0480 -0.0664  0.3236
 6981SOL    HW132405   3.014   2.408   7.467  0.4034  1.5943 -2.6981
 6981SOL    HW232406   3.105   2.367   7.354 -1.9236  0.4459  0.1143
 6982SOL     OW32407   0.621   3.840  10.393  0.1553  0.1618  0.0408
 6982SOL    HW132408   0.702   3.870  10.434  0.1210 -3.8172  3.0517
 6982SOL    HW232409   0.620   3.744  10.401 -0.4303 -0.0253 -2.5150
 6983SOL     OW32410   1.021   1.260   9.634 -0.2914  0.1334  0.0004
 6983SOL    HW132411   0.973   1.248   9.716 -0.9705 -2.7498 -0.7856
 6983SOL    HW232412   1.000   1.178   9.589 -1.2210  0.9486 -1.0442
 6984SOL     OW32413   2.439   0.173   2.902 -0.4416 -0.7693  0.3478
 6984SOL    HW132414   2.491   0.107   2.947 -0.0449 -1.3795 -0.9924
 6984SOL    HW232415   2.345   0.163   2.914 -0.5986  1.2511  0.8519
 6985SOL     OW32416   4.342   0.760  11.098  0.1958  0.0513  0.3921
 6985SOL    HW132417   4.379   0.848  11.100 -1.4480  0.7808 -2.4320
 6985SOL    HW232418   4.400   0.712  11.038  2.6648  2.5135  0.7614
 6986SOL     OW32419   1.346   4.258   7.956  0.5109 -0.1570  0.2347
 6986SOL    HW132420   1.300   4.296   8.031  1.8710  1.6031  0.1616
 6986SOL    HW232421   1.271   4.201   7.941  1.4202 -1.3130  0.1072
 6987SOL     OW32422   2.685   2.183   9.253 -0.0844  0.3858 -0.6416
 6987SOL    HW132423   2.599   2.176   9.211  0.6038 -1.1485 -1.7878
 6987SOL    HW232424   2.704   2.277   9.248  1.6980  0.0645  0.1022
 6988SOL     OW32425   0.242   4.115  14.514  0.5313  0.6565  0.1113
 6988SOL    HW132426   0.224   4.185  14.576 -1.5357  0.5408 -0.3462
 6988SOL    HW232427   0.336   4.102  14.522  0.6832 -0.5926 -3.3078
 6989SOL     OW32428   4.032   4.312   7.959 -0.3649  0.1615 -0.5212
 6989SOL    HW132429   4.094   4.239   7.960  1.1384  1.4566 -0.2317
 6989SOL    HW232430   4.021   4.314   8.054  2.5699  0.8883 -0.2190
 6990SOL     OW32431   2.442   3.492   6.770 -0.0477 -0.1778 -0.3818
 6990SOL    HW132432   2.518   3.457   6.816  0.8201  0.7240 -1.1207
 6990SOL    HW232433   2.407   3.559   6.829 -0.4740 -1.4462  0.8277
 6991SOL     OW32434   4.227   1.340  12.125  0.4491  0.4600 -0.3145
 6991SOL    HW132435   4.157   1.403  12.108  1.7419  1.6420 -1.2855
 6991SOL    HW232436   4.298   1.375  12.072 -0.1022  0.0988 -1.2868
 6992SOL     OW32437   2.200   0.004   5.202 -0.4401 -0.0670  0.2423
 6992SOL    HW132438   2.206   0.032   5.294 -2.4749 -1.0270  0.6681
 6992SOL    HW232439   2.261   0.066   5.163 -0.6346  1.1057  1.7808
 6993SOL     OW32440   0.311   2.760   3.863 -0.1647  0.8836  0.2027
 6993SOL    HW132441   0.382   2.824   3.863 -0.5271  1.2845 -0.4110
 6993SOL    HW232442   0.262   2.792   3.787  0.0838  0.8575  0.0325
 6994SOL     OW32443   3.908   2.878   5.144  0.1144 -0.6049  0.1958
 6994SOL    HW132444   3.892   2.937   5.070  1.6304  1.3857  1.4712
 6994SOL    HW232445   3.826   2.878   5.194 -0.6127  0.0322 -0.9925
 6995SOL     OW32446   4.240   1.265  17.125 -0.1264 -0.2024  0.4785
 6995SOL    HW132447   4.212   1.182  17.087 -1.3659  1.4721 -2.2308
 6995SOL    HW232448   4.299   1.299  17.058 -1.6787 -0.4347 -0.9901
 6996SOL     OW32449   2.156   2.874   5.262 -0.2793 -0.0228 -0.5454
 6996SOL    HW132450   2.150   2.806   5.195  0.4559 -0.9287  0.3220
 6996SOL    HW232451   2.119   2.949   5.215 -2.1763 -2.5421 -3.0312
 6997SOL     OW32452   2.064   3.703   8.371  0.0538  0.4338  0.3874
 6997SOL    HW132453   2.157   3.728   8.370  0.3419 -0.6057  0.4860
 6997SOL    HW232454   2.015   3.765   8.317  0.9787  0.5471 -0.3308
 6998SOL     OW32455   0.108   1.078   1.982  0.1066 -0.1935 -0.1747
 6998SOL    HW132456   0.103   1.165   1.942 -0.7321 -0.0053  0.3328
 6998SOL    HW232457   0.110   1.105   2.073  2.8901 -0.6274 -0.1218
 6999SOL     OW32458   2.118   3.565  13.978 -0.1340 -0.4340  0.0754
 6999SOL    HW132459   2.204   3.523  13.983  0.2759  0.3993 -0.0561
 6999SOL    HW232460   2.079   3.497  13.922 -1.4156  1.9148 -1.8645
 7000SOL     OW32461   4.460   1.292   8.640  0.4778  0.4113  0.3980
 7000SOL    HW132462   4.437   1.215   8.691  2.2080 -1.0745 -1.0670
 7000SOL    HW232463   4.544   1.279   8.597 -0.5418 -1.7840 -0.9163
 7001SOL     OW32464   0.443   3.675   9.708 -0.5254  0.2865  0.1384
 7001SOL    HW132465   0.465   3.683   9.801 -1.7741  0.4684  0.4185
 7001SOL    HW232466   0.530   3.654   9.676 -0.7050 -1.5213  0.8819
 7002SOL     OW32467   0.328   2.866   5.874  0.0006  0.3432  0.1258
 7002SOL    HW132468   0.264   2.831   5.936  0.4896 -1.5014 -0.3895
 7002SOL    HW232469   0.315   2.822   5.790 -1.0842 -0.8366  0.9088
 7003SOL     OW32470   3.870   2.080   8.384  0.2452  0.3861  0.1267
 7003SOL    HW132471   3.792   2.026   8.376  0.4349  0.3713 -1.4829
 7003SOL    HW232472   3.838   2.162   8.422  2.4344  0.9331  0.7836
 7004SOL     OW32473   0.639   0.227   4.644  0.0407  0.0824 -0.2886
 7004SOL    HW132474   0.713   0.241   4.584  0.2313 -0.5603 -0.2065
 7004SOL    HW232475   0.652   0.136   4.673 -0.2074  0.3968  0.7900
 7005SOL     OW32476   1.756   1.832  11.796 -0.3087 -0.5576 -0.1637
 7005SOL    HW132477   1.795   1.919  11.798 -1.0978 -0.2256  1.0256
 7005SOL    HW232478   1.747   1.809  11.703 -2.7085  0.1438 -0.1200
 7006SOL     OW32479   4.476   0.014  14.431  1.0630 -0.1819 -0.6465
 7006SOL    HW132480   4.431   0.007  14.347  0.6433 -0.9185 -0.3582
 7006SOL    HW232481   4.565   0.022  14.396  0.9062  1.1285 -0.7373
 7007SOL     OW32482   0.364   2.351   2.300  0.3160 -0.6404 -0.5095
 7007SOL    HW132483   0.307   2.273   2.298  0.1847 -0.5689  0.2155
 7007SOL    HW232484   0.310   2.426   2.275  2.5235  0.4926 -1.8092
 7008SOL     OW32485   2.355   4.706   7.488 -0.1899 -0.5183  0.2887
 7008SOL    HW132486   2.380   0.039   7.562  2.2217 -0.0255 -0.8847
 7008SOL    HW232487   2.324   0.055   7.432 -2.5859  0.0480  2.3385
 7009SOL     OW32488   1.109   1.297   3.997 -0.8420  0.1253 -0.1463
 7009SOL    HW132489   1.145   1.251   3.921  0.2252  2.1455 -0.8637
 7009SOL    HW232490   1.016   1.294   3.974 -0.8237  1.7459 -0.4320
 7010SOL     OW32491   4.624   0.863   6.267  0.5388  0.6467 -0.3657
 7010SOL    HW132492   4.629   0.872   6.171 -0.5532 -0.8000 -0.5509
 7010SOL    HW232493   4.713   0.832   6.283  0.2828  0.7874  1.3115
 7011SOL     OW32494   4.026   2.833   8.249 -0.7119  0.5050  0.3091
 7011SOL    HW132495   3.966   2.908   8.247 -1.7853 -0.3678 -0.1288
 7011SOL    HW232496   4.102   2.859   8.300  0.5254  0.4056 -1.4813
 7012SOL     OW32497   2.780   0.579   8.608  0.4796  0.1845  0.2662
 7012SOL    HW132498   2.805   0.538   8.691  1.7989  0.0020 -0.2115
 7012SOL    HW232499   2.742   0.499   8.574 -1.7687  1.1194  0.6005
 7013SOL     OW32500   4.332   2.082   3.262 -0.0152  0.2140  0.5711
 7013SOL    HW132501   4.359   2.042   3.344  1.1235  1.1147  0.6292
 7013SOL    HW232502   4.312   2.170   3.293 -2.2537 -0.6510  1.6020
 7014SOL     OW32503   2.929   1.987  17.037  0.0937  0.6624  0.1086
 7014SOL    HW132504   3.002   1.936  17.074 -1.3055 -0.2267  1.6079
 7014SOL    HW232505   2.986   2.037  16.978  1.3632 -2.2462 -1.1571
 7015SOL     OW32506   0.932   0.925   2.907 -0.1427  0.2338  0.1836
 7015SOL    HW132507   0.987   0.867   2.960 -1.1602  0.3490  1.3591
 7015SOL    HW232508   0.911   0.863   2.837  0.8497  0.4755 -0.3246
 7016SOL     OW32509   0.671   1.765  10.783 -0.0222  0.2035 -0.1822
 7016SOL    HW132510   0.757   1.802  10.800 -0.1925  0.3645  0.3136
 7016SOL    HW232511   0.683   1.731  10.694  2.8246  0.1834  0.2195
 7017SOL     OW32512   2.683   3.528   2.602 -0.0233  0.1127  0.7085
 7017SOL    HW132513   2.763   3.498   2.646  1.1962  1.3398 -0.6835
 7017SOL    HW232514   2.721   3.615   2.593  0.5950 -0.1328  0.8981
 7018SOL     OW32515   0.987   4.713   8.795 -0.0797 -0.0326 -0.1253
 7018SOL    HW132516   1.070   0.015   8.836 -0.2950 -1.4608  1.1049
 7018SOL    HW232517   0.930   0.024   8.864 -0.2211  0.5888 -0.5340
 7019SOL     OW32518   3.645   2.838   3.975  0.6851  0.2388 -0.1459
 7019SOL    HW132519   3.597   2.775   4.028  1.0306  0.5624  0.5412
 7019SOL    HW232520   3.697   2.880   4.043  1.4857 -0.8095 -0.1262
 7020SOL     OW32521   2.960   0.246  10.958 -0.2163 -0.0067 -0.4403
 7020SOL    HW132522   3.025   0.190  11.000 -0.5378  1.1780  1.6073
 7020SOL    HW232523   2.930   0.293  11.036 -1.7475  0.7873 -1.5179
 7021SOL     OW32524   1.410   3.381  11.690 -0.3787  0.6916 -0.4670
 7021SOL    HW132525   1.382   3.456  11.638  1.8495  0.9323 -1.3146
 7021SOL    HW232526   1.325   3.362  11.729  1.6737 -3.4189  1.9490
 7022SOL     OW32527   3.507   0.267   3.220  0.3396  0.5455 -0.1239
 7022SOL    HW132528   3.456   0.318   3.157  1.3063  0.4244 -1.0006
 7022SOL    HW232529   3.439   0.230   3.277 -0.6976  1.9098 -0.4488
 7023SOL     OW32530   3.135   2.936   2.445  0.0536 -0.7121 -0.9166
 7023SOL    HW132531   3.112   3.023   2.412  3.1514 -0.7810 -3.2655
 7023SOL    HW232532   3.191   2.951   2.522  0.5295  2.7693 -1.9151
 7024SOL     OW32533   0.618   1.615   6.659  0.6258  0.0731 -0.5111
 7024SOL    HW132534   0.555   1.564   6.709  1.8431 -0.7617  0.1663
 7024SOL    HW232535   0.566   1.644   6.583  0.6980  0.4489 -0.4174
 7025SOL     OW32536   1.696   0.226   3.131  0.4882  0.1686 -0.6840
 7025SOL    HW132537   1.685   0.236   3.036 -1.4366  1.4619 -0.3263
 7025SOL    HW232538   1.659   0.309   3.163 -1.2283 -0.1587 -1.8224
 7026SOL     OW32539   2.051   1.143  12.744 -0.0098  0.5223 -0.5914
 7026SOL    HW132540   2.011   1.225  12.713  1.0504  1.9227  1.7787
 7026SOL    HW232541   2.099   1.171  12.821  0.0147 -1.0215 -0.0462
 7027SOL     OW32542   0.041   0.464   7.102  0.4563  0.2637 -0.5362
 7027SOL    HW132543   0.033   0.541   7.158  0.0623  0.7266 -1.2385
 7027SOL    HW232544   4.700   0.402   7.140 -1.6105  2.2727 -0.7039
 7028SOL     OW32545   3.496   1.823  10.950 -0.1048 -0.1238 -0.2265
 7028SOL    HW132546   3.551   1.748  10.927 -2.6614 -1.4309 -2.0922
 7028SOL    HW232547   3.449   1.789  11.026 -2.0024 -1.1755 -1.8831
 7029SOL     OW32548   3.953   3.270   2.767 -0.7370  0.8376  0.2809
 7029SOL    HW132549   3.999   3.280   2.684  1.3477 -1.4210  1.1637
 7029SOL    HW232550   3.989   3.187   2.798  0.0735  1.4357  0.9351
 7030SOL     OW32551   2.098   3.210  11.911  0.0985 -0.4692 -0.4760
 7030SOL    HW132552   2.111   3.124  11.871 -3.2206  0.2523 -3.0572
 7030SOL    HW232553   2.055   3.257  11.840  0.0129  0.3395  0.1028
 7031SOL     OW32554   1.319   3.149   6.866 -0.8600 -0.6251  0.5687
 7031SOL    HW132555   1.246   3.087   6.872 -0.1898 -1.3797  0.8341
 7031SOL    HW232556   1.372   3.108   6.935  2.8308  0.8475 -1.4017
 7032SOL     OW32557   3.982   0.493   2.601 -0.0919  0.0209  0.2588
 7032SOL    HW132558   3.915   0.527   2.661 -0.2408 -0.4254  0.3454
 7032SOL    HW232559   3.923   0.456   2.535 -0.1321 -1.0654  0.9040
 7033SOL     OW32560   1.255   3.020   4.975  0.5847 -0.1567  0.4593
 7033SOL    HW132561   1.311   2.974   4.913  1.5694 -1.5820  2.4156
 7033SOL    HW232562   1.171   2.977   4.960  1.0265  0.0466 -2.4419
 7034SOL     OW32563   1.893   3.595   6.830  0.5192  0.3832  0.2183
 7034SOL    HW132564   1.977   3.630   6.799 -0.6435  1.8951 -1.1913
 7034SOL    HW232565   1.880   3.517   6.775  0.4090  0.3368  0.3104
 7035SOL     OW32566   1.956   0.652   7.210 -0.2724  0.1458 -0.0358
 7035SOL    HW132567   1.882   0.632   7.153 -1.1490  0.5192  0.9869
 7035SOL    HW232568   1.917   0.648   7.297 -0.0946  0.1922  0.0470
 7036SOL     OW32569   3.974   1.993   5.750 -0.1769 -0.4597 -0.2312
 7036SOL    HW132570   3.891   2.013   5.793  1.3971  1.1195  2.0619
 7036SOL    HW232571   3.988   2.083   5.719 -0.6324  0.1464  1.3441
 7037SOL     OW32572   2.565   3.708   1.867 -0.3651 -0.0266 -0.4075
 7037SOL    HW132573   2.597   3.775   1.927 -0.3893  0.5658 -1.0599
 7037SOL    HW232574   2.636   3.647   1.849  2.1275  2.8777 -0.2756
 7038SOL     OW32575   3.754   3.385   5.431 -0.2773  0.2679 -0.3054
 7038SOL    HW132576   3.701   3.310   5.459 -3.2865  2.7627  0.6083
 7038SOL    HW232577   3.686   3.450   5.413 -1.2737 -0.6593  0.1118
 7039SOL     OW32578   0.718   2.752   4.866  0.1097  0.4940 -0.7625
 7039SOL    HW132579   0.774   2.779   4.939 -0.4417 -0.2639 -0.0451
 7039SOL    HW232580   0.699   2.660   4.888 -0.1324  0.4529 -1.1396
 7040SOL     OW32581   0.260   2.927   6.767  0.0393 -0.3275  0.6666
 7040SOL    HW132582   0.210   2.870   6.826 -1.2422  0.3835  0.2687
 7040SOL    HW232583   0.197   2.953   6.700 -0.7259  2.0448  2.3119
 7041SOL     OW32584   4.188   1.924   6.016 -0.0798 -0.4409  0.3292
 7041SOL    HW132585   4.258   1.882   5.966 -1.0739 -0.9331 -0.6447
 7041SOL    HW232586   4.231   1.977   6.083 -1.1664  1.2807 -0.3299
 7042SOL     OW32587   3.709   2.072  11.244 -0.1269  0.8319 -0.2068
 7042SOL    HW132588   3.765   2.150  11.250  1.3784 -0.0541 -2.5128
 7042SOL    HW232589   3.625   2.118  11.236  0.1948  1.4096 -0.2457
 7043SOL     OW32590   2.825   4.625   4.969 -0.4102 -0.1123  0.1905
 7043SOL    HW132591   2.885   4.641   5.042  0.0500 -2.0829  0.2645
 7043SOL    HW232592   2.769   4.701   4.980 -3.2790 -2.5191  2.3587
 7044SOL     OW32593   1.873   4.258   0.039  0.1654  0.5136 -0.4880
 7044SOL    HW132594   1.958   4.243  17.689  1.0577  1.8516  0.8735
 7044SOL    HW232595   1.860   4.174   0.082 -1.7754 -0.5812 -3.1594
 7045SOL     OW32596   1.610   3.391   1.171 -0.0392 -0.2166 -0.0745
 7045SOL    HW132597   1.664   3.329   1.220 -1.9505 -1.4509  0.4688
 7045SOL    HW232598   1.587   3.331   1.101  1.3396 -0.5354 -0.2408
 7046SOL     OW32599   0.118   3.981   9.180  0.3596 -0.2827 -0.5943
 7046SOL    HW132600   0.093   3.916   9.246 -1.9070  0.4257 -0.7310
 7046SOL    HW232601   0.034   4.028   9.177  0.4748 -0.0466 -0.0654
 7047SOL     OW32602   3.801   4.698   7.673 -0.2932  0.3368 -0.2349
 7047SOL    HW132603   3.823   4.633   7.739  0.0524 -0.2055 -0.8803
 7047SOL    HW232604   3.778   4.640   7.600  0.9715  2.5100 -2.3862
 7048SOL     OW32605   0.619   0.631   3.620 -0.0649 -0.3522 -0.2843
 7048SOL    HW132606   0.660   0.683   3.552 -0.6654 -1.4778 -1.5078
 7048SOL    HW232607   0.662   0.546   3.611 -0.1775 -0.5860  1.3023
 7049SOL     OW32608   2.015   4.609   7.677  0.3486 -0.3649  0.3249
 7049SOL    HW132609   2.033   4.528   7.629 -0.3970 -1.1979  1.4553
 7049SOL    HW232610   1.939   4.643   7.630 -0.7022 -2.4788  0.4788
 7050SOL     OW32611   0.090   1.540  14.674  0.3477  0.5926 -0.6122
 7050SOL    HW132612   0.029   1.494  14.615 -0.9583  1.9137 -0.2849
 7050SOL    HW232613   0.044   1.624  14.677  0.6422  0.7711 -1.0866
 7051SOL     OW32614   0.786   2.534  14.002  0.0657  0.0183 -0.5206
 7051SOL    HW132615   0.877   2.508  14.017  0.0167  0.2550  0.1698
 7051SOL    HW232616   0.778   2.561  13.911  1.3609  2.9827  0.2602
 7052SOL     OW32617   1.222   3.652   3.648 -0.1328 -0.1468 -0.0379
 7052SOL    HW132618   1.288   3.677   3.713 -1.2748  0.0864  1.0324
 7052SOL    HW232619   1.262   3.682   3.567  2.0978 -1.8858  0.4246
 7053SOL     OW32620   3.338   3.211  13.770 -0.1282  0.7180  0.2230
 7053SOL    HW132621   3.370   3.214  13.860  0.7498 -1.2131 -0.0412
 7053SOL    HW232622   3.257   3.161  13.779 -0.5329  1.5309  1.0993
 7054SOL     OW32623   0.028   3.518   5.280 -0.0488 -0.2430 -0.7479
 7054SOL    HW132624   0.101   3.537   5.221  0.6834 -0.3398  0.1376
 7054SOL    HW232625   0.083   3.490   5.353 -2.4309 -0.4039  0.9966
 7055SOL     OW32626   2.143   2.524   7.424 -0.2312 -0.2252 -0.2601
 7055SOL    HW132627   2.229   2.483   7.426 -1.3141 -2.4963  0.1696
 7055SOL    HW232628   2.092   2.450   7.389 -1.6222  0.3849  0.4724
 7056SOL     OW32629   0.449   1.519  10.947 -0.1382  0.0005 -0.0152
 7056SOL    HW132630   0.533   1.508  10.903  0.1255  1.0215  0.2267
 7056SOL    HW232631   0.457   1.445  11.007  0.7340 -0.0431 -0.1873
 7057SOL     OW32632   0.547   1.965   3.310  0.3549  0.2016 -0.3604
 7057SOL    HW132633   0.576   1.996   3.395  0.2770 -0.4098 -0.1119
 7057SOL    HW232634   0.624   1.914   3.285  0.9108  1.1888 -0.6573
 7058SOL     OW32635   3.892   0.614  10.021 -0.0598  0.5674 -0.1961
 7058SOL    HW132636   3.882   0.556  10.097  2.2724  0.4323 -0.0119
 7058SOL    HW232637   3.985   0.636  10.019 -0.4999  2.4348 -0.3712
 7059SOL     OW32638   2.698   2.601   8.840  0.0803  0.0038 -0.4894
 7059SOL    HW132639   2.776   2.561   8.877 -0.6841  0.4274  1.5367
 7059SOL    HW232640   2.680   2.547   8.763  1.9132  0.6921 -1.4112
 7060SOL     OW32641   3.349   3.626  10.850 -0.1923 -0.0634 -0.0365
 7060SOL    HW132642   3.320   3.567  10.920 -1.2544 -1.0637 -1.3170
 7060SOL    HW232643   3.306   3.579  10.779  0.9057 -1.2101  0.0412
 7061SOL     OW32644   0.280   3.159   8.345  0.0495 -0.3832 -0.2075
 7061SOL    HW132645   0.279   3.158   8.249 -2.6960 -3.1399 -0.1446
 7061SOL    HW232646   0.259   3.068   8.367  0.6188 -0.5262 -0.2575
 7062SOL     OW32647   4.067   3.372   4.786 -0.0082  0.0954 -0.1002
 7062SOL    HW132648   4.049   3.415   4.869  0.9511 -2.0161  1.2037
 7062SOL    HW232649   4.126   3.300   4.809  0.0274  0.3638  0.6428
 7063SOL     OW32650   0.277   3.543  13.725 -0.2519  0.5448  0.8674
 7063SOL    HW132651   0.359   3.564  13.681  0.0172 -0.6624  0.8105
 7063SOL    HW232652   0.302   3.552  13.817 -2.2701  2.3087  1.2556
 7064SOL     OW32653   3.557   0.621   2.640  0.1189  0.1450  0.4186
 7064SOL    HW132654   3.507   0.656   2.713 -0.0045 -0.3900  0.5844
 7064SOL    HW232655   3.572   0.703   2.591  2.6688 -1.6708 -1.8409
 7065SOL     OW32656   2.021   1.702  15.924 -0.4595 -0.4665 -0.4528
 7065SOL    HW132657   2.005   1.683  16.017 -0.7795 -0.4522 -0.5052
 7065SOL    HW232658   2.085   1.637  15.895 -3.7541 -2.7983 -2.4996
 7066SOL     OW32659   3.554   1.881   1.713 -0.1491 -0.4615 -0.4213
 7066SOL    HW132660   3.609   1.926   1.777  0.5684  2.9168 -3.4172
 7066SOL    HW232661   3.587   1.791   1.716 -0.9410 -0.7845 -1.4045
 7067SOL     OW32662   2.646   3.364   6.915 -0.3505 -0.2677  0.0818
 7067SOL    HW132663   2.698   3.321   6.983 -1.0405  0.2160  0.9268
 7067SOL    HW232664   2.610   3.285   6.875 -0.8683 -0.4586  0.9214
 7068SOL     OW32665   1.861   3.970   9.359  0.2212 -0.6034  0.3422
 7068SOL    HW132666   1.900   4.004   9.440 -1.2830  1.2276  0.3084
 7068SOL    HW232667   1.809   4.047   9.333  2.9092  0.0246 -3.0306
 7069SOL     OW32668   4.039   1.811   5.562  0.2313  0.2454 -0.0281
 7069SOL    HW132669   4.132   1.808   5.586  0.6960 -0.6367 -1.9139
 7069SOL    HW232670   4.012   1.887   5.613  3.2091  0.9987  0.4521
 7070SOL     OW32671   1.941   1.427  16.385 -0.1982  0.0056  0.2167
 7070SOL    HW132672   1.896   1.402  16.466  0.1770 -2.5312 -0.3812
 7070SOL    HW232673   2.023   1.391  16.416 -1.1944 -1.7435  0.8089
 7071SOL     OW32674   0.947   3.130  11.684  0.1941 -0.3606 -0.4407
 7071SOL    HW132675   1.009   3.058  11.676 -0.9100 -1.5023  1.0187
 7071SOL    HW232676   0.919   3.130  11.593  2.4699  2.2057 -1.0983
 7072SOL     OW32677   0.192   0.044   7.672  0.3056  0.2895  0.4428
 7072SOL    HW132678   0.271   0.065   7.623  1.2164 -1.0874  1.3198
 7072SOL    HW232679   0.129   0.071   7.605  0.9226  0.3151 -0.1340
 7073SOL     OW32680   0.359   4.408   7.884 -0.3734 -0.0026 -0.3407
 7073SOL    HW132681   0.416   4.438   7.813 -0.4769 -0.8137 -0.7631
 7073SOL    HW232682   0.424   4.418   7.954 -0.8677 -1.3757  0.3168
 7074SOL     OW32683   0.680   3.392   8.387  0.7408  0.0129 -0.3482
 7074SOL    HW132684   0.660   3.486   8.385 -1.5082 -0.4797 -0.4693
 7074SOL    HW232685   0.623   3.371   8.461  1.0601  1.3260  0.2701
 7075SOL     OW32686   2.032   3.005   1.816 -0.2062 -0.4310  0.1036
 7075SOL    HW132687   1.955   2.985   1.869 -1.1769  0.8124 -0.8280
 7075SOL    HW232688   2.052   2.914   1.794 -0.6646 -0.6033  0.3942
 7076SOL     OW32689   1.609   2.216   8.613  0.1822 -0.3570  0.5916
 7076SOL    HW132690   1.643   2.130   8.589  0.5001 -0.5232  1.6612
 7076SOL    HW232691   1.635   2.223   8.704 -1.7142 -0.8211  1.1695
 7077SOL     OW32692   4.140   3.720   3.492 -0.3562 -0.0642  0.1641
 7077SOL    HW132693   4.186   3.802   3.509  0.0723  0.1043 -1.7273
 7077SOL    HW232694   4.066   3.757   3.444  0.8638  0.9975 -0.9261
 7078SOL     OW32695   0.741   0.828  15.889 -0.6536  0.0773 -0.0471
 7078SOL    HW132696   0.700   0.913  15.869 -0.9861 -0.4081 -1.4844
 7078SOL    HW232697   0.805   0.825  15.817  0.6592 -1.0214  1.1718
 7079SOL     OW32698   3.861   1.133   3.528  0.2917  0.7816  0.5970
 7079SOL    HW132699   3.919   1.169   3.461 -1.5251 -0.2246 -1.5304
 7079SOL    HW232700   3.844   1.049   3.486 -0.7124 -0.2942  3.1937
 7080SOL     OW32701   0.637   2.673   5.500 -0.3744  0.1260  0.0931
 7080SOL    HW132702   0.634   2.577   5.493 -1.9975  0.1417  0.4982
 7080SOL    HW232703   0.629   2.681   5.595  1.6384  0.5012  0.2120
 7081SOL     OW32704   3.261   4.170   5.761 -0.3715  0.0376 -0.1949
 7081SOL    HW132705   3.202   4.157   5.686 -1.4316 -0.7024  0.7617
 7081SOL    HW232706   3.330   4.215   5.712 -0.4008 -2.2007 -2.3132
 7082SOL     OW32707   2.639   1.266   2.354  0.0972  0.1672  0.2313
 7082SOL    HW132708   2.631   1.172   2.339  2.4126 -0.0740  0.5360
 7082SOL    HW232709   2.692   1.299   2.282 -0.3028  1.4411  0.5247
 7083SOL     OW32710   1.684   1.724  15.850  0.3058 -0.2182 -0.5730
 7083SOL    HW132711   1.766   1.737  15.803  0.4844 -1.0482 -0.5043
 7083SOL    HW232712   1.716   1.686  15.932 -0.6619  1.1792  0.4413
 7084SOL     OW32713   0.403   3.956   8.793  0.1947 -0.5059  0.4566
 7084SOL    HW132714   0.491   3.919   8.800  0.2860 -0.7648 -1.8135
 7084SOL    HW232715   0.410   4.043   8.833 -1.3789 -0.4974  0.6791
 7085SOL     OW32716   3.006   3.970   1.351 -0.1291 -0.3392 -0.3631
 7085SOL    HW132717   2.948   4.014   1.289 -2.0776 -1.2126  0.8458
 7085SOL    HW232718   2.935   3.916   1.385 -0.8186  1.3411  0.8988
 7086SOL     OW32719   0.296   1.017  17.597 -0.5779  0.0463  0.0431
 7086SOL    HW132720   0.382   1.044  17.630 -0.2930 -1.2249  0.3600
 7086SOL    HW232721   0.293   0.926  17.625  1.3200 -0.0373  0.0018
 7087SOL     OW32722   0.484   4.072  11.752  0.6218  0.3026  0.4260
 7087SOL    HW132723   0.512   3.981  11.765  0.6473  0.1321 -0.8175
 7087SOL    HW232724   0.443   4.099  11.833  1.3542  1.4251  0.4157
 7088SOL     OW32725   2.558   3.155   1.993 -0.2909  0.0059  0.1897
 7088SOL    HW132726   2.503   3.159   1.915  0.6715  0.6242 -0.4525
 7088SOL    HW232727   2.500   3.218   2.036 -0.8941  0.9898 -2.0686
 7089SOL     OW32728   2.499   1.553   2.617  0.3031  0.2859 -0.7512
 7089SOL    HW132729   2.492   1.626   2.679 -1.7219 -1.6323  1.2938
 7089SOL    HW232730   2.549   1.485   2.662  2.4447  2.4527  0.2016
 7090SOL     OW32731   4.301   4.627   3.542  0.6419 -0.7061 -0.5543
 7090SOL    HW132732   4.328   4.698   3.485 -3.6132  1.7891  0.4983
 7090SOL    HW232733   4.221   4.593   3.501 -0.8805 -0.1893  2.0096
 7091SOL     OW32734   1.813   2.160   9.464  0.0639  0.2325  0.2518
 7091SOL    HW132735   1.728   2.186   9.500 -0.2059 -1.4296  0.7783
 7091SOL    HW232736   1.858   2.245   9.457  0.0346  0.2591  0.3922
 7092SOL     OW32737   0.669   3.000  17.122 -0.3530  0.1737 -0.5789
 7092SOL    HW132738   0.626   2.915  17.133 -0.7526  0.2039 -1.9555
 7092SOL    HW232739   0.589   3.051  17.104 -0.4180 -0.6623 -2.5539
 7093SOL     OW32740   2.817   3.087   2.078 -0.4748  0.3444  0.1959
 7093SOL    HW132741   2.732   3.111   2.042  0.3518  0.8049 -1.4176
 7093SOL    HW232742   2.809   2.992   2.063 -0.7033 -0.0454  2.7355
 7094SOL     OW32743   4.619   4.321   4.478  0.2399  0.0318  0.2043
 7094SOL    HW132744   4.560   4.395   4.467 -0.0509  0.1074  2.2611
 7094SOL    HW232745   4.685   4.340   4.411  0.8274  2.7200  1.5476
 7095SOL     OW32746   2.999   4.215   2.094  0.4462  0.0507 -0.1098
 7095SOL    HW132747   3.027   4.201   2.185 -2.2311 -0.6980  0.5987
 7095SOL    HW232748   3.011   4.126   2.060  0.3333 -0.5847  1.5108
 7096SOL     OW32749   2.288   0.884   7.987  0.4584  0.8958 -0.0377
 7096SOL    HW132750   2.272   0.791   7.972  3.4466  0.1222  1.4107
 7096SOL    HW232751   2.364   0.884   8.046  0.0127  0.5795  0.5369
 7097SOL     OW32752   0.029   4.564   4.602 -0.5655 -0.0196  0.3113
 7097SOL    HW132753   0.042   4.477   4.565 -0.7914  0.0886 -0.0273
 7097SOL    HW232754   0.009   4.553   4.695  1.9293  0.2149  0.8577
 7098SOL     OW32755   2.599   2.120  10.610  0.5377 -0.2598 -0.4828
 7098SOL    HW132756   2.547   2.040  10.615  0.4542 -0.1814 -0.0677
 7098SOL    HW232757   2.531   2.180  10.580 -0.1660 -0.6544  0.3279
 7099SOL     OW32758   2.203   3.279   3.031 -0.1858 -0.5740  0.1812
 7099SOL    HW132759   2.286   3.326   3.039  1.0333 -2.6802 -0.1458
 7099SOL    HW232760   2.156   3.345   2.979  0.3404 -0.4135 -0.0934
 7100SOL     OW32761   3.242   0.636  16.028  0.1034  0.1709  0.2927
 7100SOL    HW132762   3.225   0.643  15.934  0.9043  1.7698  0.2690
 7100SOL    HW232763   3.191   0.712  16.057  0.8377  0.3724  1.0509
 7101SOL     OW32764   3.569   4.722   8.646 -0.1256  0.1468 -0.2884
 7101SOL    HW132765   3.600   4.653   8.704 -0.1466 -1.3881 -2.1046
 7101SOL    HW232766   3.500   0.051   8.689 -1.7309 -1.7393 -0.6198
 7102SOL     OW32767   3.734   2.941   6.012 -0.1623  0.0617 -0.0543
 7102SOL    HW132768   3.825   2.964   6.030  0.0782 -1.1885  0.2952
 7102SOL    HW232769   3.739   2.857   5.967 -1.4537 -0.7186  1.2821
 7103SOL     OW32770   4.430   2.302   2.489  0.3485 -0.0754 -0.0866
 7103SOL    HW132771   4.409   2.365   2.420 -2.4814  0.9067  1.6622
 7103SOL    HW232772   4.521   2.277   2.472  0.4627  0.5644 -0.4118
 7104SOL     OW32773   3.359   0.077  13.643 -0.0926 -0.3312 -1.0049
 7104SOL    HW132774   3.274   0.097  13.684  1.0073  0.9156  0.7217
 7104SOL    HW232775   3.408   0.024  13.706 -1.2049 -0.3045 -0.1023
 7105SOL     OW32776   1.639   0.430   6.746 -0.2750  0.2947  0.3650
 7105SOL    HW132777   1.599   0.503   6.699  3.3823  0.5134 -2.4023
 7105SOL    HW232778   1.560   0.377   6.757 -2.4487  3.7506  1.2288
 7106SOL     OW32779   4.665   4.485  14.788  0.3614 -0.8993  0.4667
 7106SOL    HW132780   4.700   4.565  14.749  0.0058 -1.1491 -0.3610
 7106SOL    HW232781   4.653   4.500  14.882  0.3665 -0.9163  0.4700
 7107SOL     OW32782   0.100   2.817  11.908 -0.5943 -0.5531  0.2545
 7107SOL    HW132783   0.053   2.899  11.922  0.1893 -0.1510  0.5534
 7107SOL    HW232784   0.169   2.825  11.974 -2.9442  1.9711  2.3960
 7108SOL     OW32785   2.102   0.679  11.251 -0.0045 -0.2002 -0.1618
 7108SOL    HW132786   2.154   0.620  11.196  0.4516  0.1170 -0.0711
 7108SOL    HW232787   2.119   0.764  11.209 -0.3978 -1.3015 -2.5560
 7109SOL     OW32788   3.481   2.822   1.419  0.4900 -0.7466 -0.9220
 7109SOL    HW132789   3.420   2.876   1.369  2.5467 -0.4507 -3.0583
 7109SOL    HW232790   3.434   2.740   1.433 -1.2728  0.1839 -1.3592
 7110SOL     OW32791   0.452   4.692   4.588  0.3438 -0.0317 -0.1014
 7110SOL    HW132792   0.406   4.713   4.669 -0.8954 -0.1807 -0.7683
 7110SOL    HW232793   0.385   4.696   4.520  1.1139 -2.7689 -1.0138
 7111SOL     OW32794   2.619   4.666   3.616  0.2062 -0.5572  0.1451
 7111SOL    HW132795   2.665   0.017   3.658  3.0374 -2.6278  0.6535
 7111SOL    HW232796   2.642   4.673   3.523  1.4381 -0.8399  0.4206
 7112SOL     OW32797   1.382   4.040   9.472 -0.0716 -0.1090  0.1751
 7112SOL    HW132798   1.404   3.951   9.499 -1.4693 -0.7447 -0.7684
 7112SOL    HW232799   1.438   4.051   9.395  0.3397 -1.6896  0.2449
 7113SOL     OW32800   4.371   2.711  11.203 -0.0517 -0.1328  0.6063
 7113SOL    HW132801   4.362   2.655  11.126 -0.6383  1.6249 -0.6266
 7113SOL    HW232802   4.279   2.738  11.203  0.8622  2.9944 -2.5982
 7114SOL     OW32803   1.861   3.390   6.177  0.5997  0.3482 -0.2103
 7114SOL    HW132804   1.860   3.381   6.272 -0.3808 -1.1452 -0.3625
 7114SOL    HW232805   1.943   3.346   6.155 -0.6213 -0.9293 -2.1416
 7115SOL     OW32806   0.762   3.327   9.903  0.5272  0.4480  0.6129
 7115SOL    HW132807   0.838   3.316   9.845  1.8475  1.9208  2.0512
 7115SOL    HW232808   0.694   3.316   9.836  0.7733 -1.7850  0.7326
 7116SOL     OW32809   3.016   2.585   3.638 -0.5363 -0.3557  0.0579
 7116SOL    HW132810   2.993   2.677   3.623  0.9728 -0.1251 -0.8662
 7116SOL    HW232811   2.940   2.552   3.592  1.0623 -0.1778 -2.6966
 7117SOL     OW32812   4.674   3.368   9.746 -0.1750  0.6137 -0.5196
 7117SOL    HW132813   4.677   3.464   9.752 -1.2403  0.7032 -1.4747
 7117SOL    HW232814   4.589   3.343   9.781 -0.0412 -0.8202 -1.2063
 7118SOL     OW32815   1.356   4.593  16.313  0.1789 -0.7962 -0.3511
 7118SOL    HW132816   1.378   4.558  16.227  1.6793 -3.0820  0.9732
 7118SOL    HW232817   1.437   4.612  16.358 -0.7535 -0.6153  1.2466
 7119SOL     OW32818   1.787   0.157  14.183  0.1619 -0.2158  0.5713
 7119SOL    HW132819   1.837   0.083  14.146 -1.3303 -1.0315  0.1910
 7119SOL    HW232820   1.769   0.114  14.266 -0.3016  0.5397  0.8567
 7120SOL     OW32821   1.491   0.069   7.756 -0.2764  0.5732  0.1411
 7120SOL    HW132822   1.463   4.705   7.727 -1.5576  1.2655 -0.6982
 7120SOL    HW232823   1.412   0.101   7.800 -1.1683 -0.9682 -0.3656
 7121SOL     OW32824   1.056   4.466   9.483 -0.8840  0.4751  0.2653
 7121SOL    HW132825   1.003   4.386   9.485 -0.3026  0.0404 -1.8321
 7121SOL    HW232826   1.140   4.422   9.497 -0.7269  0.6573 -0.1281
 7122SOL     OW32827   1.716   1.256   2.308  0.3873  0.2290 -0.2536
 7122SOL    HW132828   1.761   1.339   2.293 -1.8840  1.4634 -0.3104
 7122SOL    HW232829   1.622   1.275   2.304 -0.0263 -2.1015 -1.4197
 7123SOL     OW32830   1.571   2.359   8.390 -0.4654 -0.4968  0.5299
 7123SOL    HW132831   1.578   2.322   8.478 -0.6937 -1.6314  0.0734
 7123SOL    HW232832   1.487   2.325   8.358  0.7916 -1.8301 -1.3534
 7124SOL     OW32833   2.095   3.666   2.690  0.0286  0.0068 -0.0247
 7124SOL    HW132834   2.025   3.652   2.625 -1.3409  1.4089  1.1307
 7124SOL    HW232835   2.162   3.704   2.633 -0.7643 -0.6418 -1.4166
 7125SOL     OW32836   2.173   1.894   1.289 -0.1173 -0.1615 -0.2437
 7125SOL    HW132837   2.082   1.888   1.259  0.3911  0.0409 -1.8089
 7125SOL    HW232838   2.212   1.853   1.212  0.3629 -1.1953  0.5566
 7126SOL     OW32839   3.685   2.388  17.369 -0.3772 -0.7918 -0.5593
 7126SOL    HW132840   3.609   2.427  17.325  0.7954  2.3452  0.1802
 7126SOL    HW232841   3.756   2.448  17.344  0.2308 -0.6325  1.5769
 7127SOL     OW32842   0.197   2.496   5.580 -0.3949  0.0864  0.0296
 7127SOL    HW132843   0.112   2.496   5.626 -0.0757 -1.4700  0.6204
 7127SOL    HW232844   0.224   2.410   5.614  0.7179  0.9043  1.1974
 7128SOL     OW32845   2.121   4.680   4.026 -0.3419 -0.3210 -0.9506
 7128SOL    HW132846   2.153   4.591   4.014 -1.9297 -1.7336  5.1048
 7128SOL    HW232847   2.198   0.009   4.003 -1.6990  0.1469 -4.3887
 7129SOL     OW32848   3.528   4.440   8.447 -0.5270  0.5879  0.3392
 7129SOL    HW132849   3.461   4.489   8.495 -1.2948  0.1176 -0.2464
 7129SOL    HW232850   3.577   4.404   8.520  0.9795  0.9046 -0.5245
 7130SOL     OW32851   2.113   1.886  13.422 -0.0042  0.0419 -0.4628
 7130SOL    HW132852   2.122   1.979  13.402  1.2822  0.0418  0.1170
 7130SOL    HW232853   2.179   1.876  13.491 -2.1214  0.7488  1.6414
 7131SOL     OW32854   3.852   0.760  15.187 -0.2903 -0.2585  0.5912
 7131SOL    HW132855   3.862   0.772  15.092 -2.8320  1.1843  0.4855
 7131SOL    HW232856   3.914   0.689  15.202 -0.8017 -1.4454 -2.7466
 7132SOL     OW32857   2.492   0.876   2.083 -0.0758  0.1890  0.4378
 7132SOL    HW132858   2.475   0.806   2.147 -2.7816 -0.0486 -0.5178
 7132SOL    HW232859   2.504   0.823   2.004  0.9061  1.5125 -0.2848
 7133SOL     OW32860   0.400   2.664   4.187 -0.1119  0.2052 -0.1722
 7133SOL    HW132861   0.305   2.667   4.201 -0.2705 -0.5012 -1.1016
 7133SOL    HW232862   0.414   2.579   4.146  0.8397  0.8939 -1.2795
 7134SOL     OW32863   4.496   3.813   0.436  0.1687 -0.0597 -0.2435
 7134SOL    HW132864   4.468   3.744   0.497  0.1294 -0.5228 -0.7856
 7134SOL    HW232865   4.414   3.862   0.431 -0.2528 -0.8476 -1.1571
 7135SOL     OW32866   4.193   2.385   4.535  0.0769  0.1011 -0.2513
 7135SOL    HW132867   4.253   2.446   4.577 -0.6179  1.1073 -0.7172
 7135SOL    HW232868   4.249   2.340   4.472  1.4874  0.3067  0.8623
 7136SOL     OW32869   2.460   1.081   8.289 -0.3418 -0.5124  0.1545
 7136SOL    HW132870   2.475   1.015   8.221  1.8192  2.0702 -1.8698
 7136SOL    HW232871   2.523   1.059   8.359 -0.5944  1.3634  0.9648
 7137SOL     OW32872   0.287   3.685   3.012  0.1747  0.3742 -0.1872
 7137SOL    HW132873   0.305   3.769   2.970  1.0940 -0.1917 -0.9221
 7137SOL    HW232874   0.317   3.615   2.954  2.7853  1.8721 -0.6131
 7138SOL     OW32875   2.809   0.580   4.732 -0.0095 -0.3113  0.7903
 7138SOL    HW132876   2.851   0.496   4.753 -0.1555 -0.7200 -0.5472
 7138SOL    HW232877   2.718   0.550   4.726 -0.3808  0.9377  0.2059
 7139SOL     OW32878   0.322   3.317   4.233  0.4255 -0.1355  0.4817
 7139SOL    HW132879   0.399   3.284   4.187  0.6943  0.6139  0.3844
 7139SOL    HW232880   0.352   3.405   4.256  2.5597 -0.9967  0.9650
 7140SOL     OW32881   2.030   0.312   5.192  0.4203 -0.6532 -1.0723
 7140SOL    HW132882   2.051   0.350   5.107  1.2110 -0.4029 -0.7647
 7140SOL    HW232883   2.119   0.288   5.217  0.3176  1.5986  1.4420
 7141SOL     OW32884   3.549   2.842  10.468  0.6632  0.0826 -0.1173
 7141SOL    HW132885   3.522   2.752  10.451 -1.4325  0.4445  1.1550
 7141SOL    HW232886   3.640   2.824  10.448  0.8726  0.1337  0.8101
 7142SOL     OW32887   0.219   0.146   3.483 -0.4990  0.4104 -0.6761
 7142SOL    HW132888   0.237   0.052   3.470  1.4981  0.6543  0.2561
 7142SOL    HW232889   0.131   0.148   3.445 -0.2072 -1.0719 -1.4310
 7143SOL     OW32890   1.206   1.251   8.850  0.6619  0.2901 -0.2973
 7143SOL    HW132891   1.298   1.222   8.849  0.5781  0.1320 -2.4927
 7143SOL    HW232892   1.217   1.344   8.834 -0.6843  0.4644 -0.1587
 7144SOL     OW32893   0.562   0.662   2.443 -0.0876  0.2977  0.5444
 7144SOL    HW132894   0.611   0.607   2.503 -2.0765 -2.8623 -0.7429
 7144SOL    HW232895   0.504   0.606   2.392 -1.6882  0.4176  2.2499
 7145SOL     OW32896   4.024   0.914   0.882 -0.2632 -0.4359 -0.1631
 7145SOL    HW132897   4.094   0.889   0.822 -2.1031 -1.9755 -1.6587
 7145SOL    HW232898   3.985   0.975   0.820 -0.5320 -2.1314 -1.6561
 7146SOL     OW32899   3.559   0.385  13.307 -0.7921  0.6964  0.5737
 7146SOL    HW132900   3.524   0.474  13.298 -1.1532  0.5189  0.2485
 7146SOL    HW232901   3.532   0.365  13.397  1.4166  2.2409  1.5921
 7147SOL     OW32902   2.415   0.924  12.568 -0.2195 -0.2999 -0.4831
 7147SOL    HW132903   2.494   0.976  12.582 -1.2698  0.9974  0.6096
 7147SOL    HW232904   2.421   0.904  12.474  0.0832 -1.3746 -0.2390
 7148SOL     OW32905   0.589   0.907   0.182  0.0472 -0.0310  0.7179
 7148SOL    HW132906   0.629   0.948   0.259 -1.6645  2.2233  0.3995
 7148SOL    HW232907   0.572   0.980   0.121  0.6256  0.8502  1.6143
 7149SOL     OW32908   1.753   0.321  16.608  0.5828 -0.3033  0.5634
 7149SOL    HW132909   1.837   0.329  16.561 -0.0622  2.1947 -0.1782
 7149SOL    HW232910   1.782   0.274  16.686 -1.1586  0.3298  1.5817
 7150SOL     OW32911   1.703   2.090   6.442  0.2597  0.3335 -0.0040
 7150SOL    HW132912   1.790   2.129   6.447  0.0659  0.8435 -0.5490
 7150SOL    HW232913   1.699   2.073   6.348 -0.8006  2.1271 -0.2848
 7151SOL     OW32914   3.921   4.526   6.433 -0.0481  0.0847 -1.0529
 7151SOL    HW132915   3.854   4.458   6.438  2.0243 -1.6604  2.3958
 7151SOL    HW232916   3.876   4.587   6.492  0.3021  1.0991 -1.8287
 7152SOL     OW32917   0.286   0.912  15.094 -0.2838  0.0168  0.1084
 7152SOL    HW132918   0.229   0.902  15.018 -0.8210  2.1972  0.2391
 7152SOL    HW232919   0.303   1.005  15.079  1.4211 -0.2268  0.5193
 7153SOL     OW32920   0.899   2.911   3.442 -0.4897  0.0016 -0.0953
 7153SOL    HW132921   0.813   2.952   3.454  0.8013  2.3005  1.1995
 7153SOL    HW232922   0.905   2.931   3.349  1.1426 -1.7180 -0.3535
 7154SOL     OW32923   4.596   0.891   5.591  0.1053 -0.0407  0.4050
 7154SOL    HW132924   4.606   0.946   5.514 -1.9473 -0.9308 -0.4979
 7154SOL    HW232925   4.523   0.927   5.640  0.2539  0.0386  0.5657
 7155SOL     OW32926   3.032   0.044  10.478 -0.4005 -0.8591 -0.1308
 7155SOL    HW132927   2.994   0.085  10.555  2.6563  1.3867  0.1769
 7155SOL    HW232928   3.120   0.079  10.464 -0.2855 -0.6025  1.2438
 7156SOL     OW32929   4.524   0.502   4.563 -0.4796  0.1960 -0.0652
 7156SOL    HW132930   4.533   0.407   4.574  0.7692  0.3322  0.1084
 7156SOL    HW232931   4.468   0.522   4.637  1.0228 -0.7002  1.3301
 7157SOL     OW32932   2.945   4.292   5.832 -0.2620 -0.0495 -0.4232
 7157SOL    HW132933   2.992   4.227   5.779 -0.8981 -1.1022  0.3060
 7157SOL    HW232934   2.991   4.376   5.832 -0.5688  0.1215  1.5978
 7158SOL     OW32935   1.164   2.902   3.400  0.0914 -0.1876  0.0872
 7158SOL    HW132936   1.079   2.919   3.440 -0.7471 -1.4781 -1.1718
 7158SOL    HW232937   1.140   2.876   3.311 -1.1500  1.7003 -0.1147
 7159SOL     OW32938   4.368   3.423   1.598  0.3486 -0.4102  0.0008
 7159SOL    HW132939   4.319   3.372   1.663  0.8003 -1.2468 -0.3227
 7159SOL    HW232940   4.448   3.450   1.642  1.6063 -1.4076 -1.6754
 7160SOL     OW32941   3.299   1.458   3.372 -0.2984  0.1373  0.0579
 7160SOL    HW132942   3.235   1.388   3.372 -2.3155  1.9741 -0.7500
 7160SOL    HW232943   3.260   1.533   3.418  0.4131  1.3051 -1.2297
 7161SOL     OW32944   4.685   3.928   0.257 -0.0750 -0.1289  0.2532
 7161SOL    HW132945   4.665   4.014   0.294  1.1154 -0.4037  1.4922
 7161SOL    HW232946   4.627   3.874   0.310 -0.0663  1.0961  1.5162
 7162SOL     OW32947   0.451   2.705   7.303 -0.4140  0.5089  0.3521
 7162SOL    HW132948   0.419   2.785   7.344 -1.7538 -0.8943  2.0574
 7162SOL    HW232949   0.374   2.648   7.303 -0.6024  0.7630  0.1638
 7163SOL     OW32950   2.275   2.990  16.810 -0.5101 -0.4574  0.4424
 7163SOL    HW132951   2.182   3.006  16.826 -0.4820  2.4673 -2.4136
 7163SOL    HW232952   2.319   3.047  16.873 -0.6156  0.1777 -0.0592
 7164SOL     OW32953   1.806   3.820   2.949 -0.1899 -0.0873 -0.4429
 7164SOL    HW132954   1.789   3.893   2.890 -2.2978  1.0477  1.5476
 7164SOL    HW232955   1.774   3.866   3.027  2.5196  1.5428 -0.3162
 7165SOL     OW32956   0.466   0.612  11.161 -0.0096  0.4491  0.3163
 7165SOL    HW132957   0.557   0.592  11.136 -0.0420  1.0942 -0.3180
 7165SOL    HW232958   0.483   0.695  11.207  2.5131 -1.4508  2.8432
 7166SOL     OW32959   2.045   1.969   3.060  0.3032 -0.2856  0.5096
 7166SOL    HW132960   1.980   1.976   3.129 -1.0216 -0.3069 -0.7238
 7166SOL    HW232961   2.013   2.035   2.999 -2.5474 -1.5584  0.6318
 7167SOL     OW32962   0.288   2.346   1.260 -0.6041  0.0803  0.2794
 7167SOL    HW132963   0.207   2.299   1.242 -1.0425  1.0562 -0.2923
 7167SOL    HW232964   0.352   2.282   1.290 -1.2249 -1.6661 -2.1335
 7168SOL     OW32965   2.055   0.011   3.174 -0.0896  0.0496  0.2643
 7168SOL    HW132966   1.979   0.010   3.233 -2.3503  1.7514 -2.6064
 7168SOL    HW232967   2.103   0.081   3.218 -1.7119  1.6088 -0.4616
 7169SOL     OW32968   2.763   2.932   6.008 -0.4190  0.0544 -0.4515
 7169SOL    HW132969   2.772   3.000   5.940  1.7241 -0.0084 -0.2466
 7169SOL    HW232970   2.671   2.935   6.031 -0.1129  0.1474  0.7594
 7170SOL     OW32971   2.003   2.607  10.473  0.3949  0.0094 -0.9230
 7170SOL    HW132972   2.036   2.680  10.526  0.9832 -0.1643 -1.0476
 7170SOL    HW232973   1.913   2.616  10.505  1.0286 -0.0391  0.8992
 7171SOL     OW32974   4.419   1.855  11.564  0.3860 -0.3781 -0.6336
 7171SOL    HW132975   4.464   1.929  11.523 -0.1976  0.1706 -0.2825
 7171SOL    HW232976   4.437   1.782  11.505 -0.8362 -1.7002  0.6378
 7172SOL     OW32977   0.846   3.600   5.583  0.5100 -0.4113 -0.3489
 7172SOL    HW132978   0.771   3.607   5.642  0.4224  1.1419 -0.6575
 7172SOL    HW232979   0.807   3.557   5.507 -0.4632 -0.3668  0.1333
 7173SOL     OW32980   3.708   2.718   5.818  0.1315 -0.3405  0.3395
 7173SOL    HW132981   3.749   2.787   5.767 -0.2038 -0.4613 -0.1006
 7173SOL    HW232982   3.782   2.681   5.865  1.1196  0.9756 -0.1858
 7174SOL     OW32983   0.827   1.616   0.551  0.0439 -0.3556 -0.4070
 7174SOL    HW132984   0.825   1.534   0.601 -0.0639 -0.3672 -0.4313
 7174SOL    HW232985   0.907   1.596   0.503  1.2565  0.5598  1.2189
 7175SOL     OW32986   0.439   2.234   9.333  0.1553 -0.1619 -0.3452
 7175SOL    HW132987   0.477   2.315   9.366  2.1113 -1.0609 -0.3855
 7175SOL    HW232988   0.485   2.235   9.249  0.0049  1.5529 -0.3997
 7176SOL     OW32989   2.111   1.907   3.424  0.1152  0.3860 -0.2493
 7176SOL    HW132990   2.196   1.952   3.420 -0.0803  0.8318  0.5866
 7176SOL    HW232991   2.063   1.965   3.484 -1.2939  1.1185 -2.0982
 7177SOL     OW32992   0.937   2.425   4.302 -0.4319 -0.1335  0.3630
 7177SOL    HW132993   0.855   2.377   4.295 -0.6075 -0.1010  2.2948
 7177SOL    HW232994   0.906   2.495   4.360  1.0733  0.6253  0.2763
 7178SOL     OW32995   0.321   1.268  15.360 -0.0459  0.0101  0.0285
 7178SOL    HW132996   0.247   1.287  15.302 -0.9828  0.2439  1.2934
 7178SOL    HW232997   0.286   1.287  15.448 -0.2269 -0.1178 -0.0162
 7179SOL     OW32998   1.334   1.676   4.699  0.2389  0.2065 -0.1144
 7179SOL    HW132999   1.304   1.716   4.781  0.5628 -1.7871  0.9598
 7179SOL    HW233000   1.327   1.749   4.637 -0.9295  0.0675 -0.1504
 7180SOL     OW33001   2.094   2.263  10.784  0.2899 -0.1380 -0.3093
 7180SOL    HW133002   2.095   2.348  10.828  2.9945 -0.5051  0.3946
 7180SOL    HW233003   2.023   2.248  10.723 -0.3781 -1.5020  0.8024
 7181SOL     OW33004   4.110   1.712   7.222 -0.4399 -0.2379 -0.3137
 7181SOL    HW133005   4.016   1.730   7.217 -0.3105 -0.4215 -3.3281
 7181SOL    HW233006   4.111   1.658   7.301  0.2270 -2.1057 -1.6142
 7182SOL     OW33007   0.627   0.572   8.791  0.0830  0.0077 -0.8003
 7182SOL    HW133008   0.646   0.579   8.884  0.5358  0.0891 -0.9010
 7182SOL    HW233009   0.547   0.518   8.796 -0.2760  0.4311 -1.8496
 7183SOL     OW33010   3.946   1.750   3.535  0.0341  0.1020  0.0115
 7183SOL    HW133011   3.874   1.811   3.554 -1.7239 -1.7777 -0.5843
 7183SOL    HW233012   4.009   1.803   3.486  0.2831 -0.0020  0.2188
 7184SOL     OW33013   1.625   1.236   1.306 -0.0717 -0.0497 -0.7188
 7184SOL    HW133014   1.532   1.216   1.295  0.1934  0.5742 -4.2311
 7184SOL    HW233015   1.670   1.153   1.319 -0.8096 -0.6663 -2.1569
 7185SOL     OW33016   0.810   1.451   5.881  0.0981  0.3268  0.2240
 7185SOL    HW133017   0.834   1.437   5.790  2.4668  0.8846  0.7357
 7185SOL    HW233018   0.855   1.535   5.894  1.3477 -0.3132  0.0896
 7186SOL     OW33019   4.498   3.591  14.990 -0.2150 -0.4896 -0.7957
 7186SOL    HW133020   4.564   3.522  14.975 -1.6593 -2.0469  0.0303
 7186SOL    HW233021   4.522   3.623  15.077  0.7402 -1.1288 -0.8130
 7187SOL     OW33022   2.272   1.578   8.890 -0.0391 -0.3618 -0.1119
 7187SOL    HW133023   2.214   1.633   8.837  2.0150  0.0273 -1.9187
 7187SOL    HW233024   2.327   1.646   8.928  1.8419 -1.2563 -1.2796
 7188SOL     OW33025   1.066   2.577  11.360 -0.7689  0.0848  0.2527
 7188SOL    HW133026   1.060   2.558  11.266  4.2495 -1.0845  0.1623
 7188SOL    HW233027   0.972   2.572  11.378 -0.6011 -0.1023  1.0507
 7189SOL     OW33028   3.119   1.294   6.099 -0.7370  0.2874 -0.0765
 7189SOL    HW133029   3.172   1.241   6.159 -0.4432  0.2672 -0.3534
 7189SOL    HW233030   3.042   1.237   6.105 -0.0103 -0.8567 -1.3304
 7190SOL     OW33031   3.848   3.415  16.102 -0.0283  0.8447  0.4449
 7190SOL    HW133032   3.863   3.418  16.008  2.1019 -0.5856  0.7221
 7190SOL    HW233033   3.771   3.364  16.124  1.0265 -0.6215  0.7656
 7191SOL     OW33034   1.647   2.531   8.658 -0.0714 -0.0237 -0.0582
 7191SOL    HW133035   1.620   2.539   8.749  3.8144  2.7235  0.8279
 7191SOL    HW233036   1.559   2.516   8.623 -0.8913  2.4107  0.9310
 7192SOL     OW33037   3.463   0.116   3.727 -0.1432 -0.3036 -0.6566
 7192SOL    HW133038   3.403   0.153   3.662 -2.3504 -1.4187  0.7676
 7192SOL    HW233039   3.442   0.023   3.728  1.2756 -0.6254 -1.0880
 7193SOL     OW33040   1.483   3.894   8.408  0.1217  0.7543  0.1659
 7193SOL    HW133041   1.577   3.875   8.401  0.5840  2.6659  1.0277
 7193SOL    HW233042   1.455   3.838   8.336  3.0813  1.0939 -1.2415
 7194SOL     OW33043   0.687   4.083  16.909  0.6337 -0.0965  0.0394
 7194SOL    HW133044   0.653   4.116  16.826  0.9872 -1.3010 -0.5781
 7194SOL    HW233045   0.632   4.132  16.970 -0.4509 -1.2299 -0.0439
 7195SOL     OW33046   3.006   3.906   7.110 -0.1495  0.0867 -0.1463
 7195SOL    HW133047   2.930   3.942   7.064  0.6193  0.8772 -0.7990
 7195SOL    HW233048   3.008   3.960   7.190 -2.3429 -1.5382  1.0002
 7196SOL     OW33049   4.104   2.145   7.524 -0.2257 -0.6526 -0.0135
 7196SOL    HW133050   4.043   2.146   7.597  0.4735  0.6193  0.5463
 7196SOL    HW233051   4.174   2.205   7.548  3.6772 -4.0210 -3.0353
 7197SOL     OW33052   0.878   2.978   3.845  0.4120 -0.2258 -0.3963
 7197SOL    HW133053   0.895   2.885   3.860 -2.9219 -0.5232  1.5402
 7197SOL    HW233054   0.943   3.000   3.779  0.1602 -0.9246 -0.8757
 7198SOL     OW33055   3.419   3.141   6.732 -0.1184  0.2213  0.0784
 7198SOL    HW133056   3.384   3.189   6.657  1.7116 -1.6922 -2.0062
 7198SOL    HW233057   3.412   3.048   6.712  2.3638  0.3610 -1.4472
 7199SOL     OW33058   3.193   1.935  11.204 -0.1581  0.3463  0.5718
 7199SOL    HW133059   3.235   1.884  11.274  0.6121 -1.1453 -0.9838
 7199SOL    HW233060   3.266   1.970  11.153 -1.0172 -0.9653 -1.5369
 7200SOL     OW33061   1.579   1.409   4.608 -0.2094  0.2493  0.6544
 7200SOL    HW133062   1.521   1.422   4.533  2.2308  1.9642 -0.9775
 7200SOL    HW233063   1.516   1.410   4.679 -1.2930 -0.1784 -0.3084
 7201SOL     OW33064   4.388   2.254   6.806  0.5843  0.2177  0.4510
 7201SOL    HW133065   4.293   2.241   6.800  0.4900  1.8226 -1.5670
 7201SOL    HW233066   4.395   2.265   6.901  1.0686 -0.3437  0.4776
 7202SOL     OW33067   1.763   1.011   7.489 -0.1668  0.1054  0.2147
 7202SOL    HW133068   1.811   1.094   7.483 -0.9180  0.3586 -2.2231
 7202SOL    HW233069   1.841   0.957   7.475 -0.0741  0.9914 -2.6852
 7203SOL     OW33070   1.506   2.094   7.855 -0.5764 -0.1171 -0.5724
 7203SOL    HW133071   1.439   2.070   7.919  1.6108  0.3186  1.8583
 7203SOL    HW233072   1.545   2.008   7.839 -1.6031 -0.9599  1.4358
 7204SOL     OW33073   2.687   0.660  12.672  0.1270  0.1389  0.0075
 7204SOL    HW133074   2.610   0.619  12.633  1.6842 -1.8995 -0.9189
 7204SOL    HW233075   2.745   0.686  12.600  1.9778 -0.4728  1.2839
 7205SOL     OW33076   0.383   1.281   9.621  0.7344 -0.1073  0.1262
 7205SOL    HW133077   0.353   1.366   9.589  1.3827  0.1199  0.1210
 7205SOL    HW233078   0.329   1.285   9.700 -0.9781  1.6852 -1.1408
 7206SOL     OW33079   0.322   4.400   6.111 -0.4190 -0.2941 -0.8553
 7206SOL    HW133080   0.304   4.481   6.159 -0.3283 -0.9125  0.2139
 7206SOL    HW233081   0.367   4.443   6.038 -0.5280 -0.3484 -0.9551
 7207SOL     OW33082   0.188   1.085   6.038 -0.5897 -0.4062 -0.3757
 7207SOL    HW133083   0.105   1.045   6.063 -1.0219  0.6458 -0.1483
 7207SOL    HW233084   0.153   1.093   5.950 -1.5800  0.1412  0.0756
 7208SOL     OW33085   3.164   3.885  11.099 -0.0365  0.0753  0.0324
 7208SOL    HW133086   3.246   3.932  11.086 -0.7851  1.0574 -1.1589
 7208SOL    HW233087   3.131   3.929  11.178  0.5321 -2.6109  1.7509
 7209SOL     OW33088   0.680   4.394   6.107  0.5917 -0.1303 -0.3496
 7209SOL    HW133089   0.629   4.331   6.159  0.2707 -0.6291 -1.2670
 7209SOL    HW233090   0.680   4.468   6.168 -2.7287 -0.2588 -0.1744
 7210SOL     OW33091   3.599   0.091   6.861  0.1977  0.4571  0.3835
 7210SOL    HW133092   3.608   0.016   6.802  1.2527 -0.3040  1.5198
 7210SOL    HW233093   3.535   0.053   6.921 -1.8703  1.8408 -0.9478
 7211SOL     OW33094   3.887   1.997  10.422  0.0153  0.1980 -0.5279
 7211SOL    HW133095   3.793   2.005  10.435  0.0489  1.6585 -1.2556
 7211SOL    HW233096   3.920   1.924  10.476 -2.6777 -1.7237 -1.4955
 7212SOL     OW33097   0.914   3.430   8.640  0.2452 -0.1380  0.2746
 7212SOL    HW133098   0.842   3.369   8.659  1.4893 -1.7838 -0.2223
 7212SOL    HW233099   0.924   3.424   8.545  1.6212 -0.3232  0.4424
 7213SOL     OW33100   3.453   1.933   5.863  0.0971 -0.2257  0.3190
 7213SOL    HW133101   3.479   1.972   5.779  0.1046  0.4458  0.6304
 7213SOL    HW233102   3.462   1.839   5.849  0.7421 -0.4852  2.3908
 7214SOL     OW33103   3.731   3.601   4.857 -0.3746 -0.9922  0.0842
 7214SOL    HW133104   3.723   3.568   4.946 -3.9402 -1.1906 -0.3174
 7214SOL    HW233105   3.743   3.515   4.817 -1.5011 -0.7914 -0.6893
 7215SOL     OW33106   4.425   1.011  10.266 -0.0750 -0.0154  0.5209
 7215SOL    HW133107   4.481   1.068  10.213  0.2185 -1.4937 -0.7607
 7215SOL    HW233108   4.494   0.961  10.309  0.4412  1.1565  1.0449
 7216SOL     OW33109   0.429   3.538  11.971 -0.2598 -0.8618 -0.3495
 7216SOL    HW133110   0.384   3.470  11.920  1.5094 -1.4248 -1.1554
 7216SOL    HW233111   0.519   3.510  11.985 -0.4482 -1.0801  0.4153
 7217SOL     OW33112   0.098   0.633   5.351  0.8232 -1.0125  0.7687
 7217SOL    HW133113   0.145   0.686   5.286 -1.0299 -1.8113 -1.2240
 7217SOL    HW233114   0.046   0.583   5.288  0.5661 -0.4128  0.5011
 7218SOL     OW33115   1.494   1.470  12.569  0.5090  0.2902 -0.0773
 7218SOL    HW133116   1.478   1.395  12.511 -0.5023  0.2638  0.2460
 7218SOL    HW233117   1.552   1.528  12.519 -0.1122  1.3117  0.3947
 7219SOL     OW33118   2.245   2.982   7.674  0.3570  0.0728 -0.3070
 7219SOL    HW133119   2.177   2.915   7.676  1.4933 -1.0140  2.2829
 7219SOL    HW233120   2.317   2.923   7.653 -0.1403 -0.8989  0.7229
 7220SOL     OW33121   1.490   4.551   2.461 -0.3441 -0.3190  0.5375
 7220SOL    HW133122   1.493   4.643   2.487  0.6741 -0.3304  0.4410
 7220SOL    HW233123   1.476   4.553   2.366  1.2308 -0.3776  0.3099
 7221SOL     OW33124   3.473   3.073   8.123 -0.4619  0.3008 -0.4858
 7221SOL    HW133125   3.455   3.018   8.199 -0.9644  0.5824 -0.3941
 7221SOL    HW233126   3.520   3.147   8.162 -1.5677  0.1235  1.1706
 7222SOL     OW33127   3.148   1.745  16.891  0.4525 -0.6829 -0.1411
 7222SOL    HW133128   3.189   1.666  16.855  1.3240 -0.1637 -0.3011
 7222SOL    HW233129   3.060   1.718  16.864  0.4236  0.3736 -1.1275
 7223SOL     OW33130   4.322   1.251   1.615  0.3411 -0.0791  0.0842
 7223SOL    HW133131   4.307   1.338   1.652 -0.8154  0.8042 -2.4851
 7223SOL    HW233132   4.294   1.267   1.525 -2.2802 -0.6234  0.8139
 7224SOL     OW33133   1.645   0.903   8.952  0.5231  0.0610 -0.5416
 7224SOL    HW133134   1.717   0.936   9.007 -0.2026  1.4006 -0.3941
 7224SOL    HW233135   1.639   0.812   8.981  2.3828 -0.6294 -2.3402
 7225SOL     OW33136   2.794   2.757  17.486 -0.4890 -0.9350 -0.1713
 7225SOL    HW133137   2.842   2.820  17.540  1.7039 -1.6548 -1.2949
 7225SOL    HW233138   2.856   2.733  17.418  2.3760  0.8515  1.7974
 7226SOL     OW33139   2.825   1.386   0.602  0.0617  0.1788 -0.2789
 7226SOL    HW133140   2.900   1.342   0.643  0.2544  0.6611 -0.1118
 7226SOL    HW233141   2.820   1.458   0.665  1.8705  1.1295 -1.2163
 7227SOL     OW33142   2.188   3.940   6.997 -0.1146 -0.8057  0.4248
 7227SOL    HW133143   2.198   4.033   7.019 -1.6997 -0.2065 -1.3832
 7227SOL    HW233144   2.112   3.910   7.046 -1.9428  1.7442 -0.8078
 7228SOL     OW33145   4.583   3.004   4.467  0.6833 -0.4656 -0.7245
 7228SOL    HW133146   4.519   3.016   4.538 -0.5370 -1.1802 -1.6907
 7228SOL    HW233147   4.535   2.980   4.388  2.1812  0.6311 -1.9602
 7229SOL     OW33148   1.569   0.034  16.594  0.1297 -0.4626  0.2381
 7229SOL    HW133149   1.558   0.070  16.682  1.2488 -1.2069  0.6865
 7229SOL    HW233150   1.506   0.091  16.550  2.4584  2.0154  0.0875
 7230SOL     OW33151   4.498   4.043   7.793  0.3019 -0.8837 -0.1241
 7230SOL    HW133152   4.442   4.101   7.742 -0.4036  0.0815  1.7648
 7230SOL    HW233153   4.574   4.100   7.809 -0.5483  0.2396 -0.1130
 7231SOL     OW33154   0.877   4.106  13.368 -0.0096 -0.0839  0.2034
 7231SOL    HW133155   0.832   4.181  13.406 -1.2955 -0.7913  0.0582
 7231SOL    HW233156   0.817   4.033  13.377 -2.3579  1.8327 -0.0134
 7232SOL     OW33157   3.098   0.086   7.408 -0.2670  0.2277  0.6352
 7232SOL    HW133158   3.122   0.143   7.336  1.1654  1.0883  1.7826
 7232SOL    HW233159   3.028   0.039   7.364 -1.1842  2.6131 -0.4303
 7233SOL     OW33160   3.540   3.140   0.315 -0.6498 -0.7266 -1.1633
 7233SOL    HW133161   3.477   3.094   0.370  0.2966 -0.3534  0.2336
 7233SOL    HW233162   3.518   3.114   0.226  0.2226  1.3027 -1.9787
 7234SOL     OW33163   4.323   0.626  12.992  0.1247 -0.2684  0.4273
 7234SOL    HW133164   4.355   0.630  13.082 -0.1949  1.0609  0.4801
 7234SOL    HW233165   4.396   0.588  12.944 -1.6705 -2.0176 -0.8939
 7235SOL     OW33166   1.945   3.728   2.470  0.0417  0.5332 -0.2963
 7235SOL    HW133167   1.966   3.660   2.407 -0.4671  0.4015 -0.3198
 7235SOL    HW233168   1.857   3.703   2.498  0.8903 -0.4229  1.5408
 7236SOL     OW33169   2.276   1.390   5.528 -0.4974  0.4492  0.1813
 7236SOL    HW133170   2.270   1.448   5.451 -0.6104 -0.9890 -0.8838
 7236SOL    HW233171   2.200   1.334   5.509 -0.5656  0.3570  0.7262
 7237SOL     OW33172   2.707   1.723   2.488  0.1776 -0.4832 -0.9893
 7237SOL    HW133173   2.695   1.817   2.505 -0.1046 -0.4391 -1.4455
 7237SOL    HW233174   2.666   1.692   2.569  1.5914 -0.0098 -0.0802
 7238SOL     OW33175   4.297   1.788   8.801  0.0815 -0.1921 -0.1253
 7238SOL    HW133176   4.279   1.761   8.711 -3.1558  1.0633  0.1570
 7238SOL    HW233177   4.332   1.708   8.839 -1.2855 -0.3391  0.8147
 7239SOL     OW33178   3.231   0.633   2.941 -0.0476  0.1113  0.0444
 7239SOL    HW133179   3.262   0.574   3.010 -0.4410 -0.8021 -0.5710
 7239SOL    HW233180   3.153   0.587   2.910 -0.6029  0.9191  0.2304
 7240SOL     OW33181   2.891   0.064  12.289 -0.0104  0.0284  0.1711
 7240SOL    HW133182   2.904   0.133  12.354  2.7819 -0.3491  0.0164
 7240SOL    HW233183   2.838   4.722  12.336 -0.6756 -0.7181 -1.5888
 7241SOL     OW33184   4.629   0.265  17.635 -0.3250  0.0689  0.3500
 7241SOL    HW133185   4.638   0.191   0.005  0.7057  0.5265  0.7618
 7241SOL    HW233186   4.539   0.286  17.662  0.2694 -0.3833  2.7242
 7242SOL     OW33187   4.355   4.615  17.508  0.5034  0.7020 -0.5240
 7242SOL    HW133188   4.292   4.544  17.520  1.2413 -0.3165 -2.7723
 7242SOL    HW233189   4.385   4.592  17.420  2.6231  0.0184  0.3642
 7243SOL     OW33190   3.830   0.266  17.193  0.1746  0.1790  0.2275
 7243SOL    HW133191   3.788   0.306  17.269  0.7471  0.6333  0.2968
 7243SOL    HW233192   3.787   0.316  17.124 -1.3638 -1.0439  0.2787
 7244SOL     OW33193   0.793   0.696  10.486  0.4990  0.1299 -0.2156
 7244SOL    HW133194   0.723   0.663  10.542 -0.3385  0.6448 -0.9615
 7244SOL    HW233195   0.864   0.635  10.506 -0.1448 -0.2094  1.0612
 7245SOL     OW33196   1.682   4.393   3.103 -0.4815 -0.1577 -0.3085
 7245SOL    HW133197   1.733   4.339   3.163 -1.9644 -2.0169 -0.7384
 7245SOL    HW233198   1.601   4.419   3.146 -1.2158 -2.1006 -0.5249
 7246SOL     OW33199   1.852   4.572  17.058  0.2130  0.1732  0.2793
 7246SOL    HW133200   1.865   4.504  16.992 -0.2167  0.2895  0.0750
 7246SOL    HW233201   1.854   4.648  16.999  1.1930 -0.9705 -1.1583
 7247SOL     OW33202   3.521   0.455  17.078 -0.5522 -0.4194 -0.4621
 7247SOL    HW133203   3.453   0.388  17.085 -1.4195  0.4568 -0.4635
 7247SOL    HW233204   3.471   0.535  17.061  1.0184  0.5671 -0.4325
 7248SOL     OW33205   0.831   1.366   2.031  0.0057  0.0373  0.2847
 7248SOL    HW133206   0.893   1.297   2.011 -1.1073 -0.3255 -1.9954
 7248SOL    HW233207   0.883   1.445   2.015 -1.0032  0.4553 -0.9660
 7249SOL     OW33208   3.556   4.109  15.383  0.1528  0.6394  0.3806
 7249SOL    HW133209   3.485   4.066  15.432 -1.7223  0.4087 -2.5476
 7249SOL    HW233210   3.506   4.135  15.305  1.4811  0.0460 -0.6592
 7250SOL     OW33211   4.457   3.430   8.416  0.4356  0.6266  0.3400
 7250SOL    HW133212   4.401   3.391   8.350  1.4307  1.1839 -0.8311
 7250SOL    HW233213   4.491   3.350   8.456  1.9648  1.0678 -0.0888
 7251SOL     OW33214   4.633   3.414   8.779 -0.5389  0.1155  0.0128
 7251SOL    HW133215   4.590   3.484   8.731  0.6698  0.5445 -0.4258
 7251SOL    HW233216   4.666   3.366   8.703  3.5191  0.7927  1.3751
 7252SOL     OW33217   2.287   1.730   1.095 -0.1124  0.1851  0.4709
 7252SOL    HW133218   2.338   1.730   1.014 -0.1795 -1.1341  0.4295
 7252SOL    HW233219   2.324   1.652   1.136  3.3973  0.7420 -1.6490
 7253SOL     OW33220   0.001   0.615  14.583 -0.3339 -0.6778 -0.4715
 7253SOL    HW133221   4.714   0.705  14.613 -2.6911 -0.4459 -1.8624
 7253SOL    HW233222   0.061   0.636  14.510  1.8221 -2.3122  0.8445
 7254SOL     OW33223   4.574   1.986   1.666  0.0437 -0.5227 -0.5426
 7254SOL    HW133224   4.556   2.032   1.747  0.8020 -0.9571 -0.1306
 7254SOL    HW233225   4.593   1.898   1.700  0.5232  0.0803  0.7395
 7255SOL     OW33226   3.999   0.161   7.650  0.0405  0.1613  0.0466
 7255SOL    HW133227   3.915   0.115   7.659 -0.2001  0.4097 -0.9924
 7255SOL    HW233228   3.976   0.208   7.571  2.4934 -0.4259 -1.0070
 7256SOL     OW33229   1.803   0.411   9.111 -0.6330 -0.2589 -0.3853
 7256SOL    HW133230   1.762   0.341   9.162 -2.5260  2.4104  1.7166
 7256SOL    HW233231   1.894   0.395   9.135 -0.3492  0.9010 -0.6897
 7257SOL     OW33232   3.232   4.351   3.843 -0.3082  0.0922  0.3815
 7257SOL    HW133233   3.299   4.282   3.849 -0.7447 -0.2811  0.9427
 7257SOL    HW233234   3.150   4.305   3.859 -0.3612  0.2092  0.4440
 7258SOL     OW33235   3.362   4.068   4.529 -0.3046 -1.2285  0.4507
 7258SOL    HW133236   3.347   3.977   4.553  1.2790 -2.1303 -2.0443
 7258SOL    HW233237   3.297   4.102   4.592 -0.5038  0.0089 -0.4182
 7259SOL     OW33238   0.172   1.840   8.334  0.0862  0.0510  0.4097
 7259SOL    HW133239   0.110   1.787   8.383  0.1072 -0.3377  0.0190
 7259SOL    HW233240   0.251   1.824   8.387 -0.6546 -1.6923  0.9734
 7260SOL     OW33241   4.662   1.892   0.166 -0.0678 -0.2336  0.1557
 7260SOL    HW133242   4.706   1.977   0.165 -0.4059 -0.0704 -1.1975
 7260SOL    HW233243   4.699   1.850   0.088  0.2053  0.6020 -0.1561
 7261SOL     OW33244   2.145   2.710   2.810  0.3170 -0.3105 -0.4349
 7261SOL    HW133245   2.136   2.796   2.852  2.2976 -0.9655  1.2922
 7261SOL    HW233246   2.152   2.737   2.718  0.8932 -1.5828 -0.7615
 7262SOL     OW33247   1.801   3.913   4.390 -0.7020  0.1074  0.1124
 7262SOL    HW133248   1.789   3.818   4.378  0.4941 -0.0358  0.0937
 7262SOL    HW233249   1.731   3.958   4.342  0.4548  1.6548 -0.0999
 7263SOL     OW33250   0.572   0.393   2.646  0.9612  0.0879 -0.3551
 7263SOL    HW133251   0.563   0.304   2.681 -1.9149 -0.4226 -2.4921
 7263SOL    HW233252   0.491   0.400   2.595  0.5550  0.1778  0.2978
 7264SOL     OW33253   2.884   3.941   7.796  0.1791 -0.7385 -0.0223
 7264SOL    HW133254   2.820   4.004   7.762  2.7216  1.2080 -1.2413
 7264SOL    HW233255   2.925   3.998   7.861 -1.3790 -1.0251  1.2087
 7265SOL     OW33256   1.338   3.802   8.178 -0.3237 -0.3158 -0.3388
 7265SOL    HW133257   1.300   3.881   8.140  1.4012  0.3267 -0.7456
 7265SOL    HW233258   1.280   3.737   8.138  0.4115  0.5263 -2.8079
 7266SOL     OW33259   2.729   0.934   3.916  0.8271 -0.0948 -0.3493
 7266SOL    HW133260   2.787   0.931   3.841  0.4481 -1.2238 -0.5980
 7266SOL    HW233261   2.790   0.958   3.986  1.1609 -0.3346 -0.5576
 7267SOL     OW33262   0.486   2.715  13.901 -0.2967 -0.3227  0.0543
 7267SOL    HW133263   0.547   2.643  13.887 -1.3736 -1.8599  3.2292
 7267SOL    HW233264   0.549   2.760  13.957 -0.7641  0.2810  0.0968
 7268SOL     OW33265   1.991   2.026  11.501 -0.1063  0.1561  0.9141
 7268SOL    HW133266   1.919   2.055  11.445 -1.9331  0.3104  3.3729
 7268SOL    HW233267   2.073   2.062  11.466  0.0298 -0.7155  0.3200
 7269SOL     OW33268   4.660   3.193   2.897 -0.4287 -0.2349 -0.0872
 7269SOL    HW133269   4.673   3.269   2.954  0.6609  0.8522 -1.8008
 7269SOL    HW233270   4.678   3.125   2.962  2.0018 -0.2583 -0.8056
 7270SOL     OW33271   2.909   4.668   8.059 -0.3317 -0.2675 -0.3083
 7270SOL    HW133272   2.845   4.633   8.121  0.6883 -0.3189  0.7290
 7270SOL    HW233273   2.994   4.646   8.099  0.0937  0.1538 -0.9839
 7271SOL     OW33274   3.379   1.899   2.361 -0.6384  0.0003 -0.1460
 7271SOL    HW133275   3.409   1.980   2.320 -0.5470  0.6813  1.2660
 7271SOL    HW233276   3.285   1.917   2.374 -0.6581 -0.9704  1.0830
 7272SOL     OW33277   4.163   1.271   6.562 -0.1630 -0.1500  0.1797
 7272SOL    HW133278   4.071   1.294   6.576  0.2321  1.8357 -0.4345
 7272SOL    HW233279   4.190   1.267   6.653 -0.7255  1.3761  0.4229
 7273SOL     OW33280   1.531   3.975   2.184 -0.3927  0.6170 -0.1953
 7273SOL    HW133281   1.512   3.891   2.226  2.3689  0.7823  1.4577
 7273SOL    HW233282   1.446   4.005   2.153  0.1373  0.1549 -2.0840
 7274SOL     OW33283   3.088   1.660   3.189 -0.0082 -0.1327 -0.7468
 7274SOL    HW133284   3.114   1.578   3.147 -1.0494 -0.8154 -0.0942
 7274SOL    HW233285   3.109   1.723   3.120 -5.0625 -0.3945 -2.5798
 7275SOL     OW33286   0.368   0.235   6.898  0.0636  0.0144 -0.3969
 7275SOL    HW133287   0.437   0.300   6.908  0.5629 -0.5274 -0.3366
 7275SOL    HW233288   0.397   0.161   6.951 -0.6468  1.2052  1.6910
 7276SOL     OW33289   3.335   1.636  12.517 -0.0444  0.5538 -0.4739
 7276SOL    HW133290   3.304   1.576  12.450 -1.0659  1.6331 -0.9505
 7276SOL    HW233291   3.354   1.576  12.590  1.7869 -0.4128 -1.7367
 7277SOL     OW33292   4.651   4.671   3.123  0.0135 -0.5316 -0.5012
 7277SOL    HW133293   4.605   0.030   3.099  1.4535  0.4416 -0.0110
 7277SOL    HW233294   4.623   4.669   3.214  0.4927  0.2401 -0.3383
 7278SOL     OW33295   3.845   2.297  11.273 -0.7864 -0.0044  1.2547
 7278SOL    HW133296   3.779   2.365  11.261  0.3312  0.5959 -1.4511
 7278SOL    HW233297   3.900   2.328  11.345  1.2878 -0.0424 -0.3143
 7279SOL     OW33298   4.476   0.131   6.158  0.0792  0.1576 -0.4884
 7279SOL    HW133299   4.446   0.042   6.138  0.1676  0.1738 -0.6954
 7279SOL    HW233300   4.569   0.132   6.181 -0.6625 -0.2134  2.4379
 7280SOL     OW33301   3.641   2.837   7.451 -0.1632 -0.0350  0.0887
 7280SOL    HW133302   3.564   2.893   7.457 -0.6880 -0.7576 -0.0587
 7280SOL    HW233303   3.711   2.904   7.455  0.0545 -0.2547 -0.0490
 7281SOL     OW33304   4.612   4.513   7.929  0.1160 -0.3596 -0.2024
 7281SOL    HW133305   4.632   4.598   7.967 -0.5331 -0.1086 -0.4242
 7281SOL    HW233306   4.624   4.530   7.836 -0.5625 -0.7584 -0.3609
 7282SOL     OW33307   4.241   2.674  14.342  0.3501 -0.3679  0.1044
 7282SOL    HW133308   4.241   2.678  14.246  0.7052 -0.1512  0.1118
 7282SOL    HW233309   4.216   2.764  14.363 -0.9389 -1.4084  2.9683
 7283SOL     OW33310   2.690   0.972   2.304 -0.5776 -0.2582  0.2436
 7283SOL    HW133311   2.635   0.907   2.260  1.0544 -1.0850 -0.5844
 7283SOL    HW233312   2.644   0.984   2.387  1.1247 -0.9220  1.2668
 7284SOL     OW33313   2.847   2.039   2.674  0.1171  0.4465  0.2135
 7284SOL    HW133314   2.886   2.095   2.608  0.0253  1.3889  0.9569
 7284SOL    HW233315   2.783   1.982   2.630  0.8994  0.7251 -1.2696
 7285SOL     OW33316   2.679   1.253   5.756 -0.4865  0.0174  0.2721
 7285SOL    HW133317   2.769   1.220   5.753  0.4339  2.4926  0.6877
 7285SOL    HW233318   2.645   1.206   5.679  0.8373  0.3660 -0.5282
 7286SOL     OW33319   2.688   2.436   8.609 -0.0613  0.2542 -0.5029
 7286SOL    HW133320   2.616   2.402   8.555  2.3483 -3.4407 -1.4039
 7286SOL    HW233321   2.734   2.482   8.539  0.6420 -1.5156 -1.2003
 7287SOL     OW33322   4.381   3.675   9.450  0.0483  0.1069  0.7012
 7287SOL    HW133323   4.449   3.731   9.411 -0.0458 -1.9653 -2.4686
 7287SOL    HW233324   4.306   3.712   9.405 -0.3467 -0.6019  0.7799
 7288SOL     OW33325   2.922   0.814   5.932 -0.3148 -0.2912  0.2865
 7288SOL    HW133326   2.942   0.821   5.839  0.9047  0.0049  0.5750
 7288SOL    HW233327   2.834   0.851   5.945 -0.3253 -0.6182  1.1774
 7289SOL     OW33328   4.462   1.088   1.764  0.1831  0.3272 -0.3006
 7289SOL    HW133329   4.468   1.171   1.812 -0.7868  0.3878 -0.2874
 7289SOL    HW233330   4.413   1.128   1.693 -0.5003  0.0453  0.0102
 7290SOL     OW33331   3.728   1.025   3.049  0.2572 -0.8221  0.5185
 7290SOL    HW133332   3.808   0.991   3.088  0.5825  0.3645  0.8854
 7290SOL    HW233333   3.741   1.118   3.065 -3.6894 -0.2696  0.5597
 7291SOL     OW33334   1.840   2.451   2.203  0.2157  0.4040  0.0203
 7291SOL    HW133335   1.768   2.395   2.175 -0.2294  0.6075  0.7703
 7291SOL    HW233336   1.904   2.418   2.139 -0.0768  2.8596 -1.5694
 7292SOL     OW33337   2.078   4.686   3.503 -0.1695  0.5575  0.3430
 7292SOL    HW133338   2.058   4.692   3.597  2.0715 -0.8498  0.9054
 7292SOL    HW233339   2.133   0.038   3.477  0.6617 -0.0002  0.5547
 7293SOL     OW33340   0.833   4.077   5.126  0.4246  0.0386  0.4100
 7293SOL    HW133341   0.923   4.061   5.100 -0.2528 -0.5166 -1.5318
 7293SOL    HW233342   0.835   4.023   5.205 -0.9535 -2.2269 -1.1107
 7294SOL     OW33343   4.147   1.887   9.551 -0.0461  0.2403 -0.8727
 7294SOL    HW133344   4.069   1.932   9.586 -1.1435  0.5110 -3.7104
 7294SOL    HW233345   4.162   1.937   9.471 -0.2945  0.9528 -0.4782
 7295SOL     OW33346   4.305   3.509  15.652  0.2425 -0.1849  0.0760
 7295SOL    HW133347   4.327   3.557  15.731  1.0120  0.7499 -0.7074
 7295SOL    HW233348   4.335   3.419  15.668 -0.0462 -0.0570  1.3633
 7296SOL     OW33349   0.761   1.596   5.335  0.2052  0.1164 -0.4977
 7296SOL    HW133350   0.764   1.523   5.273  1.5865  0.1951 -0.5401
 7296SOL    HW233351   0.668   1.616   5.325  0.1711 -0.5753 -1.5955
 7297SOL     OW33352   4.326   1.036   4.275  0.1229 -0.5815  0.8416
 7297SOL    HW133353   4.346   1.127   4.252  1.0982 -1.0195 -0.0976
 7297SOL    HW233354   4.395   1.029   4.341  1.6687 -0.2537 -0.7120
 7298SOL     OW33355   3.693   0.659   3.511 -0.4016  0.4231  0.1078
 7298SOL    HW133356   3.695   0.573   3.470  1.5237  0.8483 -0.7147
 7298SOL    HW233357   3.615   0.660   3.565 -0.7853  2.7035 -0.4938
 7299SOL     OW33358   3.262   1.276   6.878 -0.1215  0.1140 -0.0974
 7299SOL    HW133359   3.213   1.298   6.958 -0.3480 -0.4544 -0.0831
 7299SOL    HW233360   3.197   1.309   6.816  3.1852  1.0378 -3.0909
 7300SOL     OW33361   4.379   2.825   5.423 -0.5997  0.1495 -0.5456
 7300SOL    HW133362   4.308   2.818   5.359 -1.6298  1.8656  0.4163
 7300SOL    HW233363   4.454   2.820   5.363 -0.4825 -3.9979 -0.1018
 7301SOL     OW33364   0.851   2.237   7.033  0.6268  0.5558 -0.9266
 7301SOL    HW133365   0.887   2.262   6.948  1.3276  1.1070 -0.4587
 7301SOL    HW233366   0.911   2.165   7.053  0.4787  0.6784 -0.0543
 7302SOL     OW33367   4.211   2.113   3.707 -0.1935  0.1285  0.0180
 7302SOL    HW133368   4.122   2.128   3.739 -0.0796  2.2912 -0.6960
 7302SOL    HW233369   4.261   2.169   3.766 -1.4759 -1.4901  2.6288
 7303SOL     OW33370   2.091   0.926   5.935  0.5049 -0.7094  0.0547
 7303SOL    HW133371   2.101   0.986   5.861  0.9211 -0.4172  0.3459
 7303SOL    HW233372   2.001   0.944   5.964 -0.0847  0.2711 -2.3636
 7304SOL     OW33373   4.107   0.717   3.019 -0.1341 -0.3495  0.1598
 7304SOL    HW133374   4.159   0.733   2.941 -1.0984 -1.4237 -0.6977
 7304SOL    HW233375   4.058   0.637   2.998  0.8997 -0.9355 -0.0174
 7305SOL     OW33376   1.615   1.854   2.868 -0.4230 -0.5807  0.4067
 7305SOL    HW133377   1.690   1.830   2.813  1.2480  2.5797  1.2910
 7305SOL    HW233378   1.555   1.857   2.794  0.2586 -1.7353 -0.1974
 7306SOL     OW33379   2.579   1.023   0.709  1.0993  0.1357 -0.1771
 7306SOL    HW133380   2.562   1.099   0.653 -1.2814 -0.4125 -0.2126
 7306SOL    HW233381   2.563   1.059   0.797 -0.0875  0.9182 -0.6972
 7307SOL     OW33382   2.606   2.518   5.821  0.0852  0.7536  0.5445
 7307SOL    HW133383   2.573   2.452   5.882  0.1061 -0.2257 -0.4961
 7307SOL    HW233384   2.649   2.583   5.875 -1.1574  0.0919  2.3227
 7308SOL     OW33385   0.902   2.972   3.152 -0.5366 -0.1430  0.4314
 7308SOL    HW133386   0.883   3.025   3.074  0.1392 -1.2791 -0.4970
 7308SOL    HW233387   0.954   2.903   3.111 -0.8666 -0.1892  0.0899
 7309SOL     OW33388   2.537   0.463   6.621  0.0355  0.0894  0.6646
 7309SOL    HW133389   2.611   0.418   6.580  0.1473  1.2903 -0.4593
 7309SOL    HW233390   2.476   0.456   6.548  0.2081  2.4139  0.3012
 7310SOL     OW33391   4.717   0.210   6.772 -0.2942  0.0554  0.1991
 7310SOL    HW133392   4.659   0.275   6.812 -1.9633 -1.8010  0.8177
 7310SOL    HW233393   0.029   0.253   6.694 -1.8464  1.2480  0.1649
 7311SOL     OW33394   2.513   3.391  14.184 -0.1241  0.1125 -0.2254
 7311SOL    HW133395   2.523   3.341  14.265  3.0539 -0.5432 -1.0380
 7311SOL    HW233396   2.466   3.465  14.223 -0.3016  0.2165 -0.6388
 7312SOL     OW33397   0.614   3.050   2.494  0.2500  0.4192  0.0145
 7312SOL    HW133398   0.617   2.957   2.469  2.6449  0.1687  1.2942
 7312SOL    HW233399   0.706   3.076   2.498 -0.2573  2.2016 -0.0987
 7313SOL     OW33400   4.509   2.280   8.724  0.6614  0.4504 -0.1947
 7313SOL    HW133401   4.517   2.232   8.806 -0.2212 -1.1042 -1.0010
 7313SOL    HW233402   4.581   2.237   8.677  2.1222  0.7631  1.7595
 7314SOL     OW33403   3.124   2.711   2.253 -0.2742  0.0484 -0.2651
 7314SOL    HW133404   3.030   2.728   2.264 -0.2854 -0.1755  0.0022
 7314SOL    HW233405   3.152   2.776   2.317 -2.3995 -0.2180  0.9592
 7315SOL     OW33406   0.057   3.525  12.128 -0.3223  0.0752  0.4195
 7315SOL    HW133407   0.114   3.451  12.149 -1.4321 -0.7326  0.5922
 7315SOL    HW233408   4.719   3.506  12.201  1.2114 -1.9578  1.1550
 7316SOL     OW33409   0.108   1.846  17.316 -0.3691  0.5032  0.5373
 7316SOL    HW133410   0.066   1.930  17.296  0.0650 -0.1843 -3.3024
 7316SOL    HW233411   0.046   1.784  17.277 -0.8821  1.7927 -0.6894
 7317SOL     OW33412   4.140   3.759   8.005  0.2468  0.2042 -0.5905
 7317SOL    HW133413   4.105   3.712   8.080  0.6269  0.3465 -0.3211
 7317SOL    HW233414   4.226   3.786   8.039  1.1361 -2.2378 -0.8611
 7318SOL     OW33415   1.611   4.358   3.579  0.1093 -0.6103 -0.0391
 7318SOL    HW133416   1.602   4.390   3.669 -0.6920 -2.0038  0.3736
 7318SOL    HW233417   1.701   4.385   3.560 -0.4565  0.8681 -0.6236
 7319SOL     OW33418   1.491   2.171  11.117  0.1436 -0.0528  0.1981
 7319SOL    HW133419   1.488   2.139  11.207 -0.2971  0.0554  0.2249
 7319SOL    HW233420   1.518   2.087  11.081 -1.7843  0.2623 -2.0112
 7320SOL     OW33421   3.856   0.163   0.815  0.5615  0.1883 -0.0490
 7320SOL    HW133422   3.917   0.235   0.828 -2.4014  2.7447 -0.4742
 7320SOL    HW233423   3.799   0.162   0.892  0.3279 -0.3929 -0.2269
 7321SOL     OW33424   4.472   0.253   2.702 -0.0228  0.4266 -0.4707
 7321SOL    HW133425   4.489   0.158   2.706  1.4173  0.6878 -0.2968
 7321SOL    HW233426   4.437   0.266   2.789  0.9237 -0.1975  0.0106
 7322SOL     OW33427   1.410   2.100  10.717 -0.5141  0.3880 -0.0249
 7322SOL    HW133428   1.384   2.041  10.647 -0.0184  0.9680 -0.6974
 7322SOL    HW233429   1.327   2.117  10.762 -1.0409 -1.5776 -0.2607
 7323SOL     OW33430   0.687   0.684  12.353  0.0615  0.0718  0.2289
 7323SOL    HW133431   0.602   0.713  12.384  0.9099  0.0167  2.6340
 7323SOL    HW233432   0.723   0.643  12.432  0.2861  0.1158  0.1520
 7324SOL     OW33433   0.197   1.998   3.951 -0.6101  0.4820 -0.2827
 7324SOL    HW133434   0.239   2.066   4.004  0.1497 -0.6601  0.5667
 7324SOL    HW233435   0.275   1.945   3.937 -0.6052  0.5955 -0.6871
 7325SOL     OW33436   2.191   0.984  14.015 -0.4055 -0.2806 -0.8134
 7325SOL    HW133437   2.270   0.967  13.964 -0.0153  3.4859 -1.4270
 7325SOL    HW233438   2.220   0.943  14.096  0.5105 -0.1465 -1.0741
 7326SOL     OW33439   4.187   4.540   7.981 -0.4418 -0.2493 -0.0925
 7326SOL    HW133440   4.149   4.453   7.967 -1.0596 -0.1173  0.7800
 7326SOL    HW233441   4.213   4.564   7.892  0.2839  1.6631  0.6388
 7327SOL     OW33442   1.559   3.393  17.555 -0.2131 -0.6141 -0.0807
 7327SOL    HW133443   1.491   3.363  17.494 -2.0678  0.2518  1.5836
 7327SOL    HW233444   1.625   3.431  17.497 -0.8163 -1.8291 -1.5809
 7328SOL     OW33445   4.301   3.693   2.527 -0.1637  0.1145 -0.0968
 7328SOL    HW133446   4.371   3.673   2.589  2.1734 -0.5988 -2.9653
 7328SOL    HW233447   4.348   3.713   2.446  2.7514 -1.3207  1.2358
 7329SOL     OW33448   0.787   0.818   6.516  0.1404 -0.2498 -0.0531
 7329SOL    HW133449   0.755   0.839   6.429 -0.0707 -0.6054 -0.0586
 7329SOL    HW233450   0.875   0.784   6.498  0.1821 -0.0731 -0.1843
 7330SOL     OW33451   2.880   3.576   1.612  0.1130  0.2428 -0.1069
 7330SOL    HW133452   2.972   3.592   1.636  0.0562 -0.1973  0.4031
 7330SOL    HW233453   2.848   3.568   1.701  0.6425 -1.4821 -0.0750
 7331SOL     OW33454   1.912   1.665   2.510  0.0006 -0.0856  0.3470
 7331SOL    HW133455   1.830   1.712   2.521 -0.2683 -0.5287  0.2710
 7331SOL    HW233456   1.897   1.628   2.422 -0.8250 -1.6589  1.1435
 7332SOL     OW33457   2.231   4.608  17.391 -0.7789 -0.0796  0.1769
 7332SOL    HW133458   2.201   4.520  17.370  0.7667 -0.9886  1.7906
 7332SOL    HW233459   2.180   4.663  17.331 -0.1466  1.0901  0.7060
 7333SOL     OW33460   3.167   2.886   4.792  0.2325  0.5068 -0.4638
 7333SOL    HW133461   3.208   2.946   4.855  1.6923 -0.8352 -0.1465
 7333SOL    HW233462   3.154   2.933   4.710  1.0065 -1.8324 -1.9324
 7334SOL     OW33463   2.834   0.022   5.817 -0.9936  0.4056 -0.1667
 7334SOL    HW133464   2.905   4.689   5.786 -1.4635 -0.7733  0.8285
 7334SOL    HW233465   2.794   4.698   5.891  1.7150 -2.5201 -0.5467
 7335SOL     OW33466   2.419   2.019   2.759 -0.3408 -0.3151 -0.1564
 7335SOL    HW133467   2.405   2.034   2.852  0.7432  0.5107 -0.1344
 7335SOL    HW233468   2.369   1.937   2.755 -5.3011  2.7247  0.1122
 7336SOL     OW33469   2.891   4.428   3.413 -0.1345  0.5957  0.6981
 7336SOL    HW133470   2.938   4.510   3.428  1.8113  0.0063 -2.1679
 7336SOL    HW233471   2.952   4.379   3.358 -1.2533 -0.0886  0.0482
 7337SOL     OW33472   2.962   3.267   4.516 -0.3358  0.5087  0.0852
 7337SOL    HW133473   2.995   3.339   4.462  0.1131 -0.6549 -1.2003
 7337SOL    HW233474   2.868   3.283   4.509 -0.3649 -0.1151 -1.0378
 7338SOL     OW33475   0.725   0.565  16.232 -0.4076 -0.9988 -0.4052
 7338SOL    HW133476   0.696   0.488  16.281  1.0371 -0.3146  1.5463
 7338SOL    HW233477   0.820   0.559  16.248 -0.9179 -3.3597  1.8390
 7339SOL     OW33478   4.206   3.899  17.019 -0.0445  0.1475  0.1726
 7339SOL    HW133479   4.147   3.878  16.947  0.8789 -4.1350  0.6383
 7339SOL    HW233480   4.252   3.815  17.027 -0.0390  0.1594  0.2628
 7340SOL     OW33481   1.277   2.275   5.199  0.2545  0.5098 -0.4380
 7340SOL    HW133482   1.213   2.341   5.225 -0.2306  0.5405 -1.6928
 7340SOL    HW233483   1.322   2.332   5.137  1.4534 -0.9128 -0.8972
 7341SOL     OW33484   3.237   1.112   8.133  0.2207 -0.2250  0.8772
 7341SOL    HW133485   3.259   1.020   8.140 -0.2009 -0.3802  0.2166
 7341SOL    HW233486   3.165   1.109   8.069  2.4966  3.8353 -1.9083
 7342SOL     OW33487   2.376   2.761   3.158 -0.4957 -0.0493  0.0499
 7342SOL    HW133488   2.297   2.752   3.212 -1.4717 -0.4580 -1.4516
 7342SOL    HW233489   2.395   2.854   3.168  1.1700 -0.3309 -0.4560
 7343SOL     OW33490   1.627   1.601   6.392  0.1128 -0.8806  0.7896
 7343SOL    HW133491   1.551   1.659   6.380 -1.0537 -2.8856 -1.3099
 7343SOL    HW233492   1.693   1.670   6.383 -1.3717  0.3437 -0.6971
 7344SOL     OW33493   2.683   1.972   6.152  1.1420 -0.2571 -0.6186
 7344SOL    HW133494   2.729   1.988   6.234  0.1799 -0.1188 -0.1064
 7344SOL    HW233495   2.706   1.880   6.140 -1.2329 -0.7421 -1.5114
 7345SOL     OW33496   3.555   0.981   4.576  0.1665  0.1681 -0.3694
 7345SOL    HW133497   3.504   0.981   4.657 -2.2337 -1.5080 -1.8693
 7345SOL    HW233498   3.612   1.055   4.598  2.8019 -0.7264 -4.1344
 7346SOL     OW33499   0.949   2.432   3.712 -0.2152  0.5010  0.1768
 7346SOL    HW133500   0.938   2.498   3.643 -1.1391 -0.0121 -0.1677
 7346SOL    HW233501   1.043   2.415   3.711 -0.1597  0.8087  0.0444
 7347SOL     OW33502   3.901   3.777   7.675  0.1614 -0.2144  0.0690
 7347SOL    HW133503   3.814   3.777   7.715 -0.9286 -1.4189 -2.3484
 7347SOL    HW233504   3.941   3.845   7.729 -1.2722 -0.7042  1.7666
 7348SOL     OW33505   4.202   1.077  13.626 -0.8132 -0.1075 -0.2412
 7348SOL    HW133506   4.176   1.143  13.691 -0.6898 -0.9287  0.6281
 7348SOL    HW233507   4.145   1.088  13.549 -0.4855  0.7659 -0.3653
 7349SOL     OW33508   3.236   3.029   1.520 -0.4361 -0.6604  0.2411
 7349SOL    HW133509   3.252   3.026   1.426 -0.2478 -1.3057  0.2919
 7349SOL    HW233510   3.234   3.123   1.535  0.6766 -0.3999 -1.2382
 7350SOL     OW33511   2.069   3.194  12.769 -0.6636 -0.2531  0.5615
 7350SOL    HW133512   2.120   3.274  12.784 -0.8320  0.0990 -0.7023
 7350SOL    HW233513   2.001   3.228  12.711  0.0436  1.1230  0.5273
 7351SOL     OW33514   4.498   4.291  12.811  0.3013  0.2631 -0.7784
 7351SOL    HW133515   4.523   4.276  12.902  0.3293 -0.7598 -0.9623
 7351SOL    HW233516   4.462   4.208  12.779  1.4809 -0.5273 -0.0261
 7352SOL     OW33517   1.560   2.363  12.400  0.3009  0.2019  0.3237
 7352SOL    HW133518   1.508   2.318  12.333  0.5456 -0.0474  0.2977
 7352SOL    HW233519   1.641   2.357  12.350 -0.9303 -0.7349 -1.5572
 7353SOL     OW33520   2.922   2.193  11.861  0.5944  0.5972  0.4503
 7353SOL    HW133521   2.858   2.123  11.876 -0.5109  1.6253  0.6001
 7353SOL    HW233522   2.886   2.230  11.780 -0.4374 -1.0080  0.1752
 7354SOL     OW33523   3.095   2.903   3.442 -0.0321  0.0182  0.0589
 7354SOL    HW133524   3.058   2.853   3.369 -0.5813 -1.1185  1.1155
 7354SOL    HW233525   3.020   2.913   3.500  1.0416  0.7625  1.3207
 7355SOL     OW33526   1.329   3.214   6.400 -0.4671  0.1994 -0.0272
 7355SOL    HW133527   1.299   3.258   6.480  1.9361  0.0495  0.9596
 7355SOL    HW233528   1.245   3.182   6.365 -0.9489  1.7055 -0.2432
 7356SOL     OW33529   3.050   4.566   4.116 -0.0333  0.2504 -0.0877
 7356SOL    HW133530   3.036   4.540   4.025  1.1096 -1.1492  0.1312
 7356SOL    HW233531   3.145   4.559   4.119 -0.2827 -3.0283  0.5602
 7357SOL     OW33532   4.389   4.507   4.382 -0.0820  0.0246  0.6097
 7357SOL    HW133533   4.346   4.590   4.359 -0.3208 -0.4271 -0.5475
 7357SOL    HW233534   4.383   4.453   4.304  4.0975  0.2073  0.1526
 7358SOL     OW33535   1.759   3.653   4.323 -0.0335 -0.0790 -0.2770
 7358SOL    HW133536   1.692   3.615   4.266 -1.8857  0.5167  1.5093
 7358SOL    HW233537   1.797   3.577   4.367  2.3304  2.2008  1.6470
 7359SOL     OW33538   2.685   3.336   0.270 -0.0695  0.0412  0.1630
 7359SOL    HW133539   2.768   3.298   0.240 -0.0456  2.3081 -2.6540
 7359SOL    HW233540   2.704   3.327   0.363  0.4317 -2.3853 -0.1679
 7360SOL     OW33541   0.027   3.924   2.116 -0.1431  0.1486 -0.0620
 7360SOL    HW133542   4.711   3.845   2.154 -0.9462  0.5330 -0.0573
 7360SOL    HW233543   0.100   3.895   2.062  0.5281 -1.0613  1.4848
 7361SOL     OW33544   0.840   1.989   4.392  0.2369 -0.5992 -0.2529
 7361SOL    HW133545   0.858   1.936   4.470  0.5344 -1.0396 -0.6204
 7361SOL    HW233546   0.750   2.008   4.421  1.1403 -0.9598  2.7705
 7362SOL     OW33547   3.514   2.281   6.645 -0.3768 -0.5149 -0.4669
 7362SOL    HW133548   3.573   2.318   6.712 -0.4175  0.1980 -0.8253
 7362SOL    HW233549   3.568   2.213   6.605 -1.1465 -1.4507  0.0831
 7363SOL     OW33550   1.701   0.132  13.042  0.0070 -0.2755  0.1145
 7363SOL    HW133551   1.773   0.069  13.035 -0.6361 -1.2937  2.6014
 7363SOL    HW233552   1.630   0.072  13.063 -0.1516 -0.9609 -2.4812
 7364SOL     OW33553   0.081   1.027   4.587  0.0259  0.1559 -0.0156
 7364SOL    HW133554   0.095   0.945   4.634  0.0743 -0.6470 -1.4132
 7364SOL    HW233555   0.162   1.037   4.536 -1.0603  2.8109 -1.2350
 7365SOL     OW33556   1.264   3.310   6.650 -0.0663 -0.1847  0.0205
 7365SOL    HW133557   1.317   3.250   6.703 -1.6524  0.1758  2.0227
 7365SOL    HW233558   1.182   3.284   6.691 -0.2280  0.9435  0.4319
 7366SOL     OW33559   0.858   3.166   8.362  0.0393  0.0241  0.2812
 7366SOL    HW133560   0.941   3.205   8.390  0.2078 -0.1732  0.0547
 7366SOL    HW233561   0.798   3.240   8.377 -0.2880 -0.5135  1.6381
 7367SOL     OW33562   2.888   3.186   5.204 -0.0946  0.4734  0.4452
 7367SOL    HW133563   2.828   3.244   5.250 -1.6119 -0.7462 -0.0100
 7367SOL    HW233564   2.834   3.109   5.186  2.5073 -1.1589 -0.3181
 7368SOL     OW33565   4.157   0.086   8.995 -0.2521  0.1850  0.0174
 7368SOL    HW133566   4.206   0.164   9.021 -2.5913  1.0645  1.7730
 7368SOL    HW233567   4.101   0.126   8.928  1.9594  1.0312 -1.3304
 7369SOL     OW33568   2.896   3.836  15.861  0.5483 -0.1193  0.2833
 7369SOL    HW133569   2.878   3.920  15.819  0.2242 -0.6473 -0.6309
 7369SOL    HW233570   2.815   3.797  15.894  0.9329  2.3897  4.2012
 7370SOL     OW33571   3.647   3.306   6.985 -0.7303 -0.0841  0.1822
 7370SOL    HW133572   3.624   3.376   7.045 -1.5317 -0.3102  0.1332
 7370SOL    HW233573   3.589   3.231   6.995 -0.7970  0.0531  0.8040
 7371SOL     OW33574   1.855   0.002   7.413  0.1300 -0.1283 -0.4453
 7371SOL    HW133575   1.775   0.042   7.447  0.5301  0.0917  0.2408
 7371SOL    HW233576   1.849   0.016   7.318 -0.4149 -0.2781 -0.4328
 7372SOL     OW33577   3.216   0.016  10.980  0.7397 -0.0720  0.0862
 7372SOL    HW133578   3.143   4.686  11.015  1.0740 -0.9714 -0.5409
 7372SOL    HW233579   3.287   0.018  11.044  0.6396 -0.2402  0.2008
 7373SOL     OW33580   3.403   2.559  13.587  0.4169  0.0137  0.3258
 7373SOL    HW133581   3.371   2.469  13.577  0.7229 -0.0678  0.1031
 7373SOL    HW233582   3.491   2.552  13.624  0.2216  0.3713  0.8734
 7374SOL     OW33583   2.024   2.127   4.532  0.1490  0.5946  0.2343
 7374SOL    HW133584   1.951   2.159   4.479  0.6075  0.2815 -0.5805
 7374SOL    HW233585   2.078   2.073   4.474  0.6333  1.6311 -0.2829
 7375SOL     OW33586   1.399   2.613   3.196  0.4312 -0.2071 -0.2578
 7375SOL    HW133587   1.484   2.657   3.197  0.5741 -0.3751 -3.6381
 7375SOL    HW233588   1.377   2.579   3.282  1.3145 -1.6461 -0.5964
 7376SOL     OW33589   1.567   3.397   2.363 -0.6595  0.5280  0.2717
 7376SOL    HW133590   1.617   3.461   2.414  1.3840  0.0209 -1.1270
 7376SOL    HW233591   1.630   3.358   2.303 -0.8228  1.4382 -0.4982
 7377SOL     OW33592   2.950   4.664   6.784  0.3656 -0.2107 -0.0443
 7377SOL    HW133593   2.990   4.604   6.721 -0.2972  0.1181 -0.7642
 7377SOL    HW233594   3.011   4.644   6.855  0.8645  1.2038 -0.0821
 7378SOL     OW33595   0.817   0.617   6.098  0.3390 -0.2242 -0.1115
 7378SOL    HW133596   0.839   0.561   6.172 -2.9485 -2.8126 -1.1149
 7378SOL    HW233597   0.842   0.556   6.028  0.3411 -0.6682  0.2789
 7379SOL     OW33598   0.516   0.444   6.976  0.7469 -0.2041 -0.0975
 7379SOL    HW133599   0.487   0.535   6.969  0.7408 -0.1719  0.3656
 7379SOL    HW233600   0.608   0.453   6.953  0.9030  1.8321  1.2968
 7380SOL     OW33601   3.308   0.527   4.632 -0.2731  0.7318  0.0436
 7380SOL    HW133602   3.372   0.457   4.648  0.1516  1.5921  2.1141
 7380SOL    HW233603   3.332   0.548   4.541 -1.8969 -2.1938 -1.0604
 7381SOL     OW33604   0.792   1.821  15.129  0.1141 -0.7216 -0.1268
 7381SOL    HW133605   0.852   1.748  15.140  0.4248 -0.3966  0.3429
 7381SOL    HW233606   0.817   1.864  15.048 -0.6190 -0.4407 -0.2079
 7382SOL     OW33607   0.771   3.361  10.163 -0.1959  0.2802  0.3271
 7382SOL    HW133608   0.770   3.360  10.067 -0.2672  0.5981  0.3261
 7382SOL    HW233609   0.789   3.267  10.171 -1.3044  0.0779  0.4721
 7383SOL     OW33610   1.217   4.113  16.347  0.6535 -0.5593 -0.0443
 7383SOL    HW133611   1.178   4.027  16.334  2.0120 -0.8957 -1.8168
 7383SOL    HW233612   1.233   4.105  16.441 -1.6030  0.3575  0.4150
 7384SOL     OW33613   1.900   3.860   7.450  0.2423 -0.1216 -0.1635
 7384SOL    HW133614   1.836   3.913   7.402  1.6335  1.4049 -0.3504
 7384SOL    HW233615   1.890   3.768   7.426  0.1905 -1.2876  4.3024
 7385SOL     OW33616   4.425   1.250  13.227  0.0032 -0.5345 -0.6676
 7385SOL    HW133617   4.345   1.302  13.221 -0.2912 -0.9042  0.0069
 7385SOL    HW233618   4.436   1.222  13.318  0.7034  0.0360 -0.5796
 7386SOL     OW33619   2.441   1.956   5.545  0.0350 -0.2130 -0.4351
 7386SOL    HW133620   2.488   2.037   5.563 -2.1980  0.6422  1.5220
 7386SOL    HW233621   2.382   1.992   5.478  0.9359 -0.2347 -1.2402
 7387SOL     OW33622   3.628   0.583   9.903 -0.0087 -0.4013 -0.0858
 7387SOL    HW133623   3.674   0.534   9.835 -0.9112 -1.1481 -0.1649
 7387SOL    HW233624   3.701   0.629   9.945  1.4052 -1.4024 -1.4339
 7388SOL     OW33625   0.275   4.659  14.840 -0.6061  0.4872  0.5802
 7388SOL    HW133626   0.338   0.008  14.831 -1.6661  1.2765 -0.4709
 7388SOL    HW233627   0.188   4.697  14.831  0.0554  2.2712  1.8465
 7389SOL     OW33628   1.893   3.034   4.869 -0.4267 -0.1150  0.2054
 7389SOL    HW133629   1.806   3.015   4.834  0.0999  1.4142 -1.9136
 7389SOL    HW233630   1.931   2.976   4.803  0.0307  0.4435 -0.0243
 7390SOL     OW33631   1.473   1.194  15.592 -0.4540 -0.0012  0.2212
 7390SOL    HW133632   1.418   1.202  15.513  0.3575  0.6936 -0.2771
 7390SOL    HW233633   1.500   1.283  15.614  1.8587 -0.7080  0.2044
 7391SOL     OW33634   2.695   1.182   5.298  0.5192  0.1137  0.4578
 7391SOL    HW133635   2.711   1.233   5.377  2.2219  1.6069 -0.8228
 7391SOL    HW233636   2.784   1.151   5.279 -0.0751 -1.7164  0.7148
 7392SOL     OW33637   3.311   2.532   3.684 -0.1349 -0.3640 -0.1674
 7392SOL    HW133638   3.297   2.441   3.709 -2.5083  0.3255  0.9354
 7392SOL    HW233639   3.229   2.559   3.645 -0.9626 -0.7122  1.3369
 7393SOL     OW33640   3.419   0.498   7.207 -0.7013  0.2158  0.1331
 7393SOL    HW133641   3.430   0.463   7.118 -0.5868 -1.7430  0.9201
 7393SOL    HW233642   3.323   0.499   7.205 -0.7148 -2.0246 -1.0317
 7394SOL     OW33643   3.428   0.946   4.801  0.2371  0.3699 -0.8611
 7394SOL    HW133644   3.353   0.909   4.754 -0.7550  2.9850 -1.3245
 7394SOL    HW233645   3.442   0.877   4.865 -0.0900  0.6053 -0.5345
 7395SOL     OW33646   0.345   3.751  12.527 -0.3391 -0.1957  0.1539
 7395SOL    HW133647   0.334   3.705  12.443 -3.7329 -3.6048  2.4741
 7395SOL    HW233648   0.428   3.796  12.514 -0.5207 -0.3272 -1.5178
 7396SOL     OW33649   1.456   3.306   4.238 -0.2933  0.0702  0.3556
 7396SOL    HW133650   1.405   3.226   4.227  0.7855 -0.8035  1.5537
 7396SOL    HW233651   1.397   3.351   4.298 -3.0704 -0.2784 -2.1143
 7397SOL     OW33652   2.310   1.469   1.218  0.0838  0.3658 -0.1174
 7397SOL    HW133653   2.256   1.425   1.283  0.0128  0.0891 -0.3637
 7397SOL    HW233654   2.400   1.444   1.242  0.0464 -1.7484 -2.2084
 7398SOL     OW33655   1.136   3.151   4.254 -0.1630 -0.3613  0.1225
 7398SOL    HW133656   1.046   3.162   4.224 -0.5885 -0.4745  1.3551
 7398SOL    HW233657   1.150   3.243   4.278  0.1348 -0.6700  1.1354
 7399SOL     OW33658   3.997   3.248   7.340 -0.7192  0.4738  0.1130
 7399SOL    HW133659   4.083   3.283   7.364 -0.4310 -1.5412  2.0675
 7399SOL    HW233660   4.008   3.240   7.245 -0.5548 -1.8771  0.3228
 7400SOL     OW33661   4.534   2.909   7.624  0.1474  0.1273 -0.1152
 7400SOL    HW133662   4.446   2.878   7.643  0.4997 -1.0959 -0.4914
 7400SOL    HW233663   4.543   2.985   7.681 -2.3964  0.4459 -0.1534
 7401SOL     OW33664   4.336   1.197   5.437 -0.5127 -0.1482  0.2347
 7401SOL    HW133665   4.425   1.164   5.450 -0.3138 -0.9656 -3.2253
 7401SOL    HW233666   4.287   1.115   5.433  0.3188 -0.6054 -0.6618
 7402SOL     OW33667   3.473   4.610   5.265 -0.7707  0.4462 -0.0709
 7402SOL    HW133668   3.452   4.620   5.358 -2.7044  1.6843 -0.6291
 7402SOL    HW233669   3.559   4.652   5.276  0.2378 -1.3245 -1.3749
 7403SOL     OW33670   3.798   2.442  14.957 -0.2777 -0.8434 -0.2223
 7403SOL    HW133671   3.810   2.532  14.986  1.1683 -1.1584  0.1355
 7403SOL    HW233672   3.766   2.402  15.038  0.4326 -0.3740  0.2841
 7404SOL     OW33673   1.442   2.490  16.634 -0.4264 -0.3313  0.5050
 7404SOL    HW133674   1.422   2.542  16.712  1.5890 -0.4798  1.1286
 7404SOL    HW233675   1.358   2.459  16.601  0.0323  0.1390 -1.1108
 7405SOL     OW33676   2.621   2.285   2.145  0.3852  0.2299 -0.3895
 7405SOL    HW133677   2.670   2.279   2.063 -0.8576 -0.2657 -1.1095
 7405SOL    HW233678   2.645   2.375   2.166  1.9936 -0.2611 -0.1689
 7406SOL     OW33679   0.460   1.351   8.043 -0.3869  0.3719  0.4459
 7406SOL    HW133680   0.481   1.405   7.967 -0.2030  1.3005  1.1606
 7406SOL    HW233681   0.515   1.393   8.109 -0.0257 -1.7463  1.4905
 7407SOL     OW33682   1.099   3.996   9.483  0.8951 -0.5850  0.0409
 7407SOL    HW133683   1.194   4.008   9.478  1.1631 -4.1409 -2.6969
 7407SOL    HW233684   1.074   4.085   9.510 -0.0545 -1.1987  1.1292
 7408SOL     OW33685   3.770   2.155   6.621  0.3652  0.4243  0.1695
 7408SOL    HW133686   3.860   2.142   6.593 -0.2616  2.4052 -2.7940
 7408SOL    HW233687   3.711   2.108   6.561  0.3303  1.2538 -0.4627
 7409SOL     OW33688   1.721   2.222   3.489  0.2735  0.4500 -0.1078
 7409SOL    HW133689   1.654   2.271   3.536  1.0088  0.1194  1.2957
 7409SOL    HW233690   1.751   2.282   3.421 -2.2410  2.8170  0.8917
 7410SOL     OW33691   2.437   3.290   8.644  0.1091 -0.0435 -0.1897
 7410SOL    HW133692   2.439   3.376   8.603  1.0241 -0.7604 -1.6515
 7410SOL    HW233693   2.496   3.312   8.716 -0.3955  2.1750 -0.4761
 7411SOL     OW33694   0.073   0.291   2.983  0.6922  0.4208  0.0810
 7411SOL    HW133695   0.107   0.381   2.977  0.5906  0.3851 -1.1065
 7411SOL    HW233696   0.084   0.257   2.894  1.6030 -0.1154  0.4048
 7412SOL     OW33697   2.213   4.597   1.157  0.2451  0.6634 -0.0090
 7412SOL    HW133698   2.135   4.653   1.151  0.6622  0.9211 -3.1549
 7412SOL    HW233699   2.237   4.610   1.065 -0.0080  1.1899 -0.0045
 7413SOL     OW33700   0.858   3.909   4.363  0.2436 -0.1114  0.1636
 7413SOL    HW133701   0.811   3.926   4.444 -0.4003 -1.4571  0.0757
 7413SOL    HW233702   0.789   3.915   4.298  0.5461  0.0781 -0.1425
 7414SOL     OW33703   3.738   3.372   7.450 -0.1496  0.3941 -0.0676
 7414SOL    HW133704   3.770   3.453   7.491  0.8536 -0.4522  0.8042
 7414SOL    HW233705   3.796   3.360   7.374 -1.1021  0.7021 -0.8448
 7415SOL     OW33706   0.862   0.444   4.267 -0.0487 -0.4866  0.2522
 7415SOL    HW133707   0.789   0.482   4.316  0.0200  1.5787 -1.2302
 7415SOL    HW233708   0.818   0.372   4.222  0.8404  0.7162 -2.5760
 7416SOL     OW33709   4.413   1.427   3.612 -0.6278 -0.3112  0.5584
 7416SOL    HW133710   4.463   1.372   3.552  0.0366  1.2342 -0.3240
 7416SOL    HW233711   4.326   1.387   3.605 -0.4219 -0.6407 -0.1290
 7417SOL     OW33712   4.661   3.244   7.438 -0.6024 -0.0547  0.3901
 7417SOL    HW133713   4.587   3.186   7.424  0.2681 -1.8885  3.3247
 7417SOL    HW233714   4.634   3.325   7.395  0.8156  0.2716  0.1036
 7418SOL     OW33715   2.981   2.552   0.263  0.1267  0.0369  0.4426
 7418SOL    HW133716   3.048   2.602   0.309 -0.8772  1.1005  0.7440
 7418SOL    HW233717   3.036   2.486   0.219  1.0622  0.8288  0.4290
 7419SOL     OW33718   1.031   2.754   5.319 -0.2311 -0.4798 -0.1789
 7419SOL    HW133719   1.118   2.781   5.292 -0.9241  1.5662 -0.3451
 7419SOL    HW233720   1.016   2.835   5.366  0.3760  0.0039 -0.8198
 7420SOL     OW33721   1.316   0.924   3.383 -0.3018 -0.2779 -0.2036
 7420SOL    HW133722   1.347   0.992   3.323 -3.6934 -0.2840 -1.9785
 7420SOL    HW233723   1.234   0.958   3.420  0.4114 -0.1957  1.3093
 7421SOL     OW33724   3.619   1.600   7.031  0.1640 -0.2194 -0.8216
 7421SOL    HW133725   3.653   1.566   7.114 -0.7721 -0.5285 -0.5611
 7421SOL    HW233726   3.604   1.690   7.059  0.4846 -0.7412  1.0358
 7422SOL     OW33727   4.661   2.177   6.472 -0.2410 -0.3614 -0.0722
 7422SOL    HW133728   4.655   2.213   6.561 -0.8255 -0.7120  0.0264
 7422SOL    HW233729   0.035   2.180   6.466 -0.3455  2.8189 -0.2786
 7423SOL     OW33730   3.056   3.430   3.687 -0.5202  0.0128  0.8666
 7423SOL    HW133731   3.144   3.399   3.664 -1.5624  0.4770 -3.7432
 7423SOL    HW233732   3.070   3.497   3.754 -0.0667  2.7639 -2.0041
 7424SOL     OW33733   4.295   4.146   9.677  0.0564  0.1225 -0.0208
 7424SOL    HW133734   4.343   4.220   9.714 -0.3870 -0.0116  0.8221
 7424SOL    HW233735   4.363   4.082   9.697 -0.7115 -0.4753  0.7051
 7425SOL     OW33736   2.466   4.533   1.236  0.1533 -0.5634  0.0849
 7425SOL    HW133737   2.376   4.543   1.205 -0.1993 -5.1428 -0.4027
 7425SOL    HW233738   2.501   4.606   1.185 -1.6591 -0.6008 -1.2215
 7426SOL     OW33739   3.255   0.103   1.806 -0.5876 -1.2114  0.0321
 7426SOL    HW133740   3.212   0.129   1.887  1.8332 -0.7059  1.1773
 7426SOL    HW233741   3.265   0.188   1.763 -1.2367 -1.1275  0.0499
 7427SOL     OW33742   1.897   4.010   0.145 -0.0978  0.0232  0.1127
 7427SOL    HW133743   1.892   4.001   0.240  2.1961  0.6366  0.3068
 7427SOL    HW233744   1.971   3.955   0.120 -0.6499 -0.6396 -0.0617
 7428SOL     OW33745   3.424   2.985   1.819 -0.2591 -0.2143  0.4895
 7428SOL    HW133746   3.415   2.896   1.785  2.0051 -0.0485 -0.5884
 7428SOL    HW233747   3.351   3.033   1.779  0.6955 -0.3853 -1.4775
 7429SOL     OW33748   0.407   0.675   3.290 -0.2359  0.1611 -0.1960
 7429SOL    HW133749   0.460   0.647   3.216 -1.6548 -1.4748 -0.6073
 7429SOL    HW233750   0.351   0.598   3.278  0.5948 -0.0812 -2.4743
 7430SOL     OW33751   0.426   2.943  15.004 -0.4680 -0.2125 -0.1710
 7430SOL    HW133752   0.471   3.023  14.979  0.9076 -0.8933  0.1343
 7430SOL    HW233753   0.345   2.978  15.042 -2.3064 -1.8962 -2.5426
 7431SOL     OW33754   4.090   3.870   4.466  0.4868  0.5393 -0.2855
 7431SOL    HW133755   4.165   3.816   4.491  1.0415  1.6242  0.4020
 7431SOL    HW233756   4.044   3.873   4.549 -1.4765  0.6163 -1.3675
 7432SOL     OW33757   2.159   1.779   5.462  0.4723 -0.4550 -0.0102
 7432SOL    HW133758   2.087   1.735   5.417  1.3794 -2.5529  0.5664
 7432SOL    HW233759   2.221   1.706   5.460 -0.0360 -0.8349 -1.5166
 7433SOL     OW33760   0.649   3.187   8.142 -0.4922 -0.0802  0.1554
 7433SOL    HW133761   0.740   3.200   8.116 -0.6420  3.2587  1.3496
 7433SOL    HW233762   0.653   3.165   8.235 -0.1611 -0.2292  0.1069
 7434SOL     OW33763   1.035   4.572  16.140 -0.1519  0.7168 -0.3718
 7434SOL    HW133764   0.980   4.638  16.097 -1.6550 -0.0306  0.3913
 7434SOL    HW233765   1.043   4.503  16.074 -1.1057  0.1825  0.0680
 7435SOL     OW33766   0.579   2.631   8.029 -0.2914 -0.5443  0.1126
 7435SOL    HW133767   0.668   2.630   7.993  0.0804 -2.3040  1.0712
 7435SOL    HW233768   0.560   2.722   8.053  0.6747  0.1800 -1.8906
 7436SOL     OW33769   1.707   2.729   9.558 -0.3539 -0.0276 -0.0057
 7436SOL    HW133770   1.767   2.788   9.512 -1.3113  1.1992  0.3414
 7436SOL    HW233771   1.621   2.753   9.523 -0.3976 -1.1159 -0.6545
 7437SOL     OW33772   0.967   3.090  16.056  0.8420  0.3638 -0.1449
 7437SOL    HW133773   0.916   3.121  15.982 -0.0487  0.2450  0.4235
 7437SOL    HW233774   1.001   3.006  16.027  1.7955 -0.3203  2.9294
 7438SOL     OW33775   3.630   0.807   9.619 -0.3541 -0.2710  0.5111
 7438SOL    HW133776   3.571   0.833   9.548 -1.2702  2.3795  2.2814
 7438SOL    HW233777   3.568   0.788   9.689 -0.6399  0.4242  0.4454
 7439SOL     OW33778   3.718   4.259   6.450  0.1813 -0.6845 -0.2988
 7439SOL    HW133779   3.670   4.317   6.509  0.4766 -0.8917  0.1425
 7439SOL    HW233780   3.762   4.195   6.505 -1.1629 -0.8675  0.5557
 7440SOL     OW33781   0.841   1.487   8.150 -0.1483  0.4786  0.1755
 7440SOL    HW133782   0.759   1.446   8.176 -1.0946  1.5960 -1.0396
 7440SOL    HW233783   0.853   1.435   8.071 -1.9871  0.6680 -0.2199
 7441SOL     OW33784   3.759   2.038   5.383 -0.2869  0.0580  0.2738
 7441SOL    HW133785   3.849   2.034   5.352 -0.3181  0.6045  0.1145
 7441SOL    HW233786   3.714   2.037   5.298 -0.3776  1.3439  0.3127
 7442SOL     OW33787   1.530   2.575   4.332 -0.0486  0.1834  0.1636
 7442SOL    HW133788   1.608   2.560   4.385  0.4947  0.7490 -0.4703
 7442SOL    HW233789   1.471   2.527   4.389 -0.3605 -0.7115 -0.9014
 7443SOL     OW33790   1.048   4.629  10.593 -0.1724 -0.1964  0.1496
 7443SOL    HW133791   1.125   4.680  10.617  1.7721 -3.0426 -0.0236
 7443SOL    HW233792   1.014   4.698  10.536 -0.7275 -0.1063  0.5876
 7444SOL     OW33793   3.772   2.257   2.839  0.2366 -0.1057  0.4832
 7444SOL    HW133794   3.821   2.177   2.821  0.7998  0.5238 -0.7981
 7444SOL    HW233795   3.690   2.243   2.792 -0.5659 -0.3952  1.9780
 7445SOL     OW33796   1.901   2.692   3.170  0.0534 -0.3771 -0.1106
 7445SOL    HW133797   1.990   2.716   3.196 -0.7704  1.2457  1.2640
 7445SOL    HW233798   1.914   2.627   3.102  0.5016 -0.3471 -0.0566
 7446SOL     OW33799   1.539   1.495   8.672 -0.4401 -0.5174 -0.0281
 7446SOL    HW133800   1.560   1.574   8.722  0.5026 -0.4694 -0.5015
 7446SOL    HW233801   1.601   1.487   8.599  0.3860 -1.9187  0.8169
 7447SOL     OW33802   3.385   1.508   4.473  0.3504 -0.4543  0.3739
 7447SOL    HW133803   3.412   1.566   4.401 -1.5040  0.8581  0.7287
 7447SOL    HW233804   3.454   1.443   4.468 -2.0796 -2.9136 -1.7184
 7448SOL     OW33805   1.753   3.997   3.208 -0.5339 -0.0504  0.2110
 7448SOL    HW133806   1.730   3.978   3.300 -0.6047 -0.4154  0.1196
 7448SOL    HW233807   1.824   4.060   3.218  1.0185 -1.9851  1.3750
 7449SOL     OW33808   1.236   4.586   8.296 -0.3102 -0.4412 -0.8728
 7449SOL    HW133809   1.201   4.651   8.235 -2.2766 -1.1324 -0.4786
 7449SOL    HW233810   1.331   4.593   8.292 -0.4073  1.4862  0.1893
 7450SOL     OW33811   3.855   3.725   6.748 -0.7036 -0.2267  0.0508
 7450SOL    HW133812   3.871   3.817   6.769 -2.7892 -0.1384  1.2696
 7450SOL    HW233813   3.870   3.683   6.833 -1.7006 -0.5808  0.0461
 7451SOL     OW33814   0.715   1.288   8.448  0.0265 -0.1400  0.0663
 7451SOL    HW133815   0.732   1.197   8.421 -0.2709 -0.7292  1.8427
 7451SOL    HW233816   0.799   1.317   8.483  0.3517 -0.2225 -0.6449
 7452SOL     OW33817   2.525   1.502   9.484 -0.2715  0.1043  0.0356
 7452SOL    HW133818   2.429   1.507   9.478 -0.1314  1.4609 -1.0177
 7452SOL    HW233819   2.543   1.426   9.540 -0.1003 -0.9402 -1.4285
 7453SOL     OW33820   2.647   4.508  14.744  0.0208  0.4350 -0.2202
 7453SOL    HW133821   2.605   4.560  14.675 -0.2074  1.5803  0.7918
 7453SOL    HW233822   2.737   4.541  14.752  1.5667 -3.7202 -0.8375
 7454SOL     OW33823   3.882   3.466   7.706 -0.1175 -0.0589  0.5921
 7454SOL    HW133824   3.865   3.560   7.704  1.9540  0.2784 -1.2497
 7454SOL    HW233825   3.823   3.427   7.771 -1.1923 -0.4102 -0.5775
 7455SOL     OW33826   2.964   3.038   7.809 -0.3502  0.3102 -0.1774
 7455SOL    HW133827   2.929   2.972   7.869 -1.3736  0.3069 -0.7985
 7455SOL    HW233828   2.893   3.023   7.748  1.5826 -1.6238 -1.9396
 7456SOL     OW33829   2.613   2.546   5.165  0.6212  0.8538  0.0566
 7456SOL    HW133830   2.649   2.601   5.095  0.1784  1.8617  0.6140
 7456SOL    HW233831   2.642   2.593   5.243  0.5144 -0.1179  0.6816
 7457SOL     OW33832   1.034   0.526  13.936 -0.2153  0.4343 -0.2817
 7457SOL    HW133833   1.030   0.484  13.850 -0.8486  0.8117 -0.4329
 7457SOL    HW233834   1.128   0.528  13.955 -0.5950  0.0556  1.6312
 7458SOL     OW33835   4.267   1.783   2.574  0.1329 -0.2478  0.6394
 7458SOL    HW133836   4.288   1.736   2.655  2.0198  0.2402  0.4275
 7458SOL    HW233837   4.176   1.759   2.557 -0.4828  1.3469  1.6068
 7459SOL     OW33838   0.259   0.427   3.206 -0.4058  0.4941  0.6105
 7459SOL    HW133839   0.295   0.341   3.183 -0.0440  1.0910 -1.0552
 7459SOL    HW233840   0.246   0.470   3.121  0.2226  0.4800  0.5079
 7460SOL     OW33841   1.368   0.670  11.910  0.0138  0.7759  0.0889
 7460SOL    HW133842   1.277   0.667  11.880  0.9579  1.5661 -2.8922
 7460SOL    HW233843   1.363   0.629  11.996 -0.2958 -1.2964 -0.9054
 7461SOL     OW33844   0.850   0.890  15.378  0.2093 -0.0367 -0.1617
 7461SOL    HW133845   0.860   0.821  15.312 -0.7631  0.0736 -0.4324
 7461SOL    HW233846   0.783   0.949  15.342  1.0606 -0.6298 -2.7033
 7462SOL     OW33847   4.135   2.196   9.502 -0.1797  0.4139 -0.7266
 7462SOL    HW133848   4.193   2.249   9.558 -2.1960  1.3877  0.4374
 7462SOL    HW233849   4.177   2.211   9.417 -0.4798 -0.5485 -1.0418
 7463SOL     OW33850   2.874   2.898   1.245 -0.6410 -0.4394 -0.1750
 7463SOL    HW133851   2.917   2.976   1.281 -0.0501 -0.5423 -0.6486
 7463SOL    HW233852   2.942   2.832   1.257  1.8242  1.7238 -2.0768
 7464SOL     OW33853   0.719   3.666   7.086  0.1876  0.0333 -0.0608
 7464SOL    HW133854   0.711   3.612   7.008  0.8724 -0.1209 -0.0274
 7464SOL    HW233855   0.639   3.638   7.130  0.9778  0.3203  1.5694
 7465SOL     OW33856   2.549   2.194   4.725  0.4612  0.2526 -0.1841
 7465SOL    HW133857   2.559   2.232   4.813 -0.2545 -0.8673  0.3833
 7465SOL    HW233858   2.456   2.177   4.743 -0.3094  4.8065  0.0840
 7466SOL     OW33859   4.343   0.318   7.842  0.0291  0.2882  0.4057
 7466SOL    HW133860   4.266   0.324   7.899 -0.1466  0.3751  0.1582
 7466SOL    HW233861   4.330   0.383   7.774 -1.1585 -0.1124  0.2501
 7467SOL     OW33862   3.633   4.314  13.141 -0.4047 -0.0309 -0.4244
 7467SOL    HW133863   3.600   4.395  13.180 -2.3746 -0.7822 -0.5471
 7467SOL    HW233864   3.710   4.304  13.197  0.2926  2.6199 -0.9210
 7468SOL     OW33865   1.834   1.614   4.495 -0.2145  0.1658 -0.0787
 7468SOL    HW133866   1.840   1.667   4.416 -0.7241 -0.8482 -0.8056
 7468SOL    HW233867   1.806   1.682   4.556 -0.9049  0.5038 -0.7701
 7469SOL     OW33868   4.572   4.075   3.611 -0.0625 -0.1459 -0.3619
 7469SOL    HW133869   4.569   4.006   3.545  0.9828 -1.3008  0.7717
 7469SOL    HW233870   4.502   4.128   3.574 -0.1788 -1.0328 -1.4102
 7470SOL     OW33871   1.103   3.170   2.827 -0.2930  0.7965  0.3124
 7470SOL    HW133872   1.095   3.090   2.878 -2.0730  0.0446 -1.1212
 7470SOL    HW233873   1.144   3.233   2.886 -1.4052  0.0013  1.9193
 7471SOL     OW33874   1.164   3.971   1.921 -0.1609 -0.2715 -0.3933
 7471SOL    HW133875   1.179   4.045   1.979  3.4535 -0.2500 -1.3630
 7471SOL    HW233876   1.248   3.965   1.877  0.1726  1.1603  0.0496
 7472SOL     OW33877   3.623   3.278   3.655 -0.8415 -0.0066  0.1423
 7472SOL    HW133878   3.573   3.204   3.689  0.7817 -2.1995 -2.3135
 7472SOL    HW233879   3.708   3.259   3.696 -1.0363 -0.8828  0.1412
 7473SOL     OW33880   1.182   4.202  10.793  0.1127 -0.0237  0.1720
 7473SOL    HW133881   1.207   4.263  10.862 -1.1775 -2.1032  2.4906
 7473SOL    HW233882   1.166   4.118  10.836  2.7697 -0.3031  0.5743
 7474SOL     OW33883   4.439   3.025   7.237  0.1885  0.1841 -0.1253
 7474SOL    HW133884   4.442   3.074   7.155 -0.4398 -0.7238 -0.6903
 7474SOL    HW233885   4.390   3.091   7.285  0.4663 -1.2950  2.1775
 7475SOL     OW33886   1.842   3.879  17.504 -0.0936  0.6667  0.1116
 7475SOL    HW133887   1.851   3.798  17.454 -0.4249  0.7678 -0.1168
 7475SOL    HW233888   1.929   3.885  17.542  0.1920  1.7306 -0.7088
 7476SOL     OW33889   2.705   1.255   3.829  0.1952  0.5019 -0.3068
 7476SOL    HW133890   2.687   1.166   3.802 -0.2897  0.4899  0.0684
 7476SOL    HW233891   2.618   1.295   3.829 -1.4851 -3.1643 -0.2817
 7477SOL     OW33892   0.761   2.250   1.227  0.3894  0.5601  0.0631
 7477SOL    HW133893   0.723   2.166   1.199 -0.1100  0.3953  1.2119
 7477SOL    HW233894   0.701   2.314   1.190  0.1169 -0.1399 -0.7039
 7478SOL     OW33895   2.856   1.597  16.547  0.3216 -0.3505  0.1489
 7478SOL    HW133896   2.908   1.638  16.616 -0.6143  1.0210  0.0228
 7478SOL    HW233897   2.829   1.519  16.595 -2.6842  0.4008 -0.3394
 7479SOL     OW33898   1.875   2.671   7.962 -0.1927 -0.6838  0.1966
 7479SOL    HW133899   1.782   2.690   7.947 -0.6757 -1.9598  1.4710
 7479SOL    HW233900   1.890   2.603   7.896 -0.0496  0.2974 -0.7653
 7480SOL     OW33901   1.046   1.295   5.057  0.4238 -0.2437 -0.4347
 7480SOL    HW133902   1.034   1.201   5.047 -1.1952 -0.0781 -0.1113
 7480SOL    HW233903   1.047   1.325   4.966  1.6853  2.5629  0.5052
 7481SOL     OW33904   2.806   1.346   6.229  0.2645 -0.0622 -0.3838
 7481SOL    HW133905   2.836   1.279   6.168 -0.9403 -0.1578 -0.8680
 7481SOL    HW233906   2.715   1.352   6.199 -0.4306  2.5941  2.3554
 7482SOL     OW33907   4.244   4.654   9.665  0.5131 -0.2925 -0.2096
 7482SOL    HW133908   4.254   4.575   9.612 -0.5429  0.3145 -1.3280
 7482SOL    HW233909   4.318   4.643   9.724  3.1459  2.4801 -3.0508
 7483SOL     OW33910   4.254   0.427   6.096 -0.6534  0.6828 -0.0260
 7483SOL    HW133911   4.322   0.483   6.134  0.1222  0.7725 -1.5464
 7483SOL    HW233912   4.250   0.358   6.162  1.7862 -1.9732 -2.6227
 7484SOL     OW33913   0.598   4.202  13.571 -0.7305 -0.2462 -0.7725
 7484SOL    HW133914   0.602   4.183  13.477  3.3945  1.2737 -0.9040
 7484SOL    HW233915   0.533   4.266  13.599 -1.4174 -0.9316 -0.7861
 7485SOL     OW33916   1.996   1.403  12.623 -0.2780 -0.0811 -0.1979
 7485SOL    HW133917   1.957   1.415  12.536  0.7911  2.2782 -0.3513
 7485SOL    HW233918   2.083   1.440  12.607  0.7058 -1.9035  1.0058
 7486SOL     OW33919   4.313   4.167   8.932 -0.0173 -0.3506  0.1739
 7486SOL    HW133920   4.225   4.183   8.899  0.1827  1.2921  0.4238
 7486SOL    HW233921   4.298   4.101   9.000 -2.8053  1.1110  0.9761
 7487SOL     OW33922   2.684   3.071   6.451  0.5435 -0.2593  0.1684
 7487SOL    HW133923   2.696   2.979   6.476 -2.1288 -1.0545 -1.5013
 7487SOL    HW233924   2.683   3.109   6.539 -1.0427  1.9577 -0.8299
 7488SOL     OW33925   2.730   3.253   1.629 -0.9337 -0.6273 -0.5804
 7488SOL    HW133926   2.745   3.159   1.620 -1.1281 -0.8426  1.5318
 7488SOL    HW233927   2.813   3.293   1.654 -1.8816  1.6824 -1.0867
 7489SOL     OW33928   2.669   3.161   2.650 -0.0538  0.8710 -0.6251
 7489SOL    HW133929   2.708   3.237   2.695  1.9017 -0.5254  0.0558
 7489SOL    HW233930   2.593   3.161   2.709  0.0918 -1.3537 -0.4665
 7490SOL     OW33931   2.147   1.926   6.846 -0.1712 -0.0424 -0.0505
 7490SOL    HW133932   2.153   2.014   6.810  0.9315 -0.2531 -0.3655
 7490SOL    HW233933   2.229   1.883   6.824 -0.9458 -1.5930  0.0794
 7491SOL     OW33934   4.276   0.121   4.746 -0.7039 -0.3084  0.3686
 7491SOL    HW133935   4.343   0.142   4.811  0.6500 -0.6567 -0.9095
 7491SOL    HW233936   4.328   0.050   4.708  0.2626  0.5589  0.0666
 7492SOL     OW33937   2.874   0.908   3.708  0.0521 -0.3920 -0.1148
 7492SOL    HW133938   2.923   0.957   3.642 -0.5850 -0.4837 -0.6444
 7492SOL    HW233939   2.889   0.816   3.684 -0.2313 -0.1259 -1.2835
 7493SOL     OW33940   3.567   4.489  13.324 -0.2076 -0.2801  0.6568
 7493SOL    HW133941   3.600   4.437  13.398 -1.1691 -1.4750  0.2455
 7493SOL    HW233942   3.492   4.531  13.366  0.8468  0.8456  1.4131
 7494SOL     OW33943   1.871   3.136   0.421 -0.3266 -0.6324 -0.3905
 7494SOL    HW133944   1.931   3.207   0.444  0.0047 -0.4298 -1.8713
 7494SOL    HW233945   1.916   3.105   0.343  1.9452  1.1657  0.1997
 7495SOL     OW33946   1.141   2.210  16.334  0.1528 -0.3438  0.1139
 7495SOL    HW133947   1.048   2.231  16.335  0.3170  0.3633  1.1855
 7495SOL    HW233948   1.173   2.259  16.258  0.0816 -1.4375 -0.6223
 7496SOL     OW33949   4.554   0.968  16.472 -0.0181 -0.1268  0.3130
 7496SOL    HW133950   4.547   1.039  16.536  0.8974 -1.8981  2.3633
 7496SOL    HW233951   4.630   0.929  16.515 -0.5249 -1.2932  0.1474
 7497SOL     OW33952   1.415   2.420   0.051 -0.2818 -0.0075 -0.3060
 7497SOL    HW133953   1.499   2.376   0.062 -0.1737  0.6369  1.3821
 7497SOL    HW233954   1.421   2.495   0.110  1.6179  1.5216 -2.4359
 7498SOL     OW33955   4.488   3.334   5.821 -0.0081 -0.1652 -0.1006
 7498SOL    HW133956   4.466   3.404   5.882  2.0384  0.5044 -0.1353
 7498SOL    HW233957   4.560   3.296   5.872  2.0176  0.7277 -2.2798
 7499SOL     OW33958   1.774   1.207   4.675  0.4521 -0.7200  0.1618
 7499SOL    HW133959   1.685   1.198   4.708  0.4725  0.0406  0.4211
 7499SOL    HW233960   1.819   1.175   4.754  1.7681  0.4238 -0.1279
 7500SOL     OW33961   4.519   2.837  10.973  0.1136  0.4288  0.3414
 7500SOL    HW133962   4.456   2.792  10.917  0.7014  1.6952 -1.3114
 7500SOL    HW233963   4.580   2.867  10.905 -0.4914  2.5721  0.7416
 7501SOL     OW33964   3.376   4.587   7.941  0.2003  0.6376  0.1803
 7501SOL    HW133965   3.430   4.581   8.020  0.5755  1.0684 -0.0516
 7501SOL    HW233966   3.325   4.661   7.974 -3.5244 -0.0876 -3.9644
 7502SOL     OW33967   1.944   0.029   1.084 -0.6242  0.0405  0.3338
 7502SOL    HW133968   1.959   0.120   1.061  0.3624 -0.2065  0.0052
 7502SOL    HW233969   1.851   0.036   1.062 -0.9110 -0.6916  1.3282
 7503SOL     OW33970   3.309   2.160  14.665 -0.2468  0.1318 -0.3880
 7503SOL    HW133971   3.361   2.080  14.658  1.6275  1.1915  1.0191
 7503SOL    HW233972   3.379   2.222  14.642  0.8527 -1.0636 -0.2555
 7504SOL     OW33973   1.782   1.280   0.848 -0.3518  0.5965 -0.4136
 7504SOL    HW133974   1.778   1.355   0.906 -0.6631 -0.0354  0.3890
 7504SOL    HW233975   1.692   1.248   0.851 -0.3476  0.5856 -0.4061
 7505SOL     OW33976   1.693   1.233   4.077 -0.5427 -0.0009 -0.0477
 7505SOL    HW133977   1.662   1.149   4.111 -0.1591 -0.7356 -1.5041
 7505SOL    HW233978   1.729   1.200   3.994 -1.2564  1.8623 -1.0761
 7506SOL     OW33979   3.112   2.569   1.799 -1.0727 -0.0039  0.2242
 7506SOL    HW133980   3.125   2.652   1.754  0.7875 -0.0705  0.6561
 7506SOL    HW233981   3.166   2.506   1.751 -0.0820  0.4690  0.7220
 7507SOL     OW33982   2.672   1.160   2.920 -0.0968 -0.1254 -0.4375
 7507SOL    HW133983   2.711   1.077   2.893  0.1263 -0.5604  1.2107
 7507SOL    HW233984   2.722   1.187   2.997  1.7605  1.1727 -2.0941
 7508SOL     OW33985   1.393   2.465   4.597  0.1286 -0.4654 -0.5086
 7508SOL    HW133986   1.453   2.406   4.644  1.3872  1.8030  0.7318
 7508SOL    HW233987   1.324   2.406   4.568  0.3311 -0.8067 -0.2933
 7509SOL     OW33988   0.904   1.214   5.985 -0.3291 -0.3702 -0.0480
 7509SOL    HW133989   0.849   1.285   5.952  0.2464  1.4630  2.9485
 7509SOL    HW233990   0.982   1.232   5.932 -2.1258  0.3572 -2.4755
 7510SOL     OW33991   1.555   2.352   4.156 -0.8683  1.2465 -0.1425
 7510SOL    HW133992   1.575   2.290   4.226 -0.1486 -0.4073 -1.7935
 7510SOL    HW233993   1.533   2.430   4.207 -0.2126  0.4774  1.2908
 7511SOL     OW33994   2.618   2.099   9.543 -0.0395 -0.1761  0.5257
 7511SOL    HW133995   2.658   2.157   9.477  1.1675 -1.1722  0.3766
 7511SOL    HW233996   2.662   2.125   9.623  0.0064 -1.2154  0.8341
 7512SOL     OW33997   0.462   1.629   4.370  0.3896 -0.1356  0.0113
 7512SOL    HW133998   0.413   1.547   4.370 -0.7110  0.5253 -3.4552
 7512SOL    HW233999   0.428   1.661   4.454  1.7370 -0.5392  0.7140
 7513SOL     OW34000   4.668   1.296   6.075  0.4872 -0.1743  0.2323
 7513SOL    HW134001   4.663   1.245   6.156  0.4430 -3.8463 -2.1134
 7513SOL    HW234002   4.575   1.304   6.054  0.8108  2.1625 -0.2785
 7514SOL     OW34003   1.316   1.267   4.221  0.2684  0.0608 -0.1308
 7514SOL    HW134004   1.256   1.257   4.148  0.9211 -2.6092 -0.2962
 7514SOL    HW234005   1.327   1.175   4.246  0.6745 -0.0302 -0.6330
 7515SOL     OW34006   4.205   3.551   3.910 -0.5070 -0.1432 -0.1167
 7515SOL    HW134007   4.205   3.525   3.818 -1.1366 -2.4384  0.5226
 7515SOL    HW234008   4.230   3.643   3.909 -0.4422 -0.1504  1.3648
 7516SOL     OW34009   1.632   3.112   5.099  0.1495 -0.0462 -0.0717
 7516SOL    HW134010   1.616   3.191   5.150 -2.4671 -0.7104  0.1015
 7516SOL    HW234011   1.567   3.118   5.029 -1.7501  2.1630  1.9204
 7517SOL     OW34012   1.749   1.407  14.182 -0.2594 -0.2982 -0.8005
 7517SOL    HW134013   1.682   1.435  14.120  0.0334 -0.5650 -1.2370
 7517SOL    HW234014   1.810   1.480  14.185 -1.3343  0.5633  0.2641
 7518SOL     OW34015   1.463   3.360   6.995  0.3049  0.2889  0.3175
 7518SOL    HW134016   1.409   3.308   6.935  0.7084  0.0980  0.1231
 7518SOL    HW234017   1.399   3.385   7.061 -0.1284 -1.5288  0.5630
 7519SOL     OW34018   4.263   3.326   4.403  0.5431  0.3289 -0.0631
 7519SOL    HW134019   4.257   3.388   4.331 -2.2480  1.1859  0.9181
 7519SOL    HW234020   4.350   3.346   4.439  0.4407 -1.5129  1.1910
 7520SOL     OW34021   2.355   2.723   4.542 -0.7471  0.3797 -0.4802
 7520SOL    HW134022   2.346   2.760   4.454 -1.1750 -0.4329 -0.7733
 7520SOL    HW234023   2.401   2.641   4.525  0.2178  0.7745  0.2112
 7521SOL     OW34024   2.270   4.594   6.813 -0.3967  0.2613 -0.6850
 7521SOL    HW134025   2.342   4.583   6.874 -1.7630  2.6230  1.3550
 7521SOL    HW234026   2.291   4.677   6.771 -0.2704  0.7284  0.2954
 7522SOL     OW34027   0.734   3.961   3.170  0.0751 -0.1096 -0.0881
 7522SOL    HW134028   0.718   4.020   3.096 -1.9725  0.7909  1.0723
 7522SOL    HW234029   0.646   3.928   3.187 -0.2958  1.8556  1.8891
 7523SOL     OW34030   4.241   2.624  15.370  0.1365  0.2866 -0.4758
 7523SOL    HW134031   4.306   2.618  15.300 -0.9978 -0.4755 -1.4613
 7523SOL    HW234032   4.200   2.538  15.364  1.7273 -0.6772  2.7279
 7524SOL     OW34033   4.650   4.003   5.533 -0.0604 -0.4752 -0.4534
 7524SOL    HW134034   4.586   3.991   5.462  0.4651  0.4189 -1.0807
 7524SOL    HW234035   4.655   3.911   5.556 -2.0893 -1.4123 -3.7087
 7525SOL     OW34036   3.143   1.015   5.886  0.1166 -0.2570  0.8679
 7525SOL    HW134037   3.148   0.921   5.867 -0.0826 -0.2817  0.9354
 7525SOL    HW234038   3.223   1.038   5.838 -0.5756 -2.1579 -1.1639
 7526SOL     OW34039   2.105   3.931   7.962  0.3643  0.4247 -0.6820
 7526SOL    HW134040   2.151   3.938   8.046 -0.2508  0.9000 -0.3919
 7526SOL    HW234041   2.045   3.858   7.978 -0.1368  1.6110  3.0152
 7527SOL     OW34042   0.358   1.946  12.795 -0.2509  0.0261 -0.0418
 7527SOL    HW134043   0.324   2.032  12.820 -0.6590 -0.1859  0.1334
 7527SOL    HW234044   0.369   1.907  12.882 -1.5827  2.0006  1.0111
 7528SOL     OW34045   2.564   2.363  11.535  0.1804  0.3695 -0.3565
 7528SOL    HW134046   2.493   2.330  11.590  1.8986 -0.6973  1.2265
 7528SOL    HW234047   2.511   2.393  11.461  0.5048  0.5233 -0.5239
 7529SOL     OW34048   3.739   0.953   8.560  0.2364  0.9363  0.0337
 7529SOL    HW134049   3.658   0.924   8.601  0.2868 -0.7845 -1.0372
 7529SOL    HW234050   3.790   0.975   8.637  1.7578 -0.4264 -0.5937
 7530SOL     OW34051   3.982   1.882   8.210 -0.4120  0.5040 -0.2538
 7530SOL    HW134052   3.902   1.871   8.159 -0.6544  3.4995 -0.5321
 7530SOL    HW234053   3.955   1.966   8.248  2.5686  1.4527 -0.1616
 7531SOL     OW34054   0.002   3.906   2.502  0.0399  0.2132 -0.2332
 7531SOL    HW134055   4.636   3.931   2.473 -0.3820  0.7203  1.5262
 7531SOL    HW234056   0.030   3.842   2.436 -0.4730  0.4110 -0.6485
 7532SOL     OW34057   1.748   3.053   0.654  0.6407  0.1653 -0.0264
 7532SOL    HW134058   1.744   3.141   0.691 -0.2848 -0.5355  1.5780
 7532SOL    HW234059   1.777   3.085   0.569  1.6941 -1.3432 -0.2418
 7533SOL     OW34060   1.051   3.280  14.503 -0.0642  0.1787 -0.4712
 7533SOL    HW134061   1.022   3.366  14.532 -1.2087 -1.2343  2.5079
 7533SOL    HW234062   0.967   3.234  14.504 -1.0235  1.9570  0.4724
 7534SOL     OW34063   2.794   1.996  10.408  0.1198  0.3872 -0.1876
 7534SOL    HW134064   2.880   2.033  10.429  0.2336  0.4409 -0.7403
 7534SOL    HW234065   2.749   2.030  10.485 -1.3069 -2.6113  0.3030
 7535SOL     OW34066   3.755   2.756   7.002 -0.3600  0.0795 -0.0104
 7535SOL    HW134067   3.749   2.832   7.059  3.2973 -1.1905  2.1180
 7535SOL    HW234068   3.706   2.785   6.926  1.3788 -1.7301 -1.8378
 7536SOL     OW34069   0.345   2.186  15.870 -0.1783 -0.4745  0.1237
 7536SOL    HW134070   0.320   2.223  15.785  1.5299  0.2941 -0.0419
 7536SOL    HW234071   0.336   2.268  15.918 -0.3712 -0.1049 -0.5351
 7537SOL     OW34072   1.679   2.347   1.548  0.0419 -0.0948  0.0884
 7537SOL    HW134073   1.751   2.314   1.494 -0.6059 -2.3973  0.6093
 7537SOL    HW234074   1.660   2.273   1.606  0.7174  0.7660  1.4058
 7538SOL     OW34075   2.265   2.531   7.759 -0.1123  0.1565  0.6065
 7538SOL    HW134076   2.257   2.445   7.717 -0.0110  0.2384  0.4184
 7538SOL    HW234077   2.267   2.582   7.679 -1.4950 -1.3986 -0.4243
 7539SOL     OW34078   3.270   0.252  12.107 -0.2151  0.1816  0.4693
 7539SOL    HW134079   3.312   0.175  12.147  0.3656  0.1197 -0.2712
 7539SOL    HW234080   3.338   0.284  12.048 -2.0540  2.2232 -0.5532
 7540SOL     OW34081   2.677   0.216   6.820 -0.0508  0.0852 -0.2434
 7540SOL    HW134082   2.594   0.254   6.847  0.5792  1.9361 -0.9026
 7540SOL    HW234083   2.647   0.136   6.777 -1.2238 -0.7427  2.1035
 7541SOL     OW34084   0.269   1.586   6.290  0.9606 -0.1947 -1.1461
 7541SOL    HW134085   0.194   1.538   6.326  1.0284  0.9155  0.4388
 7541SOL    HW234086   0.305   1.514   6.238 -1.4901 -1.1477 -1.4980
 7542SOL     OW34087   3.133   0.537   5.343 -0.6884 -0.2266 -0.2832
 7542SOL    HW134088   3.088   0.501   5.420  2.1070  0.6507  1.7340
 7542SOL    HW234089   3.223   0.506   5.353  0.6850  3.5665 -1.2315
 7543SOL     OW34090   1.715   2.335   5.056  0.1568 -0.6575 -0.3087
 7543SOL    HW134091   1.692   2.427   5.067  0.7730 -0.8865  2.7126
 7543SOL    HW234092   1.801   2.346   5.016 -0.6290  0.4405 -1.6896
 7544SOL     OW34093   2.833   1.643   3.308 -0.0815  0.0944  0.2070
 7544SOL    HW134094   2.912   1.620   3.258  1.4285 -0.2628  2.7622
 7544SOL    HW234095   2.776   1.648   3.231 -1.1956  0.6487  1.0734
 7545SOL     OW34096   2.899   2.501   3.905  0.0857 -0.1870 -0.3551
 7545SOL    HW134097   2.954   2.519   3.828  0.6686  0.2373  0.1600
 7545SOL    HW234098   2.816   2.532   3.868 -1.2590 -1.8292  1.2482
 7546SOL     OW34099   2.335   2.273   2.603  0.0061  0.0526 -0.1879
 7546SOL    HW134100   2.257   2.316   2.637  0.1323 -0.3488  0.6063
 7546SOL    HW234101   2.341   2.192   2.655 -0.0231  0.1493 -0.0344
 7547SOL     OW34102   0.261   2.990   2.479  0.4739  0.1167 -0.0993
 7547SOL    HW134103   0.192   3.028   2.426  0.0217  1.5712  1.5115
 7547SOL    HW234104   0.310   3.072   2.495  0.6338  0.4100 -2.1315
 7548SOL     OW34105   2.755   1.555   5.820 -0.0511 -0.4692  0.3236
 7548SOL    HW134106   2.730   1.463   5.825 -1.6690 -0.0773 -0.4352
 7548SOL    HW234107   2.677   1.589   5.775 -0.6226 -1.1889  0.7656
 7549SOL     OW34108   2.446   2.103   9.139  0.7353 -0.3658  0.5479
 7549SOL    HW134109   2.474   2.017   9.169 -1.9913 -1.7273 -0.8591
 7549SOL    HW234110   2.355   2.108   9.166  0.6399  0.1898  0.1324
 7550SOL     OW34111   3.364   2.968   2.633  0.7976  0.1815 -0.8679
 7550SOL    HW134112   3.361   2.988   2.726  1.4788  0.3663 -0.8819
 7550SOL    HW234113   3.411   2.885   2.637  2.0097  0.9056 -0.1715
 7551SOL     OW34114   2.432   2.485   3.094  0.2811  0.3626  0.7383
 7551SOL    HW134115   2.433   2.581   3.092 -0.5475  0.3132 -1.8751
 7551SOL    HW234116   2.352   2.457   3.051  0.5760 -1.6010  1.5056
 7552SOL     OW34117   0.513   0.122  13.360 -0.7480 -0.1907 -0.1905
 7552SOL    HW134118   0.461   0.198  13.385  2.4437  2.0937 -0.5220
 7552SOL    HW234119   0.579   0.174  13.315  0.4566 -1.2584  0.3411
 7553SOL     OW34120   4.066   0.956  11.929 -0.0471  0.3290  0.3831
 7553SOL    HW134121   4.048   1.048  11.951  1.2088  0.2648  1.6933
 7553SOL    HW234122   4.115   0.968  11.848  0.0006  2.6503  0.7413
 7554SOL     OW34123   4.599   1.432   3.814  0.8080  0.0661  0.2867
 7554SOL    HW134124   4.528   1.436   3.750  1.2879 -1.6670 -0.3458
 7554SOL    HW234125   4.656   1.366   3.776 -0.4589 -0.8749  0.0164
 7555SOL     OW34126   4.000   4.467  12.343 -0.0360  0.5356  0.1963
 7555SOL    HW134127   4.055   4.482  12.267  1.1284 -2.2265  0.4996
 7555SOL    HW234128   3.915   4.458  12.300  0.8607 -0.5376 -1.3273
 7556SOL     OW34129   2.730   4.249   5.489  0.3029  0.0943  0.6489
 7556SOL    HW134130   2.692   4.322   5.539  0.4766  0.7537 -0.1800
 7556SOL    HW234131   2.685   4.250   5.405  2.2122  1.2005 -0.3662
 7557SOL     OW34132   0.820   3.045   0.709  0.5923  0.2005  0.2507
 7557SOL    HW134133   0.866   2.962   0.713  1.1500  0.5914  2.0149
 7557SOL    HW234134   0.808   3.059   0.803  0.9627 -0.0396  0.3322
 7558SOL     OW34135   4.550   2.758   9.744  0.6380  0.2324  0.4366
 7558SOL    HW134136   4.549   2.799   9.657 -2.2731 -0.7447  0.0219
 7558SOL    HW234137   4.581   2.840   9.782  0.1593  0.8893 -0.5758
 7559SOL     OW34138   2.538   3.958  10.111  0.4671 -0.6395 -0.0643
 7559SOL    HW134139   2.487   3.879  10.091 -0.1685 -0.7627  2.0291
 7559SOL    HW234140   2.602   3.963  10.040  1.6953 -0.0228  1.0863
 7560SOL     OW34141   4.026   1.183   3.334 -0.3251  0.1655  0.2485
 7560SOL    HW134142   4.022   1.114   3.269  0.4523 -3.5556  4.1693
 7560SOL    HW234143   4.103   1.227   3.298  0.3433 -0.3950  0.9899
 7561SOL     OW34144   2.897   4.231   7.045  0.2304  0.1895  0.5560
 7561SOL    HW134145   2.807   4.256   7.063  0.5122  0.2562  1.9158
 7561SOL    HW234146   2.880   4.144   7.009  1.8363  0.8465 -1.7486
 7562SOL     OW34147   4.441   2.766   6.978  0.2260  0.0681  0.0575
 7562SOL    HW134148   4.368   2.708   7.000 -1.2469  1.4294 -1.2688
 7562SOL    HW234149   4.516   2.710   6.997  0.3626 -0.2130 -1.3638
 7563SOL     OW34150   0.636   2.838   3.826 -0.0137 -0.2833  0.5086
 7563SOL    HW134151   0.599   2.908   3.772  0.2726 -1.0834 -0.7274
 7563SOL    HW234152   0.711   2.890   3.856 -0.1634 -0.8801  1.8768
 7564SOL     OW34153   2.775   2.435   5.619  0.1698  0.1937  0.4707
 7564SOL    HW134154   2.738   2.466   5.702 -0.5406  0.5355  0.0284
 7564SOL    HW234155   2.721   2.475   5.551  1.5192  1.7832  0.3340
 7565SOL     OW34156   2.367   1.477   5.272 -0.0116  0.0114 -0.0027
 7565SOL    HW134157   2.368   1.397   5.219 -1.3837 -2.2809  3.3610
 7565SOL    HW234158   2.391   1.546   5.210 -0.0509  0.6375  0.6818
 7566SOL     OW34159   2.563   4.202   9.726 -0.0284  0.2824 -0.7217
 7566SOL    HW134160   2.626   4.193   9.655  1.5071  0.2690  0.6309
 7566SOL    HW234161   2.624   4.207   9.800 -0.2207  0.8775 -0.6011
 7567SOL     OW34162   1.905   1.236  14.290 -0.2454  0.1565 -0.0431
 7567SOL    HW134163   1.970   1.241  14.220 -0.2199 -1.7049 -0.1606
 7567SOL    HW234164   1.843   1.307  14.273 -1.1823 -0.4628  0.7422
 7568SOL     OW34165   2.964   1.834   6.217 -0.2515 -0.1899 -0.1630
 7568SOL    HW134166   3.037   1.787   6.177 -0.0324  1.7051 -2.0368
 7568SOL    HW234167   2.889   1.777   6.201 -0.8233 -0.4830  3.5370
 7569SOL     OW34168   3.945   3.079   4.604  0.3429  0.6121  0.0800
 7569SOL    HW134169   4.016   3.015   4.597 -0.0766  0.3639 -1.8856
 7569SOL    HW234170   3.983   3.157   4.563 -0.8113  0.9769 -0.2975
 7570SOL     OW34171   1.794   1.457   4.856 -0.1136 -0.0930 -0.5195
 7570SOL    HW134172   1.716   1.403   4.845 -0.6315  0.0794  2.2741
 7570SOL    HW234173   1.755   1.525   4.912  0.3770 -0.7282  0.5928
 7571SOL     OW34174   1.880   1.170   3.239  0.1633  0.2617  0.0426
 7571SOL    HW134175   1.795   1.136   3.267  0.5313  0.6383  1.6663
 7571SOL    HW234176   1.915   1.182   3.327  1.7644  0.0496 -0.5754
 7572SOL     OW34177   2.088   2.370   3.347  0.1663  0.0413  0.1588
 7572SOL    HW134178   2.084   2.376   3.443 -1.6194 -0.4292  0.1147
 7572SOL    HW234179   2.179   2.346   3.328  1.1393  1.5345  2.9372
 7573SOL     OW34180   0.019   2.268   2.216 -0.5872 -0.2691  0.5366
 7573SOL    HW134181   4.653   2.304   2.220 -1.2636 -1.9288  0.6476
 7573SOL    HW234182   0.009   2.193   2.276 -0.6403  0.0311  0.9075
 7574SOL     OW34183   0.388   2.100  11.686  0.1771  0.2397 -0.0514
 7574SOL    HW134184   0.428   2.015  11.668 -1.6363 -1.1587  2.6665
 7574SOL    HW234185   0.463   2.145  11.725 -0.7386  0.1561  1.7773
 7575SOL     OW34186   3.846   1.000  13.584 -0.5264  1.2951 -0.2121
 7575SOL    HW134187   3.812   1.048  13.660  1.9877  3.8378 -0.6921
 7575SOL    HW234188   3.908   1.067  13.556  1.3591 -0.6057 -0.6040
 7576SOL     OW34189   0.382   1.518   0.862  0.3078  0.5662 -0.1928
 7576SOL    HW134190   0.411   1.491   0.774  1.5771  1.0437  0.0688
 7576SOL    HW234191   0.306   1.570   0.839  1.0838  1.0466 -1.6928
 7577SOL     OW34192   4.254   3.688  11.731 -0.2692 -0.1384 -0.0205
 7577SOL    HW134193   4.236   3.664  11.821  0.1932  0.5144  0.2479
 7577SOL    HW234194   4.221   3.617  11.676  0.0556 -1.6024  1.6750
 7578SOL     OW34195   1.702   1.276   5.380  0.4401  0.3302  0.9173
 7578SOL    HW134196   1.759   1.199   5.382  2.9752  2.0291 -4.2628
 7578SOL    HW234197   1.701   1.302   5.287 -1.4821 -2.3843  0.1974
 7579SOL     OW34198   2.431   2.532   8.947 -0.1832 -0.1952  0.5143
 7579SOL    HW134199   2.342   2.549   8.917  0.4855  0.8322 -0.8965
 7579SOL    HW234200   2.474   2.561   8.866 -2.3508  0.4072 -0.4098
 7580SOL     OW34201   1.217   4.354   2.611 -0.0142 -0.0244 -0.1941
 7580SOL    HW134202   1.213   4.424   2.546  2.7951 -1.1993 -1.6297
 7580SOL    HW234203   1.169   4.288   2.560  2.1485 -0.5150 -1.6274
 7581SOL     OW34204   2.410   0.078   6.642  0.0851  0.7133  0.2870
 7581SOL    HW134205   2.394   0.058   6.550 -0.4761  1.6562  0.1839
 7581SOL    HW234206   2.503   0.057   6.648 -0.2382 -0.2091  2.2894
 7582SOL     OW34207   4.659   2.601   3.992  0.0686  0.4015 -0.6486
 7582SOL    HW134208   4.573   2.611   3.950 -0.0103  1.4702 -0.2088
 7582SOL    HW234209   4.699   2.687   3.977 -1.8171  1.1555 -1.3311
 7583SOL     OW34210   4.514   1.603   5.291  0.4280  0.1920  0.8438
 7583SOL    HW134211   4.429   1.610   5.249 -0.6832  0.0728  3.0654
 7583SOL    HW234212   4.539   1.690   5.323 -4.2606  1.0142  2.1977
 7584SOL     OW34213   4.630   3.426   3.043  0.2738 -0.0244 -0.5346
 7584SOL    HW134214   4.599   3.453   2.957  1.7328  0.2668 -0.9525
 7584SOL    HW234215   4.657   3.512   3.075 -1.1292 -0.9603  3.1475
 7585SOL     OW34216   0.048   1.475   6.433 -0.5289 -0.3361 -0.0075
 7585SOL    HW134217   4.692   1.422   6.454 -1.2757  0.3585 -1.0275
 7585SOL    HW234218   0.101   1.402   6.401 -0.5162 -0.9706  1.4658
 7586SOL     OW34219   2.723   1.711   6.085  0.2437  0.3546  0.4900
 7586SOL    HW134220   2.652   1.742   6.029 -0.4314 -1.4184  0.3551
 7586SOL    HW234221   2.773   1.667   6.016 -0.3162  1.1212 -0.3910
 7587SOL     OW34222   1.236   4.128   1.076 -0.2410  0.1506  0.1315
 7587SOL    HW134223   1.186   4.208   1.059 -0.9656 -0.1164  1.0194
 7587SOL    HW234224   1.265   4.111   0.986 -0.8143 -0.6202  0.0852
 7588SOL     OW34225   0.111   2.033   5.482 -0.0555 -0.5089 -0.2825
 7588SOL    HW134226   0.067   2.056   5.401  2.1585 -1.1953 -1.6746
 7588SOL    HW234227   0.096   1.939   5.487  2.1758 -0.8396  0.2153
 7589SOL     OW34228   0.694   1.054  15.173 -0.7353 -0.8965  0.1979
 7589SOL    HW134229   0.674   1.093  15.088  1.1158  1.4057  0.8543
 7589SOL    HW234230   0.772   1.102  15.199 -1.3712  0.2853 -0.0696
 7590SOL     OW34231   4.697   4.319  10.400 -0.2620 -0.0468  0.0405
 7590SOL    HW134232   0.062   4.280  10.413 -1.0338 -1.7247  0.1556
 7590SOL    HW234233   4.655   4.264  10.466  0.9591  0.7480  1.4737
 7591SOL     OW34234   2.452   1.559   7.216 -0.3698 -0.0785  0.8399
 7591SOL    HW134235   2.429   1.565   7.309  1.9260  3.9188  1.1367
 7591SOL    HW234236   2.497   1.474   7.223  0.5201  0.2153 -1.3996
 7592SOL     OW34237   3.460   0.831   6.744 -0.2284  0.0266 -0.3604
 7592SOL    HW134238   3.484   0.776   6.669 -2.5627  0.4148 -1.4067
 7592SOL    HW234239   3.393   0.882   6.697 -0.5028  0.2461  0.2639
 7593SOL     OW34240   2.301   4.143   9.035 -0.2031 -0.1116  0.3624
 7593SOL    HW134241   2.230   4.144   9.098  0.7441 -0.9594  1.4424
 7593SOL    HW234242   2.305   4.048   9.024 -2.6363 -0.5211  3.0134
 7594SOL     OW34243   3.602   0.953   7.612 -0.0101 -0.3228 -0.4561
 7594SOL    HW134244   3.546   0.910   7.548  1.5781  0.2063 -2.2148
 7594SOL    HW234245   3.559   1.038   7.621  2.1885  0.6519  0.9429
 7595SOL     OW34246   4.091   3.381  10.565 -0.1355  0.0128  0.2601
 7595SOL    HW134247   4.037   3.431  10.626 -0.0575  2.6410 -1.8518
 7595SOL    HW234248   4.177   3.423  10.574 -0.0222 -0.2785  0.5772
 7596SOL     OW34249   3.535   4.489   2.164 -0.2631  0.1132  0.5291
 7596SOL    HW134250   3.628   4.510   2.158 -0.0799 -0.0622  2.6108
 7596SOL    HW234251   3.521   4.451   2.078  1.0555  2.3794 -0.6983
 7597SOL     OW34252   1.938   2.392  14.266 -0.1342 -0.1392 -0.8532
 7597SOL    HW134253   1.862   2.344  14.233 -1.2748  1.0349  0.0825
 7597SOL    HW234254   1.912   2.368  14.355  1.1414 -0.4186 -0.5657
 7598SOL     OW34255   2.355   2.052   3.017 -0.2279  0.1690  0.4961
 7598SOL    HW134256   2.271   2.006   3.010 -0.7844  1.3594 -0.5896
 7598SOL    HW234257   2.326   2.141   3.033 -0.4835  0.0439  0.7227
 7599SOL     OW34258   0.441   0.027   7.059  0.2994 -0.3891  0.6374
 7599SOL    HW134259   0.399   4.684   7.116 -1.4816  0.5331  0.3836
 7599SOL    HW234260   0.433   4.691   6.983 -0.2233  0.7365 -0.1638
 7600SOL     OW34261   1.535   0.721  11.696 -0.1879  0.0139 -0.4634
 7600SOL    HW134262   1.505   0.683  11.779 -1.0927 -1.4054 -1.4606
 7600SOL    HW234263   1.622   0.755  11.720 -1.0364  1.7872  0.0996
 7601SOL     OW34264   2.258   3.552  14.637  0.1474  0.1876 -0.0298
 7601SOL    HW134265   2.340   3.595  14.661  0.3143  0.6059 -1.3879
 7601SOL    HW234266   2.245   3.557  14.542  0.1938  1.6696  0.0516
 7602SOL     OW34267   0.907   3.935  10.808 -0.0378  0.2118  0.3083
 7602SOL    HW134268   0.999   3.932  10.834  0.4078  0.1709 -1.2534
 7602SOL    HW234269   0.865   3.882  10.876 -0.7732 -0.1715 -0.4502
 7603SOL     OW34270   0.124   2.313   4.279  0.1559  0.0257 -0.3018
 7603SOL    HW134271   0.141   2.345   4.191  1.4150 -0.3066 -0.1799
 7603SOL    HW234272   0.138   2.395   4.327 -0.9492  0.5023 -0.8035
 7604SOL     OW34273   2.717   2.969   1.003  0.4713  0.0202  0.4769
 7604SOL    HW134274   2.739   2.918   1.080 -0.0911 -0.9160  0.0176
 7604SOL    HW234275   2.742   3.059   1.025  0.3438  0.7987 -2.5177
 7605SOL     OW34276   4.186   3.479  16.745  0.2254 -0.3379  0.2422
 7605SOL    HW134277   4.276   3.484  16.775 -0.0970 -1.9075  1.4855
 7605SOL    HW234278   4.192   3.466  16.650  0.4167  0.1465  0.1899
 7606SOL     OW34279   2.632   1.974   2.510 -0.0625 -0.3017  1.0462
 7606SOL    HW134280   2.653   2.064   2.485  1.0975 -1.2644 -1.4335
 7606SOL    HW234281   2.564   1.956   2.444  1.4740 -0.0794 -0.6051
 7607SOL     OW34282   2.047   1.401   8.873 -0.0254  0.6676  0.4457
 7607SOL    HW134283   2.114   1.469   8.886  1.3191 -0.1327 -2.2047
 7607SOL    HW234284   2.071   1.335   8.938 -1.0280  1.5403  1.7135
 7608SOL     OW34285   0.100   2.114  14.999 -0.2985 -0.2358 -0.5141
 7608SOL    HW134286   0.112   2.025  14.966 -1.1847 -0.6390  0.2345
 7608SOL    HW234287   0.053   2.160  14.930 -0.3797 -2.8705 -2.2227
 7609SOL     OW34288   1.949   3.152   2.127 -0.1865 -0.5823  0.0710
 7609SOL    HW134289   2.031   3.113   2.097 -1.0683 -1.4241 -1.2515
 7609SOL    HW234290   1.962   3.174   2.220 -0.7265  3.5861 -0.8304
 7610SOL     OW34291   2.828   0.830   7.352  0.1077 -0.7716  0.2854
 7610SOL    HW134292   2.879   0.820   7.271  0.5591 -1.9454  0.7141
 7610SOL    HW234293   2.876   0.769   7.408  0.5150 -1.4351 -0.7837
 7611SOL     OW34294   2.584   4.372  15.793 -0.8286 -0.4421  0.1904
 7611SOL    HW134295   2.635   4.345  15.869 -2.2279 -0.7793  1.0071
 7611SOL    HW234296   2.603   4.306  15.726  1.1209  1.2881 -0.9475
 7612SOL     OW34297   3.798   2.369   3.637 -0.1032 -0.2104 -0.6934
 7612SOL    HW134298   3.780   2.356   3.544  0.2814  0.9798 -0.9368
 7612SOL    HW234299   3.705   2.383   3.657  0.4347 -0.5072  1.9905
 7613SOL     OW34300   0.492   1.345   8.792  0.5474 -0.1914 -0.1540
 7613SOL    HW134301   0.572   1.293   8.788  1.0565  0.7965 -2.5334
 7613SOL    HW234302   0.475   1.339   8.886 -0.9493  2.2771 -0.2502
 7614SOL     OW34303   1.066   3.410   3.308 -0.3674 -0.2458  0.5756
 7614SOL    HW134304   0.991   3.416   3.249  0.3002  0.2497 -0.2205
 7614SOL    HW234305   1.089   3.503   3.305  0.6101 -0.5084 -0.1235
 7615SOL     OW34306   0.928   3.858   4.828 -0.0221 -0.0524 -0.5003
 7615SOL    HW134307   0.900   3.785   4.772 -1.4945  0.0445  0.1273
 7615SOL    HW234308   0.936   3.813   4.912  1.2130 -0.2032 -0.6874
 7616SOL     OW34309   3.485   2.916   3.059  0.1127 -0.2319  0.3741
 7616SOL    HW134310   3.441   2.832   3.073 -0.3193 -0.0269  0.2094
 7616SOL    HW234311   3.502   2.942   3.149  3.2299 -2.8348  0.5730
 7617SOL     OW34312   3.230   0.988   6.292 -0.8003 -0.4318  0.6063
 7617SOL    HW134313   3.241   1.066   6.347 -1.0542 -0.7689  1.1360
 7617SOL    HW234314   3.276   1.021   6.215 -3.2254  0.4621 -0.4799
 7618SOL     OW34315   2.187   4.165   2.779 -0.2053 -0.2866  0.0997
 7618SOL    HW134316   2.157   4.084   2.737 -0.9896  1.3419 -2.4368
 7618SOL    HW234317   2.248   4.211   2.721 -1.2042  1.8801  0.7679
 7619SOL     OW34318   2.581   0.574   3.578  0.6144  0.0674 -0.0275
 7619SOL    HW134319   2.513   0.508   3.591 -0.3064  0.8098 -1.0532
 7619SOL    HW234320   2.641   0.524   3.524  0.6861  1.2441 -1.0452
 7620SOL     OW34321   4.046   2.180   4.639 -0.2213 -0.3912 -0.0912
 7620SOL    HW134322   3.986   2.151   4.570  1.8767 -0.1459 -2.0181
 7620SOL    HW234323   4.095   2.246   4.590 -0.8495 -0.2226 -0.4929
 7621SOL     OW34324   1.633   3.919  15.137  0.1924  0.0914 -0.2636
 7621SOL    HW134325   1.689   3.957  15.069  2.8347  2.4734  3.2531
 7621SOL    HW234326   1.562   3.885  15.083 -1.7402 -0.4498  2.6361
 7622SOL     OW34327   2.523   3.003   2.239 -0.5680 -0.0528  0.4824
 7622SOL    HW134328   2.468   3.071   2.277  0.4102  1.6533 -1.1070
 7622SOL    HW234329   2.553   3.055   2.164 -1.1939 -0.2461  0.0986
 7623SOL     OW34330   0.297   3.367   8.681 -0.1169 -0.2793  0.0294
 7623SOL    HW134331   0.246   3.413   8.748 -0.9655 -0.9652 -0.1314
 7623SOL    HW234332   0.388   3.385   8.705 -0.1769 -1.9814  1.6310
 7624SOL     OW34333   1.521   0.403   3.830 -0.4300 -0.0660 -0.0216
 7624SOL    HW134334   1.498   0.334   3.768 -4.6838 -0.7975  2.3503
 7624SOL    HW234335   1.483   0.475   3.780 -0.6728  0.8767  1.5355
 7625SOL     OW34336   2.473   1.023   4.898 -0.0339 -0.1033 -0.0483
 7625SOL    HW134337   2.438   0.994   4.814 -1.6613  0.3202  0.4889
 7625SOL    HW234338   2.516   1.103   4.869 -0.2409  1.2224  3.3272
 7626SOL     OW34339   0.547   1.962   5.183  0.6140 -0.4409 -0.6813
 7626SOL    HW134340   0.470   1.953   5.127  1.1658  0.4191 -1.5813
 7626SOL    HW234341   0.515   2.024   5.249  1.4375 -0.3064 -0.4072
 7627SOL     OW34342   1.836   1.681  14.444  0.1352 -0.5501  0.5530
 7627SOL    HW134343   1.749   1.675  14.406  1.2128 -0.3599 -1.9897
 7627SOL    HW234344   1.889   1.635  14.378 -0.8569 -0.0976 -0.5467
 7628SOL     OW34345   3.193   3.487  17.511  0.1678  0.1420  0.1578
 7628SOL    HW134346   3.197   3.515  17.602 -1.7863 -1.7023  0.8029
 7628SOL    HW234347   3.123   3.421  17.511  0.8522 -0.5748  1.3127
 7629SOL     OW34348   0.115   2.955   1.326 -0.2130  0.6785 -0.1641
 7629SOL    HW134349   0.044   2.963   1.389 -1.4520  0.9618 -1.6199
 7629SOL    HW234350   0.152   2.874   1.362 -1.9495 -1.1499 -2.5202
 7630SOL     OW34351   0.709   0.002   7.367 -0.0533  0.6322  0.2932
 7630SOL    HW134352   0.660   0.060   7.309  3.2246  1.8426 -1.2698
 7630SOL    HW234353   0.797   0.035   7.348 -0.0796  1.9175  2.3468
 7631SOL     OW34354   0.162   3.736   6.902  0.4048 -0.9816 -0.1574
 7631SOL    HW134355   0.220   3.808   6.925 -0.4320  0.0406 -1.2060
 7631SOL    HW234356   0.091   3.747   6.966  0.2986 -1.3950 -0.2023
 7632SOL     OW34357   3.401   4.571   3.567  0.1156 -0.0347 -0.1809
 7632SOL    HW134358   3.310   4.595   3.584 -0.9075 -3.6479 -0.7235
 7632SOL    HW234359   3.422   4.534   3.653  0.8967 -0.5337 -0.5832
 7633SOL     OW34360   2.377   2.777   7.809  0.0957  0.6879  0.1258
 7633SOL    HW134361   2.289   2.769   7.846  0.3976  0.9199  0.9058
 7633SOL    HW234362   2.410   2.687   7.812 -0.0823  0.6727  1.7945
 7634SOL     OW34363   4.085   0.309   8.397  0.3570 -0.2158  0.1334
 7634SOL    HW134364   3.993   0.286   8.386  0.8757 -2.0259 -0.4753
 7634SOL    HW234365   4.087   0.309   8.493  0.5044 -2.5207  0.1276
 7635SOL     OW34366   1.526   1.234  10.793  0.2687 -0.3397 -0.1507
 7635SOL    HW134367   1.459   1.239  10.725 -0.2473  0.9276  0.4588
 7635SOL    HW234368   1.552   1.143  10.780 -1.4338 -0.6829 -1.1817
 7636SOL     OW34369   3.374   1.513   8.734 -0.2892  0.1495 -0.5653
 7636SOL    HW134370   3.303   1.519   8.670 -0.4819  0.6649 -0.3029
 7636SOL    HW234371   3.451   1.516   8.677  0.2725  0.4351  0.2009
 7637SOL     OW34372   2.761   4.208   7.736  0.3228 -0.2683 -0.5029
 7637SOL    HW134373   2.686   4.221   7.678  1.2843 -1.2076 -1.9593
 7637SOL    HW234374   2.727   4.255   7.813 -1.6404 -0.0525 -1.5122
 7638SOL     OW34375   3.820   0.215  11.566  0.9282  0.4628 -0.1760
 7638SOL    HW134376   3.869   0.132  11.565  0.8652  0.4337 -0.6559
 7638SOL    HW234377   3.852   0.229  11.655  2.6627 -0.5858 -0.6247
 7639SOL     OW34378   1.472   3.792   5.548  0.3808  0.7777 -0.0905
 7639SOL    HW134379   1.530   3.716   5.553  1.0452  1.2556 -0.5117
 7639SOL    HW234380   1.413   3.785   5.623  0.4411  1.1928 -0.0040
 7640SOL     OW34381   1.380   1.352   2.576  0.0528  0.2762  0.5927
 7640SOL    HW134382   1.400   1.290   2.647  0.4839  0.4971  0.6660
 7640SOL    HW234383   1.377   1.437   2.620 -0.7642 -0.2399  1.5507
 7641SOL     OW34384   4.431   3.066   4.688 -1.1447  0.0001 -0.2645
 7641SOL    HW134385   4.465   3.151   4.717 -1.1175 -0.8287  2.1669
 7641SOL    HW234386   4.428   3.017   4.770 -0.3666  1.0109  0.3751
 7642SOL     OW34387   1.970   4.184   8.167 -0.0872  0.4556  0.3277
 7642SOL    HW134388   2.060   4.207   8.142 -1.1828  1.6111 -2.5237
 7642SOL    HW234389   1.938   4.273   8.180 -0.1879  0.7295 -1.7947
 7643SOL     OW34390   4.720   3.009   2.060  0.2583 -0.0262  0.5348
 7643SOL    HW134391   0.074   2.967   2.100  1.2967 -0.7437 -2.1578
 7643SOL    HW234392   0.017   3.103   2.067  0.2200 -0.0344  0.7478
 7644SOL     OW34393   1.202   2.070   2.204 -0.0923 -0.2543 -0.1202
 7644SOL    HW134394   1.247   1.987   2.185 -0.3877 -0.5009  0.2520
 7644SOL    HW234395   1.203   2.071   2.300  1.8806  0.7730 -0.1565
 7645SOL     OW34396   4.015   0.678   4.251  0.4396 -0.2126  1.1504
 7645SOL    HW134397   3.960   0.748   4.287 -0.4359 -0.5138  0.4010
 7645SOL    HW234398   4.105   0.709   4.240  1.8971 -4.9734 -0.5665
 7646SOL     OW34399   1.730   1.600   6.885  0.8387  0.1529  0.2791
 7646SOL    HW134400   1.715   1.691   6.858 -0.2500  0.4079  1.7273
 7646SOL    HW234401   1.821   1.607   6.855  1.3106 -1.6513  1.3121
 7647SOL     OW34402   1.864   3.285  14.597  0.4528 -0.1382  0.4890
 7647SOL    HW134403   1.843   3.368  14.556 -2.1451 -1.0772 -0.0903
 7647SOL    HW234404   1.951   3.312  14.628  1.4605 -0.5521 -1.9676
 7648SOL     OW34405   3.480   1.462   7.772  0.0073 -0.3758  0.2680
 7648SOL    HW134406   3.551   1.524   7.791 -0.8035  0.9922 -1.2374
 7648SOL    HW234407   3.480   1.404   7.849  2.2541  0.3907  0.8650
 7649SOL     OW34408   1.194   2.328  16.087  0.0577 -0.2650 -0.0517
 7649SOL    HW134409   1.224   2.335  15.996 -0.2804 -0.0816 -0.1497
 7649SOL    HW234410   1.111   2.375  16.077  0.3667  0.1135 -0.8407
 7650SOL     OW34411   2.774   4.218   9.276  0.2847 -0.5970  0.1965
 7650SOL    HW134412   2.708   4.158   9.242  1.0874 -1.2869 -0.1365
 7650SOL    HW234413   2.788   4.270   9.197  2.6295  0.2328  1.1562
 7651SOL     OW34414   0.093   4.572   8.963  0.2603  0.3231 -0.5467
 7651SOL    HW134415   0.035   4.603   8.893  1.7377  0.4497 -1.7094
 7651SOL    HW234416   0.147   4.648   8.985  0.6256  0.2966 -1.3439
 7652SOL     OW34417   1.235   1.215   3.786  0.1368  0.0446  0.5326
 7652SOL    HW134418   1.327   1.200   3.805  0.5877  1.1481 -0.7757
 7652SOL    HW234419   1.251   1.234   3.693 -1.8797  1.6751  0.5222
 7653SOL     OW34420   2.178   3.566   4.947 -0.1549  0.4415 -0.0277
 7653SOL    HW134421   2.253   3.617   4.916 -1.0013  3.3279  2.7367
 7653SOL    HW234422   2.219   3.492   4.992 -0.2738  0.2637 -0.2059
 7654SOL     OW34423   3.419   1.922   6.755  0.0210 -0.4878 -0.2354
 7654SOL    HW134424   3.448   1.892   6.669 -1.3294  0.1810 -0.9163
 7654SOL    HW234425   3.367   1.852   6.794 -1.1032  0.7423  0.4498
 7655SOL     OW34426   2.560   1.939   0.479  0.0814 -0.1700  0.0272
 7655SOL    HW134427   2.641   1.965   0.435 -0.0971 -2.4641 -1.6139
 7655SOL    HW234428   2.554   2.015   0.538  2.8318 -0.0978  0.2123
 7656SOL     OW34429   3.431   2.702   6.491 -0.2640  0.0187  0.0090
 7656SOL    HW134430   3.432   2.617   6.447  0.9243  0.2592 -0.4146
 7656SOL    HW234431   3.449   2.755   6.413  2.1338  0.3284  0.7865
 7657SOL     OW34432   0.719   4.101   5.893 -0.4079  0.9354  0.1193
 7657SOL    HW134433   0.728   4.197   5.895  2.0279  0.6571  2.1438
 7657SOL    HW234434   0.795   4.067   5.847  0.5163  0.9426  1.6442
 7658SOL     OW34435   0.883   4.186  10.056  0.1509  0.6000 -0.0545
 7658SOL    HW134436   0.955   4.138  10.015 -0.8172 -0.3788 -0.6098
 7658SOL    HW234437   0.846   4.241   9.987 -0.3195  0.3874  0.0299
 7659SOL     OW34438   0.760   2.100   8.227 -0.4396 -0.3693  0.5814
 7659SOL    HW134439   0.763   2.091   8.132 -0.6960  1.8205  0.3690
 7659SOL    HW234440   0.812   2.025   8.256  3.6464  1.8477 -1.1565
 7660SOL     OW34441   0.324   4.102   3.139  0.5501 -0.5619 -0.1515
 7660SOL    HW134442   0.283   4.081   3.055  0.8834  1.0234 -0.7090
 7660SOL    HW234443   0.384   4.028   3.145  1.7251  0.3928 -0.1906
 7661SOL     OW34444   0.564   3.354   2.032  0.1773 -0.1473  0.1919
 7661SOL    HW134445   0.613   3.311   2.102 -1.5742  0.3361  1.7252
 7661SOL    HW234446   0.585   3.444   2.055  0.7352  0.0630 -1.1973
 7662SOL     OW34447   3.418   1.465   5.397  0.2238 -0.0512 -0.4831
 7662SOL    HW134448   3.343   1.458   5.337 -0.1720  2.7864 -0.3195
 7662SOL    HW234449   3.379   1.451   5.483 -0.2783  0.5420 -0.6165
 7663SOL     OW34450   1.953   1.924  16.993 -0.1571 -0.1061  0.2966
 7663SOL    HW134451   1.992   1.894  16.911 -2.4592  1.2191 -1.2758
 7663SOL    HW234452   1.978   2.016  16.987  1.6639 -0.6035  0.3679
 7664SOL     OW34453   4.002   4.038  13.578  0.2858 -0.2317  0.0695
 7664SOL    HW134454   3.994   4.032  13.483 -0.5469  0.1941  0.1105
 7664SOL    HW234455   3.969   3.953  13.605 -2.6535  0.4381 -1.4053
 7665SOL     OW34456   1.472   1.273   8.803  0.7257 -0.2951  0.1177
 7665SOL    HW134457   1.523   1.352   8.822  0.2742 -0.0977  0.5101
 7665SOL    HW234458   1.465   1.275   8.708  1.4469 -0.7164  0.0559
 7666SOL     OW34459   4.134   0.889   7.085  0.4321 -0.4250  0.1650
 7666SOL    HW134460   4.050   0.882   7.131  0.6121 -2.7342  0.1237
 7666SOL    HW234461   4.147   0.984   7.085 -2.3671 -0.0256  0.9790
 7667SOL     OW34462   2.443   1.299   3.396 -0.5969  0.5074  0.1308
 7667SOL    HW134463   2.395   1.337   3.323  0.7501  0.6663 -0.6870
 7667SOL    HW234464   2.496   1.373   3.425  0.5911 -0.8526  1.4243
 7668SOL     OW34465   3.118   4.492  13.460 -0.0242  0.1654  0.0988
 7668SOL    HW134466   3.156   4.407  13.484 -0.8592 -0.3038 -0.2201
 7668SOL    HW234467   3.147   4.495  13.368 -0.6975 -1.3149 -0.1600
 7669SOL     OW34468   2.570   2.952   8.416  0.2148 -0.5349 -0.1499
 7669SOL    HW134469   2.591   3.038   8.381  1.8815 -0.2610  1.4995
 7669SOL    HW234470   2.478   2.969   8.439  0.0568 -0.2612 -0.9960
 7670SOL     OW34471   3.182   2.645   7.489  0.4088  0.1187  0.1242
 7670SOL    HW134472   3.275   2.639   7.508  0.4180  0.0049  0.0450
 7670SOL    HW234473   3.168   2.550   7.491 -1.4993  0.3629 -1.0487
 7671SOL     OW34474   2.779   0.072   2.251  0.0930 -0.1358  0.3217
 7671SOL    HW134475   2.830   4.720   2.285 -0.1198  0.0803  1.1145
 7671SOL    HW234476   2.822   0.075   2.166 -0.2265 -2.1361  0.1071
 7672SOL     OW34477   1.102   0.912  14.229 -0.2895  0.3445 -0.5140
 7672SOL    HW134478   1.063   0.828  14.205 -0.6617  0.8044 -1.5441
 7672SOL    HW234479   1.162   0.925  14.155  0.2654 -1.4656 -0.3646
 7673SOL     OW34480   0.871   3.347   9.355 -0.1997  0.4196 -0.2557
 7673SOL    HW134481   0.792   3.399   9.371 -1.0163 -0.2647 -2.1482
 7673SOL    HW234482   0.841   3.267   9.398 -1.2631  1.5836  1.1691
 7674SOL     OW34483   2.693   2.253   1.892 -0.2043 -0.2067 -0.0759
 7674SOL    HW134484   2.780   2.291   1.883 -0.2457 -0.4979 -1.6788
 7674SOL    HW234485   2.696   2.182   1.827  0.2504  0.8864 -1.2577
 7675SOL     OW34486   0.983   4.209   2.555 -0.5777 -1.0442  0.0128
 7675SOL    HW134487   1.011   4.181   2.468  2.6522  1.4570  0.2623
 7675SOL    HW234488   0.941   4.294   2.543 -3.5006 -2.4612  0.0618
 7676SOL     OW34489   0.863   1.451   8.887 -0.5974 -0.4391  0.0128
 7676SOL    HW134490   0.816   1.514   8.833  2.9408  1.0073 -1.3464
 7676SOL    HW234491   0.948   1.456   8.844 -0.3786  5.0724  1.1686
 7677SOL     OW34492   2.212   4.232  11.650  0.6046  0.0425 -0.4403
 7677SOL    HW134493   2.173   4.217  11.735  0.5716  1.3827 -0.2123
 7677SOL    HW234494   2.254   4.316  11.669  0.6546  0.2685 -1.5357
 7678SOL     OW34495   3.846   0.872   4.383  0.0789 -0.9922 -0.1434
 7678SOL    HW134496   3.805   0.933   4.322  3.0831 -1.2031 -2.4031
 7678SOL    HW234497   3.779   0.812   4.415  0.8194 -1.3495  0.7508
 7679SOL     OW34498   1.164   3.767  16.583  0.1435  0.8528 -0.0501
 7679SOL    HW134499   1.177   3.676  16.559  0.1853  1.8909 -3.8590
 7679SOL    HW234500   1.070   3.771  16.601  0.1284 -1.5481  0.3970
 7680SOL     OW34501   4.021   1.169   7.348  0.1063 -0.1795 -0.8253
 7680SOL    HW134502   3.973   1.105   7.296  0.2325 -1.1901  0.3076
 7680SOL    HW234503   4.094   1.119   7.383 -0.5985 -1.2807 -0.9198
 7681SOL     OW34504   0.299   3.370   7.526  0.0746  0.1218  0.1333
 7681SOL    HW134505   0.246   3.449   7.510 -1.2363 -0.9723 -0.9227
 7681SOL    HW234506   0.262   3.298   7.476  0.2102 -0.7206  1.2626
 7682SOL     OW34507   1.938   2.726  10.022  1.4212 -0.5071  0.6155
 7682SOL    HW134508   1.924   2.724   9.927 -1.7116  1.4246  1.0201
 7682SOL    HW234509   2.016   2.673  10.033  0.4302 -1.7342  1.7148
 7683SOL     OW34510   2.955   2.223  14.905  0.3385  0.5450  0.6672
 7683SOL    HW134511   2.861   2.238  14.897  0.5173  0.8026 -0.8845
 7683SOL    HW234512   2.993   2.268  14.829 -0.1095 -0.1365  0.0440
 7684SOL     OW34513   0.272   4.661   6.233  0.4323  0.0995  0.2730
 7684SOL    HW134514   0.202   4.722   6.256  2.2857  1.9590  0.9653
 7684SOL    HW234515   0.331   4.669   6.307  2.1850 -2.0009 -0.8936
 7685SOL     OW34516   2.056   0.351   6.685 -0.0134 -0.0138  0.2841
 7685SOL    HW134517   2.033   0.444   6.685  1.9978  0.4627  0.8900
 7685SOL    HW234518   2.022   0.338   6.596  0.6339  0.0514  0.0333
 7686SOL     OW34519   2.527   0.167   3.409  0.5743  0.3220 -0.2434
 7686SOL    HW134520   2.614   0.190   3.377 -0.0297  0.1669 -2.0242
 7686SOL    HW234521   2.527   0.074   3.387 -1.1141  0.0116  1.0751
 7687SOL     OW34522   3.826   0.182   8.206 -0.0323  0.5488 -0.1827
 7687SOL    HW134523   3.810   0.114   8.271 -1.2037  1.5786  0.5974
 7687SOL    HW234524   3.898   0.144   8.156  0.9804  1.0649  0.8895
 7688SOL     OW34525   4.441   1.866  15.623  0.6652 -0.4584 -0.1839
 7688SOL    HW134526   4.352   1.890  15.648  0.1080 -3.1357  0.3989
 7688SOL    HW234527   4.428   1.772  15.628 -0.4728 -0.3365 -0.9411
 7689SOL     OW34528   3.701   1.416   5.954 -0.8701  0.0239  0.9442
 7689SOL    HW134529   3.786   1.388   5.987 -1.5693 -2.3843  0.6548
 7689SOL    HW234530   3.720   1.462   5.872  0.2690 -2.1706  0.0034
 7690SOL     OW34531   3.420   0.208  15.141  0.1474 -0.5985 -0.1773
 7690SOL    HW134532   3.501   0.212  15.090  1.0471 -4.0275  1.0239
 7690SOL    HW234533   3.464   0.217  15.226 -0.7110  0.5940  0.1508
 7691SOL     OW34534   3.399   1.785   5.020  0.1754 -0.1880  0.0086
 7691SOL    HW134535   3.444   1.713   5.063 -0.9813 -0.5502  0.6163
 7691SOL    HW234536   3.423   1.750   4.934 -1.1562 -0.4586 -0.2638
 7692SOL     OW34537   0.116   3.390  10.037 -0.9445  0.2175 -0.3285
 7692SOL    HW134538   0.066   3.320  10.078  1.3741 -0.6850  0.9543
 7692SOL    HW234539   0.189   3.343   9.998 -1.1551 -0.7869  0.5012
 7693SOL     OW34540   1.038   0.795   1.441  0.3801  0.1683  0.2068
 7693SOL    HW134541   0.996   0.861   1.496 -2.5128 -1.1114 -0.5248
 7693SOL    HW234542   0.995   0.715   1.470 -0.3486  1.3673  2.4523
 7694SOL     OW34543   4.447   2.392   9.828 -0.2555  0.1875  0.5503
 7694SOL    HW134544   4.427   2.319   9.886  0.0360 -0.0395  0.3616
 7694SOL    HW234545   4.542   2.382   9.822 -0.1882  1.8127 -1.1507
 7695SOL     OW34546   1.460   2.921  16.271 -0.3825  0.1696  0.0932
 7695SOL    HW134547   1.484   2.954  16.185 -0.6623 -0.8343 -0.3630
 7695SOL    HW234548   1.421   2.836  16.252 -0.4542  0.1370  0.3745
 7696SOL     OW34549   0.105   4.092   6.673  0.1166 -0.3511 -0.0074
 7696SOL    HW134550   0.070   4.101   6.584 -2.2076  0.6511  0.9930
 7696SOL    HW234551   0.120   3.998   6.679 -3.7414 -0.9709  0.2148
 7697SOL     OW34552   3.931   4.013  10.939  0.3636  0.0898  0.5800
 7697SOL    HW134553   3.966   4.082  10.996 -1.5496  0.0210  1.8206
 7697SOL    HW234554   3.891   4.061  10.867  0.5819 -0.5765  0.0164
 7698SOL     OW34555   1.863   1.038   4.238  0.3298  0.3767  0.1287
 7698SOL    HW134556   1.909   0.959   4.269 -1.3386 -0.6405  0.0226
 7698SOL    HW234557   1.845   1.011   4.148  0.2732 -1.7218  0.7606
 7699SOL     OW34558   0.104   2.453   6.333  0.1818 -0.3085  0.9210
 7699SOL    HW134559   0.198   2.459   6.314 -0.2140  2.4011 -0.0975
 7699SOL    HW234560   0.111   2.439   6.427  0.8050 -0.2889  0.8819
 7700SOL     OW34561   0.207   1.981   1.316 -0.3549 -0.2682  0.7912
 7700SOL    HW134562   0.281   1.921   1.316 -0.5528 -0.4951  3.8659
 7700SOL    HW234563   0.259   2.061   1.324 -0.1569 -0.1675 -1.5820
 7701SOL     OW34564   0.106   2.327   8.048  0.7120 -0.5484 -0.0270
 7701SOL    HW134565   0.081   2.398   7.988 -0.7546 -0.9325  0.1269
 7701SOL    HW234566   0.105   2.374   8.132 -0.5171  1.6861 -1.2935
 7702SOL     OW34567   1.620   4.430   8.316  0.1506 -0.1325  0.1891
 7702SOL    HW134568   1.597   4.519   8.343  0.4699 -0.4162  1.4384
 7702SOL    HW234569   1.549   4.381   8.357  0.0808 -0.8166 -0.7709
 7703SOL     OW34570   2.110   2.799  10.650 -0.0556  0.7442 -0.6037
 7703SOL    HW134571   2.015   2.806  10.654 -0.0312  1.0311 -0.5190
 7703SOL    HW234572   2.140   2.823  10.737  3.7432  0.0898 -1.6944
 7704SOL     OW34573   1.838   3.873   3.718  0.0113 -0.2730  0.0126
 7704SOL    HW134574   1.809   3.964   3.721 -1.7399 -0.8177 -0.0816
 7704SOL    HW234575   1.898   3.877   3.643 -1.5724 -0.3727 -1.2632
 7705SOL     OW34576   0.522   3.193   4.910  0.0611 -0.1972  0.2889
 7705SOL    HW134577   0.453   3.147   4.862 -0.2784 -0.1900  0.7591
 7705SOL    HW234578   0.489   3.166   4.996  1.3017  0.5144  0.9867
 7706SOL     OW34579   4.441   1.103  10.567 -0.3587  0.0790 -0.1921
 7706SOL    HW134580   4.475   1.034  10.624  0.7806  0.5898 -0.2608
 7706SOL    HW234581   4.350   1.076  10.557 -0.3629  0.9218 -2.5136
 7707SOL     OW34582   3.600   3.952   7.372 -0.1189  0.2620  0.0336
 7707SOL    HW134583   3.685   3.975   7.335 -0.2635 -0.0436 -0.4921
 7707SOL    HW234584   3.568   4.037   7.401 -2.3490 -1.0251  1.3797
 7708SOL     OW34585   2.652   0.083   9.445 -0.1207  0.3013 -0.6927
 7708SOL    HW134586   2.630   0.045   9.530  0.1572 -0.8814 -1.1489
 7708SOL    HW234587   2.702   0.158   9.477 -1.2149  1.2245 -1.1626
 7709SOL     OW34588   1.098   3.385   1.092 -0.6457 -0.2758 -0.2863
 7709SOL    HW134589   1.052   3.457   1.134 -1.1596  0.4478 -2.1211
 7709SOL    HW234590   1.028   3.360   1.032  0.0547  2.3184 -2.1926
 7710SOL     OW34591   1.662   2.304  16.420  0.1033 -0.4666  0.5358
 7710SOL    HW134592   1.729   2.271  16.360  0.8051 -0.5812  1.3843
 7710SOL    HW234593   1.595   2.235  16.422  0.6790 -1.1349 -3.1180
 7711SOL     OW34594   4.529   2.469   6.484  0.0949 -0.4835 -0.0964
 7711SOL    HW134595   4.616   2.509   6.472  0.2785 -0.5937  0.8020
 7711SOL    HW234596   4.525   2.475   6.580  0.2223 -2.3753  0.0235
 7712SOL     OW34597   1.415   2.733   6.692  0.3070  0.1990 -0.1726
 7712SOL    HW134598   1.438   2.649   6.732 -1.1428  0.0097  0.2513
 7712SOL    HW234599   1.320   2.740   6.700  0.4106  0.2966  1.0780
 7713SOL     OW34600   3.160   3.696  10.292  0.3493 -0.1142 -0.3143
 7713SOL    HW134601   3.065   3.691  10.304  0.4917  0.4702  1.0399
 7713SOL    HW234602   3.183   3.728  10.380  3.4041  0.4270 -1.3130
 7714SOL     OW34603   1.636   4.153   8.317 -0.3824 -0.7433 -0.5832
 7714SOL    HW134604   1.543   4.162   8.335 -0.5427 -3.1881 -0.3288
 7714SOL    HW234605   1.642   4.202   8.235 -3.1078  0.8648  0.1632
 7715SOL     OW34606   3.247   2.890   5.410  0.8439  0.8994 -0.1624
 7715SOL    HW134607   3.234   2.835   5.487 -0.3198  1.7067  0.2011
 7715SOL    HW234608   3.160   2.923   5.389 -0.8288 -1.7072  2.6074
 7716SOL     OW34609   1.188   4.240   7.000 -0.2774 -0.4483 -0.6444
 7716SOL    HW134610   1.256   4.284   7.051  0.6155 -0.4418 -1.8414
 7716SOL    HW234611   1.175   4.297   6.925  2.2613  0.0065 -0.7454
 7717SOL     OW34612   1.861   3.937   6.110  0.3507  0.2346 -0.0694
 7717SOL    HW134613   1.860   3.844   6.087  0.8349  0.4053 -0.8126
 7717SOL    HW234614   1.791   3.979   6.061  0.1306 -0.6425 -0.5198
 7718SOL     OW34615   3.910   0.407  14.835 -0.3275 -0.5491 -0.0322
 7718SOL    HW134616   3.919   0.485  14.781  1.2223 -1.2526 -0.8137
 7718SOL    HW234617   4.002   0.384  14.852 -0.8113 -1.1498  1.8140
 7719SOL     OW34618   1.474   4.306  10.175 -0.9289  0.6377 -0.0667
 7719SOL    HW134619   1.555   4.292  10.224 -1.0556  3.7881  1.0126
 7719SOL    HW234620   1.414   4.302  10.249  0.5244 -0.4256  1.0522
 7720SOL     OW34621   0.566   1.386  16.564  0.1275  0.2082 -0.5356
 7720SOL    HW134622   0.555   1.471  16.520 -0.1512  0.8676  0.8327
 7720SOL    HW234623   0.577   1.413  16.655 -1.2755 -1.4391  0.1114
 7721SOL     OW34624   0.152   0.224   7.896 -0.8443 -0.4727  0.7172
 7721SOL    HW134625   0.155   0.137   7.857 -0.2819  2.1497 -5.2566
 7721SOL    HW234626   0.060   0.232   7.921 -0.1578  2.5632  2.2842
 7722SOL     OW34627   3.943   4.344  15.377 -0.0957  0.2694  0.3073
 7722SOL    HW134628   3.861   4.307  15.411 -0.2850 -0.8021 -1.3360
 7722SOL    HW234629   3.910   4.397  15.305 -0.9453  0.7865  1.0785
 7723SOL     OW34630   2.632   1.616   2.148  0.8793 -0.5626  0.1074
 7723SOL    HW134631   2.555   1.636   2.094  1.8393 -1.6766 -1.6703
 7723SOL    HW234632   2.584   1.606   2.230 -1.8704 -1.1005 -1.5654
 7724SOL     OW34633   0.568   4.143  10.786 -0.0318 -0.6559 -0.1992
 7724SOL    HW134634   0.604   4.162  10.699  1.9009  0.2335  0.7950
 7724SOL    HW234635   0.640   4.170  10.844 -1.3081 -0.6104  1.3585
 7725SOL     OW34636   3.309   3.910   6.995  0.5205 -0.1424  0.1405
 7725SOL    HW134637   3.375   3.946   7.055 -0.1887 -1.2247  1.5693
 7725SOL    HW234638   3.225   3.943   7.026 -0.9014 -0.6641 -3.1165
 7726SOL     OW34639   1.277   0.952   5.282 -0.1185  0.0399  0.2512
 7726SOL    HW134640   1.260   0.859   5.294  0.4551 -0.1484 -0.4362
 7726SOL    HW234641   1.367   0.961   5.313 -0.6177  2.3435  1.0740
 7727SOL     OW34642   1.695   3.666   2.249  0.5624  0.2588 -0.2539
 7727SOL    HW134643   1.603   3.692   2.247  1.1371  2.4805  1.2325
 7727SOL    HW234644   1.694   3.586   2.197 -0.9479 -1.6513  2.7153
 7728SOL     OW34645   2.091   2.049   0.454 -0.0995 -0.3126  0.1857
 7728SOL    HW134646   2.020   2.023   0.513 -1.0755 -0.5389 -1.0930
 7728SOL    HW234647   2.038   2.078   0.380 -0.7030 -0.9629  0.3626
 7729SOL     OW34648   2.402   1.705   8.210  0.0175 -0.6597  0.7117
 7729SOL    HW134649   2.439   1.779   8.258  1.0238  0.9300 -2.5586
 7729SOL    HW234650   2.474   1.672   8.157 -1.6188  0.7827 -2.3435
 7730SOL     OW34651   1.446   3.628   0.538  0.0832  0.1278 -0.4915
 7730SOL    HW134652   1.404   3.568   0.599 -2.5754  1.4305 -1.0663
 7730SOL    HW234653   1.490   3.559   0.487  1.6647  1.4357 -0.9061
 7731SOL     OW34654   4.105   2.141   8.051  0.0364 -0.3338 -0.2755
 7731SOL    HW134655   4.173   2.164   7.987 -0.6648 -2.4557 -1.7937
 7731SOL    HW234656   4.028   2.121   7.997 -0.8123  0.8547  0.5109
 7732SOL     OW34657   4.248   2.602   7.072 -0.2458 -0.5852 -0.3360
 7732SOL    HW134658   4.237   2.507   7.063  0.3776 -0.7311  0.3980
 7732SOL    HW234659   4.252   2.616   7.166 -0.7600  4.0055 -1.0141
 7733SOL     OW34660   4.028   2.313  11.519 -0.4401  0.1731  0.5728
 7733SOL    HW134661   4.073   2.389  11.483  0.3183 -0.1235  0.8852
 7733SOL    HW234662   4.084   2.243  11.484  1.7594  2.4835 -0.4621
 7734SOL     OW34663   2.523   1.851   7.837 -0.5811 -0.2977  0.1910
 7734SOL    HW134664   2.531   1.940   7.803 -0.1932 -0.4386 -0.0873
 7734SOL    HW234665   2.536   1.810   7.752 -0.2669  1.3917 -0.5795
 7735SOL     OW34666   1.412   0.717   8.682  0.4215 -0.2233  0.1422
 7735SOL    HW134667   1.465   0.656   8.733 -0.5771 -2.3790 -1.4116
 7735SOL    HW234668   1.478   0.783   8.660 -1.1323  1.7508  1.4277
 7736SOL     OW34669   2.894   3.961   3.775  0.1554  0.3874  0.8883
 7736SOL    HW134670   2.844   3.910   3.839 -1.8787 -0.6093 -1.5286
 7736SOL    HW234671   2.982   3.923   3.778 -0.3766 -1.0349 -2.2000
 7737SOL     OW34672   3.482   4.078   7.151  0.1583 -0.1015  0.1549
 7737SOL    HW134673   3.440   4.151   7.195 -0.5426 -1.2750  1.4226
 7737SOL    HW234674   3.522   4.036   7.227 -1.8788 -0.5313  0.9641
 7738SOL     OW34675   4.649   3.855   6.801  0.2616 -0.3191 -0.1453
 7738SOL    HW134676   4.616   3.777   6.757  0.2177 -0.0797 -0.5386
 7738SOL    HW234677   0.018   3.825   6.807  0.8230  1.2673 -0.5819
 7739SOL     OW34678   1.878   2.262   1.357 -0.4349 -0.8621  0.1574
 7739SOL    HW134679   1.969   2.275   1.329 -0.3498 -0.5098  0.6145
 7739SOL    HW234680   1.868   2.170   1.382 -2.1607 -0.3803  1.2238
 7740SOL     OW34681   1.919   1.180  17.060  0.3553  0.7508 -0.4237
 7740SOL    HW134682   1.834   1.163  17.018 -0.2852  3.4937 -0.2856
 7740SOL    HW234683   1.887   1.181  17.150  0.0039  1.5981 -0.5579
 7741SOL     OW34684   1.866   0.233   1.897  0.1167 -0.5740 -0.8090
 7741SOL    HW134685   1.775   0.263   1.898  0.1854 -0.3837  0.3256
 7741SOL    HW234686   1.901   0.282   1.823  1.7394  1.6856  1.4643
 7742SOL     OW34687   3.723   0.950   1.610  0.2488  0.0790 -0.2572
 7742SOL    HW134688   3.695   0.895   1.536  1.3660 -0.1254 -0.5320
 7742SOL    HW234689   3.751   0.879   1.668  0.9265  0.0107 -0.6532
 7743SOL     OW34690   3.949   0.594  12.195 -0.2824 -0.0694 -0.7767
 7743SOL    HW134691   3.906   0.663  12.145  2.6811  1.5696 -1.0555
 7743SOL    HW234692   3.874   0.535  12.210 -1.3296  1.6741  0.8232
 7744SOL     OW34693   4.217   3.419  12.825  0.7250  0.6530  0.1498
 7744SOL    HW134694   4.195   3.464  12.743 -3.0614 -4.4956 -1.6539
 7744SOL    HW234695   4.256   3.490  12.876 -1.8942  1.3727  1.1625
 7745SOL     OW34696   0.644   2.776   2.368  0.3301  0.1760 -0.3844
 7745SOL    HW134697   0.713   2.756   2.304 -1.1419 -0.5226 -1.7339
 7745SOL    HW234698   0.660   2.711   2.436  1.4190  1.5334  0.6797
 7746SOL     OW34699   0.169   0.812   7.039 -0.6004 -0.3308 -0.4269
 7746SOL    HW134700   0.201   0.858   6.961 -0.7308 -0.1974 -0.4005
 7746SOL    HW234701   0.167   0.878   7.108 -2.9435 -0.3579 -0.4849
 7747SOL     OW34702   2.897   1.551   2.167  0.3725  0.0881 -0.1097
 7747SOL    HW134703   2.810   1.584   2.146 -0.1390 -1.9071 -1.1874
 7747SOL    HW234704   2.881   1.456   2.160 -1.0876  0.2339  1.1344
 7748SOL     OW34705   2.288   1.210  12.912  0.2128  0.4959  0.3079
 7748SOL    HW134706   2.276   1.303  12.896 -1.7224  0.3980  1.3026
 7748SOL    HW234707   2.281   1.202  13.007 -1.4279 -0.5170  0.1016
 7749SOL     OW34708   3.273   0.528   6.562 -0.3800  0.3371  0.3516
 7749SOL    HW134709   3.238   0.456   6.613 -1.3630  0.2314 -0.4639
 7749SOL    HW234710   3.192   0.576   6.544 -0.6556 -1.6250 -3.6727
 7750SOL     OW34711   4.342   4.170   5.691 -0.3414  0.1168  0.4334
 7750SOL    HW134712   4.432   4.186   5.721  0.1131 -1.0991 -0.2863
 7750SOL    HW234713   4.367   4.157   5.600  1.5290 -0.8885  1.0829
 7751SOL     OW34714   2.229   1.062   1.323  0.1559  0.2390  0.6173
 7751SOL    HW134715   2.296   1.130   1.335 -0.8327  1.3581 -0.1737
 7751SOL    HW234716   2.229   1.031   1.413 -1.0767  0.2398  0.6215
 7752SOL     OW34717   2.097   2.117  11.031 -0.2423  0.3577 -0.0424
 7752SOL    HW134718   2.130   2.182  11.093  0.1573  1.0650 -0.9841
 7752SOL    HW234719   2.085   2.169  10.951  1.4126  0.8665  0.0340
 7753SOL     OW34720   0.341   0.600   6.713 -0.3354  0.1216  0.1250
 7753SOL    HW134721   0.380   0.519   6.680 -1.6723 -0.4970  0.0487
 7753SOL    HW234722   0.273   0.569   6.773 -0.1372  2.1848  1.4100
 7754SOL     OW34723   2.209   1.907   5.736 -0.2448  0.1320  0.2645
 7754SOL    HW134724   2.178   1.823   5.768  1.6071 -0.0180  1.6389
 7754SOL    HW234725   2.253   1.884   5.653 -1.4460 -1.6755  0.1279
 7755SOL     OW34726   2.074   2.091   7.386 -0.6006  0.4574 -0.5061
 7755SOL    HW134727   2.058   2.082   7.480  0.8533  0.0649 -0.2977
 7755SOL    HW234728   2.053   2.003   7.354  0.8175 -0.7748  1.9770
 7756SOL     OW34729   1.985   1.887  11.011 -0.1449 -0.2815  0.3347
 7756SOL    HW134730   2.033   1.961  11.047 -2.0828 -0.4335  3.2224
 7756SOL    HW234731   2.020   1.876  10.922 -0.1758  1.2136  0.1391
 7757SOL     OW34732   0.786   3.103   4.069 -0.1038  0.2193  0.5334
 7757SOL    HW134733   0.840   3.064   4.000 -2.2054  0.5499 -1.3028
 7757SOL    HW234734   0.808   3.049   4.145  1.1362 -0.2860 -0.1798
 7758SOL     OW34735   4.215   4.576  16.417  0.6169 -0.4155  0.2763
 7758SOL    HW134736   4.236   4.566  16.324  0.1642 -1.6298  0.2976
 7758SOL    HW234737   4.197   4.669  16.421  2.1315 -0.1469  0.8740
 7759SOL     OW34738   2.676   2.184   2.821  0.0082  0.6892  0.3385
 7759SOL    HW134739   2.593   2.138   2.835 -0.4650  1.4040 -0.1725
 7759SOL    HW234740   2.729   2.116   2.779  2.2893  2.2420  0.7178
 7760SOL     OW34741   3.774   0.272   7.936  0.0621  0.4959  0.1253
 7760SOL    HW134742   3.728   0.295   8.017  0.8950  0.0687  0.7155
 7760SOL    HW234743   3.806   0.184   7.957 -2.3531 -0.8068 -1.6686
 7761SOL     OW34744   3.211   0.658  13.550  0.3584 -0.3553 -0.3991
 7761SOL    HW134745   3.184   0.575  13.589  0.0134  1.0729  2.4273
 7761SOL    HW234746   3.251   0.700  13.626 -0.6929  0.2498 -0.1854
 7762SOL     OW34747   4.074   3.206  11.207 -0.0069  0.0384 -0.7721
 7762SOL    HW134748   4.123   3.255  11.274  0.6379 -0.6595 -0.7263
 7762SOL    HW234749   4.121   3.223  11.126  2.1520 -1.5175  0.1353
 7763SOL     OW34750   1.430   0.453   5.873  0.0657  0.1671 -0.2184
 7763SOL    HW134751   1.471   0.387   5.929 -0.2252 -0.8107 -1.1549
 7763SOL    HW234752   1.353   0.477   5.926 -0.1621  2.4655 -1.5864
 7764SOL     OW34753   3.368   4.629   5.017 -0.0829 -0.4154 -0.6121
 7764SOL    HW134754   3.277   4.657   5.027  0.0049  0.2689 -1.7089
 7764SOL    HW234755   3.399   4.638   5.107 -1.6276 -0.0271 -0.1053
 7765SOL     OW34756   1.432   3.275   3.010 -0.2682  0.4640 -0.2416
 7765SOL    HW134757   1.339   3.270   3.030 -0.9215  1.2009 -2.9633
 7765SOL    HW234758   1.453   3.357   3.056 -3.8629  0.2614  1.7628
 7766SOL     OW34759   0.970   0.657  11.001 -0.3726 -0.1976  0.2740
 7766SOL    HW134760   0.959   0.623  10.912 -0.0601  2.0353 -0.6254
 7766SOL    HW234761   1.035   0.601  11.043  1.1454 -0.3994 -2.2994
 7767SOL     OW34762   0.799   0.774  15.139  0.4797 -0.2643 -0.2697
 7767SOL    HW134763   0.764   0.743  15.056 -1.1605  1.3843 -0.2136
 7767SOL    HW234764   0.752   0.858  15.143 -0.7127 -0.9153 -0.5801
 7768SOL     OW34765   3.650   0.981   6.210 -0.3471 -0.3859 -1.0378
 7768SOL    HW134766   3.734   0.936   6.215 -0.0658  0.0571 -1.7709
 7768SOL    HW234767   3.587   0.912   6.231 -1.5816  0.8255 -0.7747
 7769SOL     OW34768   0.645   1.869  15.984  0.0579 -0.3519  0.0855
 7769SOL    HW134769   0.722   1.907  15.942  0.5320 -0.8247  0.5206
 7769SOL    HW234770   0.579   1.891  15.919 -1.2924  0.5564  1.7985
 7770SOL     OW34771   3.236   2.130   8.392  0.6138  0.1742 -0.7781
 7770SOL    HW134772   3.161   2.152   8.447  1.1657 -0.2891  0.1618
 7770SOL    HW234773   3.255   2.222   8.374 -1.4751  1.0417  1.5511
 7771SOL     OW34774   1.927   4.433   5.537 -0.0721  0.1698 -0.1948
 7771SOL    HW134775   1.978   4.438   5.457 -0.7960 -0.9726 -0.7249
 7771SOL    HW234776   1.858   4.498   5.523 -0.3048 -0.1264 -0.3972
 7772SOL     OW34777   1.114   0.495   6.099  0.4452  0.3153 -0.4865
 7772SOL    HW134778   1.191   0.547   6.077  1.4457 -0.3809  1.3911
 7772SOL    HW234779   1.140   0.451   6.180  0.4488 -1.3556 -1.3871
 7773SOL     OW34780   1.338   1.251  12.968 -0.8831  0.3598 -0.0202
 7773SOL    HW134781   1.354   1.310  12.895  3.0468  0.2953  0.7919
 7773SOL    HW234782   1.417   1.267  13.019  0.0282 -0.1896 -1.2654
 7774SOL     OW34783   2.948   4.603   6.292 -0.6661 -0.4831 -0.3671
 7774SOL    HW134784   2.931   4.691   6.326  0.0325 -0.0734 -1.1006
 7774SOL    HW234785   2.915   4.553   6.367 -0.4781 -0.6243 -0.3793
 7775SOL     OW34786   2.278   0.070  15.072 -0.3500 -0.0242  0.1999
 7775SOL    HW134787   2.222   0.116  15.009  0.9947 -0.3080 -1.2222
 7775SOL    HW234788   2.226   4.713  15.084  1.5761 -1.6008 -1.5736
 7776SOL     OW34789   1.933   2.776   8.385 -0.5038  0.2312  0.0976
 7776SOL    HW134790   1.975   2.715   8.446 -0.0512 -1.4071 -1.8510
 7776SOL    HW234791   1.861   2.726   8.348 -1.3774  0.8408  0.9935
 7777SOL     OW34792   2.485   0.669   1.540 -0.0910  0.1748  0.2073
 7777SOL    HW134793   2.451   0.681   1.451 -3.0246  1.6861  1.5282
 7777SOL    HW234794   2.576   0.652   1.515 -0.1968 -0.2036  0.0885
 7778SOL     OW34795   3.020   4.461   4.545 -0.2400 -0.2268 -0.2094
 7778SOL    HW134796   2.978   4.545   4.527  0.6021  0.1841 -0.2401
 7778SOL    HW234797   2.974   4.424   4.621  1.9379  0.3652  1.3948
 7779SOL     OW34798   3.631   0.003   8.035 -0.1850  0.0642 -0.0021
 7779SOL    HW134799   3.602   4.643   8.075 -0.5166  0.0165 -0.3361
 7779SOL    HW234800   3.726   0.001   8.035 -0.1834  0.3012 -1.1383
 7780SOL     OW34801   2.666   0.135   4.978 -0.1531 -0.0854  0.5196
 7780SOL    HW134802   2.688   0.173   5.063 -1.3935  0.1154  0.7604
 7780SOL    HW234803   2.586   0.183   4.954 -0.1418 -0.1999  0.2519
 7781SOL     OW34804   4.536   0.631  14.905  0.0925 -0.7518 -0.0632
 7781SOL    HW134805   4.555   0.651  14.997 -0.8353  0.4809 -0.1355
 7781SOL    HW234806   4.571   0.703  14.853  0.3931 -1.2097 -0.4926
 7782SOL     OW34807   3.121   0.762   8.709  0.3796 -0.3337  0.3774
 7782SOL    HW134808   3.059   0.778   8.781 -0.9075 -2.4754 -0.2454
 7782SOL    HW234809   3.178   0.836   8.731  0.7415 -0.4725 -0.1120
 7783SOL     OW34810   3.669   4.696   8.366  0.2500  0.0866 -1.3148
 7783SOL    HW134811   3.611   4.711   8.441  1.3465 -2.8139  0.1301
 7783SOL    HW234812   3.604   4.684   8.297 -0.4019  0.8940 -0.8483
 7784SOL     OW34813   4.669   3.280   3.850  0.0864  0.2178 -0.6812
 7784SOL    HW134814   4.601   3.251   3.911  0.9739 -1.3886 -0.4385
 7784SOL    HW234815   0.019   3.314   3.903  1.1159 -2.8811 -0.0521
 7785SOL     OW34816   1.148   3.883   3.969  0.0905 -0.1491  0.0944
 7785SOL    HW134817   1.188   3.837   4.042 -0.7974  1.3943  1.5658
 7785SOL    HW234818   1.110   3.813   3.917 -1.1201  0.8947 -0.4459
 7786SOL     OW34819   4.299   2.399   3.580 -0.0823  0.1356 -0.0564
 7786SOL    HW134820   4.284   2.352   3.662 -1.4462 -1.1512 -1.0456
 7786SOL    HW234821   4.264   2.483   3.608  0.6625  1.6190 -3.5018
 7787SOL     OW34822   2.588   0.242  17.121  0.5573 -0.2859 -0.0935
 7787SOL    HW134823   2.617   0.197  17.201 -0.9490 -1.9987 -0.5284
 7787SOL    HW234824   2.497   0.260  17.143  0.2506 -0.4120 -1.2804
 7788SOL     OW34825   1.578   4.210   0.028 -0.2676  0.4724  0.2073
 7788SOL    HW134826   1.674   4.219   0.031 -0.1000 -1.2272 -0.1925
 7788SOL    HW234827   1.571   4.116   0.012  0.0425  0.8174 -1.9753
 7789SOL     OW34828   3.574   2.887  16.184  0.7320  0.4014  0.1966
 7789SOL    HW134829   3.518   2.831  16.130  1.9776 -1.6334  1.0261
 7789SOL    HW234830   3.642   2.830  16.220  0.8579  1.0675  0.9969
 7790SOL     OW34831   4.074   2.159   9.028 -0.0756  0.4392 -0.0195
 7790SOL    HW134832   3.994   2.201   9.060 -0.8179 -1.2502  0.3452
 7790SOL    HW234833   4.048   2.107   8.952  0.3543  2.0231 -1.2435
 7791SOL     OW34834   3.269   1.622   7.448 -0.4653  0.1059 -0.1832
 7791SOL    HW134835   3.277   1.616   7.543  1.0961  1.3787 -0.2340
 7791SOL    HW234836   3.187   1.670   7.439 -0.5206 -0.3992 -2.4119
 7792SOL     OW34837   1.872   4.497   2.118 -0.2512  0.0385 -0.0792
 7792SOL    HW134838   1.952   4.549   2.119  0.7361 -1.4878  0.0050
 7792SOL    HW234839   1.839   4.518   2.205  2.4318 -1.0454  1.2057
 7793SOL     OW34840   1.666   0.839  16.353 -0.3556 -0.0190 -0.1705
 7793SOL    HW134841   1.575   0.832  16.383 -0.0831 -1.5994  0.2837
 7793SOL    HW234842   1.703   0.850  16.441 -0.5020  0.5207 -0.1754
 7794SOL     OW34843   0.027   3.429  11.864 -0.0101 -0.1674 -0.2414
 7794SOL    HW134844   0.015   3.481  11.943  1.7379 -1.4736  0.9049
 7794SOL    HW234845   0.118   3.400  11.873  1.2871  3.1931 -2.4379
 7795SOL     OW34846   1.178   2.666   4.690  0.3794  0.3823  0.5570
 7795SOL    HW134847   1.238   2.592   4.679  0.6525  0.5429  0.9944
 7795SOL    HW234848   1.155   2.688   4.599 -1.6296  1.8804  1.4066
 7796SOL     OW34849   2.363   0.891  15.399 -0.0233  0.0293 -0.2627
 7796SOL    HW134850   2.394   0.825  15.462  0.2749 -0.9452 -1.4192
 7796SOL    HW234851   2.277   0.907  15.438  0.6583  2.4963  0.1650
 7797SOL     OW34852   0.149   4.419  13.361  0.4530  0.4921  0.0610
 7797SOL    HW134853   0.057   4.391  13.358 -0.4389  3.3337  0.8924
 7797SOL    HW234854   0.137   4.504  13.403 -4.1172  0.4163 -1.0916
 7798SOL     OW34855   2.586   1.998   8.296  0.2071 -0.2597 -0.0395
 7798SOL    HW134856   2.569   1.937   8.368 -0.7368  0.8521  0.6752
 7798SOL    HW234857   2.634   2.073   8.330 -4.2009  2.5346 -0.0226
 7799SOL     OW34858   3.371   0.371   1.033  0.3476  0.1071 -0.1194
 7799SOL    HW134859   3.415   0.290   1.060  1.7076  0.5220 -1.0871
 7799SOL    HW234860   3.390   0.371   0.939  1.8467  1.1263  0.1936
 7800SOL     OW34861   1.654   0.632   9.380 -0.0624  0.1518  0.3810
 7800SOL    HW134862   1.585   0.585   9.426 -0.5818  0.1600 -0.3884
 7800SOL    HW234863   1.666   0.709   9.435  1.2437  0.4526 -0.3093
 7801SOL     OW34864   1.212   1.247  16.285  0.0382 -0.1295 -0.2809
 7801SOL    HW134865   1.249   1.335  16.290 -0.7511  0.2835 -1.4212
 7801SOL    HW234866   1.282   1.192  16.250 -0.1220  0.1870 -1.1126
 7802SOL     OW34867   2.146   4.298  17.597  0.2851  0.1578  0.3485
 7802SOL    HW134868   2.131   4.345  17.515  1.6931 -2.2959 -1.3010
 7802SOL    HW234869   2.206   4.236  17.556 -2.3344 -1.5932 -0.8893
 7803SOL     OW34870   3.141   2.391   7.150  0.1249  0.1771 -0.0044
 7803SOL    HW134871   3.220   2.444   7.138  0.4653  0.0427  1.5707
 7803SOL    HW234872   3.154   2.304   7.114  3.2677 -0.1571  1.9197
 7804SOL     OW34873   4.101   2.707   6.461  0.6253  0.0836 -0.0982
 7804SOL    HW134874   4.012   2.714   6.497  0.7269  3.2509 -0.4787
 7804SOL    HW234875   4.129   2.617   6.476 -0.5885 -0.6945 -2.4344
 7805SOL     OW34876   2.420   2.211  11.943 -0.2713 -0.1754 -0.2635
 7805SOL    HW134877   2.489   2.244  12.000 -0.3693  3.4831 -2.2804
 7805SOL    HW234878   2.464   2.131  11.914  1.1952  0.7898 -0.6795
 7806SOL     OW34879   4.115   2.993   0.283 -0.1295 -0.1278  0.0688
 7806SOL    HW134880   4.131   3.087   0.291 -2.9843  0.2662  1.0109
 7806SOL    HW234881   4.036   2.977   0.335  1.0743 -0.9653  1.6252
 7807SOL     OW34882   4.475   3.856   5.802  0.2456  0.3438 -0.0245
 7807SOL    HW134883   4.483   3.946   5.770  1.7243  1.3081  2.9835
 7807SOL    HW234884   4.446   3.803   5.728  0.4702 -0.6361  0.5925
 7808SOL     OW34885   3.137   2.779   5.660  0.3656 -0.1645 -0.2636
 7808SOL    HW134886   3.195   2.746   5.728  0.2286 -0.2857 -0.2072
 7808SOL    HW234887   3.076   2.705   5.662  1.8309 -1.3930 -0.8968
 7809SOL     OW34888   1.080   2.511   7.003 -0.9504  0.2628  0.2815
 7809SOL    HW134889   1.138   2.552   6.939 -1.2965 -1.2468 -0.9884
 7809SOL    HW234890   1.066   2.422   6.970  1.3741  0.8215 -2.1948
 7810SOL     OW34891   0.397   2.913  17.300 -0.5333 -0.3678  0.3318
 7810SOL    HW134892   0.414   2.971  17.226  1.3531 -1.3413  0.0021
 7810SOL    HW234893   0.376   2.830  17.258  0.6889 -0.1220 -0.7661
 7811SOL     OW34894   1.017   0.584   3.796 -0.0166 -0.1015  0.5023
 7811SOL    HW134895   1.039   0.500   3.837  0.2660 -0.8960 -1.2303
 7811SOL    HW234896   1.098   0.616   3.757  0.7053 -0.1914  1.9581
 7812SOL     OW34897   4.688   3.087   3.656 -0.2129  0.0864 -0.5596
 7812SOL    HW134898   4.680   3.152   3.726  1.0888  0.4373 -0.7261
 7812SOL    HW234899   4.672   3.005   3.702  2.3547 -0.2149 -0.2028
 7813SOL     OW34900   1.782   3.000  12.707  0.2864 -0.1519  0.0975
 7813SOL    HW134901   1.781   2.909  12.740 -0.6539 -1.4050 -3.3891
 7813SOL    HW234902   1.869   3.027  12.735  0.7355 -0.4477 -1.0141
 7814SOL     OW34903   2.678   1.609   3.086  0.1086  0.3139  0.8390
 7814SOL    HW134904   2.628   1.678   3.043 -0.0276 -1.3002 -1.5595
 7814SOL    HW234905   2.711   1.555   3.014  3.0730  2.6916  0.3814
 7815SOL     OW34906   2.817   4.594   6.035  0.3366 -0.1125 -0.3885
 7815SOL    HW134907   2.891   4.575   6.092 -0.0312  2.1618  0.8545
 7815SOL    HW234908   2.788   4.672   6.081  1.0046 -0.4645  0.6165
 7816SOL     OW34909   3.663   0.248  15.013  0.1011 -0.5253  0.5933
 7816SOL    HW134910   3.675   0.342  15.024 -1.5037 -0.0021 -2.3435
 7816SOL    HW234911   3.754   0.223  15.031  0.4701  0.1625 -0.3294
 7817SOL     OW34912   1.589   2.775  16.916 -0.3497  0.4160 -0.6381
 7817SOL    HW134913   1.665   2.716  16.916  0.0052  0.8758  0.6210
 7817SOL    HW234914   1.638   2.851  16.945 -0.9632  0.9401 -0.9889
 7818SOL     OW34915   3.668   1.658   6.608 -0.4381  0.8502 -0.3971
 7818SOL    HW134916   3.614   1.711   6.549 -0.8994  0.6945 -0.1188
 7818SOL    HW234917   3.615   1.636   6.685  1.1462 -1.0869  0.1262
 7819SOL     OW34918   4.233   1.585   3.086 -0.1743 -0.6999 -0.1562
 7819SOL    HW134919   4.308   1.550   3.135  0.6419  1.1839 -0.0719
 7819SOL    HW234920   4.264   1.675   3.087 -0.1420 -0.7445  2.4633
 7820SOL     OW34921   2.044   2.949  11.849  0.1457  0.3248 -0.0747
 7820SOL    HW134922   1.963   2.939  11.798 -0.9768  0.1315  1.7393
 7820SOL    HW234923   2.108   2.933  11.779  0.3292 -0.8357  0.3574
 7821SOL     OW34924   1.222   4.565   9.010  0.6507 -0.2167 -0.8142
 7821SOL    HW134925   1.223   4.648   8.962  0.2876 -0.0504 -0.5316
 7821SOL    HW234926   1.250   4.504   8.941 -1.2220 -0.2824 -1.5338
 7822SOL     OW34927   1.546   0.981   0.702 -0.6174  0.6821  0.4469
 7822SOL    HW134928   1.545   1.041   0.777  1.1096 -0.8817  1.7164
 7822SOL    HW234929   1.641   0.989   0.689 -0.9025  0.5466 -1.7696
 7823SOL     OW34930   2.404   4.539  14.021  0.3559 -0.2388  0.1130
 7823SOL    HW134931   2.358   4.537  14.105 -1.4529 -1.7686 -0.9314
 7823SOL    HW234932   2.367   4.468  13.970  1.1572 -1.0825  0.7082
 7824SOL     OW34933   0.003   2.487  15.483 -0.0922 -0.0625 -0.1822
 7824SOL    HW134934   0.084   2.528  15.514 -1.0344 -1.4537  4.0926
 7824SOL    HW234935   4.693   2.430  15.552 -0.5431  0.9212  0.4230
 7825SOL     OW34936   0.458   1.931   4.678 -0.1946  0.2443 -0.1317
 7825SOL    HW134937   0.399   1.862   4.646  0.2886 -0.1691 -0.1426
 7825SOL    HW234938   0.517   1.925   4.604  1.0158 -1.8952  0.9833
 7826SOL     OW34939   3.007   1.870   7.692  0.4330  0.2301  0.1529
 7826SOL    HW134940   2.936   1.921   7.730  0.7962  0.2543  0.8038
 7826SOL    HW234941   3.069   1.867   7.765  1.9355 -3.1049 -1.2572
 7827SOL     OW34942   3.547   0.108   0.336  0.3370 -0.1593 -0.1133
 7827SOL    HW134943   3.597   0.028   0.320 -0.4366 -0.2512 -2.0907
 7827SOL    HW234944   3.512   0.086   0.422 -2.0910  0.2043 -0.9960
 7828SOL     OW34945   0.306   3.689   7.970 -0.5702  0.3028  0.6067
 7828SOL    HW134946   0.351   3.654   7.894  3.0871 -0.3349  3.1023
 7828SOL    HW234947   0.216   3.676   7.940  0.1545 -1.4332 -0.7785
 7829SOL     OW34948   1.698   3.093   3.729  0.5283  0.1628  0.6552
 7829SOL    HW134949   1.610   3.109   3.764  1.8182  1.1757  3.4063
 7829SOL    HW234950   1.731   3.182   3.722 -0.8740  0.5526 -1.0526
 7830SOL     OW34951   0.554   0.704  16.060 -0.1176  0.0891 -0.4104
 7830SOL    HW134952   0.622   0.758  16.019 -1.3470  0.7524 -1.5509
 7830SOL    HW234953   0.601   0.665  16.134 -1.4432  0.0782  0.4247
 7831SOL     OW34954   1.045   4.126   2.309 -0.1653 -0.3380 -0.2005
 7831SOL    HW134955   1.050   4.034   2.283 -0.7067 -0.3914 -0.0963
 7831SOL    HW234956   0.959   4.159   2.284  0.6836  1.6559 -0.4938
 7832SOL     OW34957   4.548   4.027  13.945  0.1927  0.5494  0.4714
 7832SOL    HW134958   4.640   4.046  13.964  0.2523  1.8838 -1.1034
 7832SOL    HW234959   4.512   4.097  14.000  0.5082  1.7106 -0.7921
 7833SOL     OW34960   0.810   0.673   7.964  0.0542  0.2599  0.7128
 7833SOL    HW134961   0.749   0.641   7.897  0.6973  0.9986 -0.2162
 7833SOL    HW234962   0.750   0.711   8.029  0.4098  0.5305  0.8799
 7834SOL     OW34963   0.107   0.755  10.571 -0.0249 -0.0731 -0.1688
 7834SOL    HW134964   0.196   0.791  10.564 -0.1801  0.3514  0.0450
 7834SOL    HW234965   0.062   0.833  10.539  0.5050 -1.4172 -4.1977
 7835SOL     OW34966   3.658   0.768   7.108 -0.3319 -0.2493  0.2957
 7835SOL    HW134967   3.564   0.767   7.129 -0.2077  1.8981  0.9333
 7835SOL    HW234968   3.651   0.817   7.027  1.9786 -0.8959 -0.2802
 7836SOL     OW34969   1.414   3.663   6.416 -0.2186 -0.3568  0.8321
 7836SOL    HW134970   1.415   3.717   6.337  1.3660 -1.0031  0.4061
 7836SOL    HW234971   1.392   3.579   6.376 -0.5731 -0.9074  2.1708
 7837SOL     OW34972   2.807   4.061   6.091 -0.3273 -0.0448  0.1022
 7837SOL    HW134973   2.768   4.077   6.005 -2.2054 -0.1289  0.9285
 7837SOL    HW234974   2.891   4.107   6.095 -0.6691  0.5672  0.2953
 7838SOL     OW34975   1.578   2.224   9.596 -0.1295  0.2325 -0.2727
 7838SOL    HW134976   1.491   2.265   9.596  0.6416  1.8394 -1.9339
 7838SOL    HW234977   1.635   2.288   9.636 -0.5195  0.2768  0.2098
 7839SOL     OW34978   3.243   4.513   4.399  0.2973 -0.2610  0.0171
 7839SOL    HW134979   3.169   4.481   4.449  0.5465  1.3626  1.4286
 7839SOL    HW234980   3.282   4.437   4.355 -0.5312 -0.2911 -0.6658
 7840SOL     OW34981   0.418   4.244   7.375  0.1699 -0.0653  0.3215
 7840SOL    HW134982   0.415   4.291   7.291  1.3149 -2.1979 -0.9257
 7840SOL    HW234983   0.392   4.317   7.431 -1.0130 -0.8560  0.7915
 7841SOL     OW34984   4.706   2.879   3.431 -0.5479 -0.0156 -0.1094
 7841SOL    HW134985   0.034   2.931   3.368  0.3551 -1.0070 -0.2140
 7841SOL    HW234986   4.674   2.945   3.493  1.6885  1.6454 -0.7060
 7842SOL     OW34987   0.830   2.714   6.775 -0.5808  0.4478 -0.6077
 7842SOL    HW134988   0.735   2.728   6.776 -0.8363 -1.4482  1.5948
 7842SOL    HW234989   0.852   2.707   6.868 -0.8574  1.2023 -0.4844
 7843SOL     OW34990   3.891   2.044   2.050 -0.2411  0.1494 -0.2376
 7843SOL    HW134991   3.870   1.986   2.123 -0.5597  1.6805  0.8706
 7843SOL    HW234992   3.982   2.015   2.036  0.4580  2.3178 -0.1755
 7844SOL     OW34993   1.622   4.284   4.913 -0.6397  0.5315  0.2777
 7844SOL    HW134994   1.636   4.254   5.003  0.1414 -0.0605 -0.0450
 7844SOL    HW234995   1.593   4.374   4.931 -1.3498  0.7037 -1.7974
 7845SOL     OW34996   0.701   4.693   4.727  0.1101  0.1998  0.5555
 7845SOL    HW134997   0.624   4.689   4.671 -0.4705  0.7293  1.3227
 7845SOL    HW234998   0.706   4.598   4.739 -1.5477 -0.0477 -0.8072
 7846SOL     OW34999   3.098   4.601   7.001  0.2846 -0.0655 -0.3768
 7846SOL    HW135000   3.117   4.690   7.030  0.8023 -0.3460  0.1481
 7846SOL    HW235001   3.064   4.574   7.086  1.2345  0.9896  0.3317
 7847SOL     OW35002   3.749   4.697   6.564  0.5126  0.0107  0.3126
 7847SOL    HW135003   3.712   0.060   6.541  0.0818 -1.1424 -3.2180
 7847SOL    HW235004   3.670   4.650   6.590  0.1999  1.1855  1.4968
 7848SOL     OW35005   3.559   2.859   6.833  0.4975  0.7992 -0.1392
 7848SOL    HW135006   3.513   2.904   6.904  0.1530 -0.3253  0.3619
 7848SOL    HW235007   3.481   2.825   6.788 -0.4131  1.6811  0.7648
 7849SOL     OW35008   3.709   2.942  14.221 -0.4237  0.2738 -0.1076
 7849SOL    HW135009   3.793   2.965  14.260  0.3468  1.0622 -2.2621
 7849SOL    HW235010   3.735   2.958  14.130  2.6049 -2.2940  0.3164
 7850SOL     OW35011   0.427   2.235   8.892  0.1130 -0.3237 -0.1538
 7850SOL    HW135012   0.377   2.286   8.829 -0.1313 -0.1967  0.1405
 7850SOL    HW235013   0.442   2.293   8.967 -1.4510  1.5807 -1.3331
 7851SOL     OW35014   3.830   3.951   9.088  0.0357 -0.4672  0.9389
 7851SOL    HW135015   3.792   3.950   9.000 -0.6268 -3.5823  1.2668
 7851SOL    HW235016   3.851   4.044   9.093 -0.7960 -0.2048 -0.5200
 7852SOL     OW35017   4.052   4.054   4.252  0.1143 -0.2138  0.0724
 7852SOL    HW135018   4.063   4.006   4.333 -1.5380  0.0665  0.4671
 7852SOL    HW235019   4.072   3.992   4.181  0.3805  0.3912 -0.3816
 7853SOL     OW35020   4.463   4.150  16.111 -0.1602  0.9764  0.4126
 7853SOL    HW135021   4.460   4.184  16.022  2.0382 -0.4127 -0.1828
 7853SOL    HW235022   4.404   4.075  16.101 -0.0349  0.8522  0.5949
 7854SOL     OW35023   3.446   0.720   8.890 -0.9672 -0.7767 -0.1929
 7854SOL    HW135024   3.373   0.762   8.937  0.0675 -2.3688  2.8163
 7854SOL    HW235025   3.424   0.756   8.804 -0.6416  1.4613  0.6469
 7855SOL     OW35026   3.512   1.809   8.826 -0.3071 -0.0156 -0.3320
 7855SOL    HW135027   3.477   1.767   8.905 -0.0912  1.9026  0.7837
 7855SOL    HW235028   3.426   1.836   8.792 -0.1059 -0.3372 -1.0880
 7856SOL     OW35029   1.431   2.635   0.221 -0.0923  0.2557 -0.5040
 7856SOL    HW135030   1.357   2.692   0.241 -0.8498 -0.6783 -0.6070
 7856SOL    HW235031   1.503   2.698   0.214  1.7608 -1.6539  1.2120
 7857SOL     OW35032   0.271   4.421  11.672  0.8785 -1.1058  0.2162
 7857SOL    HW135033   0.283   4.373  11.591 -0.8818  1.1934 -1.4114
 7857SOL    HW235034   0.360   4.440  11.703  0.9961  0.7640 -1.2741
 7858SOL     OW35035   0.539   0.243  15.952 -0.3288  0.2403  0.3219
 7858SOL    HW135036   0.544   0.154  15.917  1.9468  0.5339 -0.1254
 7858SOL    HW235037   0.612   0.288  15.908 -1.8258  0.2394 -2.1945
 7859SOL     OW35038   3.187   3.696  15.293 -0.3095  0.2267  0.1527
 7859SOL    HW135039   3.170   3.606  15.266  0.7681  0.1971 -0.4174
 7859SOL    HW235040   3.248   3.684  15.365 -0.0105  2.1927  0.2408
 7860SOL     OW35041   1.225   4.019   8.422  0.1510 -0.3845  0.3114
 7860SOL    HW135042   1.156   3.957   8.447 -0.0486 -0.8116 -1.3151
 7860SOL    HW235043   1.302   3.966   8.443 -0.7310 -1.9823 -0.4192
 7861SOL     OW35044   0.004   0.316  13.593  0.0985 -0.6587 -0.0136
 7861SOL    HW135045   0.084   0.299  13.644 -1.1771 -0.8482  1.9426
 7861SOL    HW235046   4.685   0.364  13.665 -3.6533 -1.4244 -1.6310
 7862SOL     OW35047   1.221   2.394   3.723 -0.4953 -0.4059 -0.1020
 7862SOL    HW135048   1.245   2.310   3.762 -1.1169 -0.7417 -0.4311
 7862SOL    HW235049   1.263   2.454   3.783 -0.8004  0.5579 -0.8533
 7863SOL     OW35050   2.287   0.563  15.387  0.0892 -0.2631  0.1440
 7863SOL    HW135051   2.226   0.632  15.415 -2.1379 -2.0085 -0.3833
 7863SOL    HW235052   2.286   0.507  15.464 -2.6285 -1.1886 -0.5592
 7864SOL     OW35053   4.116   2.368   7.080 -0.3735  0.4066  0.4579
 7864SOL    HW135054   4.034   2.418   7.080 -0.0463  0.9134 -2.6091
 7864SOL    HW235055   4.100   2.318   7.001  2.6799  1.7467 -1.0227
 7865SOL     OW35056   1.151   1.090   8.064  0.3361  0.1922  0.4240
 7865SOL    HW135057   1.056   1.082   8.076  0.1029  2.6261  0.0856
 7865SOL    HW235058   1.161   1.185   8.066  2.4319 -0.0143  0.1802
 7866SOL     OW35059   4.373   0.347   1.806  0.1116 -0.4651  0.1280
 7866SOL    HW135060   4.416   0.381   1.727 -1.3747 -1.1335 -0.9443
 7866SOL    HW235061   4.300   0.317   1.753 -2.8180  1.5738  3.0310
 7867SOL     OW35062   3.375   3.173   2.243 -0.2978 -0.5196 -0.0767
 7867SOL    HW135063   3.407   3.222   2.168 -1.3146  1.2289  0.6340
 7867SOL    HW235064   3.359   3.086   2.205 -0.1481 -1.2728  1.5775
 7868SOL     OW35065   0.249   1.542   2.516 -0.3124  0.0922  0.2773
 7868SOL    HW135066   0.334   1.577   2.489 -0.3320  0.6041  0.8842
 7868SOL    HW235067   0.247   1.574   2.606 -1.6776  0.7975  0.0143
 7869SOL     OW35068   0.116   0.190   2.718 -0.2192  0.2523 -0.5009
 7869SOL    HW135069   0.091   0.100   2.737 -2.3239  1.0160  0.3145
 7869SOL    HW235070   0.097   0.207   2.626  2.4616 -0.3645 -1.1923
 7870SOL     OW35071   0.711   4.120   7.701 -0.2164 -0.2359 -0.1760
 7870SOL    HW135072   0.689   4.116   7.608  0.5490 -1.3964 -0.3119
 7870SOL    HW235073   0.636   4.090   7.753 -2.9926  1.3283 -3.3055
 7871SOL     OW35074   4.004   1.681   8.882  0.2712  0.0790  0.7230
 7871SOL    HW135075   3.910   1.679   8.862  0.2305 -1.4494  1.0724
 7871SOL    HW235076   4.051   1.692   8.799  1.5134  1.8615  1.6718
 7872SOL     OW35077   2.695   2.526   2.868 -0.5487  0.1183 -0.1646
 7872SOL    HW135078   2.685   2.472   2.790  1.6340  0.7945 -0.8905
 7872SOL    HW235079   2.620   2.585   2.862 -0.0623  0.6002 -1.3890
 7873SOL     OW35080   3.202   3.398   3.037 -0.0947  0.8308 -0.9740
 7873SOL    HW135081   3.297   3.407   3.034  0.0597  0.4257  2.9686
 7873SOL    HW235082   3.188   3.323   3.094  0.0449  2.8131  1.6918
 7874SOL     OW35083   3.869   1.408   4.949 -0.3588 -0.3414  0.1987
 7874SOL    HW135084   3.775   1.408   4.933 -0.5329  1.3042  1.1626
 7874SOL    HW235085   3.867   1.457   5.031  0.7856 -1.1557  0.7093
 7875SOL     OW35086   2.071   0.592  12.257  0.2368  0.3010  0.3821
 7875SOL    HW135087   1.987   0.599  12.211  1.2638  3.5015 -1.0494
 7875SOL    HW235088   2.135   0.599  12.186 -0.9466 -3.5152 -1.0357
 7876SOL     OW35089   1.564   2.153   2.412 -0.4549 -0.8225  0.2007
 7876SOL    HW135090   1.560   2.248   2.422  0.2623 -0.7264 -0.4158
 7876SOL    HW235091   1.651   2.129   2.444 -1.3352 -1.7060  1.9735
 7877SOL     OW35092   0.090   3.531   5.727 -0.0384  0.1564  0.3846
 7877SOL    HW135093   0.114   3.438   5.719  0.0203  0.3895 -2.2077
 7877SOL    HW235094   0.113   3.544   5.819  3.2212 -1.9121 -0.1272
 7878SOL     OW35095   1.407   4.699   3.720  0.7662 -0.2959  0.1729
 7878SOL    HW135096   1.362   4.617   3.739  1.1469 -0.6362 -0.4050
 7878SOL    HW235097   1.499   4.675   3.716  0.8912  0.9041 -3.9347
 7879SOL     OW35098   2.953   0.172   8.521  0.5510 -0.4147 -0.2211
 7879SOL    HW135099   3.029   0.164   8.463  0.0047  1.2655 -1.1857
 7879SOL    HW235100   2.993   0.201   8.603 -0.2197 -0.2507  0.0977
 7880SOL     OW35101   4.154   0.102   8.160 -0.2141 -0.0710 -0.0869
 7880SOL    HW135102   4.127   0.148   8.080  3.5814  0.4591 -1.0659
 7880SOL    HW235103   4.234   0.057   8.133 -0.0234  1.5781 -2.2589
 7881SOL     OW35104   4.162   1.288   6.274  0.2091 -0.1204 -0.2072
 7881SOL    HW135105   4.156   1.382   6.293  0.7316 -0.2504  0.6150
 7881SOL    HW235106   4.158   1.258   6.364 -3.6033  0.1808 -0.2751
 7882SOL     OW35107   1.968   4.160  11.010  0.2237 -0.2127 -0.1963
 7882SOL    HW135108   2.051   4.205  11.026 -0.5440  0.8072  0.8884
 7882SOL    HW235109   1.924   4.179  11.092  2.3788 -0.2952  0.9761
 7883SOL     OW35110   3.609   2.666   0.023 -0.6181  0.0360 -0.2143
 7883SOL    HW135111   3.685   2.687   0.078 -1.6749  1.8356  0.5536
 7883SOL    HW235112   3.647   2.691  17.629 -2.6449 -0.4032 -1.2439
 7884SOL     OW35113   4.094   0.016  14.438 -0.2422  0.1735 -0.3914
 7884SOL    HW135114   4.115   4.659  14.488  0.4650 -0.1429 -1.1866
 7884SOL    HW235115   4.175   0.063  14.459 -0.8031  0.9906 -0.0748
 7885SOL     OW35116   3.187   1.936   3.121  0.0765 -0.2987  0.3560
 7885SOL    HW135117   3.167   2.012   3.066  1.6935 -1.3013 -1.5936
 7885SOL    HW235118   3.139   1.960   3.200  1.2243  2.3850  0.2353
 7886SOL     OW35119   2.050   1.566  11.707 -0.1687 -0.3685 -0.0657
 7886SOL    HW135120   2.095   1.651  11.711 -0.5749 -0.1314 -0.4641
 7886SOL    HW235121   2.136   1.525  11.701  0.4425  0.9709 -0.6099
 7887SOL     OW35122   3.001   0.198   2.907  0.6146 -0.4602  1.1873
 7887SOL    HW135123   2.999   0.286   2.868  2.9494 -0.7548  0.3745
 7887SOL    HW235124   3.086   0.199   2.952  0.6030  3.2111  1.1730
 7888SOL     OW35125   1.518   0.538  14.505 -0.1631 -0.0978 -0.3960
 7888SOL    HW135126   1.486   0.576  14.587  1.2659 -0.0107  0.1041
 7888SOL    HW235127   1.609   0.564  14.498 -0.3669  1.3138  2.2784
 7889SOL     OW35128   2.727   2.199   2.392 -0.5322  0.2214 -0.1765
 7889SOL    HW135129   2.820   2.178   2.386 -0.4136  0.3722  1.0804
 7889SOL    HW235130   2.700   2.192   2.301 -0.3209  0.4952 -0.2618
 7890SOL     OW35131   4.288   2.411   2.674  0.3217  0.3644 -0.1191
 7890SOL    HW135132   4.237   2.489   2.653 -1.2666 -0.4501  0.6794
 7890SOL    HW235133   4.292   2.357   2.595  0.8022  1.3689 -0.7767
 7891SOL     OW35134   0.425   2.930   8.643  0.6939  0.8598 -0.1335
 7891SOL    HW135135   0.490   2.860   8.645  0.6209  0.8396  1.4354
 7891SOL    HW235136   0.349   2.877   8.621  1.7359 -0.3211 -0.8880
 7892SOL     OW35137   2.524   2.687   1.971 -0.2769 -0.0804  0.3081
 7892SOL    HW135138   2.614   2.703   1.945 -1.1272  0.1122 -2.4961
 7892SOL    HW235139   2.519   2.592   1.979  0.5485 -0.2586 -1.3883
 7893SOL     OW35140   3.099   0.863   2.601  0.1575  0.3936  0.2995
 7893SOL    HW135141   3.085   0.926   2.672 -1.5056 -1.2193  1.3963
 7893SOL    HW235142   3.033   0.797   2.622 -0.8627  2.3408  3.1975
 7894SOL     OW35143   1.945   1.225   7.434  0.2392 -0.0105 -0.1338
 7894SOL    HW135144   1.940   1.314   7.398  0.0991 -0.6668 -1.7630
 7894SOL    HW235145   2.024   1.193   7.389  0.1036  1.2481 -1.2706
 7895SOL     OW35146   2.762   2.964   7.626 -0.0537  0.0071  0.0509
 7895SOL    HW135147   2.689   2.960   7.687  0.5717 -0.0033  0.7874
 7895SOL    HW235148   2.774   2.874   7.594 -0.6078  0.0048 -0.1499
 7896SOL     OW35149   2.578   2.267   7.529  0.1729  0.0173 -0.2284
 7896SOL    HW135150   2.611   2.304   7.447  0.2352  0.5253  0.0233
 7896SOL    HW235151   2.557   2.346   7.580  0.6472  0.0869 -0.1408
 7897SOL     OW35152   2.339   3.718   7.402  0.1315  0.1427 -0.4112
 7897SOL    HW135153   2.423   3.684   7.436  0.8794  3.2341  0.8383
 7897SOL    HW235154   2.323   3.695   7.311 -0.8084 -0.7927 -0.0080
 7898SOL     OW35155   1.866   4.502   3.929 -0.3196  0.1221 -0.9318
 7898SOL    HW135156   1.867   4.487   4.024 -0.2465  0.1700 -0.9256
 7898SOL    HW235157   1.808   4.578   3.922  1.0266  1.0234 -2.1438
 7899SOL     OW35158   0.952   4.362  10.679  0.0352 -0.6839 -0.1084
 7899SOL    HW135159   1.046   4.365  10.697 -0.3198  3.6666  1.1539
 7899SOL    HW235160   0.931   4.454  10.660 -0.6875 -0.7820  0.2076
 7900SOL     OW35161   3.463   1.063   2.361 -0.3509  0.1164 -0.1463
 7900SOL    HW135162   3.536   1.096   2.310 -1.6031  1.0688 -1.2872
 7900SOL    HW235163   3.424   1.148   2.381 -0.4418 -0.1292  0.7480
 7901SOL     OW35164   3.074   2.911   7.086  0.5976  0.2528  0.3189
 7901SOL    HW135165   2.982   2.922   7.061  0.3996  0.1716  0.9917
 7901SOL    HW235166   3.104   2.880   7.001  1.7723  1.5148  0.2780
 7902SOL     OW35167   1.489   4.040  13.536  0.1465 -0.3341  0.3243
 7902SOL    HW135168   1.574   3.998  13.524 -0.9330 -1.9023 -1.8665
 7902SOL    HW235169   1.433   3.962  13.529  2.0229 -1.4525 -2.1940
 7903SOL     OW35170   4.389   0.206   8.298  0.1209 -0.1044 -0.8686
 7903SOL    HW135171   4.304   0.206   8.253 -0.3100 -2.4212 -0.0065
 7903SOL    HW235172   4.399   0.115   8.325 -2.5749  0.2200  1.2676
 7904SOL     OW35173   4.534   0.838   3.355 -0.8405 -0.3493  0.2715
 7904SOL    HW135174   4.459   0.778   3.360 -1.0138  0.0671  2.5498
 7904SOL    HW235175   4.585   0.785   3.416 -0.6792  3.7806  3.6877
 7905SOL     OW35176   4.164   3.791   2.805  0.4461 -0.3829 -0.0346
 7905SOL    HW135177   4.170   3.748   2.720  2.3368 -2.4629  1.1645
 7905SOL    HW235178   4.133   3.878   2.778  2.6613 -0.1000 -1.6403
 7906SOL     OW35179   2.770   2.873   2.917 -0.6384 -0.4575 -0.1093
 7906SOL    HW135180   2.770   2.940   2.986 -2.7385  0.1077 -0.6596
 7906SOL    HW235181   2.678   2.848   2.909 -0.3124 -1.0772 -1.9359
 7907SOL     OW35182   0.228   4.006   0.374 -0.0161  0.6728 -0.2176
 7907SOL    HW135183   0.167   3.942   0.337  2.7110 -1.2156 -1.4403
 7907SOL    HW235184   0.193   4.005   0.463 -1.6118 -1.6989 -0.8693
 7908SOL     OW35185   1.972   4.122  12.587 -0.2598  0.4514 -0.0904
 7908SOL    HW135186   2.030   4.060  12.543  0.3085  0.8142  0.1436
 7908SOL    HW235187   1.996   4.204  12.545 -0.6999  0.7914  0.3211
 7909SOL     OW35188   4.410   4.107   5.370 -0.0464 -0.2059  0.2849
 7909SOL    HW135189   4.328   4.114   5.323  0.7734  3.9176 -0.5437
 7909SOL    HW235190   4.459   4.072   5.296 -1.5211  2.3057 -1.8450
 7910SOL     OW35191   3.030   0.189   8.015  0.6586 -0.2658  0.3809
 7910SOL    HW135192   2.988   0.220   7.934 -0.0110 -0.9555  0.4650
 7910SOL    HW235193   2.964   0.131   8.052  2.4221 -1.4882  1.5935
 7911SOL     OW35194   4.244   1.079  12.850  0.0379  0.3796  0.0314
 7911SOL    HW135195   4.322   1.051  12.898  0.0473 -0.8523 -0.6965
 7911SOL    HW235196   4.283   1.104  12.767 -0.5791 -1.4643 -0.8226
 7912SOL     OW35197   0.537   0.292   7.693  0.1260 -0.3457  0.1239
 7912SOL    HW135198   0.560   0.317   7.603 -2.3799  0.5693 -0.2546
 7912SOL    HW235199   0.467   0.356   7.709  1.1767  1.7860 -3.7062
 7913SOL     OW35200   3.590   2.178   4.472 -0.4278 -0.4464 -0.2421
 7913SOL    HW135201   3.512   2.232   4.490 -0.6521 -0.6556 -0.5901
 7913SOL    HW235202   3.652   2.246   4.447 -0.4742 -0.4888 -0.4664
 7914SOL     OW35203   4.675   1.255   4.868 -0.2084 -0.2777 -0.5736
 7914SOL    HW135204   4.606   1.264   4.802  1.2184 -0.3824 -2.0932
 7914SOL    HW235205   4.623   1.225   4.942  1.2581 -0.1456  0.5076
 7915SOL     OW35206   1.292   0.905   2.973  0.0982  0.0935 -0.3477
 7915SOL    HW135207   1.294   0.907   2.878  0.7023 -0.5162 -0.3469
 7915SOL    HW235208   1.220   0.849   3.002  0.3965 -0.0017  0.2160
 7916SOL     OW35209   4.453   1.686   3.697  0.5493  0.4341  0.0593
 7916SOL    HW135210   4.447   1.617   3.631 -0.9531 -0.5334  1.2056
 7916SOL    HW235211   4.518   1.644   3.753  1.8795 -0.5682 -2.2515
 7917SOL     OW35212   2.583   0.843   3.467  0.3751 -0.1709  0.3570
 7917SOL    HW135213   2.564   0.756   3.503  0.5141 -0.8063 -1.0758
 7917SOL    HW235214   2.677   0.852   3.483  0.6277 -0.8939 -0.6916
 7918SOL     OW35215   0.572   4.401   3.639  0.1995 -0.0554  0.2253
 7918SOL    HW135216   0.539   4.367   3.556 -0.1152 -0.2666  0.4361
 7918SOL    HW235217   0.650   4.448   3.609 -0.7004  0.5696 -1.0670
 7919SOL     OW35218   3.033   3.738   8.442 -0.2427 -0.3443 -0.0405
 7919SOL    HW135219   3.083   3.806   8.487 -0.9519  0.9445 -1.1832
 7919SOL    HW235220   2.962   3.734   8.505 -1.2982  0.6761 -1.1696
 7920SOL     OW35221   1.991   2.091  12.847  0.4059 -0.1585 -0.6238
 7920SOL    HW135222   2.023   2.051  12.928 -2.2589  2.4361  1.7432
 7920SOL    HW235223   2.053   2.164  12.837 -1.2256  1.5778  1.9079
 7921SOL     OW35224   2.175   0.579   1.458 -1.1236 -0.2612  0.5750
 7921SOL    HW135225   2.133   0.541   1.381 -0.7029  0.8470 -0.1978
 7921SOL    HW235226   2.209   0.661   1.422  0.2048 -0.8567  0.4758
 7922SOL     OW35227   3.483   0.021   4.386 -0.1180  0.3646 -0.4780
 7922SOL    HW135228   3.569   4.719   4.421 -0.7110 -0.0061  0.7055
 7922SOL    HW235229   3.496   0.003   4.293  1.8018  1.5997 -0.4515
 7923SOL     OW35230   2.158   2.407  11.188  0.0455  0.3689  0.4420
 7923SOL    HW135231   2.071   2.367  11.192 -0.4333  1.4893  1.2013
 7923SOL    HW235232   2.128   2.496  11.206 -1.7427  0.0638 -1.0414
 7924SOL     OW35233   0.186   2.149  13.951  0.1795  0.0685 -0.2154
 7924SOL    HW135234   0.125   2.195  14.009 -1.3658  0.0743 -1.8239
 7924SOL    HW235235   0.263   2.127  14.002  0.8835 -2.3818 -2.3575
 7925SOL     OW35236   1.149   0.515  15.074 -0.2278  0.1573  0.3805
 7925SOL    HW135237   1.156   0.610  15.085 -1.9108  0.4797 -1.3346
 7925SOL    HW235238   1.173   0.485  15.162  0.8145  1.6818  0.6249
 7926SOL     OW35239   2.922   3.733   0.399 -0.1097 -0.2890  0.2416
 7926SOL    HW135240   2.953   3.661   0.455 -3.1486 -2.1820 -0.5113
 7926SOL    HW235241   2.996   3.753   0.342 -2.1637 -1.5015 -2.8277
 7927SOL     OW35242   3.087   1.687  14.615  0.6302  0.5011 -0.2601
 7927SOL    HW135243   3.122   1.700  14.703 -0.6710  1.0753  0.1629
 7927SOL    HW235244   3.086   1.777  14.582 -1.3477 -0.0141 -1.5828
 7928SOL     OW35245   1.998   3.572   4.112  0.2411  0.5614 -0.3052
 7928SOL    HW135246   1.941   3.637   4.153  0.4516  0.1700  0.6063
 7928SOL    HW235247   1.983   3.596   4.021  1.3876  0.5617 -0.4901
 7929SOL     OW35248   4.499   0.553   2.076  0.4769 -0.2745 -0.1235
 7929SOL    HW135249   4.575   0.583   2.027  0.0559  1.5291  0.3137
 7929SOL    HW235250   4.535   0.468   2.100  0.6922  0.7091  3.0120
 7930SOL     OW35251   1.345   0.660  16.198  0.5440  0.0207  0.2422
 7930SOL    HW135252   1.257   0.696  16.209 -0.3496 -2.2090  0.2010
 7930SOL    HW235253   1.368   0.708  16.118 -1.4645  1.5555  0.6007
 7931SOL     OW35254   3.469   4.420   7.172  0.0917 -0.2750 -0.4810
 7931SOL    HW135255   3.497   4.510   7.184  1.4500 -0.9337  1.2206
 7931SOL    HW235256   3.383   4.427   7.214  1.1830  2.8170  1.2018
 7932SOL     OW35257   2.339   1.768   6.747 -0.0415  0.4195  0.4988
 7932SOL    HW135258   2.403   1.697   6.741  0.1036  0.4801  1.3745
 7932SOL    HW235259   2.363   1.819   6.669  1.2377 -0.6331  0.2022
 7933SOL     OW35260   1.561   3.409  15.241 -0.2504  0.0316  0.4581
 7933SOL    HW135261   1.580   3.372  15.327 -0.4086  1.0733  0.9381
 7933SOL    HW235262   1.610   3.352  15.182 -1.2586 -0.1259 -0.2306
 7934SOL     OW35263   2.787   0.691  16.503 -0.7957 -0.7209  0.4232
 7934SOL    HW135264   2.873   0.664  16.469 -0.8926 -0.0017 -0.4008
 7934SOL    HW235265   2.794   0.648  16.588 -1.3638 -1.4200  0.1198
 7935SOL     OW35266   0.947   3.995  11.124  0.0736  0.1440 -0.0364
 7935SOL    HW135267   1.007   3.945  11.181  1.4289  0.0731 -1.5284
 7935SOL    HW235268   0.879   3.931  11.102 -0.1004  0.6397 -0.9210
 7936SOL     OW35269   3.009   1.285   3.306  0.0350 -0.4964 -0.3126
 7936SOL    HW135270   3.041   1.227   3.238  1.1066  1.6648 -1.6217
 7936SOL    HW235271   2.916   1.303   3.291  0.8668  3.8622 -0.1183
 7937SOL     OW35272   0.403   2.303   4.606  0.1441 -0.1626  0.5497
 7937SOL    HW135273   0.457   2.267   4.677  0.8757 -1.4372 -0.6677
 7937SOL    HW235274   0.467   2.324   4.539  0.6956 -0.8220  0.8719
 7938SOL     OW35275   1.438   1.319   1.982  0.3681  0.0761 -0.4285
 7938SOL    HW135276   1.366   1.379   1.998  0.4669  0.0659  0.0490
 7938SOL    HW235277   1.469   1.310   2.072 -0.7755  0.5916  0.0162
 7939SOL     OW35278   1.572   1.845   5.858 -0.2155  0.1254 -0.1611
 7939SOL    HW135279   1.491   1.892   5.838 -0.1048  0.0962 -0.6904
 7939SOL    HW235280   1.557   1.822   5.950  0.8529  0.9185  0.1999
 7940SOL     OW35281   2.768   2.658  13.805  0.1544  0.6556  0.0526
 7940SOL    HW135282   2.676   2.632  13.812 -0.1673  1.8910  0.5121
 7940SOL    HW235283   2.825   2.585  13.827 -1.3061 -0.0066  1.5587
 7941SOL     OW35284   4.223   3.754   0.668  0.3635 -0.6611 -0.6093
 7941SOL    HW135285   4.223   3.703   0.587 -0.2978 -3.6476  1.3069
 7941SOL    HW235286   4.252   3.695   0.738 -1.3777 -1.5800 -0.6636
 7942SOL     OW35287   1.954   0.941  11.105  0.0483 -0.4435 -0.0731
 7942SOL    HW135288   2.024   0.890  11.065  0.4824 -0.6218  0.9069
 7942SOL    HW235289   1.904   0.964  11.026 -0.5216  1.0185  0.7042
 7943SOL     OW35290   0.533   3.013   3.170  0.0952 -0.1472 -0.3222
 7943SOL    HW135291   0.574   3.098   3.181  0.1429 -0.2678  0.4355
 7943SOL    HW235292   0.554   2.975   3.256  0.4195  1.8225  0.4522
 7944SOL     OW35293   1.317   0.969   2.671 -0.8307 -0.2690 -0.0887
 7944SOL    HW135294   1.359   0.985   2.587  1.2996 -4.2509  0.1988
 7944SOL    HW235295   1.321   0.873   2.670  4.1794 -0.0775  0.3296
 7945SOL     OW35296   2.537   1.844   9.275 -0.0048 -0.0779 -0.5370
 7945SOL    HW135297   2.600   1.779   9.244 -0.4483 -1.4594  1.4480
 7945SOL    HW235298   2.576   1.894   9.347  0.0287 -2.3392  1.0259
 7946SOL     OW35299   1.613   0.004  14.328  0.0316 -0.3557 -0.1993
 7946SOL    HW135300   1.529   4.683  14.316  0.0458 -0.2277 -0.7728
 7946SOL    HW235301   1.577   0.091  14.346 -0.1293 -0.8702  1.9334
 7947SOL     OW35302   2.825   0.407  14.111 -0.1889  0.3776  0.2204
 7947SOL    HW135303   2.743   0.421  14.158 -0.2264 -0.2161  0.3244
 7947SOL    HW235304   2.795   0.417  14.021  3.8035  1.5056 -1.0083
 7948SOL     OW35305   0.131   1.815   6.277  0.1251 -0.0149  0.1601
 7948SOL    HW135306   0.175   1.730   6.280  0.1941  0.0450  0.9584
 7948SOL    HW235307   0.146   1.831   6.184 -0.8085  0.7391  0.1414
 7949SOL     OW35308   0.857   4.414   6.542 -0.0566  0.1340 -0.0954
 7949SOL    HW135309   0.813   4.329   6.537 -0.3226  0.4159 -2.8909
 7949SOL    HW235310   0.944   4.383   6.564 -0.1682 -1.0877 -1.3599
 7950SOL     OW35311   3.309   3.926   7.337 -0.9697 -0.5162 -0.4965
 7950SOL    HW135312   3.398   3.901   7.310  0.1322  1.2820  1.4261
 7950SOL    HW235313   3.255   3.853   7.305 -2.3570  0.1168  0.4063
 7951SOL     OW35314   2.701   3.241   1.074  0.2984 -0.3122  0.7795
 7951SOL    HW135315   2.762   3.314   1.074  2.1578 -1.8559 -0.6744
 7951SOL    HW235316   2.682   3.244   1.167  0.1879  1.0570  0.7111
 7952SOL     OW35317   0.171   2.374   8.817  0.4298  0.4929  0.4274
 7952SOL    HW135318   0.123   2.437   8.763  1.5621  2.9579  2.2624
 7952SOL    HW235319   0.183   2.427   8.896 -1.0424 -2.1425  2.4155
 7953SOL     OW35320   1.796   2.882   2.214 -0.0040 -0.2597  0.3981
 7953SOL    HW135321   1.727   2.816   2.207 -0.3311  0.0557  0.6031
 7953SOL    HW235322   1.755   2.953   2.263  0.9862  0.8075 -0.3142
 7954SOL     OW35323   2.580   0.634   2.831  0.6651  0.4605  0.0332
 7954SOL    HW135324   2.532   0.662   2.909 -0.1289  0.6431 -0.5168
 7954SOL    HW235325   2.598   0.545   2.861  1.6274  0.3320 -0.9292
 7955SOL     OW35326   3.556   0.632   1.733 -0.4546  0.1332 -0.0197
 7955SOL    HW135327   3.568   0.625   1.828 -0.8477 -0.8443 -0.0387
 7955SOL    HW235328   3.651   0.640   1.718 -0.4251  1.2204  0.7730
 7956SOL     OW35329   2.047   0.654   5.234  0.7843  0.1925  0.3741
 7956SOL    HW135330   2.069   0.701   5.154 -0.1085 -1.6666 -0.9579
 7956SOL    HW235331   2.111   0.583   5.240  1.3029  0.5827 -0.5623
 7957SOL     OW35332   2.617   2.634   6.118  0.0934  0.2332  0.1874
 7957SOL    HW135333   2.557   2.599   6.184  1.7438 -2.9582  0.0019
 7957SOL    HW235334   2.561   2.708   6.094 -0.2598  0.3688  1.3927
 7958SOL     OW35335   2.591   2.396   2.570  0.0041  0.3256 -0.1814
 7958SOL    HW135336   2.522   2.352   2.620  0.8079 -0.4346  0.2618
 7958SOL    HW235337   2.624   2.322   2.518  1.5539  0.3277  0.8185
 7959SOL     OW35338   2.556   0.091   8.548  0.2440  0.9727 -0.3416
 7959SOL    HW135339   2.541   0.004   8.512  0.5820  0.5615  0.5063
 7959SOL    HW235340   2.562   0.065   8.640 -2.3462  0.2141 -0.3973
 7960SOL     OW35341   1.253   0.889   7.421 -0.6414  0.2935 -0.1033
 7960SOL    HW135342   1.291   0.933   7.345 -0.6238  2.5875  1.2245
 7960SOL    HW235343   1.175   0.944   7.420 -1.5172 -0.9463  0.0237
 7961SOL     OW35344   4.043   1.385  11.743  0.3475 -0.6390 -0.1935
 7961SOL    HW135345   3.996   1.468  11.738  1.7383  0.2104  0.8270
 7961SOL    HW235346   4.052   1.368  11.649  0.3009 -1.0230 -0.1289
 7962SOL     OW35347   3.363   1.059   4.183 -1.0431 -0.7554  0.2913
 7962SOL    HW135348   3.308   1.051   4.262  0.7441 -2.0422  1.3935
 7962SOL    HW235349   3.301   1.109   4.129 -0.3795 -0.4804 -0.2095
 7963SOL     OW35350   2.534   0.383   6.314  0.3801 -0.1668  0.0855
 7963SOL    HW135351   2.519   0.472   6.284 -0.4803  0.4502  2.3413
 7963SOL    HW235352   2.619   0.383   6.356  0.9004  0.2950 -0.9611
 7964SOL     OW35353   2.740   0.573   6.049 -0.0671  0.1405 -0.0135
 7964SOL    HW135354   2.782   0.643   5.999  1.8970 -0.8035  0.3110
 7964SOL    HW235355   2.748   0.600   6.140 -1.9364  0.4168  0.0761
 7965SOL     OW35356   3.874   2.836   4.351 -0.3505 -0.1064 -0.0668
 7965SOL    HW135357   3.965   2.852   4.378 -0.6394  0.6527  0.4492
 7965SOL    HW235358   3.862   2.753   4.398 -1.4516 -0.3649 -0.8081
 7966SOL     OW35359   2.569   1.064   3.300 -0.0203  0.7601 -0.3130
 7966SOL    HW135360   2.524   1.136   3.344 -3.6882 -1.5769 -0.2896
 7966SOL    HW235361   2.561   0.995   3.365  0.0372  2.9844  2.0607
 7967SOL     OW35362   3.625   3.583  14.540 -0.2238 -0.2774  0.0372
 7967SOL    HW135363   3.574   3.625  14.470  0.8159  0.7196 -0.1168
 7967SOL    HW235364   3.643   3.650  14.605 -2.0661  0.8159 -0.5850
 7968SOL     OW35365   2.926   2.927   6.248 -0.6183 -0.2280 -0.0414
 7968SOL    HW135366   2.936   2.936   6.153  0.2331 -0.1330  0.0580
 7968SOL    HW235367   2.928   2.834   6.270 -0.9622  0.8070  4.2637
 7969SOL     OW35368   1.183   2.950   1.734 -0.4301  0.0701 -0.4248
 7969SOL    HW135369   1.229   2.987   1.659  0.2712 -1.1544 -0.6054
 7969SOL    HW235370   1.239   2.973   1.808  0.3234  0.6240 -1.1643
 7970SOL     OW35371   3.944   0.479   1.481  0.2385 -0.0465 -0.4660
 7970SOL    HW135372   3.978   0.563   1.450 -1.3347  0.7218 -0.0846
 7970SOL    HW235373   3.877   0.462   1.416  1.3401  0.3862 -1.7270
 7971SOL     OW35374   3.864   1.432  16.160 -0.8146 -0.2302  0.3352
 7971SOL    HW135375   3.842   1.343  16.132 -0.1065  0.1963 -1.5475
 7971SOL    HW235376   3.775   1.464  16.171 -0.9900 -0.7881  0.5481
 7972SOL     OW35377   3.285   1.982  17.451  0.5376  0.1310 -0.0824
 7972SOL    HW135378   3.204   1.996  17.500  0.2010  1.0665 -0.9021
 7972SOL    HW235379   3.262   2.034  17.374  0.8599 -0.5999 -0.6771
 7973SOL     OW35380   3.234   1.366  14.224  0.2192 -0.2240  0.1005
 7973SOL    HW135381   3.324   1.398  14.220  0.9195 -2.2841 -0.5421
 7973SOL    HW235382   3.210   1.388  14.314 -0.8992  0.2090 -0.3083
 7974SOL     OW35383   1.942   1.482   1.338 -0.0526 -0.2649  0.1527
 7974SOL    HW135384   1.929   1.406   1.395 -0.9601  0.5911  1.0898
 7974SOL    HW235385   2.024   1.518   1.372 -0.5545  0.2850  0.7880
 7975SOL     OW35386   4.178   4.150   5.240 -0.4517  0.2706 -1.1918
 7975SOL    HW135387   4.174   4.095   5.161  0.1123 -1.1644 -0.2213
 7975SOL    HW235388   4.087   4.176   5.243 -0.0574  1.3893  0.6446
 7976SOL     OW35389   0.068   2.736   9.163  0.6402  0.2983  0.1606
 7976SOL    HW135390   0.080   2.651   9.120  0.1438 -1.0799  2.7453
 7976SOL    HW235391   0.018   2.785   9.098 -2.0127 -1.2080  1.0580
 7977SOL     OW35392   4.364   0.427  14.777 -0.0866 -0.0678 -0.1936
 7977SOL    HW135393   4.429   0.471  14.832  0.1401 -0.4299 -0.1764
 7977SOL    HW235394   4.417   0.426  14.698  0.1031 -1.5251 -0.0449
 7978SOL     OW35395   4.268   3.405   9.573  0.3495 -0.1406  0.7302
 7978SOL    HW135396   4.309   3.414   9.487  3.0671  0.8421  2.1346
 7978SOL    HW235397   4.179   3.434   9.555 -0.5674 -1.4534  3.1538
 7979SOL     OW35398   0.168   2.138  11.854  0.2827  0.6958 -0.3658
 7979SOL    HW135399   0.110   2.062  11.848  3.6030 -1.8370  0.1244
 7979SOL    HW235400   0.243   2.106  11.804  1.3661  0.5698  1.3253
 7980SOL     OW35401   3.042   4.605  12.538 -0.3108 -0.4245  0.1547
 7980SOL    HW135402   2.951   4.606  12.508 -0.5488 -2.5169  0.8111
 7980SOL    HW235403   3.043   4.686  12.590 -0.8050  1.3460 -2.5785
 7981SOL     OW35404   1.562   1.286   4.995  0.2518 -0.4842  0.3973
 7981SOL    HW135405   1.535   1.208   4.946  0.1216 -1.4358  1.9901
 7981SOL    HW235406   1.481   1.312   5.040 -0.7191 -3.4569  0.3789
 7982SOL     OW35407   2.364   3.451   9.570  0.0305 -0.2094 -0.3476
 7982SOL    HW135408   2.452   3.458   9.606  0.3359 -1.2393 -0.8750
 7982SOL    HW235409   2.365   3.515   9.499 -0.0837  0.1694 -0.0032
 7983SOL     OW35410   0.710   1.186   2.632  0.5121 -0.1791 -0.4554
 7983SOL    HW135411   0.803   1.195   2.651  0.7308  2.6446 -2.8435
 7983SOL    HW235412   0.694   1.102   2.588  0.6117 -0.1445 -0.5586
 7984SOL     OW35413   3.387   3.915   5.630 -0.5531  0.1133 -0.2033
 7984SOL    HW135414   3.328   3.941   5.559 -0.9070 -0.8381 -0.2630
 7984SOL    HW235415   3.320   3.882   5.691  1.1250 -0.3440  1.3998
 7985SOL     OW35416   1.946   1.958   9.602 -0.0445  0.6755  0.0109
 7985SOL    HW135417   1.906   2.029   9.552  1.0262  1.0232 -0.3566
 7985SOL    HW235418   2.030   1.944   9.558  0.3713 -1.3488  1.4471
 7986SOL     OW35419   4.018   1.799   1.789 -0.3602 -0.5691 -0.1370
 7986SOL    HW135420   4.071   1.877   1.771 -0.1457 -1.0110 -1.4222
 7986SOL    HW235421   3.949   1.821   1.726 -0.9034  0.5653  0.8553
 7987SOL     OW35422   2.447   3.804   9.877  0.0586 -0.0038 -0.1864
 7987SOL    HW135423   2.393   3.728   9.858 -2.5600  1.5350  1.0017
 7987SOL    HW235424   2.501   3.806   9.799  1.7858 -2.8123  0.9552
 7988SOL     OW35425   1.162   0.576  17.428  0.1496  0.1215 -0.1697
 7988SOL    HW135426   1.198   0.504  17.376 -1.0659 -0.5500 -0.0702
 7988SOL    HW235427   1.161   0.650  17.368 -0.7307  0.9176  0.8238
 7989SOL     OW35428   2.619   2.493  13.526 -0.0649 -0.4405 -0.2957
 7989SOL    HW135429   2.591   2.584  13.538  0.3825 -0.5840  1.7516
 7989SOL    HW235430   2.703   2.491  13.480 -0.0135  1.0818 -0.2722
 7990SOL     OW35431   3.257   4.715   3.255 -0.6249  0.0173  0.3858
 7990SOL    HW135432   3.242   4.629   3.216  1.8005 -0.4619  0.5031
 7990SOL    HW235433   3.352   0.009   3.247 -0.5724  0.1936  1.3147
 7991SOL     OW35434   2.055   0.669   6.555  0.2395 -0.0829  0.3498
 7991SOL    HW135435   2.047   0.762   6.535 -1.1020 -0.2168  0.2782
 7991SOL    HW235436   2.070   0.628   6.470 -2.2442  0.4255 -0.3206
 7992SOL     OW35437   3.160   4.605   2.845  0.0893 -0.7681 -0.1132
 7992SOL    HW135438   3.087   4.580   2.902 -0.4508  2.0553  0.4159
 7992SOL    HW235439   3.229   4.626   2.908  0.6682  1.0653 -1.3555
 7993SOL     OW35440   0.542   2.354  14.916  0.3329  0.7569 -0.1606
 7993SOL    HW135441   0.560   2.367  14.823 -0.2664 -1.4813 -0.5634
 7993SOL    HW235442   0.458   2.399  14.929  0.1160  0.2463  0.1976
 7994SOL     OW35443   3.974   0.359   9.857  0.2943 -0.3025 -0.0778
 7994SOL    HW135444   4.011   0.280   9.895  0.3329  1.1214  2.8204
 7994SOL    HW235445   3.897   0.376   9.912  1.1256  1.3882  0.5826
 7995SOL     OW35446   4.599   3.652  14.234 -0.2403 -0.2200  0.1804
 7995SOL    HW135447   4.665   3.622  14.171 -0.5972 -1.9715  0.6453
 7995SOL    HW235448   4.554   3.568  14.243 -2.9489  1.2302  0.1007
 7996SOL     OW35449   0.921   0.508   6.334 -0.1644  0.1471 -0.1793
 7996SOL    HW135450   0.980   0.438   6.359 -1.6190 -1.4962 -1.3583
 7996SOL    HW235451   0.977   0.586   6.329 -0.3653  0.3636  1.0097
 7997SOL     OW35452   3.077   2.230   2.105  0.1020  0.5098  0.2988
 7997SOL    HW135453   3.097   2.197   2.017 -1.9664 -1.7488  0.6610
 7997SOL    HW235454   3.015   2.163   2.135 -1.9706  1.8944 -0.9318
 7998SOL     OW35455   0.154   1.900  10.628 -1.1103  0.0592 -0.6620
 7998SOL    HW135456   0.114   1.889  10.542  1.3693 -2.8557 -1.4287
 7998SOL    HW235457   0.100   1.830  10.665 -0.6014  0.9950  1.8507
 7999SOL     OW35458   0.248   0.303   4.090 -0.0748 -0.5880 -0.0174
 7999SOL    HW135459   0.279   0.367   4.026 -3.6113  0.5547 -0.5821
 7999SOL    HW235460   0.186   0.354   4.142  2.5020 -0.2378  2.7778
 8000SOL     OW35461   1.661   3.013   4.372  0.1985 -0.1674  0.7530
 8000SOL    HW135462   1.663   3.057   4.457  1.3842  0.4931  0.3890
 8000SOL    HW235463   1.591   3.066   4.335 -0.0060 -1.5782 -0.8552
 8001SOL     OW35464   1.641   3.724  12.212 -0.0860  0.1868 -0.3325
 8001SOL    HW135465   1.617   3.659  12.146 -0.9513  2.8354 -2.6111
 8001SOL    HW235466   1.557   3.748  12.252 -0.8451 -0.6990 -1.3851
 8002SOL     OW35467   2.775   3.825  14.661 -0.5446 -0.7134 -0.2481
 8002SOL    HW135468   2.792   3.841  14.754 -0.0328  0.1173 -0.4851
 8002SOL    HW235469   2.708   3.890  14.642 -0.1697 -0.5022 -0.8714
 8003SOL     OW35470   0.473   2.435  13.776  0.9277 -0.2719 -0.3365
 8003SOL    HW135471   0.553   2.487  13.773 -0.1962  1.3477 -1.6512
 8003SOL    HW235472   0.444   2.433  13.685  3.0780  2.4958 -1.0808
 8004SOL     OW35473   4.454   0.808   9.608  0.1238 -0.5755  0.1863
 8004SOL    HW135474   4.480   0.845   9.524 -2.7315  1.5136  0.2248
 8004SOL    HW235475   4.472   0.885   9.663  0.7010 -0.9575  0.5352
 8005SOL     OW35476   0.077   1.292   4.527  0.1184  0.3334 -0.3025
 8005SOL    HW135477   0.094   1.228   4.596 -0.4440  0.7546  0.2298
 8005SOL    HW235478   0.056   1.235   4.454 -1.0445  1.6770 -1.0116
 8006SOL     OW35479   2.442   2.722   9.127 -0.1426  0.1403  0.0944
 8006SOL    HW135480   2.462   2.779   9.053 -0.8354 -1.8440 -1.6071
 8006SOL    HW235481   2.419   2.643   9.078  1.0100 -0.3756  0.3899
 8007SOL     OW35482   1.857   3.409   3.884 -0.2102  0.0941  0.0416
 8007SOL    HW135483   1.874   3.504   3.887  1.8374 -0.2352 -0.6584
 8007SOL    HW235484   1.765   3.414   3.858 -0.6556  0.3754  1.6461
 8008SOL     OW35485   2.286   0.871  17.052  0.1904 -0.8810  0.4231
 8008SOL    HW135486   2.272   0.966  17.047 -1.5738 -1.0916  1.5525
 8008SOL    HW235487   2.289   0.863  17.148 -0.3474 -0.1573  0.5062
 8009SOL     OW35488   4.274   3.515  14.874 -0.4715  0.2798  0.3120
 8009SOL    HW135489   4.357   3.548  14.909  0.2204 -1.5493  0.3903
 8009SOL    HW235490   4.310   3.430  14.848  0.6514  0.8067  0.1126
 8010SOL     OW35491   3.745   0.826   2.810  0.0376  0.3479  0.6136
 8010SOL    HW135492   3.781   0.891   2.869 -1.3319  2.0180 -0.3821
 8010SOL    HW235493   3.661   0.855   2.774  0.0916  0.5182  0.6276
 8011SOL     OW35494   1.549   3.603  13.363 -0.5777  0.2792  0.2447
 8011SOL    HW135495   1.563   3.546  13.439  2.0419 -0.6144 -0.9025
 8011SOL    HW235496   1.500   3.542  13.309 -1.0697  0.8552  0.0347
 8012SOL     OW35497   2.476   2.406  13.113 -0.3736  0.0748  1.0783
 8012SOL    HW135498   2.553   2.455  13.140 -0.8633  1.2077  0.4702
 8012SOL    HW235499   2.400   2.463  13.130  0.7905  1.1682  2.5731
 8013SOL     OW35500   1.039   1.135  15.409  0.1568  0.4050  0.3682
 8013SOL    HW135501   0.970   1.076  15.439  0.8002 -1.8680 -2.6484
 8013SOL    HW235502   0.997   1.175  15.333 -1.2101  1.0346  1.4479
 8014SOL     OW35503   1.110   2.841   1.209  0.4413  0.1997 -0.5861
 8014SOL    HW135504   1.157   2.916   1.245 -0.1954  0.2607  0.1230
 8014SOL    HW235505   1.059   2.826   1.289  1.1619 -0.7615 -0.3130
 8015SOL     OW35506   4.647   3.269  16.054  0.2334  0.4061  0.4434
 8015SOL    HW135507   4.626   3.176  16.041 -1.9424  0.8297  0.9377
 8015SOL    HW235508   4.625   3.289  16.145 -2.1579 -0.2800  0.0249
 8016SOL     OW35509   3.263   3.076   2.856  0.5448  0.2358 -0.2021
 8016SOL    HW135510   3.332   3.122   2.902 -0.8094  1.3081  0.7472
 8016SOL    HW235511   3.185   3.094   2.909  0.5605 -1.1947  0.3316
 8017SOL     OW35512   4.215   0.323   3.222  0.0571  0.0865 -0.2693
 8017SOL    HW135513   4.282   0.375   3.177 -0.8415  0.6861 -0.8984
 8017SOL    HW235514   4.192   0.250   3.166  3.1284 -2.4827  1.8011
 8018SOL     OW35515   2.486   1.227   9.180 -0.2894 -0.3878 -0.0296
 8018SOL    HW135516   2.446   1.218   9.266  0.6657 -0.3245  0.4199
 8018SOL    HW235517   2.482   1.323   9.177  2.6793 -0.2453  0.7442
 8019SOL     OW35518   1.406   1.462   4.401 -0.2368 -0.3566 -0.8264
 8019SOL    HW135519   1.389   1.394   4.335 -3.4851  0.5618 -0.9528
 8019SOL    HW235520   1.320   1.491   4.431 -0.2833 -1.9486  0.6232
 8020SOL     OW35521   3.894   0.230  13.635  0.4666 -0.4904 -0.2935
 8020SOL    HW135522   3.894   0.247  13.541  1.8705  0.5643 -0.1112
 8020SOL    HW235523   3.824   0.169  13.657  0.3201 -1.2641 -2.9598
 8021SOL     OW35524   0.649   3.976   9.762 -0.1598 -0.0392  0.4895
 8021SOL    HW135525   0.702   4.053   9.740  0.6774 -0.3137  1.5548
 8021SOL    HW235526   0.658   3.926   9.681  0.3661 -0.0647  0.5630
 8022SOL     OW35527   4.079   1.774  11.618  0.1569  0.4693  0.2238
 8022SOL    HW135528   4.031   1.710  11.671  1.3563  0.2418  1.0142
 8022SOL    HW235529   4.031   1.743  11.541  2.1843  1.8126 -1.5457
 8023SOL     OW35530   3.517   3.850   1.184  0.2317  0.4385 -0.2020
 8023SOL    HW135531   3.482   3.830   1.097  0.8378 -1.0425 -0.1073
 8023SOL    HW235532   3.442   3.881   1.234  0.5173  2.3472 -0.9663
 8024SOL     OW35533   4.129   0.311   7.447  0.3911  0.1401  1.2036
 8024SOL    HW135534   4.191   0.369   7.403 -0.3736  0.6393  0.7786
 8024SOL    HW235535   4.187   0.244   7.484 -2.5096 -3.2997 -0.4596
 8025SOL     OW35536   0.869   0.003   8.544  0.1750  0.2387 -0.4009
 8025SOL    HW135537   0.876   0.000   8.640  0.7554 -0.8935 -0.4719
 8025SOL    HW235538   0.929   4.652   8.528  0.9266  1.0268 -1.1658
 8026SOL     OW35539   1.337   0.072   6.596 -0.5614 -0.2347  0.3958
 8026SOL    HW135540   1.252   0.082   6.554 -0.4186  0.3351  0.2468
 8026SOL    HW235541   1.376   0.011   6.534 -1.3851 -1.4285  1.0482
 8027SOL     OW35542   1.429   2.652  11.145 -0.2637 -0.1601 -0.0599
 8027SOL    HW135543   1.434   2.643  11.240  3.6665  2.0662 -0.0702
 8027SOL    HW235544   1.458   2.741  11.125  1.1901 -0.0631  2.4731
 8028SOL     OW35545   3.025   4.003   8.949 -0.4455  0.1039 -0.3719
 8028SOL    HW135546   3.065   3.941   8.887 -1.3982 -1.9836  1.0871
 8028SOL    HW235547   2.936   3.967   8.949  0.0544 -1.1327  3.3642
 8029SOL     OW35548   0.183   4.417   2.898  0.0422  0.0419 -0.2764
 8029SOL    HW135549   0.090   4.434   2.887 -0.1725 -0.2852  0.9819
 8029SOL    HW235550   0.183   4.324   2.876 -0.6020  0.4470 -1.9479
 8030SOL     OW35551   1.802   0.801   1.155  0.0559  0.3899 -0.5137
 8030SOL    HW135552   1.805   0.887   1.114 -0.6331  0.5508 -0.2299
 8030SOL    HW235553   1.720   0.771   1.113 -0.0642 -1.4431  1.0039
 8031SOL     OW35554   3.350   2.815   3.510  0.1218  0.7573 -0.4825
 8031SOL    HW135555   3.354   2.826   3.606  1.1001  0.2887 -0.4606
 8031SOL    HW235556   3.256   2.830   3.503  0.0613  0.9534  0.6696
 8032SOL     OW35557   1.000   2.137   2.939  0.0472  0.4704 -0.0650
 8032SOL    HW135558   0.981   2.127   3.032 -0.8115 -0.7669 -0.3721
 8032SOL    HW235559   1.085   2.181   2.949  0.8395 -1.2553  0.9382
 8033SOL     OW35560   1.335   1.981   2.434  0.0708  0.8617 -0.3990
 8033SOL    HW135561   1.405   2.046   2.434  1.0884 -0.2826  2.0648
 8033SOL    HW235562   1.318   1.982   2.528 -3.8897 -2.2360 -1.0876
 8034SOL     OW35563   1.281   0.270  14.021 -0.0685 -0.1710 -0.0517
 8034SOL    HW135564   1.220   0.198  14.038  0.6475 -0.6324  0.5410
 8034SOL    HW235565   1.303   0.256  13.929 -1.8189 -1.1387 -0.3277
 8035SOL     OW35566   1.072   2.071   7.014  0.0211 -0.0645 -0.2999
 8035SOL    HW135567   1.114   2.046   7.096 -1.0596  1.5034  0.7031
 8035SOL    HW235568   1.149   2.061   6.956  0.5482  0.1552  0.3633
 8036SOL     OW35569   1.530   0.436   9.180  0.0011 -0.0984  0.1118
 8036SOL    HW135570   1.509   0.356   9.228 -0.9602  0.2160  0.2048
 8036SOL    HW235571   1.625   0.448   9.190  0.3775 -2.1437 -1.0797
 8037SOL     OW35572   2.920   1.743   2.782 -0.7252  0.1764  0.1329
 8037SOL    HW135573   2.842   1.798   2.777  0.4641  1.7781 -0.9541
 8037SOL    HW235574   2.893   1.652   2.772  0.0951 -0.0908  0.3542
 8038SOL     OW35575   2.112   3.437  14.375  0.2617 -0.1756  0.3038
 8038SOL    HW135576   2.170   3.473  14.309 -0.6274  0.1843 -0.2744
 8038SOL    HW235577   2.176   3.370  14.401  1.4425  0.8318 -0.0400
 8039SOL     OW35578   4.076   2.265   6.007 -0.3014  0.1000 -0.4822
 8039SOL    HW135579   4.154   2.316   6.025  1.1532 -1.8460 -1.2955
 8039SOL    HW235580   4.078   2.259   5.912 -0.4526  2.0110 -0.6000
 8040SOL     OW35581   2.750   2.022   5.531  0.2192 -0.5365  0.2656
 8040SOL    HW135582   2.832   1.990   5.570  1.0247  0.0132 -0.9968
 8040SOL    HW235583   2.710   2.022   5.619  0.9683 -1.0345  0.6037
 8041SOL     OW35584   3.415   4.661   5.520  0.6598 -0.7648  0.4173
 8041SOL    HW135585   3.395   4.722   5.592 -0.2588 -1.2246  0.5551
 8041SOL    HW235586   3.479   4.600   5.558  1.4280 -0.3325 -0.1790
 8042SOL     OW35587   1.683   3.431   2.095 -0.0304 -0.1257  0.0188
 8042SOL    HW135588   1.733   3.475   2.026  2.0983 -1.0061  1.0061
 8042SOL    HW235589   1.663   3.348   2.053 -0.8737  1.1944 -2.2074
 8043SOL     OW35590   1.508   3.470   8.229 -0.1568 -0.1685 -0.8830
 8043SOL    HW135591   1.574   3.418   8.276 -1.4357 -0.9417  0.0493
 8043SOL    HW235592   1.459   3.516   8.297  0.0583  1.1944 -1.6505
 8044SOL     OW35593   1.818   1.689  11.544  0.1940 -0.0893 -0.0735
 8044SOL    HW135594   1.819   1.701  11.449 -0.4869 -0.8433 -0.1685
 8044SOL    HW235595   1.909   1.664  11.562 -0.6762 -2.2529  1.1919
 8045SOL     OW35596   3.483   0.810   4.242 -0.0238  0.0432  0.5961
 8045SOL    HW135597   3.566   0.793   4.197  0.6715  1.6947  1.2387
 8045SOL    HW235598   3.455   0.893   4.202 -2.0370 -0.8274  0.2412
 8046SOL     OW35599   2.241   2.263   6.439 -0.1079 -0.6386  0.0681
 8046SOL    HW135600   2.216   2.327   6.372  0.5327 -2.3196 -1.7739
 8046SOL    HW235601   2.336   2.260   6.432 -0.0344  1.6629  0.0349
 8047SOL     OW35602   0.750   3.836   2.148  0.0835 -0.2512  0.1315
 8047SOL    HW135603   0.749   3.865   2.239  0.9795  1.9767 -0.5902
 8047SOL    HW235604   0.834   3.855   2.108  0.6996 -2.2151  0.4528
 8048SOL     OW35605   1.564   1.896   7.174 -0.9781  0.2416 -0.7900
 8048SOL    HW135606   1.569   1.950   7.095 -0.2029  0.0663 -0.8606
 8048SOL    HW235607   1.536   1.814   7.132 -2.4311  1.4565 -2.1955
 8049SOL     OW35608   4.546   3.695   3.328 -0.1604 -0.2798  0.6047
 8049SOL    HW135609   4.632   3.697   3.286 -0.6515 -1.9074 -0.4681
 8049SOL    HW235610   4.489   3.658   3.260  0.2224 -2.0985  1.2843
 8050SOL     OW35611   1.580   4.260   6.660  0.1589 -0.3479  0.1615
 8050SOL    HW135612   1.672   4.242   6.640  0.0075  0.1320 -0.9306
 8050SOL    HW235613   1.535   4.177   6.643 -0.6338  0.1368 -0.1106
 8051SOL     OW35614   1.769   0.286   3.927  0.3658 -0.0569 -0.4399
 8051SOL    HW135615   1.709   0.319   3.993  1.2873  0.5491  0.0893
 8051SOL    HW235616   1.751   0.346   3.855 -1.7329 -2.1438 -1.6719
 8052SOL     OW35617   1.007   3.278   6.772 -0.5553 -0.1485  0.2151
 8052SOL    HW135618   0.931   3.299   6.717 -2.0177  0.5286  2.4801
 8052SOL    HW235619   0.976   3.191   6.797 -0.0036 -0.3434  0.2222
 8053SOL     OW35620   0.122   4.154   0.995  0.4106  0.0547 -0.9395
 8053SOL    HW135621   0.189   4.222   0.983  1.2471  0.0224  3.3729
 8053SOL    HW235622   0.149   4.069   0.961 -1.4805 -1.7459  2.1004
 8054SOL     OW35623   3.871   1.925   1.595 -0.0890  0.0386 -0.1286
 8054SOL    HW135624   3.918   2.008   1.595 -0.2120  0.1092 -1.9655
 8054SOL    HW235625   3.790   1.951   1.551 -0.1188  0.0716 -0.0533
 8055SOL     OW35626   1.291   0.265   8.580  0.3783 -0.4096 -0.2256
 8055SOL    HW135627   1.240   0.258   8.499  0.6693  1.7431 -0.5960
 8055SOL    HW235628   1.300   0.172   8.601  1.2588 -0.0048  1.1965
 8056SOL     OW35629   0.406   3.217   2.537 -0.1950 -0.0092 -0.0438
 8056SOL    HW135630   0.429   3.246   2.625  3.2201 -2.1943 -0.2182
 8056SOL    HW235631   0.483   3.171   2.505  0.6355  1.5034 -0.2352
 8057SOL     OW35632   0.162   2.242  10.547 -0.2889  0.1986  0.7454
 8057SOL    HW135633   0.099   2.182  10.587  0.7412 -2.2616 -1.3104
 8057SOL    HW235634   0.100   2.315  10.551  1.2696  1.4634  1.5003
 8058SOL     OW35635   3.185   2.084  17.214  0.1277 -0.5400  0.0285
 8058SOL    HW135636   3.256   2.062  17.154 -0.2920 -2.8432  0.3929
 8058SOL    HW235637   3.151   2.165  17.175 -0.7074 -0.5890  0.6692
 8059SOL     OW35638   0.660   3.583   2.173  0.3438  0.3636 -0.2541
 8059SOL    HW135639   0.678   3.677   2.170  0.4858  0.2919 -1.8549
 8059SOL    HW235640   0.732   3.548   2.120  0.4423  0.4748 -0.1936
 8060SOL     OW35641   0.188   1.941   4.443  0.2517 -0.3394  0.2158
 8060SOL    HW135642   0.253   2.001   4.408  0.1605 -1.6278 -2.1648
 8060SOL    HW235643   0.170   1.884   4.367 -1.4919  2.6755 -1.6326
 8061SOL     OW35644   0.585   3.530  13.775 -0.9585  0.0516  0.5263
 8061SOL    HW135645   0.601   3.438  13.756  0.3970  0.6953 -1.4239
 8061SOL    HW235646   0.579   3.564  13.686 -0.3711  0.1135  0.5083
 8062SOL     OW35647   1.322   3.228  12.933  0.1809  0.2480  0.0039
 8062SOL    HW135648   1.288   3.198  12.848 -0.9653 -0.2239  0.6273
 8062SOL    HW235649   1.413   3.200  12.924  0.5220  1.6648 -1.0181
 8063SOL     OW35650   3.033   1.400   6.746  0.0563  0.6558 -0.0047
 8063SOL    HW135651   2.999   1.378   6.660 -2.1832  2.2599  0.4666
 8063SOL    HW235652   2.987   1.332   6.795 -1.5814  1.7699  0.0087
 8064SOL     OW35653   2.345   4.596   1.546  0.6112 -0.6086 -0.3303
 8064SOL    HW135654   2.400   4.575   1.470 -1.3506  0.0876 -1.9596
 8064SOL    HW235655   2.282   4.655   1.503 -0.0442  0.3633  1.9305
 8065SOL     OW35656   4.092   3.961  17.245 -0.5973  0.5320 -0.3259
 8065SOL    HW135657   4.143   3.949  17.165 -1.4731  0.2353 -0.8410
 8065SOL    HW235658   4.124   4.042  17.284  3.1334 -2.2689  2.3899
 8066SOL     OW35659   4.275   0.730   4.277 -0.0358 -0.7495  0.5806
 8066SOL    HW135660   4.296   0.823   4.277 -2.3655 -0.2441  2.5602
 8066SOL    HW235661   4.350   0.696   4.226 -0.7685  0.4983 -1.3187
 8067SOL     OW35662   4.160   4.464   6.361 -0.2200 -0.1283 -0.2401
 8067SOL    HW135663   4.169   4.516   6.280 -0.7676  0.6268  0.1854
 8067SOL    HW235664   4.076   4.494   6.394 -0.6160 -0.4379 -0.9771
 8068SOL     OW35665   1.062   3.422  10.150 -1.0309 -0.5142  0.0059
 8068SOL    HW135666   1.094   3.496  10.099  0.2809  1.5803  3.8361
 8068SOL    HW235667   0.966   3.420  10.148 -1.0500 -0.2178  0.5632
 8069SOL     OW35668   4.527   1.181   0.895  0.0544  0.7686 -0.1131
 8069SOL    HW135669   4.478   1.106   0.863  1.3387 -0.4639  0.8193
 8069SOL    HW235670   4.609   1.137   0.917 -0.3917  1.8075  3.6316
 8070SOL     OW35671   1.670   1.800  10.529  0.0781  0.6454 -0.5828
 8070SOL    HW135672   1.580   1.832  10.533 -0.6985 -1.4757 -0.8826
 8070SOL    HW235673   1.684   1.789  10.435 -1.6761  0.5499 -0.8262
 8071SOL     OW35674   2.658   0.239   7.684  0.0024  0.2645 -0.5492
 8071SOL    HW135675   2.586   0.192   7.726  0.2262 -0.0610 -0.5276
 8071SOL    HW235676   2.721   0.169   7.666 -0.0380 -0.6043  2.6853
 8072SOL     OW35677   0.797   3.705   3.079  0.4324 -0.8044 -0.2433
 8072SOL    HW135678   0.780   3.799   3.074  3.0842 -0.3370 -0.2021
 8072SOL    HW235679   0.864   3.693   3.012  0.7091  1.0978 -0.3080
 8073SOL     OW35680   4.475   0.900   7.343  0.3874 -0.1356  0.1482
 8073SOL    HW135681   4.405   0.926   7.402 -0.3264 -2.7096  0.4306
 8073SOL    HW235682   4.485   0.809   7.374 -0.4844 -0.0951  0.5460
 8074SOL     OW35683   1.903   1.052   4.868 -0.2658 -0.2656  0.2171
 8074SOL    HW135684   1.868   0.978   4.917 -0.0220 -0.7226 -0.3075
 8074SOL    HW235685   1.956   0.996   4.812  0.4374  1.5121 -0.9025
 8075SOL     OW35686   2.464   0.127  12.280  0.2438  0.0331  0.4602
 8075SOL    HW135687   2.554   0.106  12.254  0.6793  2.9091 -0.2921
 8075SOL    HW235688   2.447   0.194  12.215  0.1856 -1.8966 -1.5256
 8076SOL     OW35689   0.647   2.018   6.961  0.2499  0.1825  0.2527
 8076SOL    HW135690   0.580   1.950   6.963  0.4068  0.0452  1.0511
 8076SOL    HW235691   0.613   2.096   7.006 -0.7206  0.9965 -1.9221
 8077SOL     OW35692   0.631   0.467   4.407 -0.3074  0.0081  0.2190
 8077SOL    HW135693   0.596   0.491   4.322  0.4925  0.4767  0.0173
 8077SOL    HW235694   0.556   0.417   4.437  0.2325 -0.6544  0.4682
 8078SOL     OW35695   3.625   3.162   5.546  0.6975  0.4472  0.6743
 8078SOL    HW135696   3.681   3.176   5.622 -2.7825  2.1257  2.8923
 8078SOL    HW235697   3.586   3.075   5.553  1.5447  0.1286  1.4190
 8079SOL     OW35698   1.330   0.357   7.120 -0.0826 -0.6154 -0.5077
 8079SOL    HW135699   1.341   0.391   7.209 -0.4951 -0.4402 -0.5257
 8079SOL    HW235700   1.357   0.433   7.069 -0.0534  0.5285  1.2027
 8080SOL     OW35701   1.020   3.140  13.204 -0.1783 -0.3518  0.3138
 8080SOL    HW135702   1.010   3.072  13.271 -2.1900  0.3026  0.6872
 8080SOL    HW235703   1.016   3.218  13.259  2.1614 -0.2471  0.3283
 8081SOL     OW35704   1.390   2.658   7.727 -0.1631  0.4010 -0.7431
 8081SOL    HW135705   1.338   2.583   7.753  0.1348  0.0751 -1.0962
 8081SOL    HW235706   1.372   2.654   7.633 -1.9151 -0.7536 -0.3468
 8082SOL     OW35707   4.174   1.329   8.246  0.0635  0.9483 -0.1201
 8082SOL    HW135708   4.083   1.356   8.240 -0.7770 -1.6667  0.9923
 8082SOL    HW235709   4.188   1.308   8.338 -0.0310  0.5121 -0.2059
 8083SOL     OW35710   4.214   3.379   7.465  0.1411  0.4773 -0.0062
 8083SOL    HW135711   4.266   3.444   7.513 -0.3519 -0.4036  1.7025
 8083SOL    HW235712   4.252   3.294   7.487  1.0760  0.1173 -3.0107
 8084SOL     OW35713   1.341   1.351   8.378  0.1247 -0.0832  0.0181
 8084SOL    HW135714   1.335   1.261   8.346  0.5820 -0.7122  1.6897
 8084SOL    HW235715   1.299   1.353   8.464  2.2391 -0.2143  1.0557
 8085SOL     OW35716   1.687   2.623   5.592 -0.9653 -0.3472  0.4221
 8085SOL    HW135717   1.747   2.549   5.606  0.2269  0.1127 -2.1433
 8085SOL    HW235718   1.742   2.683   5.541 -1.0830 -0.0880  0.5987
 8086SOL     OW35719   2.850   2.493   7.512  0.0855  0.3264  0.2646
 8086SOL    HW135720   2.791   2.449   7.449 -2.0318  1.3148  1.5477
 8086SOL    HW235721   2.835   2.583   7.483 -0.8680  0.6882  1.8654
 8087SOL     OW35722   1.193   3.863  14.038  0.1260  0.0931 -0.8268
 8087SOL    HW135723   1.261   3.930  14.033 -0.2467  0.4751 -0.7417
 8087SOL    HW235724   1.126   3.890  14.101  0.5069  0.3365 -0.5319
 8088SOL     OW35725   2.913   3.409  11.938  0.5686  0.5166  0.4356
 8088SOL    HW135726   2.847   3.420  11.869  3.7568  0.8738 -2.5435
 8088SOL    HW235727   2.943   3.322  11.914 -3.1035 -0.1119 -1.9734
 8089SOL     OW35728   2.400   4.504  17.576 -0.3486  0.1425 -0.4420
 8089SOL    HW135729   2.337   4.445  17.619  0.3162 -1.0538 -1.1227
 8089SOL    HW235730   2.344   4.541  17.508  0.0335  0.9753 -0.2954
 8090SOL     OW35731   4.086   0.772   5.787  0.4220 -0.5380 -0.4279
 8090SOL    HW135732   4.104   0.699   5.846  2.1049 -0.2799 -0.6107
 8090SOL    HW235733   4.143   0.845   5.815 -0.5011  0.3537 -0.8795
 8091SOL     OW35734   3.587   4.210   4.671 -0.1614 -0.0407  0.3550
 8091SOL    HW135735   3.628   4.126   4.692 -0.3746 -0.3223 -0.3624
 8091SOL    HW235736   3.494   4.188   4.680 -0.4562  0.9523 -0.3796
 8092SOL     OW35737   0.237   3.116   8.824 -0.3965  0.2084 -0.3689
 8092SOL    HW135738   0.267   3.180   8.759  1.0500  0.9378  1.0319
 8092SOL    HW235739   0.310   3.054   8.822  0.4392  1.1965 -0.1574
 8093SOL     OW35740   2.864   0.575   7.791  0.2591 -0.4636  0.1157
 8093SOL    HW135741   2.912   0.493   7.787 -0.3570 -0.8857  1.5985
 8093SOL    HW235742   2.773   0.551   7.774  0.5797 -0.9054 -0.9848
 8094SOL     OW35743   1.078   3.765   7.540 -0.0936  1.4407  0.4515
 8094SOL    HW135744   1.161   3.720   7.557 -0.1360  1.6281  1.1331
 8094SOL    HW235745   1.102   3.812   7.460 -0.2438  0.8456  0.0584
 8095SOL     OW35746   4.030   1.509  12.020  0.3035 -0.5290  0.4747
 8095SOL    HW135747   4.013   1.499  11.926  0.4239  0.8287  0.2979
 8095SOL    HW235748   3.956   1.481  12.074 -0.7034 -1.6925 -1.5246
 8096SOL     OW35749   3.013   1.511   7.843 -0.5007 -0.1960  0.0070
 8096SOL    HW135750   3.030   1.438   7.784 -0.4182 -1.8178  2.0233
 8096SOL    HW235751   3.047   1.583   7.790 -1.3421  1.4172  1.6541
 8097SOL     OW35752   1.275   2.960   5.264  0.3889 -0.0159  0.2898
 8097SOL    HW135753   1.304   3.052   5.262  0.7711 -0.1593 -0.8857
 8097SOL    HW235754   1.263   2.937   5.172  0.2596 -0.1751  0.3478
 8098SOL     OW35755   0.954   2.187   3.181  0.0327 -0.2542  0.3786
 8098SOL    HW135756   0.935   2.280   3.173  1.1188  0.0710  1.6731
 8098SOL    HW235757   0.962   2.185   3.276  1.7966 -1.6008  0.1939
 8099SOL     OW35758   3.878   1.748   4.571  0.1656  0.0213  0.1826
 8099SOL    HW135759   3.792   1.785   4.552 -0.3223 -1.3356 -0.2606
 8099SOL    HW235760   3.892   1.770   4.663  0.7289 -0.8712  0.3153
 8100SOL     OW35761   4.512   1.555   9.696  0.1329 -0.1371 -0.3315
 8100SOL    HW135762   4.446   1.613   9.733 -0.6107 -0.6758 -0.8170
 8100SOL    HW235763   4.590   1.580   9.746 -0.2975 -0.1047  0.3263
 8101SOL     OW35764   4.452   1.626   4.418 -0.3587  0.1395 -0.2349
 8101SOL    HW135765   4.537   1.615   4.375  0.1154  0.3051  0.6469
 8101SOL    HW235766   4.390   1.608   4.348 -1.8031  0.4800  0.9578
 8102SOL     OW35767   2.400   2.735   6.536  0.0361  0.2851 -0.6483
 8102SOL    HW135768   2.447   2.754   6.455  1.2461 -1.4139 -0.3474
 8102SOL    HW235769   2.473   2.723   6.596 -0.9254 -0.6238  0.3538
 8103SOL     OW35770   2.558   0.392   5.973 -0.0907  0.1416 -0.2486
 8103SOL    HW135771   2.568   0.410   5.879  1.1209 -0.4956 -0.2307
 8103SOL    HW235772   2.628   0.446   6.008  0.1044  1.4554 -2.6526
 8104SOL     OW35773   1.275   1.580   3.665  0.2311  0.4194 -0.5556
 8104SOL    HW135774   1.182   1.590   3.646 -0.1174  1.6786  1.7706
 8104SOL    HW235775   1.290   1.491   3.635  1.3397  0.0979  0.9663
 8105SOL     OW35776   3.815   4.255   8.481 -0.1365 -0.6728 -0.6234
 8105SOL    HW135777   3.770   4.277   8.562  0.4770  0.4920 -0.5914
 8105SOL    HW235778   3.839   4.341   8.447 -1.3898  1.2720  3.5064
 8106SOL     OW35779   1.623   3.496   4.119  0.6420  0.2697 -0.3816
 8106SOL    HW135780   1.617   3.477   4.026 -0.1586 -1.4648  0.0089
 8106SOL    HW235781   1.557   3.438   4.157  0.0241  0.0519 -1.7928
 8107SOL     OW35782   1.583   4.318   5.668 -0.5415  0.2648 -0.3906
 8107SOL    HW135783   1.549   4.241   5.713  1.1393 -0.1549  0.1797
 8107SOL    HW235784   1.601   4.382   5.737 -0.1280 -0.8724  0.5576
 8108SOL     OW35785   0.583   3.799  17.245  0.4307  0.1076  0.4394
 8108SOL    HW135786   0.668   3.787  17.203  0.9939 -1.2806  1.9472
 8108SOL    HW235787   0.571   3.720  17.298  0.3048  0.4841  0.9732
 8109SOL     OW35788   2.429   3.479   2.684 -0.8613 -0.5615 -0.0732
 8109SOL    HW135789   2.386   3.529   2.614 -0.4290  2.0557  1.5096
 8109SOL    HW235790   2.517   3.500   2.654 -0.8227 -0.1635  0.3128
 8110SOL     OW35791   4.529   4.198   2.923 -0.5226  0.6403  0.1937
 8110SOL    HW135792   4.495   4.155   2.845  1.1723  0.9762 -0.7450
 8110SOL    HW235793   4.499   4.143   2.995 -0.6435  0.4082 -0.0344
 8111SOL     OW35794   0.918   0.131  15.029 -0.2177  0.4836 -0.4673
 8111SOL    HW135795   0.826   0.144  15.004 -0.0191  5.1668  1.3828
 8111SOL    HW235796   0.931   0.184  15.107  0.0191  0.5961 -0.5854
 8112SOL     OW35797   2.100   4.143   4.792 -0.4677  0.1677 -0.3290
 8112SOL    HW135798   2.154   4.075   4.833  0.8736  0.5480 -1.4600
 8112SOL    HW235799   2.037   4.091   4.743 -0.8105  0.4077 -0.1436
 8113SOL     OW35800   1.373   3.852   9.218  0.4844 -0.2499 -0.0624
 8113SOL    HW135801   1.279   3.835   9.210  0.6567 -1.2753  0.0446
 8113SOL    HW235802   1.391   3.823   9.307 -0.1154 -0.5613 -0.0404
 8114SOL     OW35803   1.279   2.269  14.975  0.6292 -0.2212 -0.5085
 8114SOL    HW135804   1.295   2.356  14.940 -3.1194  0.3519 -0.8465
 8114SOL    HW235805   1.359   2.251  15.024 -1.1763 -1.3285  2.1047
 8115SOL     OW35806   1.053   2.448  11.098 -0.1383  0.2341 -0.4401
 8115SOL    HW135807   1.112   2.497  11.042  2.1431 -1.9385  0.0736
 8115SOL    HW235808   1.071   2.356  11.080 -1.3212 -0.2352  0.7608
 8116SOL     OW35809   1.215   0.481  14.347  0.2240 -0.1733 -0.1945
 8116SOL    HW135810   1.133   0.515  14.312  0.1126  2.4593  2.6721
 8116SOL    HW235811   1.197   0.424  14.421  1.5208 -1.2981 -0.7515
 8117SOL     OW35812   2.621   0.738  15.367 -0.4014 -0.3074  0.0873
 8117SOL    HW135813   2.578   0.726  15.283  1.7125 -0.6533 -0.9644
 8117SOL    HW235814   2.554   0.708  15.428 -1.7507  1.4020 -0.5820
 8118SOL     OW35815   2.241   4.423   3.588  0.4661 -0.2222  0.0429
 8118SOL    HW135816   2.246   4.338   3.545  2.2077 -0.5967  1.0223
 8118SOL    HW235817   2.153   4.417   3.624  0.4946 -0.0261  0.1493
 8119SOL     OW35818   3.169   4.715  17.521 -0.5186 -0.6833  0.6695
 8119SOL    HW135819   3.242   4.654  17.511  0.4568  0.8843 -1.6611
 8119SOL    HW235820   3.116   4.696  17.445  0.1208  0.2571 -0.0102
 8120SOL     OW35821   1.497   4.318   5.974 -0.0266 -0.1609 -0.2571
 8120SOL    HW135822   1.520   4.392   6.029  0.9720  0.7302 -1.8851
 8120SOL    HW235823   1.439   4.273   6.036 -1.3252 -1.0745 -2.1152
 8121SOL     OW35824   3.392   3.022  13.156 -0.2624 -0.3105 -0.4753
 8121SOL    HW135825   3.362   3.048  13.243 -0.9614  0.4730 -0.9547
 8121SOL    HW235826   3.310   3.045  13.111  2.2022  2.3889 -3.5267
 8122SOL     OW35827   4.291   3.846   7.744 -0.9868 -0.6847  0.5487
 8122SOL    HW135828   4.357   3.912   7.764 -1.1240 -0.1258 -0.8322
 8122SOL    HW235829   4.261   3.817   7.830  1.5880 -0.0293  1.6446
 8123SOL     OW35830   0.888   0.004  15.994 -0.0443  0.9291  0.4927
 8123SOL    HW135831   0.851   4.675  15.923 -1.5164 -0.9984  2.6604
 8123SOL    HW235832   0.857   0.092  15.971  0.8135  0.8709 -0.8765
 8124SOL     OW35833   1.856   2.909  13.398  0.1909 -0.2687 -0.0000
 8124SOL    HW135834   1.855   2.925  13.304 -0.3645 -1.3606 -0.1794
 8124SOL    HW235835   1.839   2.997  13.434  1.0420  0.6656 -1.8999
 8125SOL     OW35836   1.656   3.919   8.873 -0.6306 -0.6717 -0.3390
 8125SOL    HW135837   1.586   3.968   8.916  0.9201  1.2726  0.0085
 8125SOL    HW235838   1.701   3.875   8.946  1.3033 -0.3399 -1.3359
 8126SOL     OW35839   2.593   1.563   5.450  0.9170  0.3251  0.2912
 8126SOL    HW135840   2.513   1.571   5.398  1.2557  0.3613 -0.2243
 8126SOL    HW235841   2.662   1.575   5.384 -1.1195  0.1161 -1.8485
 8127SOL     OW35842   3.700   0.443  13.651  0.1244  0.3585  0.3386
 8127SOL    HW135843   3.623   0.400  13.614  0.8483  0.9515 -1.8100
 8127SOL    HW235844   3.758   0.373  13.679 -0.3441  0.1134  0.7099
 8128SOL     OW35845   3.980   1.859  11.364 -0.3521  0.5532  0.2331
 8128SOL    HW135846   3.992   1.949  11.333 -1.3803  0.5970 -0.0432
 8128SOL    HW235847   4.062   1.818  11.337 -2.1296 -2.8209  0.0434
 8129SOL     OW35848   3.182   0.489   8.782 -0.0015  0.5872  0.3781
 8129SOL    HW135849   3.142   0.569   8.747 -0.0989  0.3697 -0.0063
 8129SOL    HW235850   3.241   0.468   8.709  1.5073  1.3162  1.4131
 8130SOL     OW35851   2.206   3.943   9.959  0.2968 -0.6579  0.3267
 8130SOL    HW135852   2.188   4.021   9.907  2.0473 -0.4910 -0.0395
 8130SOL    HW235853   2.299   3.929   9.940  0.7521  1.2884  1.0808
 8131SOL     OW35854   3.783   2.748  10.362 -0.5001  0.1011  0.3947
 8131SOL    HW135855   3.846   2.818  10.346 -1.1836  0.4880 -0.5790
 8131SOL    HW235856   3.832   2.672  10.332  0.4368  0.3897  1.1953
 8132SOL     OW35857   0.997   4.206  11.830  0.2415 -1.0131 -0.2479
 8132SOL    HW135858   1.041   4.153  11.897  0.5596 -0.6345 -0.1601
 8132SOL    HW235859   0.934   4.141  11.799  0.3327 -1.7525  1.0949
 8133SOL     OW35860   4.217   4.668   4.090  0.4000  0.6967 -0.0784
 8133SOL    HW135861   4.221   0.038   4.118  2.1523  0.8033 -0.6376
 8133SOL    HW235862   4.199   4.617   4.169 -0.2825  2.8924  1.1770
 8134SOL     OW35863   4.570   1.515   8.036 -0.1951  0.4942  0.0886
 8134SOL    HW135864   4.607   1.593   7.995  2.9138 -0.7273  0.5773
 8134SOL    HW235865   4.598   1.444   7.978  0.0668 -0.9904  1.9998
 8135SOL     OW35866   1.533   0.351  16.730 -0.2579 -0.4928 -0.1490
 8135SOL    HW135867   1.476   0.320  16.659  0.3005  0.2412 -0.9309
 8135SOL    HW235868   1.617   0.333  16.688  0.0981 -0.5778  0.5999
 8136SOL     OW35869   4.269   2.184  14.960  0.0113 -0.4508  0.3820
 8136SOL    HW135870   4.177   2.197  14.983 -0.6554 -0.6373 -2.1770
 8136SOL    HW235871   4.316   2.198  15.042 -0.9464 -1.6402  1.1292
 8137SOL     OW35872   1.617   1.685  13.505  0.3666  0.5234  0.0172
 8137SOL    HW135873   1.689   1.730  13.550  2.1896 -1.3730 -0.9810
 8137SOL    HW235874   1.622   1.716  13.414 -0.6534  0.9015  0.0921
 8138SOL     OW35875   1.666   0.648   5.803 -0.4003  0.3054 -0.2417
 8138SOL    HW135876   1.600   0.617   5.865  0.6951 -1.8084 -0.1440
 8138SOL    HW235877   1.675   0.573   5.744 -2.0188 -0.3206  0.3005
 8139SOL     OW35878   3.810   0.723   8.351  0.5388 -0.4936 -0.0178
 8139SOL    HW135879   3.819   0.804   8.400 -4.5217  0.0094  0.0592
 8139SOL    HW235880   3.887   0.678   8.386  0.7385 -1.1126 -1.2536
 8140SOL     OW35881   1.851   0.219   6.902  0.6108 -0.1605 -0.2696
 8140SOL    HW135882   1.907   0.191   6.830  1.0009 -0.7816  0.2747
 8140SOL    HW235883   1.763   0.192   6.879  1.3401 -1.4126 -1.5535
 8141SOL     OW35884   4.145   0.505  15.652  0.3956 -0.3243  0.7049
 8141SOL    HW135885   4.232   0.472  15.631  0.7605  0.5975  0.7712
 8141SOL    HW235886   4.154   0.590  15.694  0.5805 -0.0805  0.1585
 8142SOL     OW35887   3.917   2.542   1.268 -0.1770 -0.1322 -0.1407
 8142SOL    HW135888   3.940   2.482   1.339  0.1533 -0.8550 -0.8580
 8142SOL    HW235889   3.942   2.484   1.196  0.3271 -0.2004  0.0902
 8143SOL     OW35890   3.040   2.842  17.051 -0.0314  0.5780  0.8221
 8143SOL    HW135891   3.040   2.899  16.974 -1.1669 -0.2266  0.2332
 8143SOL    HW235892   3.090   2.767  17.018 -0.0055  0.9965 -0.0963
 8144SOL     OW35893   1.489   2.284   4.789  0.1253  0.3729 -0.1081
 8144SOL    HW135894   1.518   2.258   4.877 -0.9859 -1.1832 -0.1889
 8144SOL    HW235895   1.453   2.198   4.768  2.0366  0.0579 -2.0157
 8145SOL     OW35896   2.352   3.870  12.290 -0.2885  0.0881 -0.3463
 8145SOL    HW135897   2.430   3.920  12.267 -1.0422  1.2852 -0.3161
 8145SOL    HW235898   2.371   3.855  12.382 -1.0983 -1.3241 -0.4150
 8146SOL     OW35899   2.104   0.318   2.553  0.2350  0.4867  0.0382
 8146SOL    HW135900   2.199   0.309   2.561  0.1008  0.7870  2.1571
 8146SOL    HW235901   2.068   0.300   2.640 -0.8807 -0.7635 -0.6885
 8147SOL     OW35902   0.606   1.571  11.596  0.1451  0.0020 -0.1526
 8147SOL    HW135903   0.691   1.543  11.630  1.0010  1.9756 -0.6537
 8147SOL    HW235904   0.630   1.649  11.545 -0.5178  0.2282 -0.1206
 8148SOL     OW35905   2.827   4.044  15.708 -0.2010 -0.4687 -0.2562
 8148SOL    HW135906   2.876   4.124  15.725  1.1989 -1.3179 -0.2454
 8148SOL    HW235907   2.762   4.081  15.648 -0.9424  0.3933  1.0893
 8149SOL     OW35908   3.048   2.284   4.735  0.4937  0.0053 -0.1771
 8149SOL    HW135909   3.133   2.289   4.691 -0.1632  0.3029 -1.4323
 8149SOL    HW235910   3.030   2.377   4.743  1.1689  0.1735 -0.5745
 8150SOL     OW35911   1.330   1.991   2.690  0.3153 -0.1010 -0.6386
 8150SOL    HW135912   1.294   1.921   2.745  1.8828 -0.8001 -0.5094
 8150SOL    HW235913   1.388   2.049   2.740 -2.5282  2.1617  0.0722
 8151SOL     OW35914   3.378   0.839   2.678  0.2144 -0.0903  0.1805
 8151SOL    HW135915   3.283   0.846   2.674  0.2190 -1.3040 -2.1638
 8151SOL    HW235916   3.398   0.889   2.757  0.5978 -0.5318  0.3716
 8152SOL     OW35917   4.606   0.841   8.551 -0.0459 -0.0839 -0.1618
 8152SOL    HW135918   4.671   0.879   8.611  0.2583 -0.3705 -0.3112
 8152SOL    HW235919   4.529   0.865   8.602  0.1623 -0.6286  0.4119
 8153SOL     OW35920   2.530   4.400   3.591  0.0150  0.4156 -0.2114
 8153SOL    HW135921   2.562   4.488   3.611 -0.1598  0.2899  0.6292
 8153SOL    HW235922   2.446   4.401   3.638  0.1717  0.9267  0.0541
 8154SOL     OW35923   2.411   1.221   6.397 -0.8091  0.2693  0.5667
 8154SOL    HW135924   2.328   1.184   6.366  0.3430 -0.3387 -1.8331
 8154SOL    HW235925   2.478   1.158   6.373  0.9790  1.9051  1.2748
 8155SOL     OW35926   0.138   0.281   6.358  0.1199  0.1069  0.6081
 8155SOL    HW135927   0.082   0.356   6.378 -0.3367 -0.7677  2.5763
 8155SOL    HW235928   0.192   0.299   6.436  1.0640 -1.0115  0.2243
 8156SOL     OW35929   1.933   1.434  11.311  0.4635 -0.1483  0.0200
 8156SOL    HW135930   1.943   1.340  11.327 -1.2574 -0.4783 -0.8802
 8156SOL    HW235931   1.993   1.443  11.237  2.1977 -0.7658  1.3241
 8157SOL     OW35932   0.978   2.514   8.502 -0.3579 -0.2648 -0.2281
 8157SOL    HW135933   0.954   2.423   8.515 -0.2371 -0.2531  0.0757
 8157SOL    HW235934   1.041   2.496   8.432  1.6521  3.0419  0.7016
 8158SOL     OW35935   4.353   2.560   5.136  0.3232  0.6901 -0.3030
 8158SOL    HW135936   4.413   2.571   5.063  0.6754  0.3429 -0.0679
 8158SOL    HW235937   4.311   2.645   5.145 -1.5448 -0.1950 -0.7243
 8159SOL     OW35938   1.853   1.062   5.427  0.2107 -0.3804  1.0092
 8159SOL    HW135939   1.815   0.995   5.483 -0.9240  0.3180  1.0645
 8159SOL    HW235940   1.915   1.012   5.373  0.0066 -0.3788  0.7705
 8160SOL     OW35941   1.070   0.772   3.064 -0.0237  0.0939 -0.1822
 8160SOL    HW135942   1.092   0.679   3.076  0.2175 -0.1094 -2.2420
 8160SOL    HW235943   1.033   0.791   3.150 -2.0176 -1.8491 -0.6184
 8161SOL     OW35944   2.126   3.708   6.747 -0.2698 -0.1714  0.4959
 8161SOL    HW135945   2.208   3.757   6.750 -1.1213  1.2365  0.2718
 8161SOL    HW235946   2.133   3.663   6.663 -0.8313 -0.9377  0.8585
 8162SOL     OW35947   1.105   0.506   2.791  0.2989  0.1100  0.9801
 8162SOL    HW135948   1.185   0.527   2.840 -0.2270 -0.0073  1.8894
 8162SOL    HW235949   1.075   0.595   2.776  0.5946  0.2050  0.9485
 8163SOL     OW35950   2.905   2.135   7.211 -0.6675  0.3412 -0.3968
 8163SOL    HW135951   2.988   2.159   7.254 -0.5937 -0.3148 -0.1684
 8163SOL    HW235952   2.872   2.076   7.279 -0.7693 -0.6829 -1.3420
 8164SOL     OW35953   4.345   2.001  11.258  0.3033 -0.0495  0.3119
 8164SOL    HW135954   4.336   2.055  11.180 -3.7437  0.4146  1.1384
 8164SOL    HW235955   4.435   2.019  11.286  1.0365 -2.8982 -0.2353
 8165SOL     OW35956   1.992   4.690   4.643  0.0280  0.2589  0.5778
 8165SOL    HW135957   1.904   4.663   4.616 -0.7246  1.5494  1.7495
 8165SOL    HW235958   2.019   4.611   4.691  0.1518 -0.2702 -0.3741
 8166SOL     OW35959   1.023   1.298   7.329  0.0128  0.3733 -0.2854
 8166SOL    HW135960   1.036   1.354   7.405 -1.1384 -0.6949  0.7010
 8166SOL    HW235961   1.044   1.365   7.263 -0.3206 -2.9412 -3.7526
 8167SOL     OW35962   4.515   3.803   4.494  0.6303 -0.1832 -0.0036
 8167SOL    HW135963   4.519   3.797   4.399  4.3596  0.8727  0.0625
 8167SOL    HW235964   4.597   3.755   4.510  0.9178 -0.2428 -1.7103
 8168SOL     OW35965   2.180   2.469   6.281 -0.0040  0.5359 -0.0346
 8168SOL    HW135966   2.145   2.483   6.192  0.9147  0.0954 -0.4629
 8168SOL    HW235967   2.123   2.526   6.333 -1.4701 -2.1700  1.2825
 8169SOL     OW35968   3.246   0.445  13.754  0.2546  0.0542 -0.1754
 8169SOL    HW135969   3.203   0.373  13.707 -1.6701  0.4324  1.0353
 8169SOL    HW235970   3.337   0.416  13.748  0.2545  0.3556 -1.6651
 8170SOL     OW35971   2.763   0.433   7.126  0.8027  0.4708  0.0530
 8170SOL    HW135972   2.784   0.355   7.177 -1.5619  2.1453  3.6111
 8170SOL    HW235973   2.679   0.452   7.169  0.5080  0.1252 -0.3684
 8171SOL     OW35974   4.371   0.746  16.403  0.6943 -0.4884 -0.6240
 8171SOL    HW135975   4.448   0.702  16.440  0.5356  0.3999  0.7671
 8171SOL    HW235976   4.395   0.835  16.428  1.4553 -0.6457 -0.8097
 8172SOL     OW35977   0.200   2.279  13.708 -0.1296  0.2935 -0.2253
 8172SOL    HW135978   0.191   2.217  13.635 -0.4581  0.0253  0.0418
 8172SOL    HW235979   0.185   2.222  13.783 -0.4170  1.6206  0.7310
 8173SOL     OW35980   2.851   0.660   6.318  0.1152  0.0947  0.0717
 8173SOL    HW135981   2.790   0.688   6.386 -0.4497 -1.2115  0.1173
 8173SOL    HW235982   2.931   0.635   6.363 -0.7361 -3.3822 -0.3265
 8174SOL     OW35983   2.318   1.573  12.906 -0.0774 -0.2206 -0.2229
 8174SOL    HW135984   2.227   1.604  12.907  0.0740  0.2240 -0.8691
 8174SOL    HW235985   2.360   1.629  12.842  0.7870 -0.9629 -0.3035
 8175SOL     OW35986   4.621   3.834   7.652 -0.1867 -0.4621 -0.9559
 8175SOL    HW135987   4.572   3.897   7.705  1.4826 -0.9881  1.1928
 8175SOL    HW235988   4.590   3.869   7.568 -1.9852 -0.0513 -0.1313
 8176SOL     OW35989   0.909   3.861   1.859  0.4787 -0.9641 -0.1830
 8176SOL    HW135990   0.999   3.887   1.878  0.6242 -1.2007 -0.5493
 8176SOL    HW235991   0.927   3.771   1.832 -0.0339 -1.1030 -0.0697
 8177SOL     OW35992   1.045   0.597   3.502 -0.7848 -0.3523 -0.1633
 8177SOL    HW135993   0.992   0.602   3.581  0.3965  3.8153  0.3523
 8177SOL    HW235994   1.105   0.523   3.517  0.6830  1.1312  1.1819
 8178SOL     OW35995   2.584   4.460   6.644  0.1997  0.1758  0.4872
 8178SOL    HW135996   2.573   4.410   6.725  0.4575  0.4900  0.7134
 8178SOL    HW235997   2.553   4.396   6.580 -1.2986  1.9146 -0.5388
 8179SOL     OW35998   4.005   4.543   5.899 -0.9084 -0.4294  0.6081
 8179SOL    HW135999   4.067   4.502   5.839  0.3657  0.8995  1.0192
 8179SOL    HW236000   3.932   4.580   5.849 -2.6270 -3.6674  0.6862
 8180SOL     OW36001   1.347   3.434   0.694 -0.5678 -0.1369  0.1973
 8180SOL    HW136002   1.268   3.398   0.654  0.5078 -2.5701  0.2803
 8180SOL    HW236003   1.322   3.412   0.784  2.6560 -1.6325  0.7292
 8181SOL     OW36004   1.893   2.271  13.329  0.2581  0.1355  0.2490
 8181SOL    HW136005   1.938   2.208  13.384 -4.5078 -1.8890  1.8460
 8181SOL    HW236006   1.897   2.357  13.372  0.6981  0.3400 -0.2029
 8182SOL     OW36007   1.448   3.080   7.280  0.3374 -0.4916 -0.5181
 8182SOL    HW136008   1.441   3.042   7.368  0.4748 -2.4467 -1.3305
 8182SOL    HW236009   1.493   3.163   7.295  0.2633 -0.5391 -0.0284
 8183SOL     OW36010   2.625   0.381   2.909  0.3232 -0.3156  0.4441
 8183SOL    HW136011   2.551   0.324   2.929  1.5452 -1.5499  1.3919
 8183SOL    HW236012   2.661   0.329   2.837 -0.3128 -1.3947  0.8961
 8184SOL     OW36013   0.454   0.444  15.211 -0.1575  0.0578 -0.0546
 8184SOL    HW136014   0.446   0.539  15.218 -2.4512 -0.1463  0.1694
 8184SOL    HW236015   0.454   0.438  15.115  0.3826  0.6991 -0.0930
 8185SOL     OW36016   2.515   2.686   8.370  0.2523  0.1959  0.2249
 8185SOL    HW136017   2.425   2.674   8.339 -0.6497  0.8273  2.6566
 8185SOL    HW236018   2.529   2.779   8.358 -1.6841  0.4677 -0.0130
 8186SOL     OW36019   1.268   1.584  10.969  0.0750  0.1924 -0.0103
 8186SOL    HW136020   1.222   1.562  11.050 -0.6966 -0.1362 -0.5340
 8186SOL    HW236021   1.238   1.511  10.914  0.5122 -0.9730  1.3043
 8187SOL     OW36022   0.865   2.342   2.596  0.7709 -0.0830 -0.0628
 8187SOL    HW136023   0.800   2.383   2.653  0.4815  1.1932 -1.3160
 8187SOL    HW236024   0.893   2.270   2.654  1.1241  0.4708  0.4556
 8188SOL     OW36025   2.770   0.612   2.460 -0.5147 -0.2870 -0.2536
 8188SOL    HW136026   2.812   0.538   2.416  0.2630  1.1672 -1.9839
 8188SOL    HW236027   2.722   0.651   2.387 -1.4052  1.5803  1.3189
 8189SOL     OW36028   1.486   3.306  17.312  0.6605 -0.1081  0.6663
 8189SOL    HW136029   1.498   3.363  17.236  0.0226  0.9081  1.3368
 8189SOL    HW236030   1.513   3.224  17.271  0.2299  0.1241 -0.0958
 8190SOL     OW36031   1.304   2.496   3.493  0.2042 -0.4738  0.0048
 8190SOL    HW136032   1.258   2.458   3.567 -1.6162  0.0739 -0.8625
 8190SOL    HW236033   1.373   2.429   3.486  0.3814 -0.3522  0.5577
 8191SOL     OW36034   0.739   3.874   4.072 -0.3109  0.2719 -0.6648
 8191SOL    HW136035   0.669   3.939   4.079 -0.4849 -0.1191  1.1283
 8191SOL    HW236036   0.684   3.799   4.050  2.4179 -1.2107 -2.3736
 8192SOL     OW36037   1.891   4.599   6.345 -0.2123 -0.0803  0.2973
 8192SOL    HW136038   1.932   4.536   6.285  0.6412 -0.2063  1.0127
 8192SOL    HW236039   1.899   4.548   6.426  1.9731  0.1328  0.2252
 8193SOL     OW36040   2.525   1.706   7.495 -0.1312  0.7707  0.0595
 8193SOL    HW136041   2.589   1.760   7.541 -1.1874  1.5228  0.6439
 8193SOL    HW236042   2.448   1.757   7.521  2.6114  5.3159 -0.7121
 8194SOL     OW36043   3.708   2.976  15.241 -0.2866 -0.9351 -0.7429
 8194SOL    HW136044   3.632   3.009  15.193 -1.4052 -0.4131  1.3742
 8194SOL    HW236045   3.713   3.053  15.298  0.6063 -2.3915  1.1625
 8195SOL     OW36046   3.149   3.432  15.262 -0.0755  0.7085  0.4999
 8195SOL    HW136047   3.083   3.385  15.312 -0.0877 -0.6455 -0.8047
 8195SOL    HW236048   3.220   3.368  15.269 -0.1276  0.5190 -0.6203
 8196SOL     OW36049   4.651   0.698   4.446 -0.4513  0.4998 -0.2080
 8196SOL    HW136050   4.594   0.632   4.485 -1.7114  0.8314 -1.5133
 8196SOL    HW236051   4.703   0.721   4.524 -0.1293 -0.5606 -0.1150
 8197SOL     OW36052   2.676   0.790   6.481  0.3180 -0.3826 -0.2901
 8197SOL    HW136053   2.662   0.884   6.468  0.9678 -0.2768 -0.2467
 8197SOL    HW236054   2.672   0.780   6.576  1.7158 -0.8731 -0.2738
 8198SOL     OW36055   2.294   4.106   5.818 -0.1263  0.5908  0.0709
 8198SOL    HW136056   2.258   4.064   5.896 -0.6503 -1.1428 -1.0937
 8198SOL    HW236057   2.235   4.182   5.810  0.9274  1.2627 -1.4410
 8199SOL     OW36058   0.323   0.497   5.969 -0.5710 -0.4752 -0.0710
 8199SOL    HW136059   0.366   0.412   5.963 -1.5197 -1.0271  1.0734
 8199SOL    HW236060   0.383   0.553   6.017 -1.1920 -0.3308  0.5432
 8200SOL     OW36061   3.997   2.679  10.157  0.7277  0.2073 -0.3169
 8200SOL    HW136062   4.044   2.606  10.197  0.1655  0.5119  0.9077
 8200SOL    HW236063   4.033   2.750  10.209  1.1509 -0.0321 -0.2884
 8201SOL     OW36064   1.316   1.492   5.537 -0.5560  0.1885 -0.1281
 8201SOL    HW136065   1.396   1.441   5.532  0.6429  2.0125  0.4796
 8201SOL    HW236066   1.346   1.575   5.501  1.7848 -0.1829  0.9825
 8202SOL     OW36067   2.318   4.111   3.758 -0.5451  0.0485 -0.4272
 8202SOL    HW136068   2.290   4.021   3.740  0.0132 -0.0642 -0.7101
 8202SOL    HW236069   2.234   4.156   3.745 -1.3204 -0.9320  1.1954
 8203SOL     OW36070   3.703   0.346   2.062  0.3369 -0.2582  0.1584
 8203SOL    HW136071   3.711   0.430   2.106 -0.2504  0.3176 -0.8423
 8203SOL    HW236072   3.776   0.357   2.002  0.7438 -1.3407  0.4515
 8204SOL     OW36073   3.079   0.491   5.636 -0.7619  0.0005 -0.2176
 8204SOL    HW136074   3.171   0.485   5.661 -1.5697 -2.8647  2.0078
 8204SOL    HW236075   3.045   0.402   5.643  0.9018 -0.4355  2.4291
 8205SOL     OW36076   4.385   2.599   8.157 -0.3318 -0.1598 -0.6837
 8205SOL    HW136077   4.318   2.549   8.109  0.5745 -0.5590 -1.5138
 8205SOL    HW236078   4.373   2.588   8.252 -2.5699 -0.0967 -0.9410
 8206SOL     OW36079   2.278   2.170  12.287 -0.0089  0.0203  0.3772
 8206SOL    HW136080   2.237   2.182  12.202  2.1036 -0.4662 -0.7015
 8206SOL    HW236081   2.269   2.258  12.325  0.1060  0.5525 -0.8414
 8207SOL     OW36082   3.926   4.291   5.326  0.0373  0.3261 -0.5118
 8207SOL    HW136083   3.928   4.374   5.373  0.0254 -0.3186  0.6495
 8207SOL    HW236084   3.853   4.239   5.359  0.8545 -0.5407 -0.0593
 8208SOL     OW36085   0.475   0.041   8.848  0.0433 -0.3983 -0.8192
 8208SOL    HW136086   0.469   4.690   8.787 -1.6970 -0.2974 -0.7844
 8208SOL    HW236087   0.568   0.030   8.869  0.0994 -0.1179 -0.9170
 8209SOL     OW36088   2.392   0.393   4.109  0.3182  0.1449 -0.9485
 8209SOL    HW136089   2.312   0.340   4.105  2.0077 -2.4225 -1.2113
 8209SOL    HW236090   2.416   0.352   4.192 -1.7693 -1.3640 -1.0979
 8210SOL     OW36091   1.331   0.746   4.883 -0.3755  0.7267  0.2522
 8210SOL    HW136092   1.391   0.702   4.942 -0.4371  0.9879  0.5088
 8210SOL    HW236093   1.391   0.779   4.816 -0.2026  0.7433  0.4145
 8211SOL     OW36094   1.747   2.948   2.967 -0.7006  0.5971  0.3268
 8211SOL    HW136095   1.820   3.009   2.979 -1.2228  1.3358 -0.2991
 8211SOL    HW236096   1.679   2.988   3.020  0.5880  1.1013  1.5959
 8212SOL     OW36097   0.229   3.166  17.376 -0.3999  0.1247 -0.0037
 8212SOL    HW136098   0.142   3.136  17.400 -0.7641  0.6513 -0.6779
 8212SOL    HW236099   0.271   3.083  17.354  1.3961  0.8578  0.6244
 8213SOL     OW36100   3.411   3.362   1.754 -0.4133 -0.4534 -0.7914
 8213SOL    HW136101   3.376   3.374   1.665  2.1801  1.9771 -1.4835
 8213SOL    HW236102   3.342   3.305   1.789  1.7469 -3.1698 -0.9127
 8214SOL     OW36103   3.081   3.084  13.069 -0.0358  0.3408  0.0293
 8214SOL    HW136104   3.134   3.134  13.006  0.4006 -0.7882 -0.4969
 8214SOL    HW236105   3.065   3.159  13.127 -0.0177 -0.1294  0.6431
 8215SOL     OW36106   0.105   1.890  16.913  0.3053 -0.1122  0.2565
 8215SOL    HW136107   0.045   1.816  16.921 -0.0894  0.0069 -1.6738
 8215SOL    HW236108   0.167   1.872  16.842 -1.8371 -3.8844 -0.6733
 8216SOL     OW36109   1.803   2.651   7.515 -0.5266 -0.5562  0.1770
 8216SOL    HW136110   1.736   2.669   7.581  1.6268  1.5819  1.7589
 8216SOL    HW236111   1.808   2.557   7.501  3.4763 -0.4625  1.0671
 8217SOL     OW36112   4.374   2.330  11.415 -0.4222 -0.0113 -0.6657
 8217SOL    HW136113   4.425   2.338  11.334 -1.1334 -0.0334 -1.1105
 8217SOL    HW236114   4.441   2.332  11.484  1.2043 -2.4770 -2.1830
 8218SOL     OW36115   3.513   3.594  10.093 -0.4999  0.3882  0.4353
 8218SOL    HW136116   3.547   3.562  10.010  2.9371 -2.9279  3.0892
 8218SOL    HW236117   3.427   3.553  10.080 -0.2261 -0.4768  1.3513
 8219SOL     OW36118   3.121   4.321   1.823 -0.0829 -0.6524  0.5565
 8219SOL    HW136119   3.186   4.335   1.754  0.7691 -2.3037  1.0245
 8219SOL    HW236120   3.081   4.237   1.800 -1.2576  0.2806 -0.8540
 8220SOL     OW36121   3.147   1.310   2.012 -0.1523 -0.2179  0.2872
 8220SOL    HW136122   3.117   1.238   2.068 -2.4385 -1.0442 -1.9933
 8220SOL    HW236123   3.214   1.341   2.072  0.0790 -1.3305  0.6182
 8221SOL     OW36124   0.137   2.658   4.241 -0.1068  0.3564  0.4709
 8221SOL    HW136125   0.094   2.728   4.191 -0.8203 -2.2855 -2.6130
 8221SOL    HW236126   0.068   2.637   4.302  1.1011 -2.2404  0.9230
 8222SOL     OW36127   3.096   0.395   6.711 -0.0650  0.7850  0.1078
 8222SOL    HW136128   3.027   0.330   6.696 -0.9925  1.5449  1.0662
 8222SOL    HW236129   3.058   0.456   6.774 -0.4275 -2.3954  2.9843
 8223SOL     OW36130   1.081   0.735   5.247  0.0183  0.3597  0.0561
 8223SOL    HW136131   1.031   0.816   5.245  0.7996  0.8808  1.4878
 8223SOL    HW236132   1.078   0.712   5.340 -0.5537 -0.9830 -0.3004
 8224SOL     OW36133   3.993   0.497   7.720 -0.3373  0.2464 -0.0844
 8224SOL    HW136134   3.929   0.523   7.653 -0.4723 -0.7166 -0.3336
 8224SOL    HW236135   3.971   0.560   7.788 -0.2050  0.9443 -0.6962
 8225SOL     OW36136   1.487   2.451  16.269  0.0822  0.3192 -0.1794
 8225SOL    HW136137   1.534   2.391  16.327 -1.4992 -0.9577 -0.2194
 8225SOL    HW236138   1.423   2.391  16.230 -1.3934  1.1522  0.9993
 8226SOL     OW36139   0.384   4.386   5.286 -0.5900 -0.0497  0.2258
 8226SOL    HW136140   0.321   4.315   5.277  0.4370 -1.3044  2.7507
 8226SOL    HW236141   0.468   4.343   5.267 -0.7259  0.5887 -1.7973
 8227SOL     OW36142   3.386   1.945   1.511  0.3697 -0.1458 -0.1748
 8227SOL    HW136143   3.369   1.859   1.473  0.7398  0.3640 -1.4693
 8227SOL    HW236144   3.451   1.931   1.580  0.4141  4.1596  0.6310
 8228SOL     OW36145   1.902   4.639   1.880 -0.6662  0.0985  0.0247
 8228SOL    HW136146   1.862   4.559   1.914  1.1529 -1.2459 -0.9707
 8228SOL    HW236147   1.967   4.649   1.950 -3.2120  1.0442  2.2195
 8229SOL     OW36148   4.211   0.496   8.250  0.2319  0.2786 -0.7929
 8229SOL    HW136149   4.306   0.486   8.246  0.0662 -0.7882 -1.9964
 8229SOL    HW236150   4.174   0.418   8.291  0.0097  0.0816 -1.3771
 8230SOL     OW36151   2.336   4.072   4.061  0.1545 -0.4414 -0.3938
 8230SOL    HW136152   2.381   4.138   4.114  2.1623 -1.4834 -0.7944
 8230SOL    HW236153   2.364   4.089   3.971 -1.4022  1.5928 -0.4856
 8231SOL     OW36154   1.700   1.626  16.509 -0.2723 -0.1753 -0.1057
 8231SOL    HW136155   1.708   1.594  16.598  1.3648  0.1346 -0.1485
 8231SOL    HW236156   1.652   1.557  16.463  0.4070  0.8699 -2.4188
 8232SOL     OW36157   4.324   2.210  11.089  0.3911 -0.0312  0.5538
 8232SOL    HW136158   4.396   2.270  11.107  2.0701 -1.5065 -1.3106
 8232SOL    HW236159   4.252   2.266  11.061  0.4935 -0.4209 -0.4694
 8233SOL     OW36160   0.535   1.625   7.532 -0.1089 -0.0312  0.1302
 8233SOL    HW136161   0.536   1.720   7.523 -0.8845  0.1418  1.8843
 8233SOL    HW236162   0.448   1.615   7.569 -0.6998  0.8909 -1.0136
 8234SOL     OW36163   2.169   0.933   2.704 -0.5851  0.1545  0.1848
 8234SOL    HW136164   2.185   0.927   2.610 -0.7386 -2.8342  0.3486
 8234SOL    HW236165   2.208   0.851   2.733 -1.5589 -0.3363  0.0925
 8235SOL     OW36166   3.106   2.862   7.998 -0.2743 -0.0025  0.2624
 8235SOL    HW136167   3.025   2.837   7.954  0.9450 -1.0860 -1.3504
 8235SOL    HW236168   3.100   2.808   8.078 -0.4113  0.7526  0.7636
 8236SOL     OW36169   4.549   1.625   2.508 -0.2794  0.1330 -0.1061
 8236SOL    HW136170   4.538   1.706   2.557 -0.8939 -0.3171  0.5060
 8236SOL    HW236171   4.499   1.550   2.542  2.2951 -1.6456 -0.2331
 8237SOL     OW36172   2.113   1.169   2.827  0.5364 -0.3988  0.0674
 8237SOL    HW136173   2.127   1.208   2.740  1.7676  0.6829  0.7571
 8237SOL    HW236174   2.117   1.076   2.808  1.3754 -0.2931 -0.2593
 8238SOL     OW36175   1.258   0.909   1.307 -0.2727 -0.1594  0.4532
 8238SOL    HW136176   1.192   0.891   1.374 -2.5935 -0.2754 -1.8825
 8238SOL    HW236177   1.315   0.835   1.326  1.6480  1.1465 -0.1593
 8239SOL     OW36178   0.079   0.667   2.350  0.1053  0.3665  0.0323
 8239SOL    HW136179   0.012   0.607   2.383  0.5770  0.9976  2.1004
 8239SOL    HW236180   0.025   0.745   2.341  1.2459  0.9912 -1.4310
 8240SOL     OW36181   3.487   2.431   0.318  0.9122 -0.2312  0.6804
 8240SOL    HW136182   3.579   2.448   0.339  0.7586  1.5889 -0.1125
 8240SOL    HW236183   3.483   2.336   0.319  1.7002 -0.2733 -1.9364
 8241SOL     OW36184   3.633   2.083   3.321  0.1214  0.1790 -0.3204
 8241SOL    HW136185   3.692   2.156   3.305  0.1637  0.0569 -0.7303
 8241SOL    HW236186   3.575   2.080   3.245  0.1017  0.3193 -0.3106
 8242SOL     OW36187   2.668   3.051   5.440 -0.4108  0.0677  0.3233
 8242SOL    HW136188   2.668   3.039   5.345 -0.9757  0.2564  0.3007
 8242SOL    HW236189   2.653   3.145   5.449  0.2055  0.1791  0.1968
 8243SOL     OW36190   3.101   3.225   7.119 -0.5334  0.2591  0.3452
 8243SOL    HW136191   3.136   3.271   7.042  2.0389 -1.2153  0.6323
 8243SOL    HW236192   3.155   3.150   7.141  1.2512  0.3739 -3.4975
 8244SOL     OW36193   3.476   1.155   5.149 -0.4469  0.6207  0.3419
 8244SOL    HW136194   3.502   1.228   5.205 -1.1357  0.9326  0.2619
 8244SOL    HW236195   3.488   1.189   5.060 -0.3069 -3.0855 -1.0373
 8245SOL     OW36196   3.336   3.844  16.096 -0.2180  0.4706  0.1314
 8245SOL    HW136197   3.296   3.777  16.152  0.9289  0.1553  0.5716
 8245SOL    HW236198   3.427   3.827  16.121 -0.0969 -0.4345 -0.9056
 8246SOL     OW36199   0.572   2.934   0.013  0.4580  0.0669 -0.4237
 8246SOL    HW136200   0.644   2.903  17.648  1.2258  1.4764 -0.2074
 8246SOL    HW236201   0.496   2.929  17.646 -0.3679 -1.0570  0.7760
 8247SOL     OW36202   2.132   1.998   2.410 -0.5612 -0.1125  0.0251
 8247SOL    HW136203   2.178   1.921   2.376 -1.3403  0.3500 -2.0795
 8247SOL    HW236204   2.111   1.968   2.498  0.3545 -2.0694 -0.4245
 8248SOL     OW36205   1.623   3.870  12.524  0.4260 -0.2311  0.1708
 8248SOL    HW136206   1.653   3.959  12.539 -0.2003 -0.2784  1.7784
 8248SOL    HW236207   1.533   3.872  12.554  0.0409 -0.4488 -0.9924
 8249SOL     OW36208   1.209   1.950  12.076 -0.7084  0.4532  0.0812
 8249SOL    HW136209   1.270   1.905  12.018 -1.5456  0.1224 -0.5319
 8249SOL    HW236210   1.163   1.875  12.115 -0.5362  0.4631  0.3095
 8250SOL     OW36211   0.457   3.444   9.066 -0.0875  0.3417 -0.0631
 8250SOL    HW136212   0.425   3.494   9.142  0.0647 -1.2727  1.0643
 8250SOL    HW236213   0.503   3.369   9.104 -0.0133  0.0349 -0.7755
 8251SOL     OW36214   1.655   0.039   4.403  0.4310  0.5162  0.0058
 8251SOL    HW136215   1.662   4.679   4.452  1.6344  1.0424  0.7345
 8251SOL    HW236216   1.692   0.025   4.316  0.4577 -0.6455  0.2078
 8252SOL     OW36217   0.282   0.501  10.454 -0.2458  0.0076  0.3322
 8252SOL    HW136218   0.217   0.571  10.454  0.5627  0.7620 -0.9265
 8252SOL    HW236219   0.239   0.438  10.511  1.1202 -0.7806  0.5038
 8253SOL     OW36220   4.088   4.383   3.672 -0.0236  0.2283 -0.7919
 8253SOL    HW136221   4.018   4.433   3.712  0.6765  0.0760  0.6122
 8253SOL    HW236222   4.161   4.416   3.723 -1.4212  1.2686  0.5150
 8254SOL     OW36223   2.578   3.589   7.419 -0.0949  0.8449 -0.4694
 8254SOL    HW136224   2.596   3.652   7.350  2.3678 -0.9896 -1.4913
 8254SOL    HW236225   2.638   3.519   7.394 -1.9373 -0.6362 -0.7209
 8255SOL     OW36226   1.092   2.381   7.251 -0.3956  0.2681  0.4728
 8255SOL    HW136227   1.183   2.352   7.255  0.3387  2.4631 -0.3003
 8255SOL    HW236228   1.083   2.405   7.159 -1.7812  0.3966  0.6290
 8256SOL     OW36229   4.547   2.586   7.263  0.3610  0.0816  0.6334
 8256SOL    HW136230   4.598   2.609   7.341  0.8729 -2.9674  1.2017
 8256SOL    HW236231   4.474   2.646   7.278 -0.8461 -0.7757 -1.8000
 8257SOL     OW36232   2.228   0.499   0.041  0.2287 -0.5408  0.2040
 8257SOL    HW136233   2.294   0.564   0.063  1.4382 -1.5051 -0.5889
 8257SOL    HW236234   2.262   0.466  17.648  2.2978  0.2535  0.7331
 8258SOL     OW36235   1.149   4.154   5.825  0.1960 -1.1641 -0.4278
 8258SOL    HW136236   1.208   4.082   5.846 -1.6907 -2.6865 -0.2716
 8258SOL    HW236237   1.194   4.205   5.757 -0.7152 -1.4829 -1.2813
 8259SOL     OW36238   0.504   1.799  15.677 -0.3726 -0.6466  0.2595
 8259SOL    HW136239   0.415   1.831  15.667  0.4259  1.0390 -1.3824
 8259SOL    HW236240   0.532   1.786  15.586  0.9014 -1.0446  0.7046
 8260SOL     OW36241   3.507   4.682   6.191 -0.1783  0.4416 -0.3875
 8260SOL    HW136242   3.510   4.606   6.132 -1.5391 -0.4844  0.7335
 8260SOL    HW236243   3.429   4.722   6.153  0.2106  1.7751  0.2320
 8261SOL     OW36244   3.526   1.651   4.246 -0.3900 -0.1085  0.0985
 8261SOL    HW136245   3.571   1.735   4.234  0.0291 -0.4772 -0.9532
 8261SOL    HW236246   3.600   1.601   4.281 -1.3664 -2.6433 -1.4172
 8262SOL     OW36247   0.020   1.625   6.935  0.3843  0.4237  0.2327
 8262SOL    HW136248   4.678   1.682   6.977  1.5120  2.7928 -1.2598
 8262SOL    HW236249   4.716   1.637   6.843 -1.7796 -1.3513  0.5989
 8263SOL     OW36250   4.471   4.077   6.444  0.2483  0.1113  0.1474
 8263SOL    HW136251   4.448   4.121   6.362  0.2829 -0.6207 -0.2578
 8263SOL    HW236252   4.381   4.076   6.477  0.0927  2.4490 -0.1873
 8264SOL     OW36253   0.005   1.847   5.096  0.2756 -0.2707  0.0689
 8264SOL    HW136254   4.716   1.927   5.046  0.1587 -0.8187 -0.7778
 8264SOL    HW236255   4.660   1.854   5.163  1.1019 -2.7120  1.1701
 8265SOL     OW36256   1.063   1.499   7.501 -0.0278 -0.1069 -0.0476
 8265SOL    HW136257   1.004   1.486   7.574  0.8727  1.0920  0.8768
 8265SOL    HW236258   1.143   1.463   7.540 -0.7678  0.3680  1.8812
 8266SOL     OW36259   0.282   4.592   7.249 -0.2600 -0.4780  0.6781
 8266SOL    HW136260   0.295   4.552   7.335  1.4729  1.3545  1.2551
 8266SOL    HW236261   0.253   4.680   7.273 -1.6080 -0.6967 -0.0935
 8267SOL     OW36262   2.665   4.066   4.063 -0.1551  0.2927  0.2333
 8267SOL    HW136263   2.685   3.974   4.045 -0.5466 -0.0764  1.6902
 8267SOL    HW236264   2.628   4.092   3.979 -0.2252  0.4960  0.3268
 8268SOL     OW36265   1.594   3.463   0.348  0.0754  0.2834 -0.3602
 8268SOL    HW136266   1.683   3.455   0.380  0.7225  4.1175 -1.2033
 8268SOL    HW236267   1.601   3.509   0.264  0.2941 -1.9223 -1.5555
 8269SOL     OW36268   1.365   2.664  16.187  0.0144  0.4881 -0.1568
 8269SOL    HW136269   1.377   2.625  16.100  0.0938 -0.5430  0.3179
 8269SOL    HW236270   1.417   2.606  16.241  1.7055  0.2330 -2.0503
 8270SOL     OW36271   3.186   0.201   3.088 -0.4175  0.4028  0.2095
 8270SOL    HW136272   3.198   0.122   3.141 -1.2838  0.4093  0.4122
 8270SOL    HW236273   3.138   0.262   3.143 -1.7524  0.2936 -0.8621
 8271SOL     OW36274   4.366   2.276   8.500 -0.5667 -0.4830 -0.1324
 8271SOL    HW136275   4.395   2.285   8.591  0.4662 -1.4318 -0.3591
 8271SOL    HW236276   4.362   2.181   8.485 -1.2492 -0.4335 -0.2389
 8272SOL     OW36277   4.718   3.357   2.309 -0.4959 -0.1756  0.3435
 8272SOL    HW136278   0.026   3.379   2.220  2.3667 -4.0653  0.3237
 8272SOL    HW236279   4.654   3.427   2.315 -0.7486 -0.6783  3.1665
 8273SOL     OW36280   0.511   3.889   3.759  0.2376 -0.4389  0.5296
 8273SOL    HW136281   0.466   3.963   3.717  0.1386 -1.3986 -1.0399
 8273SOL    HW236282   0.525   3.938   3.840  0.0986  0.6206 -0.0855
 8274SOL     OW36283   0.389   3.068   7.674 -0.2526  0.2899  0.2965
 8274SOL    HW136284   0.315   3.111   7.715 -0.4511 -0.5585  0.8326
 8274SOL    HW236285   0.459   3.133   7.683 -0.8863  0.6417  2.5993
 8275SOL     OW36286   1.579   3.141   6.414  0.6970  0.1922  0.1873
 8275SOL    HW136287   1.604   3.125   6.323  2.2114  1.2560  0.4114
 8275SOL    HW236288   1.490   3.171   6.398  0.7328  0.3724  0.3307
 8276SOL     OW36289   2.224   4.436   9.007  0.0584  0.4523  0.3006
 8276SOL    HW136290   2.180   4.520   9.007 -0.8437 -0.0220 -0.5040
 8276SOL    HW236291   2.164   4.371   8.970 -0.3770  2.3720 -2.3097
 8277SOL     OW36292   2.977   1.260   5.769 -0.2208  0.0395 -0.2636
 8277SOL    HW136293   2.990   1.205   5.846  1.7983  1.1454  0.1859
 8277SOL    HW236294   3.005   1.199   5.700  2.0165  1.2327 -0.4180
 8278SOL     OW36295   1.617   3.142   8.460  0.3661 -0.5827 -0.1956
 8278SOL    HW136296   1.644   3.124   8.370  0.8216  2.7196 -0.7454
 8278SOL    HW236297   1.696   3.177   8.500  0.6335 -0.0359 -1.2066
 8279SOL     OW36298   4.363   0.453   7.370  0.4489  0.0343 -0.4482
 8279SOL    HW136299   4.361   0.531   7.314 -0.8649  0.5663  0.3352
 8279SOL    HW236300   4.430   0.399   7.327  0.3545 -0.0259 -0.5196
 8280SOL     OW36301   2.848   2.829   5.567  0.2082 -0.2290  0.1611
 8280SOL    HW136302   2.925   2.878   5.538  0.9124 -1.6003 -0.3367
 8280SOL    HW236303   2.796   2.898   5.608  1.5326  1.4806 -1.0424
 8281SOL     OW36304   1.132   2.636   1.774  0.4398  0.0684 -0.9680
 8281SOL    HW136305   1.092   2.672   1.853  1.7149 -1.2329  0.2494
 8281SOL    HW236306   1.135   2.542   1.794  0.6143  0.2306 -0.2529
 8282SOL     OW36307   2.018   2.371   1.810  0.3648 -0.2597 -0.3570
 8282SOL    HW136308   1.983   2.296   1.858  0.1119 -0.5547 -1.0022
 8282SOL    HW236309   2.105   2.339   1.788  1.3447  2.0298  0.2668
 8283SOL     OW36310   0.732   0.942   9.688  0.1537 -0.1788  0.2687
 8283SOL    HW136311   0.799   0.944   9.619 -0.6229  0.5997 -0.4616
 8283SOL    HW236312   0.775   0.877   9.744 -2.3886 -1.8632  0.2404
 8284SOL     OW36313   1.365   2.671   2.539 -0.0326  0.5676  0.2495
 8284SOL    HW136314   1.282   2.635   2.571  1.5839 -1.8266  1.7510
 8284SOL    HW236315   1.391   2.714   2.621 -1.3559  0.1147  0.9076
 8285SOL     OW36316   2.314   1.183   3.602  0.3270 -0.2416 -0.8657
 8285SOL    HW136317   2.358   1.229   3.530 -0.8224  3.5939  0.8824
 8285SOL    HW236318   2.351   1.096   3.590  1.6170  0.1876 -0.0759
 8286SOL     OW36319   2.718   3.246   6.638  0.0212 -0.1111  0.3373
 8286SOL    HW136320   2.802   3.284   6.664  0.2720 -1.9521  2.3358
 8286SOL    HW236321   2.682   3.315   6.582  2.2378  1.1272  0.4534
 8287SOL     OW36322   1.123   3.150   6.197  0.2315  0.4243 -0.2073
 8287SOL    HW136323   1.172   3.213   6.145 -0.6622 -0.1804 -1.7789
 8287SOL    HW236324   1.032   3.177   6.184  0.3806  1.6932  1.4996
 8288SOL     OW36325   0.885   1.541   0.986 -0.1057 -0.2056  0.0832
 8288SOL    HW136326   0.883   1.498   0.901  1.1699  1.6253 -0.8612
 8288SOL    HW236327   0.793   1.553   1.009  0.0256 -0.7682  0.9125
 8289SOL     OW36328   3.675   3.066   5.272  0.1232  0.1945  0.5359
 8289SOL    HW136329   3.716   3.141   5.229  0.8924 -0.4138  0.2080
 8289SOL    HW236330   3.651   3.108   5.354 -1.0865 -0.8813  0.7376
 8290SOL     OW36331   2.393   2.449  15.356 -0.3789  0.3180 -0.0685
 8290SOL    HW136332   2.399   2.491  15.270 -1.2534 -1.1888 -0.8845
 8290SOL    HW236333   2.482   2.421  15.375 -0.2578  2.7905  2.8782
 8291SOL     OW36334   3.716   2.553  12.189 -0.3623 -0.0451  0.0751
 8291SOL    HW136335   3.646   2.510  12.239 -1.1123 -1.3002 -2.0867
 8291SOL    HW236336   3.765   2.474  12.170  2.5539  2.1882 -1.6964
 8292SOL     OW36337   0.511   4.112  13.324  0.8694  1.0249 -0.4679
 8292SOL    HW136338   0.432   4.155  13.290  0.4518  0.5752 -0.0600
 8292SOL    HW236339   0.556   4.086  13.244  0.1231  1.2270 -0.9594
 8293SOL     OW36340   3.891   2.017  11.596 -0.5884  0.5477 -0.6839
 8293SOL    HW136341   3.913   1.957  11.525 -0.5709  0.4481 -0.5932
 8293SOL    HW236342   3.805   1.988  11.626  1.2563 -3.0742  1.0131
 8294SOL     OW36343   1.580   2.942   0.891 -0.3384 -0.3978 -0.0264
 8294SOL    HW136344   1.601   2.950   0.798 -0.7920 -1.2422 -0.1970
 8294SOL    HW236345   1.582   3.033   0.922  1.2545 -0.3154 -0.3711
 8295SOL     OW36346   0.180   3.757  12.990 -0.0351  0.4521 -0.3660
 8295SOL    HW136347   0.109   3.736  12.929 -0.0460 -1.4233  0.2905
 8295SOL    HW236348   0.192   3.670  13.029 -1.5011  0.0582 -0.7672
 8296SOL     OW36349   3.051   1.463  10.523 -0.4370 -0.3116  0.1713
 8296SOL    HW136350   3.000   1.457  10.604 -0.5263 -2.9366 -0.0884
 8296SOL    HW236351   3.106   1.541  10.531 -0.2949 -0.6648  2.7007
 8297SOL     OW36352   1.350   0.638   6.095 -0.5079  0.3822 -0.3903
 8297SOL    HW136353   1.391   0.665   6.177 -0.9721 -3.6871  1.1871
 8297SOL    HW236354   1.333   0.724   6.056  1.2371  1.0425  0.3382
 8298SOL     OW36355   4.037   0.011   2.577  0.2296  0.2727 -0.0340
 8298SOL    HW136356   4.093   0.089   2.570 -1.6976  1.5556 -1.3146
 8298SOL    HW236357   3.968   0.050   2.630 -0.8078  0.3065 -1.3983
 8299SOL     OW36358   1.322   0.872  11.555  0.0955 -0.4696 -0.0925
 8299SOL    HW136359   1.359   0.840  11.637 -0.1773 -0.3111  0.0935
 8299SOL    HW236360   1.401   0.890  11.504 -0.0336 -1.4042 -0.6257
 8300SOL     OW36361   1.535   0.701   7.420  0.2336 -0.6308 -0.1060
 8300SOL    HW136362   1.571   0.758   7.352 -0.7095 -0.2578 -0.2841
 8300SOL    HW236363   1.579   0.743   7.494  0.7098 -0.4411 -0.4912
 8301SOL     OW36364   4.511   3.947   3.233  0.1799 -0.0516 -0.0487
 8301SOL    HW136365   4.445   3.927   3.166  0.2334 -0.4194  0.0085
 8301SOL    HW236366   4.523   3.860   3.273  1.0983  0.3327  0.5020
 8302SOL     OW36367   3.644   2.082  12.425 -0.7794  0.4171  0.4404
 8302SOL    HW136368   3.635   2.152  12.360 -0.1524  0.6566  0.6155
 8302SOL    HW236369   3.642   2.132  12.506 -2.6681 -1.2966  1.4273
 8303SOL     OW36370   0.877   1.546  10.894  0.0504 -0.3822  0.4787
 8303SOL    HW136371   0.903   1.625  10.846  1.2656 -0.8422  0.3739
 8303SOL    HW236372   0.956   1.539  10.948 -0.0887 -1.2739  0.5708
 8304SOL     OW36373   3.635   3.775   1.579 -0.2457 -0.1909 -0.0889
 8304SOL    HW136374   3.726   3.781   1.549  0.2629 -1.7412  1.1199
 8304SOL    HW236375   3.621   3.842   1.646 -1.2127 -0.0210 -0.4608
 8305SOL     OW36376   1.668   3.082  12.493  0.2552  0.2566  0.1410
 8305SOL    HW136377   1.741   3.090  12.432 -0.1335 -3.4886 -0.8310
 8305SOL    HW236378   1.708   3.055  12.575 -0.5759 -1.7398 -0.1122
 8306SOL     OW36379   4.649   0.700  11.980  0.0028  0.1047  0.2556
 8306SOL    HW136380   4.568   0.709  11.929 -0.2691 -0.5721  0.5649
 8306SOL    HW236381   4.702   0.777  11.959  0.9314 -1.4646 -3.2214
 8307SOL     OW36382   0.518   3.549  17.357 -0.2191  0.4761 -0.0634
 8307SOL    HW136383   0.580   3.520  17.425 -1.2931  0.1685  0.7878
 8307SOL    HW236384   0.442   3.501  17.390 -0.1437  2.0086  2.3847
 8308SOL     OW36385   2.723   4.208   1.789  0.0696  0.1297 -0.2709
 8308SOL    HW136386   2.762   4.286   1.750 -1.9007  1.1166 -0.3118
 8308SOL    HW236387   2.781   4.137   1.762  1.0448  0.5297  0.8023
 8309SOL     OW36388   0.219   0.755   5.133 -0.3814 -0.5324  0.2415
 8309SOL    HW136389   0.311   0.778   5.120 -0.1511 -2.9914 -2.4018
 8309SOL    HW236390   0.187   0.733   5.046 -1.2016 -0.9314  0.6360
 8310SOL     OW36391   1.817   0.571   7.468  0.8388  0.0050  0.4128
 8310SOL    HW136392   1.784   0.483   7.451  1.8956 -0.1155 -1.0361
 8310SOL    HW236393   1.760   0.601   7.538  0.7588 -2.2447  1.3002
 8311SOL     OW36394   2.404   4.035  11.525  0.3647 -0.6358  0.1064
 8311SOL    HW136395   2.387   4.063  11.435  0.1644 -1.8100 -0.2319
 8311SOL    HW236396   2.363   4.107  11.572  0.0140 -1.6637  1.3777
 8312SOL     OW36397   3.667   4.231   0.770 -0.2231 -0.4925 -0.3245
 8312SOL    HW136398   3.757   4.199   0.759  0.2979  1.0163 -0.4924
 8312SOL    HW236399   3.626   4.162   0.822 -0.0323 -1.6806 -1.7319
 8313SOL     OW36400   3.568   3.150   4.177 -0.3775 -0.4000  0.3432
 8313SOL    HW136401   3.478   3.157   4.210 -0.1310  0.8288  0.7645
 8313SOL    HW236402   3.572   3.061   4.143  2.5743  0.1224 -0.6253
 8314SOL     OW36403   0.044   1.042   7.268  0.5577  0.2414 -0.5040
 8314SOL    HW136404   4.703   1.072   7.203 -0.0959 -0.9412 -0.4099
 8314SOL    HW236405   4.718   1.055   7.350  1.1953 -1.1322  0.0912
 8315SOL     OW36406   3.582   1.506  12.239 -0.8237 -0.6324  0.0101
 8315SOL    HW136407   3.503   1.555  12.215  1.2146  2.0399 -1.1890
 8315SOL    HW236408   3.538   1.424  12.260 -1.4640 -0.5313 -0.9299
 8316SOL     OW36409   1.369   0.478   5.577 -0.1624 -0.2207 -0.4185
 8316SOL    HW136410   1.458   0.487   5.610 -0.3044 -1.3373  0.2606
 8316SOL    HW236411   1.327   0.506   5.658 -0.7520  0.2141 -0.8731
 8317SOL     OW36412   2.001   0.994   3.945 -0.2009 -1.1073 -0.4929
 8317SOL    HW136413   2.012   1.088   3.936 -0.6073 -0.9921  0.2236
 8317SOL    HW236414   2.091   0.965   3.934 -0.8839 -3.1021 -1.0201
 8318SOL     OW36415   2.983   1.926   8.409  0.0018 -0.5520  0.1772
 8318SOL    HW136416   2.987   2.020   8.429 -1.9169 -0.6979  1.1926
 8318SOL    HW236417   2.952   1.892   8.493  0.5065 -3.7203 -0.9493
 8319SOL     OW36418   2.490   4.451   2.538 -0.1251 -0.9083  0.2134
 8319SOL    HW136419   2.418   4.481   2.593  0.1157 -1.7845  0.9953
 8319SOL    HW236420   2.551   4.525   2.539 -0.3631 -0.7232  2.8932
 8320SOL     OW36421   2.160   4.665  15.725  0.4796  0.5438  0.4401
 8320SOL    HW136422   2.082   4.630  15.681  0.5541  1.4638 -0.4079
 8320SOL    HW236423   2.159   0.029  15.682 -0.4347 -0.2990 -1.2606
 8321SOL     OW36424   0.150   1.757   5.448 -0.2094  0.0893 -0.4265
 8321SOL    HW136425   0.134   1.673   5.492  0.7823  0.8900  1.4975
 8321SOL    HW236426   0.178   1.738   5.359 -0.9189  0.7087 -0.7774
 8322SOL     OW36427   4.507   4.639  16.556 -0.1327 -0.5211  0.0853
 8322SOL    HW136428   4.577   4.619  16.494  0.4335  1.4955  0.0972
 8322SOL    HW236429   4.498   0.012  16.562 -1.6735 -0.7651  1.7630
 8323SOL     OW36430   2.458   3.016   3.995  0.2966 -0.2560  0.5239
 8323SOL    HW136431   2.466   3.064   4.077  0.9201 -0.6544  0.6968
 8323SOL    HW236432   2.519   3.069   3.944 -0.3098  0.4116  0.4965
 8324SOL     OW36433   1.247   3.596  14.270 -1.0675 -0.1047 -0.6001
 8324SOL    HW136434   1.248   3.517  14.324  1.7753 -0.6663 -1.4899
 8324SOL    HW236435   1.204   3.662  14.325  3.3788  3.7389 -1.7392
 8325SOL     OW36436   0.231   1.023   6.540 -0.1092 -0.1667  0.0135
 8325SOL    HW136437   0.269   1.062   6.618 -0.1859 -1.3577  0.6438
 8325SOL    HW236438   0.299   0.958   6.522  0.3052  0.3598 -0.3481
 8326SOL     OW36439   0.125   4.657   3.772 -0.4169 -0.4731 -0.6656
 8326SOL    HW136440   0.195   4.617   3.721  0.4823  0.0526  0.1582
 8326SOL    HW236441   0.169   4.693   3.850  0.1217  0.2520 -1.3037
 8327SOL     OW36442   3.038   3.880   7.579 -0.2063  0.2603  0.6632
 8327SOL    HW136443   3.112   3.941   7.588 -0.0623 -0.2807  3.1495
 8327SOL    HW236444   3.007   3.897   7.668 -1.7866 -0.3234  0.2260
 8328SOL     OW36445   0.504   4.189   2.228  0.7068  0.1892 -0.3565
 8328SOL    HW136446   0.506   4.122   2.160  2.0497 -0.4510  0.3384
 8328SOL    HW236447   0.597   4.206   2.236  0.8188  0.0960 -1.4460
 8329SOL     OW36448   0.446   3.751   6.076  0.2006 -0.4369 -0.7174
 8329SOL    HW136449   0.508   3.789   6.014  2.3675 -2.3968  0.2154
 8329SOL    HW236450   0.491   3.781   6.154 -1.2742  0.0210 -0.0478
 8330SOL     OW36451   3.411   3.745   6.076 -0.0702  0.2314 -0.2485
 8330SOL    HW136452   3.392   3.747   6.170 -1.3937 -0.4392 -0.4959
 8330SOL    HW236453   3.323   3.767   6.045  0.0386  0.3311 -0.4858
 8331SOL     OW36454   4.197   1.346  10.082 -0.2755  0.0170 -0.4289
 8331SOL    HW136455   4.232   1.435  10.079  0.5207 -0.2131  1.8558
 8331SOL    HW236456   4.127   1.342  10.017  1.4516  2.5497 -2.4508
 8332SOL     OW36457   2.146   4.025   1.862 -0.3831 -0.2342 -0.3040
 8332SOL    HW136458   2.108   4.022   1.775 -1.0812 -2.8906  0.0917
 8332SOL    HW236459   2.237   4.005   1.839 -0.3492 -2.0186  1.3563
 8333SOL     OW36460   3.849   3.889   5.639 -0.1706  0.0839  0.0364
 8333SOL    HW136461   3.913   3.947   5.598 -0.2072 -0.9953 -1.5508
 8333SOL    HW236462   3.890   3.809   5.604 -1.4035  0.0062 -1.2158
 8334SOL     OW36463   3.783   1.464   5.693 -0.9284 -0.0841  0.4001
 8334SOL    HW136464   3.772   1.369   5.695 -1.4099 -0.0183  1.1206
 8334SOL    HW236465   3.863   1.469   5.641 -1.0895 -0.4925  0.1121
 8335SOL     OW36466   3.658   0.517   5.038  0.3846  0.3606 -0.5062
 8335SOL    HW136467   3.628   0.433   5.004 -0.1983  0.9816 -1.5251
 8335SOL    HW236468   3.723   0.532   4.969  0.2228  0.5076 -0.6244
 8336SOL     OW36469   1.952   1.905  16.250 -0.3608  0.0436 -0.0502
 8336SOL    HW136470   1.984   1.834  16.194 -1.6229 -0.8989  0.4269
 8336SOL    HW236471   1.920   1.960  16.179 -0.4555  0.4182  0.2847
 8337SOL     OW36472   1.093   3.247   0.646 -0.0267  0.1774  0.5006
 8337SOL    HW136473   1.011   3.296   0.634  1.1866  2.2523  0.7688
 8337SOL    HW236474   1.067   3.179   0.584 -2.3945  0.3257  1.2992
 8338SOL     OW36475   4.054   1.668   8.391 -0.3124  0.4710 -0.4167
 8338SOL    HW136476   4.127   1.730   8.390 -0.3629  0.5275 -0.9431
 8338SOL    HW236477   3.998   1.710   8.325  0.5569  1.0768 -0.7759
 8339SOL     OW36478   2.363   3.310   2.113  0.1194  0.1285  0.2408
 8339SOL    HW136479   2.271   3.286   2.122 -0.0762  0.6956 -0.2129
 8339SOL    HW236480   2.358   3.389   2.059  3.7400  0.6415  0.6771
 8340SOL     OW36481   4.631   2.857   5.767  0.0518 -0.8113  0.6412
 8340SOL    HW136482   4.610   2.851   5.860 -0.7946  2.0611  0.6308
 8340SOL    HW236483   4.570   2.917   5.724  1.4940 -0.5549 -1.0648
 8341SOL     OW36484   4.039   3.813   4.111 -0.2897 -0.1624  0.3984
 8341SOL    HW136485   4.130   3.802   4.140 -0.0857  0.1873 -0.0952
 8341SOL    HW236486   4.056   3.820   4.017 -3.7128 -1.6656 -0.3285
 8342SOL     OW36487   2.988   3.884  16.298  0.0747  0.2250  0.0293
 8342SOL    HW136488   2.921   3.843  16.353 -1.7418  0.1329 -2.2555
 8342SOL    HW236489   3.069   3.866  16.345 -1.6620 -3.5349  1.6190
 8343SOL     OW36490   0.446   3.789   1.834 -0.0852 -0.2943  0.1936
 8343SOL    HW136491   0.451   3.694   1.828 -0.2750 -0.2126 -1.1507
 8343SOL    HW236492   0.532   3.816   1.802 -0.0817  0.5635  0.9069
 8344SOL     OW36493   4.122   2.308   2.877 -0.2341 -0.1007 -0.0348
 8344SOL    HW136494   4.164   2.320   2.792  1.3618 -0.9956  0.6294
 8344SOL    HW236495   4.163   2.231   2.916 -1.0143 -0.4921  0.0302
 8345SOL     OW36496   4.418   2.017   8.908 -0.1966  0.6541  0.0477
 8345SOL    HW136497   4.390   1.949   8.846 -1.1934  0.4550  0.7266
 8345SOL    HW236498   4.492   1.974   8.950 -0.7402  1.7100  2.0543
 8346SOL     OW36499   1.416   4.302  15.592 -0.0556  0.3886 -0.7524
 8346SOL    HW136500   1.457   4.291  15.678 -1.3429 -0.0917 -0.2098
 8346SOL    HW236501   1.460   4.376  15.550 -1.1715  0.9880 -0.8674
 8347SOL     OW36502   1.005   1.011  17.097 -0.1779 -0.1380 -0.3577
 8347SOL    HW136503   0.970   0.958  17.168 -1.1681 -0.8971 -1.4144
 8347SOL    HW236504   0.957   0.984  17.019 -1.7993 -0.0192  0.5907
 8348SOL     OW36505   2.211   4.490   7.972  0.5968 -0.4654 -0.1321
 8348SOL    HW136506   2.253   4.414   8.012 -1.5565 -0.4926  2.0592
 8348SOL    HW236507   2.207   4.458   7.882 -0.0610 -0.3710 -0.1403
 8349SOL     OW36508   2.139   0.125   7.769 -0.1506 -0.1752 -0.7126
 8349SOL    HW136509   2.099   0.070   7.702 -0.8192  2.2265 -2.2700
 8349SOL    HW236510   2.085   0.204   7.768 -2.6862 -1.8892 -1.0462
 8350SOL     OW36511   3.204   0.164   5.809 -0.3044  0.2517  0.7321
 8350SOL    HW136512   3.293   0.151   5.776  0.1479  0.0990  2.0165
 8350SOL    HW236513   3.214   0.131   5.899 -0.5226 -3.7748 -0.7396
 8351SOL     OW36514   2.194   4.603  10.581  0.4847 -0.0328 -1.1192
 8351SOL    HW136515   2.238   4.547  10.645  1.6035  1.0514 -0.9243
 8351SOL    HW236516   2.237   4.593  10.496  1.2993 -2.4607 -0.4437
 8352SOL     OW36517   1.117   4.010  10.101 -0.0903  0.3040 -0.3026
 8352SOL    HW136518   1.069   3.937  10.140 -0.1729  1.3879  1.6822
 8352SOL    HW236519   1.200   4.001  10.149 -0.9175  0.0485  1.0830
 8353SOL     OW36520   0.560   3.563  10.352 -0.0743 -0.2495 -0.4650
 8353SOL    HW136521   0.522   3.553  10.265 -0.6902  0.6553 -0.3035
 8353SOL    HW236522   0.536   3.478  10.390  0.1166 -1.5169 -3.1780
 8354SOL     OW36523   3.185   4.038  16.977  0.4436 -0.3599 -0.0087
 8354SOL    HW136524   3.133   4.107  16.938  1.0699  1.0670  1.6621
 8354SOL    HW236525   3.120   3.985  17.024  0.3854 -0.2840 -0.0052
 8355SOL     OW36526   1.706   1.004   2.166 -0.0857  0.4558  0.1703
 8355SOL    HW136527   1.612   0.998   2.149 -0.4424  1.9552  1.6631
 8355SOL    HW236528   1.713   1.073   2.232 -0.2097  0.3640  0.2779
 8356SOL     OW36529   0.847   3.425   3.166 -0.6655 -0.2268  0.1440
 8356SOL    HW136530   0.815   3.503   3.120  0.9452 -0.2102 -0.9590
 8356SOL    HW236531   0.807   3.366   3.102  1.8622 -1.0638 -0.6909
 8357SOL     OW36532   3.182   3.790   0.326  0.5608 -0.2494 -0.3789
 8357SOL    HW136533   3.230   3.790   0.409  0.4067 -1.0252 -0.2860
 8357SOL    HW236534   3.258   3.784   0.268  0.6998  1.2107 -0.3401
 8358SOL     OW36535   2.925   0.155   0.752  0.8093  0.1457 -0.6060
 8358SOL    HW136536   2.947   0.134   0.661 -1.7159  1.0930 -1.4303
 8358SOL    HW236537   2.831   0.170   0.740  0.9109  0.8676 -0.4786
 8359SOL     OW36538   0.456   4.018  17.144 -0.0422  0.4966  0.2785
 8359SOL    HW136539   0.518   3.951  17.172 -1.6989 -1.0559  0.2318
 8359SOL    HW236540   0.381   3.999  17.200  1.7358 -4.3396  1.0080
 8360SOL     OW36541   0.085   1.531   3.107  0.1826 -0.0845  0.0977
 8360SOL    HW136542   0.064   1.438   3.106 -0.4236  0.0266  3.3804
 8360SOL    HW236543   0.100   1.546   3.200 -3.0260  0.8188  0.4980
 8361SOL     OW36544   4.304   2.319   7.605  0.0985  0.3980 -0.1068
 8361SOL    HW136545   4.319   2.407   7.638 -0.9583  0.0364  1.3401
 8361SOL    HW236546   4.354   2.324   7.524 -1.6792 -1.6190 -1.3637
 8362SOL     OW36547   2.082   2.895   5.914  0.1264 -0.2465 -0.1332
 8362SOL    HW136548   2.154   2.923   5.857  0.2123 -0.1180  0.0396
 8362SOL    HW236549   2.018   2.876   5.845  1.5757  2.7632 -2.2931
 8363SOL     OW36550   3.350   0.023   8.414  0.1426 -0.6350  0.1487
 8363SOL    HW136551   3.345   4.676   8.480 -1.0348 -0.8000 -0.1116
 8363SOL    HW236552   3.333   0.103   8.463  5.2373  0.3323  0.3368
 8364SOL     OW36553   4.086   1.394   4.748 -0.3257 -0.0413  0.2427
 8364SOL    HW136554   4.067   1.301   4.738  2.0243 -0.4958 -0.0410
 8364SOL    HW236555   4.008   1.413   4.800 -0.4419  2.1353 -0.7264
 8365SOL     OW36556   0.484   0.568   0.562  0.3082 -0.1179 -1.1659
 8365SOL    HW136557   0.395   0.591   0.588  0.9739 -1.3736  2.3108
 8365SOL    HW236558   0.526   0.644   0.602  0.5157 -0.7589 -0.1572
 8366SOL     OW36559   1.677   0.383  13.923 -0.0020  0.3848 -0.0648
 8366SOL    HW136560   1.622   0.431  13.862 -1.3993 -0.7800  0.2515
 8366SOL    HW236561   1.650   0.293  13.904  1.2001  0.6110 -2.7595
 8367SOL     OW36562   4.591   4.304   5.107  0.3003 -1.0363  0.1144
 8367SOL    HW136563   4.540   4.223   5.108 -0.8695 -0.3032 -0.5403
 8367SOL    HW236564   4.529   4.351   5.052  1.4935  0.5109  0.0937
 8368SOL     OW36565   1.882   4.387  16.864  0.0111  0.4677 -0.5835
 8368SOL    HW136566   1.824   4.313  16.846 -0.3610  1.3534 -2.9931
 8368SOL    HW236567   1.922   4.399  16.778 -2.9130  3.0827 -1.5718
 8369SOL     OW36568   1.694   3.519   3.284  0.1288 -0.0203 -0.3648
 8369SOL    HW136569   1.710   3.461   3.210  0.7758  0.7110 -0.7931
 8369SOL    HW236570   1.764   3.584   3.292  0.8505 -0.9424  0.9067
 8370SOL     OW36571   2.375   0.488   5.427 -0.3794 -0.0277  0.4723
 8370SOL    HW136572   2.461   0.484   5.469 -0.5448  3.1833  1.1057
 8370SOL    HW236573   2.364   0.577   5.394  3.3746 -0.0817 -0.9757
 8371SOL     OW36574   0.515   1.949  10.504  0.0359 -0.2931 -0.0889
 8371SOL    HW136575   0.543   1.888  10.436 -0.4526  0.0604 -0.6040
 8371SOL    HW236576   0.599   1.971  10.545 -0.2897  2.5139 -0.9767
 8372SOL     OW36577   4.495   1.604  15.728 -0.3320  0.4041  0.0604
 8372SOL    HW136578   4.477   1.541  15.797 -0.1909  0.6243  0.2963
 8372SOL    HW236579   4.537   1.667  15.787  1.7088 -0.5706 -0.3458
 8373SOL     OW36580   0.360   3.175   5.857  0.2912 -0.3504  1.0725
 8373SOL    HW136581   0.455   3.187   5.867  0.3819  0.2406 -0.4999
 8373SOL    HW236582   0.341   3.115   5.929  2.1782 -0.7569  1.2285
 8374SOL     OW36583   3.842   3.195   0.017  0.6884  0.0939 -0.7214
 8374SOL    HW136584   3.806   3.106   0.011 -1.2126  0.8582 -0.3788
 8374SOL    HW236585   3.818   3.226  17.620  1.3946  2.7746  0.0629
 8375SOL     OW36586   1.779   0.033   3.280  0.1080 -0.4410  0.1697
 8375SOL    HW136587   1.761   0.101   3.214 -0.3079 -0.1756  0.5583
 8375SOL    HW236588   1.689   0.001   3.286  1.1447 -3.3971 -0.0443
 8376SOL     OW36589   2.759   1.512   3.720 -0.0158  0.1110 -0.5139
 8376SOL    HW136590   2.784   1.507   3.812  0.1150 -1.2312 -0.6226
 8376SOL    HW236591   2.784   1.421   3.701 -0.5877  0.6773 -3.8891
 8377SOL     OW36592   4.303   3.639   8.337 -0.5561  0.4926 -0.2071
 8377SOL    HW136593   4.377   3.592   8.377 -1.1471 -0.9255 -0.7572
 8377SOL    HW236594   4.338   3.647   8.248 -1.5660  2.5924 -0.4180
 8378SOL     OW36595   3.681   4.409  10.149  0.2077  0.0971  0.9527
 8378SOL    HW136596   3.651   4.350  10.218 -0.9789 -0.4975 -0.0703
 8378SOL    HW236597   3.656   4.495  10.180  1.6100  0.7669  0.2440
 8379SOL     OW36598   4.381   2.942   3.966  0.7924  0.2444  0.0177
 8379SOL    HW136599   4.362   2.951   3.872 -1.0271 -0.6921  0.2979
 8379SOL    HW236600   4.320   2.876   3.999  0.5005  1.3049  1.5843
 8380SOL     OW36601   2.263   4.109   3.017  0.1323 -0.1943  0.2175
 8380SOL    HW136602   2.309   4.033   2.982 -0.5927 -0.3133 -0.4647
 8380SOL    HW236603   2.237   4.144   2.932  1.0534  0.8551  0.3633
 8381SOL     OW36604   2.238   3.472   5.276  0.0188  0.1902  0.2557
 8381SOL    HW136605   2.142   3.467   5.272 -0.0894  0.5311  2.3264
 8381SOL    HW236606   2.257   3.562   5.302 -1.5962 -0.3695  3.4197
 8382SOL     OW36607   3.572   0.386   7.777  0.4409 -0.3314 -0.0214
 8382SOL    HW136608   3.551   0.297   7.749 -0.0316  0.1353 -1.1532
 8382SOL    HW236609   3.660   0.368   7.809  1.1140 -1.3033 -2.4349
 8383SOL     OW36610   0.260   0.490  11.020 -0.3682 -0.0854  0.1518
 8383SOL    HW136611   0.324   0.549  11.059  1.5685 -0.4586 -2.4351
 8383SOL    HW236612   0.274   0.412  11.074 -2.0302 -0.9133 -0.6279
 8384SOL     OW36613   2.908   4.406   2.587 -0.1519 -0.0686 -0.1808
 8384SOL    HW136614   2.987   4.373   2.630 -0.5032  2.5937  2.4753
 8384SOL    HW236615   2.869   4.331   2.543  1.6580 -0.8600 -0.4659
 8385SOL     OW36616   0.698   1.587  10.179 -0.0757  0.3761 -0.6102
 8385SOL    HW136617   0.636   1.655  10.205 -1.0998 -0.0689 -1.9258
 8385SOL    HW236618   0.759   1.598  10.253  2.2308 -0.4899 -2.3946
 8386SOL     OW36619   2.728   1.124  11.141 -0.0721 -0.3923  0.5431
 8386SOL    HW136620   2.739   1.155  11.231  1.7377 -0.7682  0.4460
 8386SOL    HW236621   2.655   1.179  11.112  1.0652 -0.1707 -1.9278
 8387SOL     OW36622   3.445   0.577   3.228  0.0380 -0.7344 -0.2345
 8387SOL    HW136623   3.424   0.542   3.315  1.7281  0.2753  0.5791
 8387SOL    HW236624   3.390   0.524   3.170 -0.5252 -1.5228  1.0252
 8388SOL     OW36625   3.603   4.381   5.235 -0.3802 -0.9182  0.0797
 8388SOL    HW136626   3.572   4.436   5.163 -0.0229  1.3043  1.6311
 8388SOL    HW236627   3.587   4.460   5.287 -0.2269 -0.8934  0.0889
 8389SOL     OW36628   0.265   4.150   8.590  0.2823 -0.1520  0.4337
 8389SOL    HW136629   0.327   4.223   8.591 -1.7596  1.5529  2.6462
 8389SOL    HW236630   0.313   4.071   8.613  1.0670 -0.5293 -2.4860
 8390SOL     OW36631   0.726   3.051  10.479 -0.1497 -0.2467  0.0858
 8390SOL    HW136632   0.812   3.050  10.521  0.7879 -2.2671 -1.8972
 8390SOL    HW236633   0.666   3.048  10.553 -0.9445 -3.3311 -0.6627
 8391SOL     OW36634   1.611   0.478   3.177  0.0290 -0.6530 -0.0844
 8391SOL    HW136635   1.646   0.563   3.201 -2.3646  0.6943 -1.4040
 8391SOL    HW236636   1.601   0.484   3.082 -0.4611 -3.1821 -0.2081
 8392SOL     OW36637   3.215   1.575  11.491 -0.6200 -0.0272  0.4486
 8392SOL    HW136638   3.269   1.643  11.449  1.0768 -1.1091  0.8938
 8392SOL    HW236639   3.137   1.627  11.509 -0.1712  1.0956 -0.8461
 8393SOL     OW36640   1.566   2.725   2.916  0.5927  0.2820  0.5191
 8393SOL    HW136641   1.501   2.763   2.857  1.4276  2.9546  1.3090
 8393SOL    HW236642   1.630   2.796   2.910 -0.0145  0.7583 -0.1782
 8394SOL     OW36643   3.773   1.648  12.395 -0.0640 -0.0559  0.0586
 8394SOL    HW136644   3.783   1.563  12.437 -2.9911 -0.7639 -0.6695
 8394SOL    HW236645   3.720   1.615  12.323  0.4717  0.0098 -0.3648
 8395SOL     OW36646   1.007   4.472   3.175 -0.4580 -0.5943 -0.1860
 8395SOL    HW136647   1.022   4.386   3.137 -0.9446 -1.5033  1.6582
 8395SOL    HW236648   1.008   4.533   3.101  0.3809  0.2495  0.5262
 8396SOL     OW36649   1.384   3.254   2.064 -0.7781 -0.9255 -0.3601
 8396SOL    HW136650   1.465   3.226   2.107 -0.0257  0.8191 -0.6169
 8396SOL    HW236651   1.345   3.301   2.138  1.0568 -1.0377  0.6868
 8397SOL     OW36652   3.621   2.243   5.038 -0.4612  0.4663  0.0258
 8397SOL    HW136653   3.589   2.165   5.081 -1.0780 -0.5611 -2.2808
 8397SOL    HW236654   3.539   2.292   5.032 -0.5416  0.1884 -1.0942
 8398SOL     OW36655   3.053   1.891   8.960 -0.3645  0.2709  0.1544
 8398SOL    HW136656   2.978   1.932   9.003  0.0085  0.5539  0.5259
 8398SOL    HW236657   3.118   1.929   9.018 -0.2430  0.6371 -0.2225
 8399SOL     OW36658   3.720   0.039  13.730  0.3103  0.0812  0.4102
 8399SOL    HW136659   3.695   4.670  13.711 -1.0368 -0.0317  2.7580
 8399SOL    HW236660   3.691   0.055  13.820  1.4958 -0.3805  0.8694
 8400SOL     OW36661   0.869   2.923   6.047  0.3749  0.8004 -0.2675
 8400SOL    HW136662   0.921   2.996   6.081  0.1011  0.9145 -0.0889
 8400SOL    HW236663   0.940   2.860   6.053 -2.0392 -1.9587 -0.5018
 8401SOL     OW36664   4.582   2.112   1.895 -0.4430 -0.1734  0.3133
 8401SOL    HW136665   4.560   2.066   1.976  0.3417 -0.7437  0.2073
 8401SOL    HW236666   4.546   2.199   1.914 -0.4410 -0.3373  1.0505
 8402SOL     OW36667   2.107   0.816   5.024  0.6989 -0.0360 -0.5384
 8402SOL    HW136668   2.200   0.796   5.037  0.7383 -0.8657 -2.1850
 8402SOL    HW236669   2.110   0.860   4.939  0.7471  0.6242 -0.1989
 8403SOL     OW36670   1.371   3.926  12.082  0.3787 -0.6838  0.0283
 8403SOL    HW136671   1.438   3.887  12.026 -0.5446  0.3044 -1.7625
 8403SOL    HW236672   1.393   3.884  12.165 -0.9380 -2.2461 -0.4200
 8404SOL     OW36673   2.399   0.119  16.199 -0.3266 -0.2917  0.1979
 8404SOL    HW136674   2.409   0.103  16.105 -0.7597 -0.0055  0.1013
 8404SOL    HW236675   2.360   0.206  16.198  0.1171 -0.0981  0.1010
 8405SOL     OW36676   1.885   4.106   9.588  0.1186  0.7521 -0.2616
 8405SOL    HW136677   1.942   4.183   9.582  2.4513 -1.1702 -3.2813
 8405SOL    HW236678   1.801   4.146   9.568 -2.1579 -2.2729  3.5376
 8406SOL     OW36679   2.719   2.698   3.217 -0.3739 -0.2884 -0.6579
 8406SOL    HW136680   2.774   2.624   3.190  2.3459  1.6511 -0.4743
 8406SOL    HW236681   2.786   2.766   3.207 -1.4473  1.0414  1.2824
 8407SOL     OW36682   3.946   4.247   5.764 -0.1393  0.0573 -0.7451
 8407SOL    HW136683   3.934   4.223   5.856  0.8328 -0.0087 -0.6337
 8407SOL    HW236684   3.863   4.296   5.760  1.0821  2.2904  1.1996
 8408SOL     OW36685   0.278   4.318   6.767  0.1129 -0.3490  0.2477
 8408SOL    HW136686   0.237   4.237   6.736  0.6914  0.4541 -2.6250
 8408SOL    HW236687   0.328   4.341   6.688 -0.4214 -1.9462 -0.5716
 8409SOL     OW36688   1.051   0.662   5.512 -0.3311  0.3513 -0.7508
 8409SOL    HW136689   1.019   0.585   5.559  0.8363  0.4810  0.2553
 8409SOL    HW236690   1.000   0.738   5.541  0.3210  0.6153 -0.3041
 8410SOL     OW36691   0.835   1.705   4.699 -0.3258 -0.6392  0.2718
 8410SOL    HW136692   0.744   1.678   4.690 -1.1788  1.2820  3.3079
 8410SOL    HW236693   0.859   1.665   4.615  2.1047  0.5397  0.3886
 8411SOL     OW36694   2.258   0.116   0.533  0.5108 -0.0735 -0.2665
 8411SOL    HW136695   2.193   0.130   0.464 -0.4116  1.9770  1.0046
 8411SOL    HW236696   2.233   0.180   0.600 -1.6593 -3.1790  1.9284
 8412SOL     OW36697   2.397   0.226  13.752  0.0389  0.0414  1.1213
 8412SOL    HW136698   2.405   0.151  13.692 -0.7787 -2.1518  3.7435
 8412SOL    HW236699   2.324   0.270  13.709  1.3431  2.6218  1.5944
 8413SOL     OW36700   0.181   1.181  10.225 -0.0747  0.0345 -0.5726
 8413SOL    HW136701   0.244   1.202  10.293  0.5060 -0.8444 -0.8243
 8413SOL    HW236702   0.214   1.240  10.158 -1.9084 -0.7296 -2.1512
 8414SOL     OW36703   2.481   3.969   0.530 -0.0854  0.4489  0.0694
 8414SOL    HW136704   2.401   3.971   0.477  1.0156 -1.3710 -1.6644
 8414SOL    HW236705   2.549   3.936   0.471 -0.4203  0.7699 -0.4930
 8415SOL     OW36706   3.020   0.350   3.901  0.0394 -0.3838 -0.0203
 8415SOL    HW136707   2.928   0.325   3.888  0.2782 -1.8169  1.0951
 8415SOL    HW236708   3.023   0.360   3.996 -1.1012  0.9362 -0.1099
 8416SOL     OW36709   4.261   4.134  17.398  0.6166  0.1003 -0.2682
 8416SOL    HW136710   4.250   4.168  17.487 -1.8591 -0.6662 -0.2806
 8416SOL    HW236711   4.343   4.085  17.396  1.0715  0.8836 -0.6981
 8417SOL     OW36712   0.533   0.844  15.593 -0.7009  0.7262  0.5933
 8417SOL    HW136713   0.606   0.873  15.647 -0.0824  3.0565 -1.4643
 8417SOL    HW236714   0.546   0.901  15.517 -3.2058  0.5003 -0.0058
 8418SOL     OW36715   2.002   0.754   4.578  0.1026  0.1103  0.7265
 8418SOL    HW136716   1.982   0.775   4.487 -1.1688 -1.8078  0.5631
 8418SOL    HW236717   2.044   0.668   4.569 -1.5769 -0.5453 -0.9673
 8419SOL     OW36718   0.375   1.948   3.559  0.1351  0.0359 -0.7255
 8419SOL    HW136719   0.444   1.995   3.604 -0.5423  0.2288  0.1051
 8419SOL    HW236720   0.309   2.015   3.539 -0.1341  0.2140  0.7665
 8420SOL     OW36721   2.335   2.356   7.151 -0.2700  0.1296 -1.0852
 8420SOL    HW136722   2.241   2.339   7.162 -0.4559  0.4346 -2.1217
 8420SOL    HW236723   2.366   2.286   7.094  0.8071 -1.3375  1.3411
 8421SOL     OW36724   4.682   3.816  17.672  0.0470 -0.1467 -0.1636
 8421SOL    HW136725   4.587   3.802  17.674 -0.1346  1.2500  0.7776
 8421SOL    HW236726   4.694   3.840   0.074  1.2951 -0.2622 -0.2933
 8422SOL     OW36727   3.636   3.572   8.716 -0.2751 -0.0672 -0.2756
 8422SOL    HW136728   3.691   3.604   8.788 -0.9019 -0.3719  0.3338
 8422SOL    HW236729   3.683   3.593   8.635  0.7918  0.4369  0.4773
 8423SOL     OW36730   1.491   3.338   7.633  0.0015  0.2845  0.6296
 8423SOL    HW136731   1.462   3.398   7.702 -1.4424  1.0994 -0.7103
 8423SOL    HW236732   1.567   3.385   7.599  0.4743  1.4550  3.2637
 8424SOL     OW36733   2.337   1.644  10.701  0.3441  0.4387  0.1561
 8424SOL    HW136734   2.408   1.687  10.747  2.2511 -0.4212 -1.9679
 8424SOL    HW236735   2.391   1.611  10.629  0.5811 -0.2443  0.6574
 8425SOL     OW36736   3.573   0.030  11.644 -0.1222  0.0610  0.0824
 8425SOL    HW136737   3.494   4.705  11.617 -0.2907  0.2371  0.2652
 8425SOL    HW236738   3.573   0.102  11.581  0.7068 -0.6845 -0.7698
 8426SOL     OW36739   3.577   1.542   8.523  0.4277  0.0016 -0.4918
 8426SOL    HW136740   3.634   1.619   8.532  2.6797 -1.6473 -0.4304
 8426SOL    HW236741   3.601   1.530   8.431 -0.7639  2.0797 -1.0625
 8427SOL     OW36742   1.140   3.256   9.854  1.0415  0.1218  0.0477
 8427SOL    HW136743   1.109   3.307   9.929 -4.0251  1.7294 -3.1466
 8427SOL    HW236744   1.094   3.288   9.777 -1.6195 -0.9764  1.1862
 8428SOL     OW36745   2.624   2.609   0.515 -0.5661 -0.5221  0.3406
 8428SOL    HW136746   2.657   2.615   0.605  1.1293 -1.0650 -0.2311
 8428SOL    HW236747   2.660   2.527   0.479 -0.1811 -0.8563  1.5008
 8429SOL     OW36748   0.809   1.735  13.648 -0.1854  0.1155  0.6937
 8429SOL    HW136749   0.901   1.741  13.674  0.2167  0.6801 -0.8662
 8429SOL    HW236750   0.779   1.822  13.674  0.0087 -0.5217  3.0997
 8430SOL     OW36751   3.255   3.500  10.104 -0.5507  0.1317 -0.0324
 8430SOL    HW136752   3.162   3.499  10.079 -0.2387  0.3187 -1.2212
 8430SOL    HW236753   3.252   3.545  10.188 -1.6921  1.4209 -0.7577
 8431SOL     OW36754   1.794   3.461   1.581  0.4186 -0.5298  0.6047
 8431SOL    HW136755   1.730   3.516   1.535  1.2133 -0.0950  0.0152
 8431SOL    HW236756   1.775   3.374   1.545 -0.0535 -0.4791  0.7332
 8432SOL     OW36757   4.395   2.953   9.107 -0.1620  0.5624 -0.4882
 8432SOL    HW136758   4.394   2.891   9.035 -0.5227  1.0105 -0.8671
 8432SOL    HW236759   4.394   2.897   9.185 -0.8030 -0.1609 -1.0245
 8433SOL     OW36760   4.117   3.566   6.009 -0.0302 -0.4087  0.2617
 8433SOL    HW136761   4.057   3.574   6.084  1.4668 -0.1637  1.4387
 8433SOL    HW236762   4.192   3.618   6.036 -1.3219  1.3200  0.5623
 8434SOL     OW36763   4.436   2.814   3.458 -0.2534 -0.0720 -0.5790
 8434SOL    HW136764   4.530   2.832   3.460  0.0288 -1.7277  0.7119
 8434SOL    HW236765   4.428   2.734   3.509  0.6751  0.9524  1.1777
 8435SOL     OW36766   1.434   3.276  14.384 -0.0992  0.2595 -0.0485
 8435SOL    HW136767   1.493   3.351  14.374 -0.5241  0.2983 -2.2607
 8435SOL    HW236768   1.364   3.302  14.324 -0.5876 -0.8716  0.0437
 8436SOL     OW36769   3.555   4.312   3.544 -0.3398  0.3056  0.2833
 8436SOL    HW136770   3.525   4.221   3.545  1.0850 -0.1915 -1.6820
 8436SOL    HW236771   3.603   4.314   3.627 -1.4683  1.3532  0.9104
 8437SOL     OW36772   0.341   2.736   5.309  0.1803  0.0237  0.2085
 8437SOL    HW136773   0.269   2.740   5.246  0.7575 -0.7286 -0.5002
 8437SOL    HW236774   0.346   2.640   5.316  2.0572  0.0884 -0.2252
 8438SOL     OW36775   2.223   3.733   1.776 -0.3568  0.1366  0.6932
 8438SOL    HW136776   2.296   3.795   1.772 -0.2393 -0.0239  0.3050
 8438SOL    HW236777   2.189   3.735   1.686  1.2280  0.0192  0.0932
 8439SOL     OW36778   3.362   2.719  16.673  0.2528 -0.0600 -0.1643
 8439SOL    HW136779   3.436   2.775  16.693  0.2953  0.5690 -2.1018
 8439SOL    HW236780   3.285   2.776  16.669  1.5077  1.6802  0.6329
 8440SOL     OW36781   1.309   0.066   1.195 -0.2478 -0.4295  0.4776
 8440SOL    HW136782   1.215   0.057   1.176  0.3682 -4.4153 -0.7831
 8440SOL    HW236783   1.352   4.721   1.142 -1.2691 -1.8810  1.4913
 8441SOL     OW36784   0.919   3.959   6.749 -0.0865 -0.4219  0.2281
 8441SOL    HW136785   0.834   4.005   6.752  0.8505  1.1679  2.7326
 8441SOL    HW236786   0.988   4.025   6.754 -0.0632 -0.3954 -0.5003
 8442SOL     OW36787   2.524   3.192   5.683 -0.0783  0.2934  0.2504
 8442SOL    HW136788   2.462   3.234   5.624 -0.2479 -0.3710 -0.0493
 8442SOL    HW236789   2.493   3.212   5.771  0.6533 -0.7412  0.7485
 8443SOL     OW36790   1.318   2.722   5.923 -0.1205  0.0994 -0.0465
 8443SOL    HW136791   1.266   2.692   5.849  1.1914 -2.2602 -0.0173
 8443SOL    HW236792   1.397   2.741   5.874  0.4404 -1.2375  0.3433
 8444SOL     OW36793   2.101   3.939   2.444  0.4714 -0.1415  0.2950
 8444SOL    HW136794   2.053   3.856   2.436 -2.0661  1.4608 -1.0045
 8444SOL    HW236795   2.026   3.994   2.466  1.3504  1.1842 -0.0170
 8445SOL     OW36796   4.199   1.807   8.053  0.4730  0.1097  0.5430
 8445SOL    HW136797   4.249   1.739   8.098  2.1897  0.8031 -0.3320
 8445SOL    HW236798   4.134   1.829   8.121 -0.4723 -2.9317  0.6217
 8446SOL     OW36799   2.692   4.151   5.855 -0.0373  0.2003 -0.1285
 8446SOL    HW136800   2.687   4.102   5.773 -0.2610 -0.0281  0.0192
 8446SOL    HW236801   2.778   4.192   5.846 -0.9297  2.1619  0.2465
 8447SOL     OW36802   0.307   0.928  12.025  0.2992  0.0633  0.3795
 8447SOL    HW136803   0.363   1.005  12.010  0.9200 -0.3955  0.3699
 8447SOL    HW236804   0.312   0.929  12.120  1.2868  1.9870  0.3024
 8448SOL     OW36805   0.292   1.729   4.592  0.3927  0.2992 -0.3365
 8448SOL    HW136806   0.221   1.711   4.654 -0.7272 -0.9019 -1.9401
 8448SOL    HW236807   0.247   1.794   4.538  0.7771  0.2655 -0.7033
 8449SOL     OW36808   2.903   2.908   4.803 -0.1367  0.7610 -0.5750
 8449SOL    HW136809   2.996   2.898   4.821  0.1629  1.2403 -1.8322
 8449SOL    HW236810   2.873   2.838   4.745 -0.8930  0.8086 -0.2469
 8450SOL     OW36811   1.645   4.555   9.021  0.0904  0.4544  0.0985
 8450SOL    HW136812   1.585   4.619   8.982  0.2167  2.0844  2.6002
 8450SOL    HW236813   1.710   4.618   9.050  0.2790  0.0997  0.4464
 8451SOL     OW36814   3.508   2.125  16.282  0.6876 -0.4697  0.4655
 8451SOL    HW136815   3.589   2.150  16.325  0.0990  2.2968 -0.0656
 8451SOL    HW236816   3.455   2.204  16.294 -0.0934 -0.7814 -0.8623
 8452SOL     OW36817   4.121   2.603   2.525 -0.0236  0.6457 -0.5491
 8452SOL    HW136818   4.042   2.622   2.576 -0.2245 -0.0720 -0.5894
 8452SOL    HW236819   4.079   2.606   2.439  0.1698 -1.6045 -0.7112
 8453SOL     OW36820   3.670   0.563  15.304  0.3007 -0.7098  0.1125
 8453SOL    HW136821   3.673   0.651  15.268 -1.5325 -1.4524 -1.8522
 8453SOL    HW236822   3.730   0.518  15.246  0.0697 -0.6060 -0.2099
 8454SOL     OW36823   1.143   3.342   5.986 -0.4725 -1.0779 -0.6136
 8454SOL    HW136824   1.211   3.392   6.031 -0.9255  0.6776 -1.8553
 8454SOL    HW236825   1.074   3.408   5.981 -0.6137 -1.3159 -1.9735
 8455SOL     OW36826   2.077   2.425  11.629  0.0187  0.0024  0.4198
 8455SOL    HW136827   2.097   2.518  11.629  0.2775 -0.0529  0.8965
 8455SOL    HW236828   2.031   2.422  11.546  2.0326  2.0443 -0.7651
 8456SOL     OW36829   3.888   4.409   9.368  0.0326 -0.1207 -0.3514
 8456SOL    HW136830   3.907   4.379   9.456 -0.8008  0.4594  0.0311
 8456SOL    HW236831   3.972   4.451   9.352 -0.0266 -0.4560 -1.5228
 8457SOL     OW36832   3.947   0.978  10.103  0.3372 -0.3595 -0.4597
 8457SOL    HW136833   4.027   0.941  10.140 -0.5406  0.4267  2.2414
 8457SOL    HW236834   3.909   1.000  10.188 -1.4959 -0.5223 -1.2528
 8458SOL     OW36835   4.055   0.438  10.761 -0.2861  0.7252  0.3504
 8458SOL    HW136836   4.039   0.520  10.713  0.7769  1.6871  1.6375
 8458SOL    HW236837   4.065   0.462  10.853 -0.0517 -1.1887  0.8126
 8459SOL     OW36838   3.323   0.805   1.770 -0.4616  0.3908 -0.2357
 8459SOL    HW136839   3.313   0.853   1.688 -1.6526 -0.6125 -0.6850
 8459SOL    HW236840   3.418   0.791   1.770 -0.5578 -0.4119  1.7172
 8460SOL     OW36841   4.281   1.191   7.483  0.0773  0.8187  0.1909
 8460SOL    HW136842   4.306   1.114   7.532 -0.1320 -0.6917 -2.0683
 8460SOL    HW236843   4.226   1.236   7.547 -0.7963  0.2289 -0.1449
 8461SOL     OW36844   4.341   0.722  14.189  0.0567 -0.0825 -0.1076
 8461SOL    HW136845   4.428   0.716  14.228  0.2394  2.2748 -0.1692
 8461SOL    HW236846   4.376   0.725  14.099  2.7770 -2.2196  0.8757
 8462SOL     OW36847   2.449   4.099  14.635 -0.2955  0.1534  0.9140
 8462SOL    HW136848   2.497   4.056  14.705 -0.7988  0.8118  1.6670
 8462SOL    HW236849   2.412   4.025  14.588 -1.3467  0.1228  1.8030
 8463SOL     OW36850   3.252   0.377  13.444 -0.4265  0.6836 -0.1856
 8463SOL    HW136851   3.244   0.433  13.366  0.0379 -0.0467 -0.7606
 8463SOL    HW236852   3.176   0.318  13.443  1.0327 -1.2394  1.8659
 8464SOL     OW36853   4.061   1.577   4.476  0.5912  0.1445  0.1639
 8464SOL    HW136854   4.101   1.552   4.559  1.3493  0.7148 -0.0182
 8464SOL    HW236855   3.990   1.637   4.497  1.6148  1.2075  0.6025
 8465SOL     OW36856   2.635   2.902   8.871 -0.1905  0.5359  0.3188
 8465SOL    HW136857   2.717   2.942   8.841 -1.1437  1.3724 -1.1948
 8465SOL    HW236858   2.668   2.816   8.896 -1.5062  0.5398  2.0504
 8466SOL     OW36859   1.622   0.899   8.687 -0.2002  0.0081 -0.1991
 8466SOL    HW136860   1.653   0.938   8.769 -0.7055 -2.6438  1.2630
 8466SOL    HW236861   1.705   0.871   8.647 -1.2683  0.3814 -2.6931
 8467SOL     OW36862   3.665   4.543   3.115  0.7566  0.3200  0.1899
 8467SOL    HW136863   3.678   4.634   3.140  1.2411 -0.2049  1.8108
 8467SOL    HW236864   3.693   4.503   3.197  2.1302 -1.4906 -1.1484
 8468SOL     OW36865   3.445   0.947   3.778 -0.1726 -0.0490  0.1803
 8468SOL    HW136866   3.519   0.998   3.746 -0.9060  0.7258 -0.2490
 8468SOL    HW236867   3.390   1.004   3.831  0.0087  1.0158 -0.7916
 8469SOL     OW36868   2.836   1.432   7.425  0.5048 -0.6729 -0.3865
 8469SOL    HW136869   2.774   1.495   7.387  0.3296 -1.2513 -1.0684
 8469SOL    HW236870   2.812   1.356   7.372  0.8287 -0.3076 -1.0587
 8470SOL     OW36871   3.251   1.834  12.680 -0.2369 -0.0213 -0.1703
 8470SOL    HW136872   3.270   1.772  12.750  1.8527  2.4841  1.5062
 8470SOL    HW236873   3.294   1.781  12.612 -1.8351 -0.2327 -1.0015
 8471SOL     OW36874   3.570   2.592   6.191  0.1437 -0.3471  0.1238
 8471SOL    HW136875   3.648   2.555   6.150  0.0583 -2.1015  1.5605
 8471SOL    HW236876   3.526   2.522   6.239  1.5260  0.6869  2.8836
 8472SOL     OW36877   2.281   3.957   4.870 -0.3766 -0.3771 -0.2460
 8472SOL    HW136878   2.311   3.867   4.861  1.4248  0.2856 -0.8856
 8472SOL    HW236879   2.264   3.963   4.964 -2.4492 -1.8899 -0.5057
 8473SOL     OW36880   1.752   2.940   7.104  0.4771 -0.0032  0.5076
 8473SOL    HW136881   1.743   2.886   7.182 -1.6539  0.7804  0.8087
 8473SOL    HW236882   1.776   2.876   7.038 -0.0178 -0.5748  0.8892
 8474SOL     OW36883   2.410   2.054   5.912  0.4238  0.2978 -0.6903
 8474SOL    HW136884   2.343   1.991   5.885 -0.6202  1.6245 -1.2132
 8474SOL    HW236885   2.478   2.020   5.854  0.9959 -0.4564  0.4294
 8475SOL     OW36886   0.978   1.804   0.990  0.4784  0.2179 -0.5659
 8475SOL    HW136887   0.951   1.712   1.001 -0.5799  0.3649 -1.9231
 8475SOL    HW236888   0.923   1.837   0.919 -1.7764 -0.9590  0.6161
 8476SOL     OW36889   2.237   4.220   6.205 -0.1803 -0.3694  0.6744
 8476SOL    HW136890   2.288   4.301   6.216 -1.2904  0.6919 -2.1666
 8476SOL    HW236891   2.173   4.235   6.274 -0.4655  3.3073 -0.4213
 8477SOL     OW36892   3.455   3.433   2.981 -0.4578 -0.9502  0.0822
 8477SOL    HW136893   3.470   3.390   2.896 -1.7510  0.8974 -1.0646
 8477SOL    HW236894   3.546   3.454   3.003 -0.1998  0.6540 -2.5127
 8478SOL     OW36895   1.133   1.688   5.655 -0.2999  0.1218  0.3272
 8478SOL    HW136896   1.185   1.610   5.637  0.5552  0.9624 -0.7999
 8478SOL    HW236897   1.066   1.693   5.586 -0.7647  1.7233  0.9027
 8479SOL     OW36898   3.901   0.712  14.919  0.0263  0.1644 -0.2249
 8479SOL    HW136899   3.898   0.694  14.825  0.3790  4.1943 -1.0312
 8479SOL    HW236900   3.994   0.716  14.940  0.2697  1.7822 -1.5381
 8480SOL     OW36901   4.488   1.673   5.587  0.1372  0.0258 -0.9693
 8480SOL    HW136902   4.547   1.637   5.520  1.1173  0.8153 -0.5407
 8480SOL    HW236903   4.529   1.637   5.666  0.2898 -2.3025 -2.1333
 8481SOL     OW36904   1.660   2.395  11.017 -0.3841  0.0192  0.5550
 8481SOL    HW136905   1.594   2.348  11.067 -0.9580  4.6254  4.0686
 8481SOL    HW236906   1.644   2.387  10.923  1.3576 -0.1898  0.2835
 8482SOL     OW36907   0.204   0.112   5.794 -0.0814  0.3452 -0.5762
 8482SOL    HW136908   0.146   0.127   5.869  0.6437 -1.9122  0.4137
 8482SOL    HW236909   0.192   0.018   5.782  1.1625 -0.0335  1.2288
 8483SOL     OW36910   0.414   3.626  14.914  0.2288  0.0413  0.3894
 8483SOL    HW136911   0.362   3.546  14.911  0.9626 -0.4682  1.1468
 8483SOL    HW236912   0.357   3.678  14.858 -1.0556  0.8159  2.4063
 8484SOL     OW36913   3.148   0.824  10.739  0.5594  0.0637  0.1781
 8484SOL    HW136914   3.127   0.891  10.804  0.2905  1.2524 -1.1330
 8484SOL    HW236915   3.132   0.752  10.799 -0.1284 -0.0011 -0.0788
 8485SOL     OW36916   1.420   1.740   5.485  0.6399 -0.0294 -0.5107
 8485SOL    HW136917   1.437   1.834   5.491  2.0269 -0.3446  0.4345
 8485SOL    HW236918   1.460   1.728   5.398  0.2143  1.2133 -0.8845
 8486SOL     OW36919   2.774   3.745   8.124  0.4156 -0.0285  0.2045
 8486SOL    HW136920   2.850   3.697   8.155  0.1043 -2.2436 -2.4399
 8486SOL    HW236921   2.781   3.823   8.179 -0.3801  0.4393 -0.3530
 8487SOL     OW36922   3.277   4.316   4.719  0.2007  0.0142 -0.4725
 8487SOL    HW136923   3.186   4.305   4.749  0.5926  0.0786  0.7272
 8487SOL    HW236924   3.276   4.411   4.733 -0.0556  0.1745 -1.6254
 8488SOL     OW36925   3.394   2.492   7.545 -0.1607 -0.4371  0.0419
 8488SOL    HW136926   3.479   2.485   7.502  0.3870 -0.3685  1.0936
 8488SOL    HW236927   3.409   2.520   7.636  1.4247 -1.5472  0.1338
 8489SOL     OW36928   4.450   1.911   9.494  0.8150 -0.0972 -0.1340
 8489SOL    HW136929   4.436   1.816   9.488  2.2567 -0.3010 -0.2763
 8489SOL    HW236930   4.398   1.949   9.422 -1.2405 -1.7377  0.4972
 8490SOL     OW36931   2.303   0.750  15.109  0.5197 -0.2375 -0.0186
 8490SOL    HW136932   2.265   0.781  15.027  1.3883 -1.9029 -1.0497
 8490SOL    HW236933   2.348   0.821  15.156  0.0356  0.3064 -0.3738
 8491SOL     OW36934   0.413   0.687   7.102 -0.6366  0.3960  0.3906
 8491SOL    HW136935   0.467   0.760   7.071  1.1661 -1.0880 -0.0195
 8491SOL    HW236936   0.325   0.723   7.092 -0.8932 -0.5399 -0.6408
 8492SOL     OW36937   0.083   4.430   4.320 -0.0314  0.0751 -0.1654
 8492SOL    HW136938   0.041   4.426   4.235 -0.6744  0.2137  0.1490
 8492SOL    HW236939   0.174   4.419   4.291 -0.5700 -2.2151 -1.0044
 8493SOL     OW36940   3.323   4.288   4.280 -0.0135 -0.3935 -0.0337
 8493SOL    HW136941   3.330   4.236   4.360 -1.5802 -0.7083 -0.1025
 8493SOL    HW236942   3.372   4.240   4.213  0.9476  0.5295  0.0008
 8494SOL     OW36943   1.609   0.318   1.875  0.5366  0.3852  0.4110
 8494SOL    HW136944   1.576   0.250   1.934  1.6528  0.1552  0.7762
 8494SOL    HW236945   1.601   0.283   1.786  0.8334  2.1398 -0.3047
 8495SOL     OW36946   3.388   4.598   4.741  0.2454  0.2524  0.2425
 8495SOL    HW136947   3.316   4.637   4.692  2.1386  2.3055 -0.9231
 8495SOL    HW236948   3.390   4.645   4.825  2.4434  2.0877 -0.8544
 8496SOL     OW36949   3.618   3.053   2.856  0.2997  0.1726 -0.6277
 8496SOL    HW136950   3.564   2.992   2.907  0.8886  0.0963 -0.1006
 8496SOL    HW236951   3.639   2.999   2.780 -0.8987 -1.7532  0.4245
 8497SOL     OW36952   2.214   4.553   0.641 -0.1917 -0.1212 -0.2648
 8497SOL    HW136953   2.209   4.615   0.569  0.5400 -0.4350 -0.5875
 8497SOL    HW236954   2.127   4.514   0.643 -1.3532  2.5200  0.5594
 8498SOL     OW36955   2.857   3.688   7.869  0.1591 -0.4407  0.1035
 8498SOL    HW136956   2.872   3.774   7.830 -2.8330 -0.7347 -1.6479
 8498SOL    HW236957   2.848   3.717   7.960 -1.3079  0.4902 -0.3454
 8499SOL     OW36958   1.692   1.899  10.227 -0.3546 -0.2955  0.2049
 8499SOL    HW136959   1.657   1.867  10.143 -1.2061  0.5127  0.2439
 8499SOL    HW236960   1.764   1.839  10.245  0.8094  1.2578  0.7640
 8500SOL     OW36961   4.275   2.723   4.088 -0.3229 -1.1616  0.1354
 8500SOL    HW136962   4.343   2.658   4.106 -0.7480 -0.9134  2.6343
 8500SOL    HW236963   4.235   2.738   4.174  1.8560 -1.1496  1.1436
 8501SOL     OW36964   3.928   3.458  12.866 -0.5470  0.1138  0.4147
 8501SOL    HW136965   3.916   3.449  12.771  3.7523  1.3151 -0.2528
 8501SOL    HW236966   4.020   3.433  12.874 -0.1291  1.5009  0.0291
 8502SOL     OW36967   4.293   3.803  15.009  0.2029  0.4763 -0.2123
 8502SOL    HW136968   4.355   3.733  15.028 -3.5661 -3.0974 -1.0883
 8502SOL    HW236969   4.315   3.880  15.061 -1.8055  0.8582  0.1010
 8503SOL     OW36970   4.134   1.951   7.816 -0.2176 -0.6811  0.0217
 8503SOL    HW136971   4.155   1.911   7.900 -1.1832 -1.2699 -0.0052
 8503SOL    HW236972   4.219   1.994   7.812 -1.7232  2.4386  1.3722
 8504SOL     OW36973   0.193   0.507  13.130  0.4393 -0.1159  0.2350
 8504SOL    HW136974   0.285   0.529  13.117 -0.0396  0.2692 -2.5927
 8504SOL    HW236975   0.186   0.420  13.089  1.4340  1.0156 -2.3042
 8505SOL     OW36976   4.489   0.976   9.378  0.7998  0.1229 -0.4939
 8505SOL    HW136977   4.559   1.034   9.409 -0.9905  2.5404 -1.0099
 8505SOL    HW236978   4.441   1.026   9.313  0.7536  0.2690 -0.3468
 8506SOL     OW36979   3.568   4.499   5.728 -0.3860 -1.0196 -0.1255
 8506SOL    HW136980   3.616   4.473   5.807  1.9793  0.3179 -1.1209
 8506SOL    HW236981   3.551   4.414   5.686  0.5684 -1.1451 -0.2681
 8507SOL     OW36982   0.630   1.087   3.611  0.0194 -0.2883  0.2520
 8507SOL    HW136983   0.663   1.100   3.522 -0.0781 -2.6475 -0.1357
 8507SOL    HW236984   0.709   1.095   3.664  1.7712 -0.8171 -2.2612
 8508SOL     OW36985   1.861   4.414   1.134 -0.2422 -0.2208 -0.1820
 8508SOL    HW136986   1.769   4.442   1.142  0.0660  0.1016  2.1954
 8508SOL    HW236987   1.903   4.463   1.205 -1.1338  1.2137 -0.6287
 8509SOL     OW36988   2.792   1.376   9.455  0.0949 -0.5686 -0.1505
 8509SOL    HW136989   2.735   1.337   9.521 -2.6452  2.3142 -0.8301
 8509SOL    HW236990   2.797   1.465   9.490  2.5027 -0.9214  0.4094
 8510SOL     OW36991   2.852   3.429   5.592 -0.1399 -0.2394  0.1485
 8510SOL    HW136992   2.811   3.515   5.598 -1.0142 -0.7652  1.6856
 8510SOL    HW236993   2.944   3.454   5.583 -0.2057 -0.7376 -1.9788
 8511SOL     OW36994   4.512   3.291   4.835 -0.2455  0.6034  0.4858
 8511SOL    HW136995   4.596   3.315   4.796 -0.5159  0.6749 -0.0556
 8511SOL    HW236996   4.499   3.351   4.909 -2.1450  1.4152 -0.4981
 8512SOL     OW36997   0.424   0.552   2.822 -0.0692 -0.0403 -0.2988
 8512SOL    HW136998   0.433   0.618   2.754 -4.3899  0.4640 -0.3676
 8512SOL    HW236999   0.449   0.469   2.780 -0.6621 -1.2796  1.7567
 8513SOL     OW37000   3.845   0.234  13.360  0.0810 -0.1282 -0.7292
 8513SOL    HW137001   3.772   0.172  13.362  1.7673 -2.1395 -1.5657
 8513SOL    HW237002   3.800   0.318  13.353 -0.0620 -0.3413 -2.2929
 8514SOL     OW37003   0.176   2.626   1.011 -0.6201  0.3277  0.3762
 8514SOL    HW137004   0.122   2.641   1.089 -0.6258  2.2242  0.0161
 8514SOL    HW237005   0.114   2.615   0.939  1.2986 -1.8001 -0.9383
 8515SOL     OW37006   1.826   4.374  12.949  0.3163 -0.5381  0.1491
 8515SOL    HW137007   1.906   4.387  12.898 -1.3067  0.3725 -2.1392
 8515SOL    HW237008   1.776   4.424  12.884  1.0344 -3.9791 -3.0104
 8516SOL     OW37009   1.448   2.470   1.568 -0.6316 -0.9846  0.0625
 8516SOL    HW137010   1.389   2.458   1.494  0.1508 -1.1840 -0.5171
 8516SOL    HW237011   1.531   2.436   1.537  0.1444  0.7177  0.2876
 8517SOL     OW37012   4.693   0.160  13.091 -0.3820  0.3965 -0.3383
 8517SOL    HW137013   0.022   0.227  13.045 -2.2199  0.6059 -2.0886
 8517SOL    HW237014   0.010   0.170  13.178  0.0853 -2.1827 -0.2457
 8518SOL     OW37015   4.128   4.358   1.209 -0.2284 -0.2422 -0.4065
 8518SOL    HW137016   4.189   4.412   1.158  0.8126 -0.1681  0.8831
 8518SOL    HW237017   4.046   4.365   1.162  0.0371 -2.0455 -1.1525
 8519SOL     OW37018   1.749   4.122   0.410 -0.0056  0.1659 -0.5896
 8519SOL    HW137019   1.699   4.174   0.473 -3.4080 -1.4213 -1.9811
 8519SOL    HW237020   1.764   4.052   0.473  0.2838  0.1360 -0.6926
 8520SOL     OW37021   3.304   3.198  15.306  0.3548  0.5138  0.9159
 8520SOL    HW137022   3.325   3.215  15.398  1.7760  3.1500  0.1165
 8520SOL    HW237023   3.276   3.107  15.302  2.6945 -0.0032 -3.7730
 8521SOL     OW37024   1.223   1.291   0.236  0.3953 -0.6789  0.0522
 8521SOL    HW137025   1.274   1.210   0.223  1.1422  0.0394 -1.4874
 8521SOL    HW237026   1.231   1.348   0.159 -1.4438  0.7847  0.9658
 8522SOL     OW37027   2.466   2.190   0.141  0.1648  0.5051  0.2965
 8522SOL    HW137028   2.406   2.156   0.074  0.8043 -2.9082  1.4548
 8522SOL    HW237029   2.537   2.237   0.097  0.2346 -0.1858 -0.3246
 8523SOL     OW37030   3.655   3.913   4.126  0.2803  0.4933  0.0413
 8523SOL    HW137031   3.742   3.925   4.165 -0.2540  0.5435  1.2365
 8523SOL    HW237032   3.672   3.840   4.067 -0.3757 -0.4285  0.9886
 8524SOL     OW37033   2.630   1.064  12.869  0.0966  0.0700 -0.3713
 8524SOL    HW137034   2.642   1.060  12.774 -0.1352  1.3435 -0.4523
 8524SOL    HW237035   2.669   1.147  12.897  0.3918 -0.8038  1.8505
 8525SOL     OW37036   1.887   4.278  17.249  0.9240 -0.4790  0.1586
 8525SOL    HW137037   1.843   4.235  17.322  2.0056 -0.9268  0.5551
 8525SOL    HW237038   1.881   4.211  17.181 -0.1025  0.9390 -1.1272
 8526SOL     OW37039   2.731   1.077   8.129 -0.1427  0.2322  0.5185
 8526SOL    HW137040   2.718   1.124   8.211  0.1461  2.1563 -0.5505
 8526SOL    HW237041   2.827   1.075   8.128 -0.1443  0.3515 -0.1162
 8527SOL     OW37042   1.450   2.352  13.993 -0.2944 -0.1425  0.4936
 8527SOL    HW137043   1.520   2.371  14.055  2.0893  0.0631 -2.2806
 8527SOL    HW237044   1.373   2.358  14.050  0.0406  1.0326  0.8327
 8528SOL     OW37045   2.450   1.382   2.174 -0.3912  0.5172  0.1278
 8528SOL    HW137046   2.414   1.459   2.218 -0.9755  0.0270  0.4958
 8528SOL    HW237047   2.471   1.337   2.256 -2.1874  1.6413  1.1921
 8529SOL     OW37048   3.232   2.869  11.632  0.2527  0.1082  0.3677
 8529SOL    HW137049   3.288   2.916  11.693 -1.5960  1.2432  1.1958
 8529SOL    HW237050   3.165   2.826  11.686 -1.2426 -0.8931 -2.2277
 8530SOL     OW37051   0.987   1.786  17.362 -0.1954  0.4756  0.0293
 8530SOL    HW137052   0.933   1.828  17.295 -0.3009 -0.3960 -0.4404
 8530SOL    HW237053   0.916   1.747  17.414  0.3237 -0.4125  0.0686
 8531SOL     OW37054   2.600   4.385   6.896  0.0078 -0.9464  0.1753
 8531SOL    HW137055   2.539   4.449   6.932  0.7835 -1.7894  2.9784
 8531SOL    HW237056   2.589   4.305   6.947 -1.7241 -0.8434 -0.0483
 8532SOL     OW37057   2.366   0.400  12.131  0.3617  0.3156 -0.1588
 8532SOL    HW137058   2.318   0.480  12.151  2.3366  1.8365 -1.4773
 8532SOL    HW237059   2.298   0.356  12.080  0.4425 -1.1966  1.0435
 8533SOL     OW37060   3.363   0.888  11.151 -0.2103  0.5332  0.4310
 8533SOL    HW137061   3.435   0.898  11.213 -1.4085  0.7735  1.7747
 8533SOL    HW237062   3.328   0.801  11.171 -1.1405  1.2501  1.8687
 8534SOL     OW37063   4.642   1.487   8.310  0.2181 -0.3075 -0.2167
 8534SOL    HW137064   4.603   1.400   8.316  2.3000 -1.2210 -0.2658
 8534SOL    HW237065   4.632   1.510   8.217  0.4859  0.6545 -0.0092
 8535SOL     OW37066   1.153   2.556  13.819  0.4142 -0.2844  0.3162
 8535SOL    HW137067   1.179   2.522  13.734  1.8228  0.8811  0.2802
 8535SOL    HW237068   1.203   2.495  13.874  2.1277  0.1154 -0.8181
 8536SOL     OW37069   3.326   3.675   4.722 -0.3298 -0.1691 -0.0058
 8536SOL    HW137070   3.343   3.587   4.686  1.7557  0.5290 -0.7560
 8536SOL    HW237071   3.234   3.666   4.701 -0.5744 -0.1222  1.0520
 8537SOL     OW37072   0.706   3.226  12.077  0.1048 -0.2772 -0.1582
 8537SOL    HW137073   0.791   3.185  12.062  0.9144 -0.1322  4.0108
 8537SOL    HW237074   0.663   3.180  12.006  0.3643 -0.1568 -0.3940
 8538SOL     OW37075   3.432   1.077   1.397 -0.2818 -0.1925 -0.3012
 8538SOL    HW137076   3.410   1.107   1.308  0.4980 -0.0239 -0.4367
 8538SOL    HW237077   3.511   1.025   1.385  0.8257  1.9052 -2.1369
 8539SOL     OW37078   0.390   2.949   4.147 -0.1567 -0.0530  0.3304
 8539SOL    HW137079   0.295   2.960   4.151  0.0138  0.7157  2.5450
 8539SOL    HW237080   0.398   2.855   4.165 -0.7593 -0.0792  0.4527
 8540SOL     OW37081   4.357   1.382   5.812  0.0116 -0.4751 -0.0669
 8540SOL    HW137082   4.356   1.365   5.906  2.5524 -1.0968 -0.1480
 8540SOL    HW237083   4.269   1.417   5.794 -1.2121 -2.0730  2.7987
 8541SOL     OW37084   3.783   3.302  15.119 -0.1090 -0.4034  0.8789
 8541SOL    HW137085   3.762   3.342  15.203  1.0601  1.5416  0.2406
 8541SOL    HW237086   3.866   3.258  15.134  0.5064  0.4006 -0.1805
 8542SOL     OW37087   2.212   1.444   6.403  0.1013  0.2368  0.4318
 8542SOL    HW137088   2.273   1.374   6.427  0.6732  0.5985  0.0046
 8542SOL    HW237089   2.232   1.514   6.465 -3.0525  0.6865  0.9550
 8543SOL     OW37090   0.820   1.893   3.208  0.0243 -0.0937 -0.0338
 8543SOL    HW137091   0.858   1.972   3.247 -0.4229  0.2198 -0.2365
 8543SOL    HW237092   0.785   1.926   3.126  0.9938 -0.4417 -0.5907
 8544SOL     OW37093   3.511   1.469  14.200 -0.0587  0.7639 -0.3894
 8544SOL    HW137094   3.499   1.521  14.280 -1.1008  0.6774 -0.4874
 8544SOL    HW237095   3.604   1.448  14.189  0.0835  1.2835 -0.1445
 8545SOL     OW37096   0.323   2.194   4.070  0.1571  0.3731 -0.3909
 8545SOL    HW137097   0.306   2.287   4.054 -1.0653  0.4075  1.1375
 8545SOL    HW237098   0.417   2.183   4.060  0.0903 -0.9328  0.5095
 8546SOL     OW37099   0.597   4.624  17.452 -0.0551  0.1111 -0.4508
 8546SOL    HW137100   0.564   4.678  17.380  0.4623  0.8670 -0.1224
 8546SOL    HW237101   0.528   4.557  17.452 -0.0417  0.0917  0.0267
 8547SOL     OW37102   2.772   4.092   9.528  0.8025 -0.5978 -0.0119
 8547SOL    HW137103   2.851   4.039   9.522  0.8569 -0.4288 -0.7421
 8547SOL    HW237104   2.786   4.145   9.450  0.7349 -1.8976 -0.9129
 8548SOL     OW37105   0.632   2.588   2.973 -0.2261 -0.2968  0.0784
 8548SOL    HW137106   0.552   2.585   3.026 -1.2654 -0.7070 -1.5219
 8548SOL    HW237107   0.636   2.683   2.961  1.9914 -0.7767 -2.7533
 8549SOL     OW37108   3.974   3.727  12.844 -0.5699  0.4308  0.4719
 8549SOL    HW137109   3.933   3.646  12.873 -0.4569  0.0874 -0.3418
 8549SOL    HW237110   4.053   3.738  12.897  0.1023  0.5588 -0.5547
 8550SOL     OW37111   3.971   1.593   3.235  0.0144 -0.0604  0.2270
 8550SOL    HW137112   4.021   1.662   3.191 -3.5745  1.9353 -0.7561
 8550SOL    HW237113   4.044   1.531   3.243 -0.7279 -0.7226  1.8462
 8551SOL     OW37114   1.823   2.399   6.532  0.0779  0.0534  0.3808
 8551SOL    HW137115   1.897   2.339   6.525  0.7318  0.9148 -0.0746
 8551SOL    HW237116   1.812   2.430   6.442  2.4208 -0.2733 -0.0014
 8552SOL     OW37117   1.790   1.868   6.716 -0.4582  0.2889  0.0334
 8552SOL    HW137118   1.812   1.893   6.626 -2.2503  1.3346 -0.1151
 8552SOL    HW237119   1.764   1.955   6.748 -1.7088 -0.4023  0.8942
 8553SOL     OW37120   4.699   1.445   5.140 -0.6220  0.7392  0.0459
 8553SOL    HW137121   4.640   1.497   5.195 -0.6564  0.4468  0.2888
 8553SOL    HW237122   4.667   1.458   5.051 -0.6357 -1.1026 -0.2209
 8554SOL     OW37123   2.461   1.790   5.344  0.0467 -0.3011 -0.0267
 8554SOL    HW137124   2.434   1.825   5.429  2.6188 -1.8760  1.4572
 8554SOL    HW237125   2.549   1.827   5.349  1.0231 -2.3891 -1.8309
 8555SOL     OW37126   2.486   2.654   2.750  0.2598  0.4094 -0.0949
 8555SOL    HW137127   2.456   2.717   2.685  2.0765  0.7929 -0.5529
 8555SOL    HW237128   2.492   2.585   2.683 -0.1515  0.3421 -0.0635
 8556SOL     OW37129   3.752   0.537  12.985  0.2687 -0.0590  0.0992
 8556SOL    HW137130   3.809   0.461  12.997 -0.4087 -0.7580 -1.0497
 8556SOL    HW237131   3.671   0.487  12.969 -0.2541  1.2586 -1.2909
 8557SOL     OW37132   0.212   3.421   5.449 -0.0371  0.6932 -0.8703
 8557SOL    HW137133   0.193   3.333   5.417 -2.2173  0.2956  1.5398
 8557SOL    HW237134   0.202   3.391   5.540  1.1303 -1.6645 -1.5302
 8558SOL     OW37135   3.574   4.273   6.908 -0.1419  0.3638 -0.1939
 8558SOL    HW137136   3.495   4.270   6.962 -0.9177  0.7500 -1.3050
 8558SOL    HW237137   3.535   4.236   6.829  1.8730 -1.0456 -0.5504
 8559SOL     OW37138   1.767   4.621   5.409  0.3895  0.0009  0.6501
 8559SOL    HW137139   1.748   4.704   5.365  1.5644  0.4419  0.9805
 8559SOL    HW237140   1.756   4.655   5.498 -1.1240 -0.3470  0.5933
 8560SOL     OW37141   3.751   1.663   0.174  0.1971 -0.3274  0.3338
 8560SOL    HW137142   3.808   1.729   0.135  1.0402 -1.2300  0.0067
 8560SOL    HW237143   3.815   1.612   0.225 -0.5808 -0.8644  0.7665
 8561SOL     OW37144   1.013   3.270   0.275  0.3406  0.3026 -0.3534
 8561SOL    HW137145   0.924   3.302   0.261  0.5564  1.7518  1.6548
 8561SOL    HW237146   1.010   3.220   0.356 -0.1559 -0.8657 -1.0786
 8562SOL     OW37147   4.038   2.320   4.871  0.4293  0.0456  0.3848
 8562SOL    HW137148   4.035   2.279   4.784 -0.2275  1.5110 -0.2909
 8562SOL    HW237149   4.127   2.294   4.893  0.5694  1.4521  1.5019
 8563SOL     OW37150   4.281   1.446  14.743  0.0281 -0.1124 -0.0058
 8563SOL    HW137151   4.349   1.512  14.753 -0.1913 -0.1428  1.8142
 8563SOL    HW237152   4.283   1.429  14.649  1.4568 -2.5106  0.4542
 8564SOL     OW37153   1.440   2.368   7.504  0.2815  0.0311 -0.5599
 8564SOL    HW137154   1.512   2.336   7.558  0.7205  1.5876 -0.2445
 8564SOL    HW237155   1.360   2.357   7.556  0.9150 -1.2384  0.1286
 8565SOL     OW37156   0.328   0.744   2.619  0.1842 -0.3629 -0.1374
 8565SOL    HW137157   0.361   0.678   2.559  1.4269 -0.1158  0.2887
 8565SOL    HW237158   0.256   0.783   2.569 -0.8040  0.2581  1.7776
 8566SOL     OW37159   1.339   3.798   7.738 -0.0043 -0.6707 -0.1634
 8566SOL    HW137160   1.256   3.804   7.784  0.8267 -0.2954  1.2918
 8566SOL    HW237161   1.361   3.891   7.738  0.9381 -0.8813  1.2213
 8567SOL     OW37162   1.785   1.998   9.251  0.6377  0.4935 -0.1237
 8567SOL    HW137163   1.788   2.064   9.320 -2.1072  0.7324 -0.2447
 8567SOL    HW237164   1.748   1.922   9.295 -0.1795  1.2897  0.5566
 8568SOL     OW37165   2.974   4.128   5.404  0.4809 -0.0081  0.2267
 8568SOL    HW137166   2.949   4.219   5.422 -1.3543 -0.6878  1.1142
 8568SOL    HW237167   2.893   4.077   5.402  0.0981  0.6350 -1.0541
 8569SOL     OW37168   1.610   2.808   4.173  0.0272  0.2001 -0.2219
 8569SOL    HW137169   1.613   2.871   4.246 -0.1060 -1.4223  1.1776
 8569SOL    HW237170   1.674   2.747   4.210 -0.1777  0.3210  0.3279
 8570SOL     OW37171   0.493   3.668   8.166 -0.5153 -0.2224  0.7246
 8570SOL    HW137172   0.429   3.602   8.194 -1.4335 -0.3847 -1.7434
 8570SOL    HW237173   0.436   3.711   8.102 -1.1296 -0.7780  0.8946
 8571SOL     OW37174   3.273   0.343   1.700  0.6743  0.3612  0.2266
 8571SOL    HW137175   3.204   0.375   1.642  1.2764 -1.2049 -1.3646
 8571SOL    HW237176   3.263   0.417   1.759  0.2673  0.7951 -0.3815
 8572SOL     OW37177   0.133   2.931   6.443 -0.1341  0.6746 -0.8563
 8572SOL    HW137178   0.162   2.986   6.371  0.7197  1.7707  0.3125
 8572SOL    HW237179   0.194   2.857   6.437 -0.7268  0.3383 -2.7436
 8573SOL     OW37180   4.401   0.894   6.425 -0.2538  0.4790 -0.5370
 8573SOL    HW137181   4.468   0.870   6.361 -0.5787 -1.3901 -0.1822
 8573SOL    HW237182   4.456   0.935   6.491 -0.3512 -0.2705  0.0156
 8574SOL     OW37183   1.573   4.091   7.958 -0.3441 -0.2676  0.0971
 8574SOL    HW137184   1.642   4.137   8.004  0.3437 -0.9355 -0.2608
 8574SOL    HW237185   1.493   4.136   7.985  1.0676  1.8433  0.7020
 8575SOL     OW37186   3.712   1.111   0.440 -0.6085 -0.7379 -0.2993
 8575SOL    HW137187   3.642   1.138   0.500  1.8650  0.3600  2.0933
 8575SOL    HW237188   3.710   1.193   0.392  1.2243 -0.4145  0.1963
 8576SOL     OW37189   3.017   1.323   7.654  0.1593 -0.2348 -0.4293
 8576SOL    HW137190   2.980   1.356   7.572 -0.7508 -0.3634 -0.0759
 8576SOL    HW237191   2.964   1.245   7.673  1.0476 -0.6651  0.2483
 8577SOL     OW37192   4.170   0.926  12.194  0.5512 -0.2136  0.3828
 8577SOL    HW137193   4.247   0.869  12.191  1.4959  0.9209  2.6948
 8577SOL    HW237194   4.124   0.934  12.110  1.6399  0.4124 -0.1424
 8578SOL     OW37195   1.289   0.625  12.157 -0.4692  0.2981  0.5686
 8578SOL    HW137196   1.288   0.535  12.188 -1.5086  0.1085 -0.0386
 8578SOL    HW237197   1.267   0.675  12.235 -1.4937 -0.7494  0.9349
 8579SOL     OW37198   4.320   1.826   3.121  0.1038  0.4831 -0.6265
 8579SOL    HW137199   4.362   1.823   3.207 -1.3212 -1.5798 -0.0088
 8579SOL    HW237200   4.299   1.919   3.112  0.8284  0.6419 -0.6920
 8580SOL     OW37201   0.594   2.480   1.188  0.0197 -0.0548 -0.2039
 8580SOL    HW137202   0.515   2.533   1.197  0.2547 -0.0011  1.6379
 8580SOL    HW237203   0.664   2.545   1.181 -0.9273  0.9235 -0.6248
 8581SOL     OW37204   2.667   3.470   2.068 -0.3775 -0.1475 -0.6912
 8581SOL    HW137205   2.576   3.499   2.069 -1.0486 -2.2814  1.2101
 8581SOL    HW237206   2.680   3.432   2.156  0.9670  1.0162 -0.3873
 8582SOL     OW37207   1.754   1.430   3.073 -0.2868  0.1892  0.1473
 8582SOL    HW137208   1.809   1.373   3.127 -1.8572 -1.5078 -0.0313
 8582SOL    HW237209   1.814   1.442   3.000  0.1866  0.9633  0.6605
 8583SOL     OW37210   0.957   3.716   8.751 -0.2577  0.5385  0.0129
 8583SOL    HW137211   0.877   3.677   8.786  0.7966 -2.1466 -0.6223
 8583SOL    HW237212   1.013   3.641   8.733 -0.5381  0.5990 -1.1583
 8584SOL     OW37213   4.480   2.177   3.508  0.3972 -0.1043  0.1335
 8584SOL    HW137214   4.402   2.228   3.533 -0.9046 -2.4678  0.9182
 8584SOL    HW237215   4.463   2.097   3.557  0.4562 -0.3888 -0.3166
 8585SOL     OW37216   4.145   2.846   2.346  0.1538 -0.0927 -0.3564
 8585SOL    HW137217   4.059   2.804   2.341  0.9812 -1.9209  0.7417
 8585SOL    HW237218   4.190   2.799   2.276 -0.1438 -0.3296 -0.3915
 8586SOL     OW37219   1.187   4.359  16.247  0.0979  0.4346  0.3551
 8586SOL    HW137220   1.210   4.273  16.283  1.1361  0.7318  0.4036
 8586SOL    HW237221   1.247   4.353  16.173 -0.6113 -0.1518 -0.1645
 8587SOL     OW37222   1.772   0.685   4.702 -0.6224  0.4891  0.2311
 8587SOL    HW137223   1.788   0.702   4.795 -1.2328  1.2478  0.1973
 8587SOL    HW237224   1.850   0.721   4.659 -0.2709  0.6420  0.9940
 8588SOL     OW37225   0.069   3.170   4.360 -0.3620  0.1204  0.2782
 8588SOL    HW137226   0.003   3.108   4.391  0.9570 -1.1451  0.5327
 8588SOL    HW237227   0.037   3.241   4.416  0.6611  2.2548 -1.8440
 8589SOL     OW37228   1.918   2.272   8.854  0.5272 -0.0733  0.0995
 8589SOL    HW137229   1.830   2.290   8.820 -0.2409 -0.7478  1.7094
 8589SOL    HW237230   1.912   2.186   8.897 -0.4486  0.0145  0.1505
 8590SOL     OW37231   0.469   2.588  17.595  0.5555 -0.6738  0.4275
 8590SOL    HW137232   0.523   2.606  17.518  1.9358  0.2081  1.6194
 8590SOL    HW237233   0.510   2.505  17.621  0.6509 -0.8829 -0.3759
 8591SOL     OW37234   4.401   3.239  15.718  0.0898 -0.1974  0.3353
 8591SOL    HW137235   4.360   3.226  15.803  2.9817 -2.5635  1.3790
 8591SOL    HW237236   4.366   3.170  15.661  0.0536 -0.6876  0.9520
 8592SOL     OW37237   2.635   2.055   7.364 -0.0963  0.0548 -0.7194
 8592SOL    HW137238   2.604   1.974   7.403 -0.0052 -0.1308 -1.0287
 8592SOL    HW237239   2.593   2.124   7.416 -0.5359 -1.7597  1.2895
 8593SOL     OW37240   0.304   1.590  16.604  0.4459 -0.4837 -0.3119
 8593SOL    HW137241   0.354   1.581  16.523 -1.4840 -0.6364 -1.4887
 8593SOL    HW237242   0.343   1.669  16.640 -1.2310 -0.2116  0.8872
 8594SOL     OW37243   3.023   1.722   4.159 -0.0319 -0.2406  0.5744
 8594SOL    HW137244   3.115   1.703   4.140  0.3213  0.3412  1.6876
 8594SOL    HW237245   2.975   1.639   4.151  0.9695 -0.8465  0.7247
 8595SOL     OW37246   3.478   1.551   5.115  0.0249 -0.0731 -0.1322
 8595SOL    HW137247   3.500   1.567   5.207 -0.2291  0.7959 -0.2310
 8595SOL    HW237248   3.387   1.523   5.127 -0.5422  1.3716 -1.1609
 8596SOL     OW37249   3.551   4.468   4.491  0.3557 -0.0147 -0.4635
 8596SOL    HW137250   3.592   4.492   4.574  0.2885 -0.0115 -0.4308
 8596SOL    HW237251   3.461   4.502   4.491 -0.8081 -3.0531 -4.1122
 8597SOL     OW37252   3.007   3.655  11.034  0.3367  0.5728 -0.2745
 8597SOL    HW137253   3.072   3.585  11.041  0.2303  0.7646  2.5941
 8597SOL    HW237254   3.057   3.719  11.083  0.8614  1.1392 -1.5603
 8598SOL     OW37255   0.729   0.416  14.975  0.1026  0.2901  0.0481
 8598SOL    HW137256   0.719   0.507  14.949 -0.4192  0.1503 -0.2247
 8598SOL    HW237257   0.753   0.428  15.067  0.0948  0.0490  0.0832
 8599SOL     OW37258   0.256   2.877  13.975 -0.4619  0.4861  0.3093
 8599SOL    HW137259   0.281   2.935  13.904  2.8377 -1.8983 -0.4305
 8599SOL    HW237260   0.325   2.811  13.976 -1.3239 -0.4333  1.6114
 8600SOL     OW37261   0.304   2.944   3.072 -0.0342  0.7546 -0.6140
 8600SOL    HW137262   0.381   2.976   3.119 -0.1777  1.2326 -0.6993
 8600SOL    HW237263   0.321   2.979   2.985  0.3784 -0.9310 -1.2128
 8601SOL     OW37264   0.596   1.395   9.979 -0.2451 -0.0962 -0.0133
 8601SOL    HW137265   0.648   1.458  10.030 -0.2285 -0.8966  0.9560
 8601SOL    HW237266   0.577   1.335  10.050 -0.9660  1.5408  1.1611
 8602SOL     OW37267   2.187   2.054   0.915 -0.2119  0.4463 -0.2388
 8602SOL    HW137268   2.101   2.095   0.925 -0.5042  0.2066 -1.8174
 8602SOL    HW237269   2.235   2.117   0.969  1.2379 -0.5718 -0.3314
 8603SOL     OW37270   3.896   0.834  16.343  0.1609 -0.4315 -0.5725
 8603SOL    HW137271   3.936   0.780  16.411  1.0290  0.4981 -0.3409
 8603SOL    HW237272   3.941   0.802  16.265  1.2435  0.1823 -0.1996
 8604SOL     OW37273   2.784   1.019   2.013  0.2214 -0.3505  0.1777
 8604SOL    HW137274   2.870   0.977   2.023  0.4541 -0.3223 -1.8609
 8604SOL    HW237275   2.733   0.981   2.085 -0.4608  0.6623  0.2285
 8605SOL     OW37276   3.691   1.105   9.447 -0.3380  0.1074  0.0102
 8605SOL    HW137277   3.694   1.032   9.385 -3.2073 -1.1786  1.3999
 8605SOL    HW237278   3.784   1.129   9.447 -0.7564  1.6997  0.8804
 8606SOL     OW37279   1.696   1.478   6.069 -0.1898 -0.5235  0.0766
 8606SOL    HW137280   1.693   1.567   6.104 -2.4287  1.0241 -4.1336
 8606SOL    HW237281   1.610   1.482   6.027 -1.1435  1.3707  2.2297
 8607SOL     OW37282   0.547   1.802   5.652  0.3267  0.1684 -0.0340
 8607SOL    HW137283   0.496   1.773   5.728  2.0394 -1.3116  0.5739
 8607SOL    HW237284   0.630   1.754   5.659 -0.3637 -0.7396  1.9113
 8608SOL     OW37285   1.448   1.001   5.051  0.0375  0.1107 -0.5480
 8608SOL    HW137286   1.419   1.070   5.111  0.5336  2.4122 -2.9356
 8608SOL    HW237287   1.392   0.927   5.072 -1.9513  1.5386 -0.7775
 8609SOL     OW37288   0.902   2.689   3.603  0.1697 -0.6236 -0.1565
 8609SOL    HW137289   0.864   2.768   3.564  1.3356 -0.5687 -1.1866
 8609SOL    HW237290   0.957   2.649   3.535  0.6915  0.1203 -0.1676
 8610SOL     OW37291   3.890   0.871   6.283 -0.2034 -0.0849 -0.2074
 8610SOL    HW137292   3.919   0.785   6.314 -0.5659  0.9344  2.8979
 8610SOL    HW237293   3.970   0.893   6.234  0.2226  1.1893  1.0299
 8611SOL     OW37294   4.497   0.552   2.705 -0.4714 -0.7263  0.4926
 8611SOL    HW137295   4.409   0.576   2.675 -0.1524  2.3676  1.9335
 8611SOL    HW237296   4.500   0.460   2.730 -2.8248 -0.9354 -0.0046
 8612SOL     OW37297   3.977   1.147   9.472  0.0303 -0.3759  0.6199
 8612SOL    HW137298   4.008   1.209   9.537 -1.0362  1.1084 -0.2935
 8612SOL    HW237299   4.038   1.075   9.490  1.8317  0.4239 -2.1357
 8613SOL     OW37300   1.814   1.872  11.213 -0.1372 -0.2497  0.1771
 8613SOL    HW137301   1.882   1.871  11.145 -0.2021 -1.3741  0.1283
 8613SOL    HW237302   1.808   1.778  11.231 -2.2002 -0.2848 -0.5583
 8614SOL     OW37303   4.703   3.786   6.041  0.9222 -0.4090  0.6790
 8614SOL    HW137304   4.653   3.799   5.961  0.0112 -0.5301  1.2316
 8614SOL    HW237305   4.660   3.710   6.080 -2.1334  1.3891  0.7768
 8615SOL     OW37306   3.592   3.942  11.761 -0.1327 -0.3994 -0.5796
 8615SOL    HW137307   3.661   3.992  11.718 -1.4246  0.7812 -1.3064
 8615SOL    HW237308   3.626   3.925  11.849  0.2535  1.4090 -0.3924
 8616SOL     OW37309   2.668   0.992   7.479  0.1726 -0.7229 -0.1495
 8616SOL    HW137310   2.708   0.909   7.454 -1.3173 -2.5014  3.4841
 8616SOL    HW237311   2.710   1.050   7.415 -1.5577  0.0901 -0.5810
 8617SOL     OW37312   4.183   1.376  13.258  0.1474 -0.1224  0.1509
 8617SOL    HW137313   4.172   1.444  13.324  0.2787 -1.2745  1.3588
 8617SOL    HW237314   4.104   1.391  13.206  0.1683 -1.3952 -0.2472
 8618SOL     OW37315   3.812   0.617   1.680 -0.2099  0.0831 -0.2577
 8618SOL    HW137316   3.854   0.583   1.759 -0.8943 -0.2818 -0.0594
 8618SOL    HW237317   3.858   0.560   1.618  0.6852 -2.0895  2.4241
 8619SOL     OW37318   2.786   1.177   7.296 -0.2079  0.2834 -0.2611
 8619SOL    HW137319   2.878   1.193   7.278 -1.2084  4.8677 -1.3622
 8619SOL    HW237320   2.770   1.102   7.238  0.7413  0.6275 -0.9638
 8620SOL     OW37321   2.309   2.834   1.876  0.0768 -0.1701  0.4817
 8620SOL    HW137322   2.257   2.773   1.824 -1.5123  1.5710  0.0018
 8620SOL    HW237323   2.380   2.778   1.905 -1.4119 -0.4429  3.5487
 8621SOL     OW37324   1.915   4.221   2.841  0.2633  0.2910 -0.0158
 8621SOL    HW137325   1.998   4.185   2.810 -0.6666 -0.6210 -1.4521
 8621SOL    HW237326   1.960   4.245   2.922  1.5570 -0.0688 -0.6159
 8622SOL     OW37327   3.302   1.228   2.535  0.1011  0.2276 -0.3424
 8622SOL    HW137328   3.352   1.220   2.616 -1.0063  0.3811  0.3539
 8622SOL    HW237329   3.211   1.233   2.564  0.6918 -2.1664  1.9223
 8623SOL     OW37330   0.450   2.312   6.248  0.3317  0.2685 -0.1417
 8623SOL    HW137331   0.542   2.322   6.223  0.4733 -1.5323 -0.3306
 8623SOL    HW237332   0.455   2.363   6.329  0.7385  0.1424 -0.0910
 8624SOL     OW37333   0.191   1.661   5.189  0.2233 -0.3648 -0.1715
 8624SOL    HW137334   0.123   1.715   5.149 -0.0374 -0.2686  0.3986
 8624SOL    HW237335   0.170   1.571   5.166  0.6655 -0.2740 -0.9366
 8625SOL     OW37336   1.692   3.544   7.120  0.2479 -0.3565 -0.0260
 8625SOL    HW137337   1.665   3.623   7.072  0.4729 -0.5225 -0.4269
 8625SOL    HW237338   1.663   3.479   7.056 -0.6448  0.2309 -0.2251
 8626SOL     OW37339   1.820   4.593   2.989 -0.0866 -0.5525 -0.7712
 8626SOL    HW137340   1.842   4.641   3.069 -0.0191 -3.1132  0.7525
 8626SOL    HW237341   1.759   4.530   3.028 -1.4849  1.2564 -0.0842
 8627SOL     OW37342   0.433   1.760   6.520 -0.2452 -0.0705 -0.6029
 8627SOL    HW137343   0.450   1.809   6.440  0.5692 -1.1178 -1.0694
 8627SOL    HW237344   0.368   1.702   6.481 -0.4036 -0.2171 -0.1264
 8628SOL     OW37345   3.998   0.957   3.144 -0.5672 -0.0874  0.0977
 8628SOL    HW137346   4.034   0.870   3.128 -1.0918 -0.5198  1.3128
 8628SOL    HW237347   4.072   1.012   3.117  0.9332 -2.3930 -0.4868
 8629SOL     OW37348   1.132   4.680  15.289 -0.1164  0.1743  0.0953
 8629SOL    HW137349   1.202   4.698  15.226 -1.2195  0.1668 -1.1382
 8629SOL    HW237350   1.060   4.663  15.229 -0.6945 -0.3541  0.9352
 8630SOL     OW37351   1.789   2.594   4.438 -0.6243 -0.0173  0.2280
 8630SOL    HW137352   1.871   2.546   4.426  0.2559  2.5009 -3.8182
 8630SOL    HW237353   1.756   2.557   4.519 -0.0757 -2.8865 -0.8749
 8631SOL     OW37354   2.933   0.266   1.640  0.0525 -0.1889 -0.6120
 8631SOL    HW137355   2.999   0.327   1.606 -2.8669  2.5744 -1.4059
 8631SOL    HW237356   2.899   0.224   1.561  0.1159  0.8313 -1.1911
 8632SOL     OW37357   4.658   3.415  14.531 -0.1210 -0.8426  0.0514
 8632SOL    HW137358   4.564   3.398  14.527 -0.3266  0.0673  0.9735
 8632SOL    HW237359   4.675   3.434  14.623 -1.0251 -0.9114  0.2369
 8633SOL     OW37360   1.838   0.056   9.068 -0.3121 -0.4832  0.1973
 8633SOL    HW137361   1.929   0.068   9.097 -0.5744 -0.3188  0.9476
 8633SOL    HW237362   1.793   0.089   9.145 -0.3327 -0.1807  0.0553
 8634SOL     OW37363   2.640   3.914  15.153  0.1238 -0.6882  0.1528
 8634SOL    HW137364   2.708   3.932  15.089 -0.2429  0.3860  0.0545
 8634SOL    HW237365   2.700   3.890  15.222  0.4947  1.4036  0.5644
 8635SOL     OW37366   1.712   4.531   5.853 -0.1355 -0.2750  0.3469
 8635SOL    HW137367   1.793   4.531   5.904  0.3779  0.2622 -0.4670
 8635SOL    HW237368   1.642   4.550   5.914 -1.4098  1.3240 -1.5985
 8636SOL     OW37369   2.029   2.753   4.135  0.1477  0.1099  0.3239
 8636SOL    HW137370   2.005   2.816   4.203 -2.0614 -0.8085  0.3872
 8636SOL    HW237371   2.124   2.745   4.143 -0.1232 -0.9615  2.3573
 8637SOL     OW37372   0.910   3.545   4.781 -0.0011  0.0266  0.3694
 8637SOL    HW137373   0.852   3.481   4.822 -1.0104  0.5443 -0.2297
 8637SOL    HW237374   0.849   3.593   4.726 -1.7970 -3.3737 -0.6053
 8638SOL     OW37375   1.279   0.399   8.069  0.3704 -0.1038 -0.2480
 8638SOL    HW137376   1.296   0.453   8.146 -2.1480  0.6957 -0.2763
 8638SOL    HW237377   1.200   0.437   8.032  0.8265 -1.5000 -2.6970
 8639SOL     OW37378   1.869   3.902   5.479  0.2301  0.4174 -0.2703
 8639SOL    HW137379   1.774   3.901   5.493  0.0388  1.0490 -1.5095
 8639SOL    HW237380   1.871   3.929   5.387  0.4864  0.7242 -0.1723
 8640SOL     OW37381   0.685   1.986   5.447 -0.5606 -0.0680 -0.2632
 8640SOL    HW137382   0.650   1.946   5.368 -0.0224 -0.6986 -0.1837
 8640SOL    HW237383   0.638   1.939   5.515  1.2830 -2.8710 -0.9383
 8641SOL     OW37384   1.912   3.026   5.441 -0.0932  0.0104  0.2140
 8641SOL    HW137385   1.884   2.948   5.394  2.0549 -0.7343  0.2060
 8641SOL    HW237386   2.000   3.004   5.472  0.0329  0.9484  0.5335
 8642SOL     OW37387   0.119   3.594   7.510  0.1401 -0.4372  0.3970
 8642SOL    HW137388   0.161   3.678   7.528 -0.1143 -0.2482  0.0998
 8642SOL    HW237389   0.093   3.614   7.420 -0.9689 -0.5174  0.6900
 8643SOL     OW37390   0.820   0.512  15.199  0.0188 -0.1934  0.1352
 8643SOL    HW137391   0.829   0.599  15.158  1.1409 -0.2459  0.2804
 8643SOL    HW237392   0.793   0.552  15.282  3.4085  0.5218  0.8869
 8644SOL     OW37393   1.680   4.391   1.942  0.0004  0.3754  0.2719
 8644SOL    HW137394   1.604   4.367   1.994  0.3383  1.3627  1.2298
 8644SOL    HW237395   1.746   4.421   2.004 -0.1241  2.3259 -0.5209
 8645SOL     OW37396   1.541   4.619  17.564  0.6176  0.0094 -0.2136
 8645SOL    HW137397   1.589   4.553  17.514  0.9478 -0.5235  0.7959
 8645SOL    HW237398   1.484   4.564  17.618 -1.3560 -1.1608 -3.5224
 8646SOL     OW37399   0.569   2.040   5.765 -0.5699  0.6784 -0.5941
 8646SOL    HW137400   0.568   1.976   5.694 -0.4529 -1.1806  1.0628
 8646SOL    HW237401   0.537   1.981   5.834  1.6746  1.6463  1.2860
 8647SOL     OW37402   1.573   1.443  10.617  0.0842  0.4827 -0.4103
 8647SOL    HW137403   1.511   1.376  10.587  0.1094 -0.6768  2.1361
 8647SOL    HW237404   1.613   1.394  10.689 -0.2886  0.9058  0.0871
 8648SOL     OW37405   1.151   4.400  15.065 -0.1101  0.2741 -0.8113
 8648SOL    HW137406   1.151   4.372  14.974  1.0303  0.5398 -0.8920
 8648SOL    HW237407   1.071   4.452  15.074 -0.0814 -0.1833  2.3532
 8649SOL     OW37408   4.657   1.976  11.789  0.6918 -0.4101  0.4981
 8649SOL    HW137409   4.580   1.970  11.846  0.0341  1.4017 -0.2310
 8649SOL    HW237410   4.634   1.919  11.716 -0.0413  0.4666  0.0498
 8650SOL     OW37411   2.834   3.217   7.539 -0.1077 -0.6634  0.3922
 8650SOL    HW137412   2.742   3.196   7.523  0.6568 -3.6084 -0.0715
 8650SOL    HW237413   2.856   3.125   7.551  1.4433 -0.3843 -0.3441
 8651SOL     OW37414   0.017   1.962   6.823  0.2661  0.3018 -0.3251
 8651SOL    HW137415   4.645   1.972   6.806  0.0217 -3.5549 -1.1385
 8651SOL    HW237416   0.041   1.897   6.758  1.5105 -0.1999  0.6361
 8652SOL     OW37417   2.273   1.571   5.962  0.1247 -0.4056  0.6612
 8652SOL    HW137418   2.275   1.477   5.947 -0.8581 -0.6806  2.3050
 8652SOL    HW237419   2.182   1.592   5.940  0.0073  0.0252  1.5670
 8653SOL     OW37420   2.773   0.293   2.687 -0.5680 -0.4417  0.0795
 8653SOL    HW137421   2.781   0.198   2.696 -0.5020 -0.5937 -1.6135
 8653SOL    HW237422   2.844   0.318   2.628 -0.7083  0.7137  0.3926
 8654SOL     OW37423   2.082   1.208   3.787  0.6242 -0.0134  0.1855
 8654SOL    HW137424   2.141   1.221   3.861 -2.3072 -0.8403  2.6766
 8654SOL    HW237425   2.140   1.177   3.718 -1.6271 -4.6236  0.3995
 8655SOL     OW37426   1.890   3.674  13.343 -0.2471 -0.2775  0.3882
 8655SOL    HW137427   1.916   3.766  13.336 -1.9303  0.1431 -0.4725
 8655SOL    HW237428   1.876   3.651  13.251  2.3774 -1.4853  0.3066
 8656SOL     OW37429   4.447   0.694  15.865 -0.3133  0.3455  0.0147
 8656SOL    HW137430   4.429   0.712  15.773  0.2554  0.6856 -0.0312
 8656SOL    HW237431   4.531   0.648  15.860 -0.1310  0.4864  1.7280
 8657SOL     OW37432   4.132   2.851  16.339 -0.1111 -0.5483 -0.7599
 8657SOL    HW137433   4.207   2.906  16.363 -0.3575 -0.1866 -0.8163
 8657SOL    HW237434   4.147   2.858  16.244  0.4054 -1.9042 -0.7734
 8658SOL     OW37435   2.146   1.598   5.066  0.3667  0.7859 -0.3213
 8658SOL    HW137436   2.144   1.509   5.031 -0.0150  0.7876 -0.3047
 8658SOL    HW237437   2.229   1.640   5.044  0.5172 -0.0103 -1.2789
 8659SOL     OW37438   4.640   0.882   2.281  0.3443  0.2564 -0.1207
 8659SOL    HW137439   4.679   0.965   2.255  0.8519 -0.7620 -2.5967
 8659SOL    HW237440   4.590   0.911   2.357 -1.9471 -2.1543 -0.7048
 8660SOL     OW37441   1.823   0.991   7.099  0.3422  0.4513 -0.0305
 8660SOL    HW137442   1.855   0.955   7.016 -0.3783  0.8360 -0.4789
 8660SOL    HW237443   1.882   1.063   7.119  0.5153  1.0013 -2.5103
 8661SOL     OW37444   2.458   2.276  12.877 -0.6694 -0.4340 -0.8264
 8661SOL    HW137445   2.468   2.297  12.970 -0.9107 -0.2083 -0.8520
 8661SOL    HW237446   2.538   2.322  12.851 -0.7707  0.0473 -0.3065
 8662SOL     OW37447   2.341   1.893   6.487  0.9883  0.0124  0.2828
 8662SOL    HW137448   2.382   1.839   6.419 -0.7828 -0.5542 -0.3348
 8662SOL    HW237449   2.383   1.978   6.470  0.5731 -0.3114 -2.4010
 8663SOL     OW37450   3.796   2.983   7.194 -0.2937 -0.1469  0.3503
 8663SOL    HW137451   3.829   3.066   7.161 -0.9907  0.3991  1.0292
 8663SOL    HW237452   3.812   2.995   7.288  0.4066 -0.5523  0.2884
 8664SOL     OW37453   2.493   3.776  16.679  0.5192  0.2150 -0.5684
 8664SOL    HW137454   2.457   3.832  16.610 -0.8291 -1.3719 -1.1525
 8664SOL    HW237455   2.485   3.849  16.740  0.6045 -0.0512 -0.2449
 8665SOL     OW37456   4.389   4.600   4.629 -0.0415  0.1248  0.3144
 8665SOL    HW137457   4.404   4.579   4.536 -0.9101  0.6506  0.0613
 8665SOL    HW237458   4.357   4.517   4.664  0.1968 -0.2111 -0.2620
 8666SOL     OW37459   0.784   2.587   8.292 -0.0597  0.0328  0.2699
 8666SOL    HW137460   0.788   2.646   8.217 -1.1336  0.0011  0.1924
 8666SOL    HW237461   0.870   2.585   8.334  0.0741 -0.3528 -0.0216
 8667SOL     OW37462   4.537   1.367   6.502  0.3591 -0.2559  0.0075
 8667SOL    HW137463   4.508   1.416   6.579  0.2526 -0.3859  0.0501
 8667SOL    HW237464   4.539   1.274   6.526 -2.3191 -0.6805 -1.4064
 8668SOL     OW37465   2.760   0.460   3.435  0.2081 -0.2683  0.6895
 8668SOL    HW137466   2.749   0.527   3.367  0.1359  0.8047  1.7523
 8668SOL    HW237467   2.761   0.379   3.384  1.7241 -0.6992  1.4192
 8669SOL     OW37468   3.150   1.082   2.171 -0.1604  0.2248 -0.4754
 8669SOL    HW137469   3.158   1.008   2.112 -0.9676  2.2480 -3.0943
 8669SOL    HW237470   3.172   1.038   2.253  0.8858  3.2572  0.8964
 8670SOL     OW37471   1.911   3.549   9.356  0.1534  0.0650 -0.0715
 8670SOL    HW137472   1.893   3.465   9.314  0.7056 -1.0237  1.8387
 8670SOL    HW237473   1.963   3.586   9.285 -0.5324  0.8567 -0.1631
 8671SOL     OW37474   4.025   1.227   1.801 -0.4696 -0.2437  0.2931
 8671SOL    HW137475   4.054   1.145   1.760  2.0140  0.2718  0.9881
 8671SOL    HW237476   3.942   1.235   1.754 -0.8683  1.1793  1.2488
 8672SOL     OW37477   1.479   1.250   7.732 -0.4886 -0.1481 -0.1103
 8672SOL    HW137478   1.525   1.168   7.749  1.3772  0.5522 -1.6761
 8672SOL    HW237479   1.553   1.310   7.721  0.0249 -0.5384  1.1521
 8673SOL     OW37480   2.447   3.942  15.844 -0.3599 -0.0079  0.5760
 8673SOL    HW137481   2.426   3.963  15.935 -2.3189 -3.3517  0.8676
 8673SOL    HW237482   2.465   3.848  15.841  0.6957  0.2257 -0.3110
 8674SOL     OW37483   4.497   1.581  14.756  0.1740  0.1601 -0.2304
 8674SOL    HW137484   4.512   1.562  14.664  1.0306  0.2633 -0.1099
 8674SOL    HW237485   4.533   1.669  14.759 -1.0694  0.5894  2.0007
 8675SOL     OW37486   2.089   1.411   9.552 -0.1922 -0.6886  0.4081
 8675SOL    HW137487   2.073   1.465   9.474 -2.0660 -0.4024  0.9961
 8675SOL    HW237488   2.127   1.480   9.605 -2.3797 -0.3366  1.5031
 8676SOL     OW37489   2.253   0.075   5.520 -0.1071  0.2725  0.0378
 8676SOL    HW137490   2.244   4.702   5.521 -2.2259  0.4498 -1.8933
 8676SOL    HW237491   2.161   0.098   5.533 -0.8069 -1.1366 -2.2636
 8677SOL     OW37492   0.162   0.802   2.041  0.0985 -0.6169 -0.3932
 8677SOL    HW137493   0.203   0.878   2.000 -1.9414  0.9280  0.4293
 8677SOL    HW237494   0.074   0.841   2.041 -0.3237 -1.5718 -0.5996
 8678SOL     OW37495   1.121   4.192   5.421  0.1745  0.4579  0.2975
 8678SOL    HW137496   1.141   4.111   5.469 -1.4399  0.6809  1.3647
 8678SOL    HW237497   1.109   4.164   5.331  2.6779  0.7108 -0.1126
 8679SOL     OW37498   1.292   4.582  16.809 -0.4997  0.5750 -0.4812
 8679SOL    HW137499   1.266   4.663  16.766 -0.9165 -0.3609 -1.9677
 8679SOL    HW237500   1.386   4.591  16.827 -0.4444 -1.5434  0.3871
 8680SOL     OW37501   0.821   0.867  15.651 -0.1301  0.0939  0.1109
 8680SOL    HW137502   0.835   0.961  15.635  1.9975 -0.1841  0.3720
 8680SOL    HW237503   0.829   0.839  15.560  0.0711  0.2026  0.0940
 8681SOL     OW37504   4.463   4.183  15.840 -0.2593 -0.5949  0.0888
 8681SOL    HW137505   4.401   4.166  15.770 -1.2952  0.0311  0.8508
 8681SOL    HW237506   4.542   4.134  15.817  1.3302  0.9488  2.2341
 8682SOL     OW37507   0.598   1.418   9.487  0.0655  0.4014  0.0730
 8682SOL    HW137508   0.569   1.340   9.534  2.7419  0.0770  1.2451
 8682SOL    HW237509   0.523   1.470   9.515 -0.2299 -0.4473  0.8652
 8683SOL     OW37510   1.596   4.358  13.255 -0.3466  0.3235 -0.0793
 8683SOL    HW137511   1.541   4.290  13.216  1.6917 -2.2775  1.5061
 8683SOL    HW237512   1.562   4.383  13.341  2.8354  1.5115  0.8450
 8684SOL     OW37513   4.374   3.352   9.293 -0.1121  0.1414 -0.3887
 8684SOL    HW137514   4.341   3.438   9.264 -0.0223  0.7429  1.2803
 8684SOL    HW237515   4.452   3.385   9.336 -2.5112  1.7487  2.7466
 8685SOL     OW37516   4.027   1.709  15.798  0.6154 -0.2022  0.0716
 8685SOL    HW137517   4.035   1.664  15.883  0.1864 -0.1445  0.1413
 8685SOL    HW237518   4.081   1.786  15.810 -1.3826  1.1446  0.3852
 8686SOL     OW37519   0.949   3.563   5.083  0.1714  0.0318 -0.5152
 8686SOL    HW137520   0.997   3.533   5.005 -0.8799  1.6288 -1.7847
 8686SOL    HW237521   0.913   3.480   5.113 -0.0906 -0.3109 -1.7515
 8687SOL     OW37522   2.509   4.018  16.838  0.2354 -0.1049  0.3919
 8687SOL    HW137523   2.512   4.113  16.822  0.1338 -0.0076  0.9693
 8687SOL    HW237524   2.468   3.999  16.922 -0.7448 -4.5666 -1.0976
 8688SOL     OW37525   2.832   1.047  12.147  0.6061 -0.2541 -0.0435
 8688SOL    HW137526   2.898   1.113  12.168  1.0059 -0.3259 -1.0893
 8688SOL    HW237527   2.783   1.083  12.073  0.6427 -1.7212 -0.7756
 8689SOL     OW37528   0.658   2.741  15.074 -0.4724  0.0827 -0.1084
 8689SOL    HW137529   0.709   2.791  15.138 -1.3263 -1.1393  1.5013
 8689SOL    HW237530   0.579   2.791  15.053 -0.7175 -1.3670 -2.6382
 8690SOL     OW37531   3.657   2.951   8.438  0.0296 -0.0306  0.0894
 8690SOL    HW137532   3.725   2.893   8.403 -0.4205  0.3290 -1.3880
 8690SOL    HW237533   3.678   3.032   8.392 -4.9196  0.2284 -1.7431
 8691SOL     OW37534   1.686   1.054  11.839  0.6840 -0.3752  0.8237
 8691SOL    HW137535   1.606   1.092  11.800  1.0041 -0.5834 -0.0329
 8691SOL    HW237536   1.748   1.125  11.822  2.8861 -1.7862  3.1301
 8692SOL     OW37537   1.855   3.773   7.972  0.5888  0.0288 -0.2346
 8692SOL    HW137538   1.810   3.825   7.906  0.4265 -0.1068 -0.2316
 8692SOL    HW237539   1.780   3.723   8.004  1.4705 -1.6238 -0.7258
 8693SOL     OW37540   1.273   3.899   2.786  0.5756  0.4893  0.1704
 8693SOL    HW137541   1.292   3.833   2.719 -1.5484 -0.7685  0.8134
 8693SOL    HW237542   1.276   3.983   2.741  0.6322  1.0243  1.1732
 8694SOL     OW37543   1.540   2.207   5.891  0.2276 -0.3519  0.2257
 8694SOL    HW137544   1.601   2.141   5.858 -0.2267 -1.0287  0.7197
 8694SOL    HW237545   1.460   2.184   5.843  0.0152 -1.8646  1.2825
 8695SOL     OW37546   4.105   1.623   6.067 -0.2244  0.1609 -0.0941
 8695SOL    HW137547   4.153   1.705   6.056 -1.1770  0.7810  0.3785
 8695SOL    HW237548   4.058   1.627   5.983  2.2935  0.8824 -1.4669
 8696SOL     OW37549   0.555   2.389   6.472  0.0847 -1.1863 -0.2356
 8696SOL    HW137550   0.623   2.326   6.446 -0.1101 -1.6239  0.3355
 8696SOL    HW237551   0.589   2.431   6.551  1.3433 -0.7410 -1.0029
 8697SOL     OW37552   1.510   2.955   5.496  0.1250 -0.1163  0.5803
 8697SOL    HW137553   1.456   2.943   5.418 -0.6116  0.9687  0.9089
 8697SOL    HW237554   1.595   2.978   5.459 -0.6917  1.9459 -0.0682
 8698SOL     OW37555   1.673   1.234   3.777 -0.5785 -0.1113 -0.7771
 8698SOL    HW137556   1.589   1.194   3.800 -0.1090 -0.2717  0.6448
 8698SOL    HW237557   1.663   1.225   3.682  1.2256  1.9662 -1.1477
 8699SOL     OW37558   1.903   0.001   4.176 -0.1057  0.0370  0.3393
 8699SOL    HW137559   1.947   0.063   4.234  0.7866  2.0506 -2.4874
 8699SOL    HW237560   1.974   4.699   4.116 -0.2120  0.3074  0.1053
 8700SOL     OW37561   0.781   1.320   4.758 -1.2165 -0.1644 -0.9202
 8700SOL    HW137562   0.711   1.382   4.736 -1.1874  0.4213  0.6242
 8700SOL    HW237563   0.755   1.279   4.840  0.8217  0.8456  0.2266
 8701SOL     OW37564   0.815   0.826   5.575  0.0488  0.3944 -0.2633
 8701SOL    HW137565   0.841   0.908   5.617 -2.2159  1.7757 -1.5366
 8701SOL    HW237566   0.774   0.780   5.648  0.3669  1.6841  0.7359
 8702SOL     OW37567   3.402   2.043  13.706  0.8877  0.1975 -0.0879
 8702SOL    HW137568   3.411   2.081  13.794 -0.6085  0.2782  0.0220
 8702SOL    HW237569   3.398   1.950  13.727  0.4853  0.5327  1.3581
 8703SOL     OW37570   0.797   0.401   0.356  0.3494  0.4705 -0.1663
 8703SOL    HW137571   0.864   0.457   0.315  0.4318  0.1966 -0.4031
 8703SOL    HW237572   0.736   0.467   0.387 -1.2343 -1.9534  1.7856
 8704SOL     OW37573   4.608   3.429  12.337 -0.5820 -0.5528  0.3890
 8704SOL    HW137574   4.523   3.466  12.361 -1.4368 -1.8710 -0.6328
 8704SOL    HW237575   4.620   3.367  12.409  0.3274  0.5590  1.1921
 8705SOL     OW37576   4.188   1.984   1.990 -0.0548 -0.5975  0.4038
 8705SOL    HW137577   4.158   2.024   1.908  0.3579 -1.9327 -0.4028
 8705SOL    HW237578   4.236   1.915   1.944  1.0993  0.4397  0.0378
 8706SOL     OW37579   0.525   3.952   0.356  0.1126 -0.0047 -0.5004
 8706SOL    HW137580   0.434   3.979   0.341 -0.6727 -3.3692 -1.8758
 8706SOL    HW237581   0.536   4.004   0.436 -0.4723 -1.6944  0.6730
 8707SOL     OW37582   0.293   4.213  13.216  0.3018  0.0473 -0.2180
 8707SOL    HW137583   0.254   4.282  13.269 -2.3100 -2.0075  0.5267
 8707SOL    HW237584   0.220   4.198  13.156  0.5051 -1.1281 -0.1770
 8708SOL     OW37585   3.414   3.679   1.910  0.4579  0.0683 -0.0819
 8708SOL    HW137586   3.487   3.641   1.861  1.3699  0.7563  0.7144
 8708SOL    HW237587   3.452   3.754   1.958 -0.8073 -0.8889  2.4078
 8709SOL     OW37588   3.957   4.245  17.439  0.3129 -0.2112  0.4147
 8709SOL    HW137589   3.984   4.153  17.437  1.0458 -0.0039  0.6949
 8709SOL    HW237590   3.868   4.244  17.403  0.2073 -1.9904  0.7366
 8710SOL     OW37591   4.589   1.007   2.533  0.4074  0.1125  0.0572
 8710SOL    HW137592   4.500   0.988   2.562 -0.4916  0.6578 -2.3500
 8710SOL    HW237593   4.574   1.100   2.515 -0.4512  0.1785  1.1049
 8711SOL     OW37594   2.231   0.256  14.599  0.2266 -0.7928  0.1976
 8711SOL    HW137595   2.278   0.323  14.550 -2.3733 -0.0629 -1.2835
 8711SOL    HW237596   2.139   0.282  14.601  0.6854  0.6483  2.3948
 8712SOL     OW37597   1.192   3.314  14.272 -0.6443 -0.3450  0.0747
 8712SOL    HW137598   1.145   3.267  14.341 -1.1260 -0.5307 -0.3770
 8712SOL    HW237599   1.129   3.319  14.200  1.3763 -2.4166 -1.8492
 8713SOL     OW37600   2.120   1.271   9.092  0.4668  0.1704 -0.5408
 8713SOL    HW137601   2.172   1.335   9.141 -0.3411 -0.7733  1.5095
 8713SOL    HW237602   2.058   1.241   9.158 -1.0556  1.2553 -1.4812
 8714SOL     OW37603   2.841   0.044   3.094  0.2333 -0.0161  0.3689
 8714SOL    HW137604   2.862   4.672   3.088  0.6831  0.1060 -0.0442
 8714SOL    HW237605   2.907   0.085   3.037 -1.0472  0.3783 -0.8206
 8715SOL     OW37606   2.696   0.539   0.782 -0.2577 -0.3914  0.0840
 8715SOL    HW137607   2.675   0.602   0.712 -0.9837 -0.9088 -0.1677
 8715SOL    HW237608   2.739   0.472   0.729 -1.2107 -0.5315 -0.5310
 8716SOL     OW37609   2.037   0.405   5.966 -0.0657  0.0097 -0.4299
 8716SOL    HW137610   2.028   0.489   5.920  1.2916  0.6271  0.4074
 8716SOL    HW237611   2.130   0.388   5.977 -0.1149 -0.8276 -1.3011
 8717SOL     OW37612   0.927   3.041   2.139 -0.0795  0.2304  0.8717
 8717SOL    HW137613   0.935   3.052   2.045 -0.0250  0.1725  0.8695
 8717SOL    HW237614   1.001   3.098   2.162  1.1200 -1.3218  0.8549
 8718SOL     OW37615   0.969   1.387  12.328  0.1369 -0.1189 -0.2671
 8718SOL    HW137616   1.037   1.443  12.289 -0.1703  1.9859  2.2183
 8718SOL    HW237617   0.966   1.314  12.267 -2.6370  1.6028 -2.1918
 8719SOL     OW37618   0.051   1.727  16.272 -0.3413  0.4742  0.2608
 8719SOL    HW137619   0.113   1.798  16.289  1.0292 -0.7307  0.3794
 8719SOL    HW237620   0.008   1.740  16.356 -1.2401 -3.9471  0.5063
 8720SOL     OW37621   2.263   3.594  16.455  0.1237  0.7781  0.6597
 8720SOL    HW137622   2.225   3.548  16.380  1.8868 -0.0705  0.2978
 8720SOL    HW237623   2.217   3.554  16.530  0.5202  0.7844  0.9070
 8721SOL     OW37624   4.549   3.455   1.826  0.6303 -0.3293 -0.0861
 8721SOL    HW137625   4.593   3.510   1.891 -0.9948  0.9582 -0.0692
 8721SOL    HW237626   4.621   3.437   1.765  0.3743 -0.1362 -0.4449
 8722SOL     OW37627   3.947   3.843   5.961 -0.3370 -0.9348 -0.7652
 8722SOL    HW137628   3.921   3.836   5.870  0.1110  2.4092 -1.1602
 8722SOL    HW237629   4.040   3.856   5.944  0.0809 -1.2145  1.2767
 8723SOL     OW37630   3.663   0.315   4.337 -0.0694 -0.1962  0.0496
 8723SOL    HW137631   3.647   0.240   4.393 -0.8513 -0.1387 -0.0909
 8723SOL    HW237632   3.734   0.287   4.279 -2.6296  0.5307 -3.4848
 8724SOL     OW37633   1.949   3.086   3.365  0.2418 -0.3233  0.9812
 8724SOL    HW137634   1.948   3.011   3.424 -0.1902 -0.7397  0.4509
 8724SOL    HW237635   1.858   3.115   3.375  0.3116 -0.6306  2.4847
 8725SOL     OW37636   1.823   1.792   7.224  0.1494 -0.3886  0.2349
 8725SOL    HW137637   1.739   1.833   7.246 -0.0010 -1.1642  1.0812
 8725SOL    HW237638   1.869   1.871   7.195  0.9945 -0.7192  0.6988
 8726SOL     OW37639   4.430   2.866  16.058 -0.2370 -0.6029 -0.0588
 8726SOL    HW137640   4.437   2.840  16.150  2.0677 -0.7197 -0.2643
 8726SOL    HW237641   4.339   2.893  16.053 -0.1595 -0.2616  0.4214
 8727SOL     OW37642   2.150   4.508   5.041  0.3542  0.1919  0.1959
 8727SOL    HW137643   2.171   4.590   5.086  0.1151  0.9831 -1.1487
 8727SOL    HW237644   2.068   4.527   4.995 -0.5740  0.1277  1.8233
 8728SOL     OW37645   1.864   1.238   8.758 -0.2657  0.8220 -0.4637
 8728SOL    HW137646   1.933   1.298   8.787  1.0360 -0.4182 -1.0158
 8728SOL    HW237647   1.781   1.269   8.794  0.1862 -1.5544  2.5641
 8729SOL     OW37648   2.043   0.795  13.906 -0.5528  0.1881  0.3795
 8729SOL    HW137649   2.085   0.868  13.951 -0.4303  1.1168 -1.2444
 8729SOL    HW237650   1.985   0.842  13.847 -1.5576  0.4871  1.6029
 8730SOL     OW37651   4.708   0.773   6.823  0.3215 -0.4170 -0.6391
 8730SOL    HW137652   0.053   0.743   6.884  0.8144  1.6702 -0.1582
 8730SOL    HW237653   4.640   0.792   6.888  0.9751 -2.1148  0.5048
 8731SOL     OW37654   0.538   2.201   5.486 -0.4278 -0.1561 -0.3536
 8731SOL    HW137655   0.557   2.271   5.548  0.8327 -0.5603 -0.2853
 8731SOL    HW237656   0.615   2.144   5.485 -0.8180 -0.6866  0.8847
 8732SOL     OW37657   1.855   3.955  13.759  0.2385 -0.0810  0.2614
 8732SOL    HW137658   1.862   3.868  13.799  1.7276  0.8116  1.9640
 8732SOL    HW237659   1.941   3.990  13.783  1.4466 -3.0068  0.1891
 8733SOL     OW37660   3.735   1.380   6.935  0.4909 -0.3123 -0.1384
 8733SOL    HW137661   3.675   1.357   6.864 -1.0753  0.2315  1.0315
 8733SOL    HW237662   3.678   1.432   6.991 -0.6858  1.0462 -2.6070
 8734SOL     OW37663   1.590   3.624   4.756  0.6288 -0.0644  0.4032
 8734SOL    HW137664   1.564   3.711   4.729 -0.8772 -0.7123 -0.2514
 8734SOL    HW237665   1.508   3.588   4.791  0.4509  0.5777  0.6518
 8735SOL     OW37666   1.164   0.103   3.688  0.4537 -0.5576 -0.7225
 8735SOL    HW137667   1.130   0.044   3.755 -1.5855 -1.1935 -2.3097
 8735SOL    HW237668   1.251   0.063   3.683  0.9546  0.4562 -0.0386
 8736SOL     OW37669   2.782   4.366  10.260  0.3923  0.4089  0.3537
 8736SOL    HW137670   2.724   4.441  10.253 -0.9297 -0.5639  1.0746
 8736SOL    HW237671   2.813   4.384  10.348  4.4198 -0.4405 -0.8741
 8737SOL     OW37672   2.941   4.155   3.018  0.3619  0.3086  0.5140
 8737SOL    HW137673   2.941   4.064   3.048  0.2995  0.1097 -0.0903
 8737SOL    HW237674   3.028   4.156   2.979 -0.6627  0.5348 -1.7339
 8738SOL     OW37675   3.583   3.781  11.049 -0.3428 -0.2480  0.0331
 8738SOL    HW137676   3.546   3.867  11.066 -3.1197 -1.0543 -1.9689
 8738SOL    HW237677   3.677   3.793  11.066 -0.4407  3.0818 -1.8475
 8739SOL     OW37678   3.265   4.077   2.354 -0.3377  0.3537 -0.5753
 8739SOL    HW137679   3.170   4.089   2.356 -0.3521 -0.0190  0.8232
 8739SOL    HW237680   3.294   4.163   2.325 -0.8045 -0.2693 -2.9085
 8740SOL     OW37681   3.189   2.137   5.544  0.0796 -0.9667 -0.2969
 8740SOL    HW137682   3.100   2.171   5.540  0.6305  0.7416  2.2389
 8740SOL    HW237683   3.215   2.194   5.616  0.0238 -3.4418  1.6889
 8741SOL     OW37684   2.041   2.831  17.689 -0.0087  0.6096  0.0374
 8741SOL    HW137685   2.003   2.887  17.621  0.0819 -0.6250 -1.0274
 8741SOL    HW237686   1.962   2.784   0.024 -1.1463  2.0374 -0.8594
 8742SOL     OW37687   4.330   1.111   0.604  0.3181  0.1281 -0.3527
 8742SOL    HW137688   4.332   1.201   0.638 -1.5800  1.6714 -4.4256
 8742SOL    HW237689   4.352   1.061   0.683  1.5148 -1.8867 -1.9602
 8743SOL     OW37690   2.290   0.419   6.015  0.2733 -0.5367 -0.5501
 8743SOL    HW137691   2.383   0.408   6.035  0.5850  0.3429 -1.5015
 8743SOL    HW237692   2.289   0.507   5.977 -0.2961  0.1493  1.0197
 8744SOL     OW37693   1.875   4.185   6.594  0.3155  0.3436 -0.2387
 8744SOL    HW137694   1.902   4.152   6.680 -2.5287 -1.2506  0.0469
 8744SOL    HW237695   1.881   4.108   6.537 -0.1162 -0.7458  1.1916
 8745SOL     OW37696   1.879   2.100   2.254  0.0502 -0.4219  0.3245
 8745SOL    HW137697   1.838   2.128   2.337  1.9761 -1.3614  1.5808
 8745SOL    HW237698   1.971   2.096   2.279  0.5195  2.0204 -1.0860
 8746SOL     OW37699   4.054   3.748   8.562  0.1105  0.2342  0.2081
 8746SOL    HW137700   4.122   3.683   8.579 -0.8602 -1.1530 -1.0804
 8746SOL    HW237701   4.104   3.796   8.495  0.6849 -0.9208 -0.1950
 8747SOL     OW37702   1.080   3.755   7.839  0.2096  0.2776 -0.1528
 8747SOL    HW137703   1.052   3.784   7.753 -1.2745 -1.6480 -0.3057
 8747SOL    HW237704   1.008   3.781   7.897  0.4329  0.0072  0.2495
 8748SOL     OW37705   3.535   3.087  11.743 -0.3208 -0.4688  0.4475
 8748SOL    HW137706   3.522   3.094  11.649 -0.9203 -2.1301  0.4005
 8748SOL    HW237707   3.446   3.083  11.780 -0.3744  0.2232  0.3887
 8749SOL     OW37708   1.795   4.347   2.636  0.3433  0.6218 -0.5841
 8749SOL    HW137709   1.834   4.432   2.657 -0.4053  1.3675 -2.2707
 8749SOL    HW237710   1.820   4.298   2.715  0.5734 -0.2067 -1.1746
 8750SOL     OW37711   1.512   1.769   6.691 -0.0280 -0.1663 -0.9335
 8750SOL    HW137712   1.515   1.850   6.640  0.0470  1.9284  2.4520
 8750SOL    HW237713   1.605   1.749   6.695 -0.4724 -1.7125  1.4655
 8751SOL     OW37714   4.488   0.062   2.137 -0.4329 -0.2532  0.0415
 8751SOL    HW137715   4.536   0.058   2.220 -0.5728 -1.9941  0.0378
 8751SOL    HW237716   4.406   0.026   2.172 -1.6205  0.6237 -1.8861
 8752SOL     OW37717   3.411   3.289  11.290  0.2414 -1.0651 -0.2618
 8752SOL    HW137718   3.371   3.253  11.210  0.0553 -1.7050  0.1223
 8752SOL    HW237719   3.423   3.382  11.269  1.0578 -1.3275 -0.9801
 8753SOL     OW37720   0.258   3.013   5.129  0.3861  0.2056  0.1631
 8753SOL    HW137721   0.203   2.934   5.129  0.4176  0.1776 -1.0925
 8753SOL    HW237722   0.335   2.982   5.080 -1.5544 -0.2280 -2.6268
 8754SOL     OW37723   0.318   4.650  15.901 -0.4634 -1.0717 -0.3129
 8754SOL    HW137724   0.310   4.629  15.808 -1.1613  1.0990 -0.7482
 8754SOL    HW237725   0.409   4.626  15.916  0.4018  0.7500 -2.7105
 8755SOL     OW37726   4.579   1.408   4.085 -0.1845  0.0696 -0.2025
 8755SOL    HW137727   4.673   1.393   4.076 -0.1996  0.2786 -0.7219
 8755SOL    HW237728   4.560   1.392   3.992 -0.0019 -0.9793 -0.0494
 8756SOL     OW37729   0.965   2.903   0.251  0.0964 -0.0277  0.3295
 8756SOL    HW137730   0.889   2.954   0.223  0.8725  1.1088  0.3324
 8756SOL    HW237731   0.933   2.814   0.233 -0.1625 -0.2092  1.6574
 8757SOL     OW37732   0.758   0.491  13.860 -0.2883  0.4434 -0.5310
 8757SOL    HW137733   0.831   0.547  13.833 -0.2252  1.1482  1.0994
 8757SOL    HW237734   0.770   0.487  13.955  0.9133  0.1184 -0.6899
 8758SOL     OW37735   2.785   4.575  16.093  0.3537 -0.2552 -0.0086
 8758SOL    HW137736   2.809   4.626  16.015 -2.4220 -1.0591 -1.3993
 8758SOL    HW237737   2.779   4.486  16.058  0.0516 -0.3602  0.3153
 8759SOL     OW37738   1.106   0.057   6.469 -0.3532  0.0709 -0.7283
 8759SOL    HW137739   1.106   4.691   6.433  1.7468  0.1385 -0.8833
 8759SOL    HW237740   1.013   0.073   6.487 -0.3269 -0.4173 -0.1811
 8760SOL     OW37741   3.900   2.528   7.026  0.5408  0.4858  0.2602
 8760SOL    HW137742   3.843   2.486   7.091 -0.8139 -0.4699 -1.5387
 8760SOL    HW237743   3.867   2.618   7.021 -0.0934  0.1716 -1.0242
 8761SOL     OW37744   3.857   3.822   4.303  0.1523 -0.0640 -0.6307
 8761SOL    HW137745   3.931   3.855   4.353  0.5407  2.5825 -2.9566
 8761SOL    HW237746   3.897   3.780   4.227  0.3000 -1.1482  0.0561
 8762SOL     OW37747   2.543   1.278   7.223 -0.4071  0.2159  0.1682
 8762SOL    HW137748   2.506   1.248   7.141 -0.8611  2.4797 -0.4370
 8762SOL    HW237749   2.636   1.255   7.214 -0.8386 -1.3476 -0.2499
 8763SOL     OW37750   0.298   1.593   7.642 -0.4430  0.1381  0.6512
 8763SOL    HW137751   0.268   1.502   7.637  0.8436 -0.1009 -2.4509
 8763SOL    HW237752   0.324   1.595   7.734  0.4684  1.5150  0.3579
 8764SOL     OW37753   2.866   2.063   2.163 -0.1535 -0.0793  0.2276
 8764SOL    HW137754   2.860   1.974   2.198  1.1842  0.2968  1.3888
 8764SOL    HW237755   2.781   2.082   2.123 -0.8706 -0.6829  1.4682
 8765SOL     OW37756   1.552   4.355   4.106 -0.0300 -0.2793  0.1718
 8765SOL    HW137757   1.582   4.446   4.101  0.2056 -0.2133  2.6609
 8765SOL    HW237758   1.528   4.331   4.195  0.6536  2.2322  1.0378
 8766SOL     OW37759   2.386   0.780   5.056  0.2045  0.6224  0.1575
 8766SOL    HW137760   2.422   0.857   5.012 -3.3116  1.9869 -0.3055
 8766SOL    HW237761   2.452   0.715   5.029  1.8100  2.0846  0.5678
 8767SOL     OW37762   1.019   1.349   2.637 -0.4834  0.4763  0.6242
 8767SOL    HW137763   1.075   1.412   2.683 -3.6634  2.2813  1.9438
 8767SOL    HW237764   1.054   1.266   2.669 -0.5551  0.1910 -0.0465
 8768SOL     OW37765   1.628   1.379   1.551 -0.3354 -0.5476 -0.4595
 8768SOL    HW137766   1.658   1.421   1.470  0.6959 -0.3663  0.0105
 8768SOL    HW237767   1.548   1.334   1.525 -2.0357  1.9273  0.5726
 8769SOL     OW37768   4.717   0.963  10.459 -0.9211 -0.2830  0.0688
 8769SOL    HW137769   4.671   0.911  10.393 -0.0134  1.2988 -1.8227
 8769SOL    HW237770   0.051   1.019  10.405 -0.9130 -0.1032  0.2654
 8770SOL     OW37771   1.503   2.797   5.735 -0.0494 -0.2539 -0.1457
 8770SOL    HW137772   1.511   2.870   5.674 -0.0578  0.1873  0.3767
 8770SOL    HW237773   1.551   2.733   5.682  0.6721 -0.6180  0.9502
 8771SOL     OW37774   0.317   1.256  10.464  0.9965 -0.6111 -0.1996
 8771SOL    HW137775   0.238   1.301  10.495  1.2561  0.2107 -0.7405
 8771SOL    HW237776   0.367   1.279  10.542  2.0956  1.2996 -1.4484
 8772SOL     OW37777   2.623   1.093   7.862  0.7575  0.1078  0.0495
 8772SOL    HW137778   2.582   1.179   7.854 -0.1563 -0.2926  0.4283
 8772SOL    HW237779   2.654   1.098   7.952  2.8134  0.4695 -0.6653
 8773SOL     OW37780   1.903   0.034  17.487  0.6080  0.2978  0.0368
 8773SOL    HW137781   1.851   4.682  17.457 -0.0975  0.2683  1.3352
 8773SOL    HW237782   1.951   4.710  17.556  0.1127 -0.3346 -0.0433
 8774SOL     OW37783   1.716   0.041   3.874  0.2155 -0.0520  0.8155
 8774SOL    HW137784   1.696   0.035   3.781  1.9203  2.3857  0.2913
 8774SOL    HW237785   1.740   0.132   3.890  2.1049 -0.3382 -0.4140
 8775SOL     OW37786   2.428   3.085   0.910  0.4170  0.5912 -0.6800
 8775SOL    HW137787   2.391   3.041   0.987 -1.4022 -0.1654 -1.9758
 8775SOL    HW237788   2.407   3.015   0.847 -2.0297  0.9292 -0.2669
 8776SOL     OW37789   1.625   0.753   3.400  0.8035 -0.2075  0.0728
 8776SOL    HW137790   1.702   0.707   3.368 -1.4778 -0.8487 -4.3764
 8776SOL    HW237791   1.590   0.797   3.323  1.6824 -2.1900 -1.4462
 8777SOL     OW37792   0.804   0.821   8.841 -0.0565  0.3464  0.0364
 8777SOL    HW137793   0.801   0.785   8.753 -0.2536 -0.9608  0.5906
 8777SOL    HW237794   0.729   0.879   8.854 -0.4765  0.0402 -1.0565
 8778SOL     OW37795   3.710   1.782   8.499  0.6489  0.5311 -0.3769
 8778SOL    HW137796   3.662   1.847   8.448 -0.9309  0.2954  0.8061
 8778SOL    HW237797   3.742   1.831   8.575 -0.8100  2.8383 -1.2494
 8779SOL     OW37798   3.892   4.350   6.742  0.7514 -0.5116  0.3078
 8779SOL    HW137799   3.877   4.444   6.751 -1.3055 -0.7687 -0.5553
 8779SOL    HW237800   3.985   4.359   6.719  0.1821 -1.3258 -2.3473
 8780SOL     OW37801   0.395   0.800   6.505 -0.0972  0.0120  0.0563
 8780SOL    HW137802   0.385   0.775   6.597  0.9406 -0.3489  0.0744
 8780SOL    HW237803   0.489   0.786   6.494 -0.0208 -1.3735  2.3294
 8781SOL     OW37804   3.756   3.282   2.945  0.7415 -0.4503 -0.8771
 8781SOL    HW137805   3.818   3.284   2.872 -0.5362 -1.8892 -2.0047
 8781SOL    HW237806   3.705   3.207   2.916  0.1148  0.4443 -2.0977
 8782SOL     OW37807   2.725   3.625   4.738  0.0121 -0.5514 -0.0878
 8782SOL    HW137808   2.747   3.561   4.805  1.6564 -0.4648 -0.5414
 8782SOL    HW237809   2.649   3.578   4.704 -0.9384 -0.7249  2.3005
 8783SOL     OW37810   3.337   0.269  10.432  0.2592  0.0218 -0.2823
 8783SOL    HW137811   3.425   0.242  10.456  1.0049  2.1822 -0.6201
 8783SOL    HW237812   3.322   0.210  10.357  0.2091 -0.2455 -0.0644
 8784SOL     OW37813   1.917   0.005   7.128 -0.1475 -0.6083  0.4982
 8784SOL    HW137814   1.921   0.096   7.099 -0.7916 -0.3813  1.1202
 8784SOL    HW237815   1.941   4.685   7.045  0.1323 -0.0753  0.3109
 8785SOL     OW37816   1.280   0.906   0.666  0.2647  0.0479 -0.4057
 8785SOL    HW137817   1.278   1.000   0.652 -1.3678 -0.3148 -2.6363
 8785SOL    HW237818   1.374   0.889   0.660  0.0402 -1.6873  0.7864
 8786SOL     OW37819   0.329   3.395  17.439  0.0095  0.1446 -0.3542
 8786SOL    HW137820   0.260   3.408  17.504  1.1143  0.0141  0.8471
 8786SOL    HW237821   0.301   3.314  17.396  1.3058 -0.5789  0.1861
 8787SOL     OW37822   1.691   0.615  16.158 -0.6711  0.3742  0.5865
 8787SOL    HW137823   1.706   0.553  16.230  0.3722 -3.1107 -2.6790
 8787SOL    HW237824   1.662   0.697  16.199 -0.1645  0.8071  0.0795
 8788SOL     OW37825   2.243   0.858   3.881  0.1769 -0.0273  0.3182
 8788SOL    HW137826   2.313   0.819   3.829 -1.4981 -2.0906 -0.3663
 8788SOL    HW237827   2.169   0.798   3.870 -1.0818  1.8598 -1.4898
 8789SOL     OW37828   0.321   3.343   6.159 -0.3219 -0.3384 -0.0664
 8789SOL    HW137829   0.329   3.414   6.223  2.0510 -1.7494  1.2372
 8789SOL    HW237830   0.242   3.352   6.106 -0.1859 -1.3960 -0.4389
 8790SOL     OW37831   1.659   0.663   7.713  0.1901 -0.8910 -0.5508
 8790SOL    HW137832   1.633   0.571   7.708  0.1941 -0.9096 -0.2269
 8790SOL    HW237833   1.683   0.661   7.806  1.9292 -2.1843 -1.0111
 8791SOL     OW37834   1.742   2.361   6.034  0.6427 -0.1754  0.1133
 8791SOL    HW137835   1.691   2.290   5.993 -1.1131  1.3137 -0.2942
 8791SOL    HW237836   1.726   2.427   5.966 -2.9982 -1.8420 -0.6483
 8792SOL     OW37837   4.128   0.893   9.579  0.1362 -0.3062 -0.0715
 8792SOL    HW137838   4.054   0.833   9.570 -1.2832  1.6743 -1.6019
 8792SOL    HW237839   4.171   0.859   9.501  2.7694  0.4162  1.0841
 8793SOL     OW37840   4.225   1.157   7.065 -0.4796  0.2096  0.7934
 8793SOL    HW137841   4.289   1.183   7.131  1.3707  0.2543 -0.9843
 8793SOL    HW237842   4.162   1.229   7.067 -0.5159  0.1847  0.5982
 8794SOL     OW37843   2.316   3.021   5.467  0.3644  0.2393 -0.0057
 8794SOL    HW137844   2.388   3.026   5.405  0.2894  0.3765 -0.0809
 8794SOL    HW237845   2.251   2.968   5.421  1.1047 -1.4486  0.8487
 8795SOL     OW37846   3.107   1.944  14.536 -0.2117  0.6390  0.3778
 8795SOL    HW137847   3.096   2.038  14.551  1.0114  0.7834  0.3617
 8795SOL    HW237848   3.102   1.954  14.441 -1.0591  2.0547  0.5594
 8796SOL     OW37849   1.447   4.415   4.580 -0.0398 -0.1879 -0.0617
 8796SOL    HW137850   1.421   4.503   4.606  0.9039 -0.0380  0.3558
 8796SOL    HW237851   1.363   4.374   4.604 -1.1323  0.1369 -3.2735
 8797SOL     OW37852   0.662   0.206   8.229  0.0864  0.3234 -0.3629
 8797SOL    HW137853   0.711   0.198   8.311 -0.7470 -1.3021 -0.0212
 8797SOL    HW237854   0.637   0.298   8.233 -0.1089  0.2622 -0.1393
 8798SOL     OW37855   3.343   3.645   2.852 -0.8787  0.1719  0.6926
 8798SOL    HW137856   3.379   3.631   2.765 -1.1045  2.5174  0.2162
 8798SOL    HW237857   3.385   3.577   2.904 -2.0087 -0.0728  1.2923
 8799SOL     OW37858   4.187   3.736   6.246 -0.0962 -0.5593  0.5454
 8799SOL    HW137859   4.113   3.758   6.302 -1.4514  0.9448 -1.8171
 8799SOL    HW237860   4.236   3.819   6.248 -0.3583 -0.4034  0.5286
 8800SOL     OW37861   1.393   0.769   0.299 -0.1767 -0.3098 -0.0868
 8800SOL    HW137862   1.390   0.799   0.390 -1.7654  0.2857 -0.3485
 8800SOL    HW237863   1.307   0.727   0.304  0.4384 -1.6646 -0.9673
 8801SOL     OW37864   3.659   2.447   7.535  0.3269  0.2010 -0.0016
 8801SOL    HW137865   3.753   2.445   7.517  0.7226 -1.3659  2.1474
 8801SOL    HW237866   3.652   2.354   7.556  3.8605 -0.6745 -2.7839
 8802SOL     OW37867   4.475   0.802  14.631  0.1836  0.1819  0.0609
 8802SOL    HW137868   4.454   0.889  14.596 -0.3981  0.2522  0.5967
 8802SOL    HW237869   4.554   0.819  14.682 -0.3925 -0.2269  1.0691
 8803SOL     OW37870   2.171   1.153   1.937  0.1944 -0.0437 -0.0924
 8803SOL    HW137871   2.154   1.076   1.883 -1.3501  0.6979 -0.6329
 8803SOL    HW237872   2.081   1.174   1.962  0.0467 -1.7175  0.7736
 8804SOL     OW37873   2.290   0.550   1.719 -0.4007  0.1227 -0.3993
 8804SOL    HW137874   2.354   0.569   1.649  0.2281 -3.8383 -0.9113
 8804SOL    HW237875   2.215   0.552   1.660 -0.3455 -0.6274 -0.4968
 8805SOL     OW37876   0.395   0.093   8.300 -0.5425 -0.4082 -0.1926
 8805SOL    HW137877   0.426   0.147   8.227 -0.1570  0.9482  0.9817
 8805SOL    HW237878   0.342   0.032   8.249 -1.9740 -1.0962  2.1409
 8806SOL     OW37879   0.401   2.352   0.999  0.4214 -0.5298  0.2953
 8806SOL    HW137880   0.492   2.356   1.030 -0.2151 -0.4379  2.1439
 8806SOL    HW237881   0.348   2.374   1.076  1.2368 -0.9998  0.9965
 8807SOL     OW37882   2.724   1.206   8.381 -0.7951  0.1460 -0.1001
 8807SOL    HW137883   2.765   1.292   8.374  1.7166 -1.0849 -0.5915
 8807SOL    HW237884   2.738   1.194   8.475  0.4126  1.8886 -0.0578
 8808SOL     OW37885   1.605   4.229  15.793  0.0329  0.5002 -0.5234
 8808SOL    HW137886   1.661   4.300  15.823 -0.7066  0.4529  1.0058
 8808SOL    HW237887   1.584   4.184  15.875 -0.7561  1.4430 -0.2166
 8809SOL     OW37888   1.446   2.671  14.848 -0.4254  0.4817  0.1011
 8809SOL    HW137889   1.503   2.700  14.920 -3.1444 -0.6419  2.6824
 8809SOL    HW237890   1.376   2.614  14.881 -0.9442  2.2925  2.1419
 8810SOL     OW37891   0.731   0.487  15.948  0.2207 -0.1093 -0.0732
 8810SOL    HW137892   0.732   0.576  15.912  2.2516 -0.7762 -1.6503
 8810SOL    HW237893   0.697   0.497  16.037  1.6608  0.6105  0.3859
 8811SOL     OW37894   3.023   1.036   7.980 -0.2561  1.3108 -0.5399
 8811SOL    HW137895   2.959   0.967   7.965  2.1450 -1.1425  0.6732
 8811SOL    HW237896   3.026   1.083   7.897 -1.4212  1.1678 -0.6676
 8812SOL     OW37897   3.287   0.278   7.973  0.6008  0.2827 -0.4963
 8812SOL    HW137898   3.306   0.207   8.035  0.6437 -1.6583 -2.7407
 8812SOL    HW237899   3.196   0.293   8.000 -0.1404 -1.0894 -2.2898
 8813SOL     OW37900   0.045   2.468   3.438 -0.2821 -0.0735  0.5429
 8813SOL    HW137901   0.102   2.435   3.368  0.4969  0.0713  1.1084
 8813SOL    HW237902   0.049   2.398   3.503  1.2965 -1.3280 -0.8750
 8814SOL     OW37903   0.009   1.867   2.344 -0.3363  0.6726  0.3351
 8814SOL    HW137904   0.043   1.778   2.336 -1.8827  0.3890 -2.7661
 8814SOL    HW237905   4.643   1.842   2.373 -0.0751 -1.6831 -0.9041
 8815SOL     OW37906   2.140   2.556   2.322  0.0674  0.8828  0.0268
 8815SOL    HW137907   2.235   2.555   2.321  0.0731  2.2850 -2.1532
 8815SOL    HW237908   2.109   2.555   2.231 -2.2558 -1.4874  0.8494
 8816SOL     OW37909   4.162   4.223  12.053  0.2516  0.6448  0.0352
 8816SOL    HW137910   4.094   4.190  12.112  0.9182  1.1974  1.1371
 8816SOL    HW237911   4.131   4.313  12.053  0.7881  0.8271  0.0072
 8817SOL     OW37912   4.074   2.632   6.171 -0.0747  0.2391  0.3447
 8817SOL    HW137913   4.159   2.592   6.188  0.1936  1.3817  1.6923
 8817SOL    HW237914   4.061   2.678   6.254  1.3284  1.0637  0.1086
 8818SOL     OW37915   3.121   3.421  12.408 -0.2409  0.0641 -0.0920
 8818SOL    HW137916   3.195   3.402  12.350 -1.0453 -1.8442 -0.4851
 8818SOL    HW237917   3.149   3.358  12.474 -1.4263 -0.2806  0.0889
 8819SOL     OW37918   3.602   0.353   1.452 -0.3506  0.4808  0.0911
 8819SOL    HW137919   3.654   0.427   1.419  0.9822 -0.6503 -0.3197
 8819SOL    HW237920   3.561   0.322   1.372  1.1956  0.3440 -0.6377
 8820SOL     OW37921   1.013   4.050   0.794  0.8302 -0.5552 -0.1973
 8820SOL    HW137922   1.104   4.080   0.783  1.2016 -1.3325  0.7485
 8820SOL    HW237923   0.964   4.127   0.824  3.0570  0.5598  0.6140
 8821SOL     OW37924   3.539   1.332   3.501  0.4803 -0.0086 -0.4843
 8821SOL    HW137925   3.516   1.409   3.553  1.7222 -0.6125  0.9673
 8821SOL    HW237926   3.464   1.320   3.443 -0.8408  1.2090  0.9898
 8822SOL     OW37927   4.533   2.574   3.563 -0.1779 -0.0014 -0.0665
 8822SOL    HW137928   4.462   2.521   3.527  0.2226 -0.9160  0.4970
 8822SOL    HW237929   4.613   2.534   3.527  0.1582 -0.7937  1.5510
 8823SOL     OW37930   0.133   3.078   4.110 -0.8136  0.6779 -0.3345
 8823SOL    HW137931   0.122   3.125   4.193 -1.4420  0.9666 -0.5815
 8823SOL    HW237932   0.134   3.157   4.056  0.8321  1.6549  1.1257
 8824SOL     OW37933   4.231   0.015   3.252  0.0483 -0.3882 -0.2901
 8824SOL    HW137934   4.157   4.705   3.304  0.2216 -0.0058  0.1918
 8824SOL    HW237935   4.197   4.707   3.168  0.1282  0.1779 -0.5208
 8825SOL     OW37936   1.307   3.204   5.800 -0.0759  0.0884  0.5729
 8825SOL    HW137937   1.369   3.171   5.865 -0.5746 -0.0804  0.9704
 8825SOL    HW237938   1.238   3.242   5.855  0.9365 -0.4779  2.2507
 8826SOL     OW37939   4.586   3.606   5.002  0.1719  0.4818  0.0756
 8826SOL    HW137940   4.503   3.647   4.978 -0.7841 -0.5654  1.5754
 8826SOL    HW237941   4.624   3.674   5.057 -1.0335  0.3742  1.0381
 8827SOL     OW37942   3.153   4.191  10.972  0.5152 -0.5203  0.5288
 8827SOL    HW137943   3.098   4.244  10.916  1.9367 -0.5821 -0.9094
 8827SOL    HW237944   3.178   4.114  10.921  2.9729 -0.0144  0.9586
 8828SOL     OW37945   3.071   0.285   4.474  0.0704 -0.4725  0.1530
 8828SOL    HW137946   3.138   0.221   4.500  2.5693  2.2139  0.3561
 8828SOL    HW237947   3.102   0.310   4.387  0.7119 -2.2739 -0.1329
 8829SOL     OW37948   1.052   1.998  10.654 -0.1051 -0.3635  0.4974
 8829SOL    HW137949   1.011   2.008  10.740  0.6559  2.3116  0.5538
 8829SOL    HW237950   1.084   2.086  10.636  2.0874 -0.9710  1.3701
 8830SOL     OW37951   1.992   0.032   4.968 -1.0128 -0.4085  0.1108
 8830SOL    HW137952   1.992   0.118   4.926  0.6192 -0.0010  0.9374
 8830SOL    HW237953   2.021   0.045   5.059 -0.0392  1.5154 -0.4660
 8831SOL     OW37954   3.575   1.841  14.012  0.3317  0.8674  0.0963
 8831SOL    HW137955   3.614   1.873  14.094  1.3834  0.5682 -0.2942
 8831SOL    HW237956   3.492   1.813  14.051  1.1524 -0.8613  0.6182
 8832SOL     OW37957   4.666   2.682  14.113 -0.3180  0.4366 -0.0319
 8832SOL    HW137958   4.628   2.636  14.038 -0.3112  1.0531 -0.4154
 8832SOL    HW237959   4.674   2.773  14.082  1.6111 -0.3287 -1.7962
 8833SOL     OW37960   1.920   3.209  11.666  0.1561  0.2609  0.1121
 8833SOL    HW137961   2.015   3.216  11.659  0.0046  3.0250  0.6380
 8833SOL    HW237962   1.904   3.137  11.606 -2.5110  0.2737  0.7817
 8834SOL     OW37963   3.943   3.555   5.770 -0.3512 -0.3246  0.0498
 8834SOL    HW137964   3.868   3.514   5.814 -0.4616 -0.4428 -0.2448
 8834SOL    HW237965   4.003   3.563   5.844 -1.1800 -0.1030  0.6956
 8835SOL     OW37966   1.729   4.360   6.187 -0.0232  0.5907  0.0030
 8835SOL    HW137967   1.767   4.434   6.140  2.1502 -1.7284 -1.9172
 8835SOL    HW237968   1.805   4.308   6.214  0.6635  2.7723  2.3288
 8836SOL     OW37969   3.444   2.342  12.618 -0.1742  0.5846 -0.8405
 8836SOL    HW137970   3.516   2.385  12.663  0.1504 -1.1589  0.2737
 8836SOL    HW237971   3.455   2.252  12.649  1.7707  0.4982 -1.8006
 8837SOL     OW37972   4.438   1.531   6.710 -0.0131 -0.4964 -0.1725
 8837SOL    HW137973   4.367   1.514   6.772  0.3996  2.8485  1.2137
 8837SOL    HW237974   4.409   1.600   6.651  0.0262  0.7387  1.2478
 8838SOL     OW37975   0.488   3.508  11.646  0.1434 -0.0562 -0.2406
 8838SOL    HW137976   0.417   3.455  11.681  1.6149 -1.7007  0.2604
 8838SOL    HW237977   0.567   3.455  11.656  1.0860  1.2711 -0.5801
 8839SOL     OW37978   2.996   0.373   0.886 -0.3727 -0.1534  0.9374
 8839SOL    HW137979   2.953   0.303   0.838  1.9441 -2.3959  2.1912
 8839SOL    HW237980   3.088   0.349   0.875 -1.3669 -2.5826 -1.8166
 8840SOL     OW37981   2.049   1.656   7.148  0.4852  0.1018  0.3674
 8840SOL    HW137982   2.118   1.711   7.185  0.2394  0.2435  0.6074
 8840SOL    HW237983   1.971   1.709   7.164  0.1201  0.6923 -3.1980
 8841SOL     OW37984   1.223   2.993  14.468 -0.2635  0.3258  0.1342
 8841SOL    HW137985   1.313   3.016  14.487 -0.4822  1.5837 -0.3854
 8841SOL    HW237986   1.216   2.970  14.375  1.5514  0.9908 -0.1615
 8842SOL     OW37987   4.714   1.550   3.375  0.1870 -0.4813 -0.4628
 8842SOL    HW137988   0.020   1.579   3.462  0.3207 -0.4708 -0.5083
 8842SOL    HW237989   0.026   1.461   3.380  0.2842 -0.4528 -0.6154
 8843SOL     OW37990   3.247   1.369   5.612  0.8391  0.1569  0.0551
 8843SOL    HW137991   3.207   1.451   5.582 -2.7778 -0.9065  1.9493
 8843SOL    HW237992   3.218   1.361   5.703 -0.3297 -0.1225 -0.3477
 8844SOL     OW37993   3.420   4.579   3.863  0.3323  0.4852 -0.3068
 8844SOL    HW137994   3.410   4.624   3.947  1.4568 -2.0069  1.1751
 8844SOL    HW237995   3.350   4.514   3.874  0.4803  0.5344  0.9410
 8845SOL     OW37996   4.554   1.157   6.685  0.4229  0.4458 -0.1285
 8845SOL    HW137997   4.577   1.087   6.624  2.4426 -0.5206  1.7263
 8845SOL    HW237998   4.477   1.133   6.737 -0.8758 -1.7035 -3.0500
 8846SOL     OW37999   0.673   3.969   1.806  0.0829 -0.6199  0.3763
 8846SOL    HW138000   0.747   3.914   1.830 -0.7192 -1.9832 -0.2290
 8846SOL    HW238001   0.713   4.033   1.748 -0.3984 -0.8902 -0.2564
 8847SOL     OW38002   3.922   2.402   7.515  0.4333  0.0746  0.1219
 8847SOL    HW138003   3.979   2.445   7.579 -0.8571  0.6069  0.9262
 8847SOL    HW238004   3.925   2.314   7.552  1.2942  0.0257 -0.0763
 8848SOL     OW38005   2.111   3.340   6.565  0.0894  0.4847 -0.3233
 8848SOL    HW138006   2.026   3.338   6.609  1.2040 -2.4102  1.6825
 8848SOL    HW238007   2.169   3.305   6.632  2.2518 -0.5359 -2.7106
 8849SOL     OW38008   1.529   0.562   4.973  0.2735  0.5804  0.2501
 8849SOL    HW138009   1.587   0.629   5.010 -0.6387  2.0760 -1.0018
 8849SOL    HW238010   1.597   0.495   4.965  1.1224  1.4561  0.0691
 8850SOL     OW38011   0.546   1.616   2.581 -0.2424 -0.2163  0.6171
 8850SOL    HW138012   0.562   1.612   2.676  0.1496 -1.8173  0.4959
 8850SOL    HW238013   0.637   1.603   2.555 -0.0675 -0.9798  1.6006
 8851SOL     OW38014   1.309   3.823   2.466 -0.3502 -0.0899  0.2043
 8851SOL    HW138015   1.390   3.870   2.444  0.8733 -0.9923  2.6853
 8851SOL    HW238016   1.311   3.744   2.412  0.7081 -0.9736  1.5441
 8852SOL     OW38017   3.963   4.040   2.373 -0.1655  1.1715 -0.4300
 8852SOL    HW138018   3.889   4.044   2.314  0.2173 -0.7571 -1.0531
 8852SOL    HW238019   3.982   3.946   2.374 -0.6898  1.0746  0.3656
 8853SOL     OW38020   1.885   0.143   0.693 -0.1563  0.6925  0.2541
 8853SOL    HW138021   1.891   0.136   0.598  0.0880 -0.2928  0.3470
 8853SOL    HW238022   1.877   0.237   0.709  2.5474  0.8584  0.6653
 8854SOL     OW38023   1.914   3.157   3.944  0.0070  0.0093 -0.5716
 8854SOL    HW138024   1.876   3.242   3.921  1.6612  1.2512  1.3717
 8854SOL    HW238025   1.845   3.126   4.004  1.3492 -0.6446  0.6274
 8855SOL     OW38026   3.740   3.629   9.863  0.4589  0.0522  0.2635
 8855SOL    HW138027   3.736   3.561   9.796 -0.8137 -0.7838  1.1972
 8855SOL    HW238028   3.764   3.710   9.818 -2.5035  0.4343 -0.5740
 8856SOL     OW38029   4.606   0.968  15.012  0.3204 -0.1393 -0.4483
 8856SOL    HW138030   4.622   0.928  14.926  1.1853 -1.3607  0.2716
 8856SOL    HW238031   4.691   0.950  15.052  1.0642 -1.5811 -2.6526
 8857SOL     OW38032   1.301   0.775   3.694 -0.1235  0.3380 -0.4955
 8857SOL    HW138033   1.337   0.689   3.675 -1.0422 -0.4565  1.3485
 8857SOL    HW238034   1.291   0.811   3.605  1.2549  0.3101 -0.6546
 8858SOL     OW38035   0.164   1.245   6.368  0.1739  0.2809  0.3942
 8858SOL    HW138036   0.193   1.188   6.439  1.3230  0.2726 -0.0781
 8858SOL    HW238037   0.235   1.246   6.304 -0.1784 -0.3799  0.0045
 8859SOL     OW38038   1.238   3.885   7.339 -0.0070  0.0931 -0.1959
 8859SOL    HW138039   1.186   3.963   7.357 -0.0043 -0.4123  2.0599
 8859SOL    HW238040   1.325   3.925   7.346  0.8333 -1.8243  0.3207
 8860SOL     OW38041   2.153   3.237   6.994  0.0804 -0.7177 -0.0740
 8860SOL    HW138042   2.197   3.269   6.914 -0.9742  0.1561 -0.3040
 8860SOL    HW238043   2.080   3.187   6.958 -0.8668  0.4859  0.1886
 8861SOL     OW38044   3.599   3.626  15.976 -0.0735 -0.4620  0.7996
 8861SOL    HW138045   3.556   3.542  15.995  2.1273 -1.3778  1.6909
 8861SOL    HW238046   3.607   3.673  16.058 -3.5435  2.5195 -0.5939
 8862SOL     OW38047   1.143   4.252   8.910  0.0619  0.1952  0.0151
 8862SOL    HW138048   1.090   4.284   8.837 -0.8564 -2.8754 -0.6620
 8862SOL    HW238049   1.228   4.267   8.868 -2.0159  1.5090 -3.6753
 8863SOL     OW38050   0.438   1.876   2.353 -0.0706 -0.1013  0.2960
 8863SOL    HW138051   0.421   1.785   2.326  1.0466 -0.2412  0.0895
 8863SOL    HW238052   0.533   1.881   2.351 -0.1443  0.9198 -0.2773
 8864SOL     OW38053   1.562   2.719   8.122  0.0515 -0.1467 -0.1890
 8864SOL    HW138054   1.596   2.807   8.104 -0.5678  0.6642  2.5114
 8864SOL    HW238055   1.481   2.723   8.070  0.9150  0.7782 -1.4531
 8865SOL     OW38056   3.371   2.302  13.550 -0.2229  0.2724  0.0553
 8865SOL    HW138057   3.341   2.248  13.622 -0.2065 -2.8720 -2.2627
 8865SOL    HW238058   3.311   2.287  13.477  1.2021 -2.2528 -0.6061
 8866SOL     OW38059   3.821   2.383  13.385  0.4879 -0.5115  0.4728
 8866SOL    HW138060   3.765   2.340  13.449  2.2985 -0.4015  2.1245
 8866SOL    HW238061   3.899   2.331  13.400  0.0266 -0.9539  1.3116
 8867SOL     OW38062   2.551   2.316   0.740  0.1427 -0.5793  0.2833
 8867SOL    HW138063   2.586   2.241   0.789  1.1657  0.7607  1.5773
 8867SOL    HW238064   2.618   2.316   0.671  0.7752  0.0185  0.9015
 8868SOL     OW38065   1.039   2.056   5.814 -0.1355  0.0008  0.3658
 8868SOL    HW138066   0.997   2.063   5.728 -2.1781 -0.1886  1.3505
 8868SOL    HW238067   1.014   1.972   5.853  0.6596 -0.3256  0.1770
 8869SOL     OW38068   2.978   4.531   5.575  0.2116 -0.2065 -0.5371
 8869SOL    HW138069   3.042   4.462   5.559  0.0641  0.1807 -2.8704
 8869SOL    HW238070   2.912   4.513   5.508  1.3825 -1.9203 -1.2159
 8870SOL     OW38071   0.988   0.020   4.629  0.1345 -0.0625 -0.0138
 8870SOL    HW138072   1.030   0.001   4.713 -0.0417 -3.0605 -0.6144
 8870SOL    HW238073   0.900   0.025   4.666  0.2733 -1.2167  0.4390
 8871SOL     OW38074   1.128   2.733   6.564 -0.5180 -0.9691  0.4984
 8871SOL    HW138075   1.194   2.771   6.506 -0.1960  0.3594  1.7418
 8871SOL    HW238076   1.051   2.788   6.549  1.6501  2.0349  0.3860
 8872SOL     OW38077   1.886   1.696  10.313 -0.5858 -0.2687  0.0657
 8872SOL    HW138078   1.944   1.662  10.244 -1.7660 -0.7301 -0.6957
 8872SOL    HW238079   1.821   1.626  10.315 -0.4212 -0.4817 -1.9259
 8873SOL     OW38080   0.008   0.444  11.238  0.5493  0.1066  0.1279
 8873SOL    HW138081   0.065   0.398  11.178  0.9950  2.4635 -1.2581
 8873SOL    HW238082   0.061   0.522  11.252 -0.3958  0.8466 -0.3756
 8874SOL     OW38083   1.594   3.195   4.603  0.0554 -0.1198 -0.4541
 8874SOL    HW138084   1.504   3.225   4.610 -0.1766 -0.5584 -1.5282
 8874SOL    HW238085   1.626   3.254   4.671 -0.0858 -0.3845 -0.1531
 8875SOL     OW38086   3.062   0.632   5.118  0.0594  0.1098  0.0833
 8875SOL    HW138087   3.102   0.591   5.195  0.1291 -0.1337 -0.0819
 8875SOL    HW238088   3.075   0.565   5.051 -2.2043  0.3588 -0.6059
 8876SOL     OW38089   2.701   4.561   2.731  0.1262  0.0323 -0.2609
 8876SOL    HW138090   2.764   4.500   2.693  0.0679  0.8224 -1.6396
 8876SOL    HW238091   2.767   4.628   2.751  0.0367 -0.3404  1.2271
 8877SOL     OW38092   0.338   4.057   7.580 -0.3735  0.0118  0.0610
 8877SOL    HW138093   0.367   4.092   7.496 -0.4445 -0.3703 -0.1223
 8877SOL    HW238094   0.410   4.090   7.634 -0.4878 -3.0857  2.1145
 8878SOL     OW38095   3.184   2.934  14.049 -0.4254  0.4042  0.1091
 8878SOL    HW138096   3.278   2.944  14.058 -0.0161 -1.5562 -2.1960
 8878SOL    HW238097   3.160   2.910  14.139  0.6631  1.6155  0.7136
 8879SOL     OW38098   2.710   3.309   4.558  0.5906  0.1876 -0.3292
 8879SOL    HW138099   2.637   3.306   4.621  0.8203 -1.7144 -0.1770
 8879SOL    HW238100   2.667   3.299   4.473 -0.1861 -1.4531  0.2697
 8880SOL     OW38101   2.110   1.536  12.006  0.0371 -0.5188  0.4632
 8880SOL    HW138102   2.064   1.541  11.922 -2.0625  0.8439  1.6981
 8880SOL    HW238103   2.063   1.598  12.061  1.2930  0.4811  0.4134
 8881SOL     OW38104   4.129   2.502   9.263  0.4592 -0.2414  0.1965
 8881SOL    HW138105   4.223   2.518   9.264  0.6244 -1.2991  1.7838
 8881SOL    HW238106   4.110   2.517   9.356 -1.9623 -0.6210 -0.2267
 8882SOL     OW38107   3.301   1.571   1.873 -0.0269 -0.0113 -0.2151
 8882SOL    HW138108   3.279   1.642   1.934 -0.1878  0.9846 -1.4415
 8882SOL    HW238109   3.208   1.549   1.864 -0.0183  1.0472 -2.7374
 8883SOL     OW38110   0.277   2.655   4.572 -0.6161  0.3518  0.0298
 8883SOL    HW138111   0.231   2.634   4.654 -0.2196 -1.4707 -0.2129
 8883SOL    HW238112   0.219   2.717   4.529 -0.2427  0.1367 -0.7760
 8884SOL     OW38113   1.718   0.454  16.375  0.3617  0.2409 -0.2070
 8884SOL    HW138114   1.762   0.372  16.356 -2.7246 -1.6272  0.7715
 8884SOL    HW238115   1.713   0.446  16.470 -0.5716  0.6025 -0.2297
 8885SOL     OW38116   3.860   2.289  14.740  0.0166 -1.1726 -0.2921
 8885SOL    HW138117   3.851   2.374  14.784 -1.4230 -0.7683 -1.3851
 8885SOL    HW238118   3.778   2.250  14.771 -0.6832  1.0086  0.5874
 8886SOL     OW38119   3.146   3.624   3.370 -0.0667 -0.3995 -0.0613
 8886SOL    HW138120   3.179   3.697   3.423 -3.2050 -0.2464  1.7083
 8886SOL    HW238121   3.230   3.595   3.336  0.0158 -0.9350  0.5897
 8887SOL     OW38122   2.933   4.529   3.854 -0.0110  0.4383 -0.1156
 8887SOL    HW138123   2.951   4.437   3.832  0.8642  0.8290 -1.0085
 8887SOL    HW238124   2.838   4.528   3.860  0.0958  2.5145  1.7539
 8888SOL     OW38125   4.649   2.810  15.464  0.7624 -0.3758 -0.1864
 8888SOL    HW138126   4.613   2.843  15.547  1.0017  1.6262 -0.8749
 8888SOL    HW238127   4.636   2.717  15.485 -1.1606 -0.0434  0.0846
 8889SOL     OW38128   0.743   3.096   6.720  0.0784  0.6343  0.0665
 8889SOL    HW138129   0.655   3.063   6.699  0.4622 -0.5550  0.3223
 8889SOL    HW238130   0.743   3.086   6.815  1.2903 -0.6685 -0.0662
 8890SOL     OW38131   2.326   3.398   7.641 -0.0998  0.2543  0.0471
 8890SOL    HW138132   2.307   3.487   7.670 -0.8954 -0.2493  1.0530
 8890SOL    HW238133   2.329   3.351   7.724 -0.6131  1.2673  0.6471
 8891SOL     OW38134   0.363   3.316  11.815  0.1853 -0.0684 -0.5737
 8891SOL    HW138135   0.329   3.251  11.878  0.6335 -1.7781 -2.0818
 8891SOL    HW238136   0.442   3.271  11.786 -0.5308 -1.1987 -0.8178
 8892SOL     OW38137   1.347   3.491  13.219  0.5717  0.0951 -0.4196
 8892SOL    HW138138   1.282   3.555  13.248  1.0045  0.8508 -1.1158
 8892SOL    HW238139   1.317   3.482  13.128 -0.5742 -3.7333  0.3220
 8893SOL     OW38140   3.840   4.232  17.106 -0.4433  0.2370  0.1884
 8893SOL    HW138141   3.823   4.278  17.023 -0.6441  2.0402  1.2318
 8893SOL    HW238142   3.803   4.290  17.172  0.1927 -0.1551  0.8860
 8894SOL     OW38143   0.667   2.144   8.794 -0.2052  0.3172 -0.2451
 8894SOL    HW138144   0.716   2.224   8.814 -0.6174  0.3144  0.7687
 8894SOL    HW238145   0.581   2.175   8.821 -0.3444 -0.4706  0.2158
 8895SOL     OW38146   2.067   1.102   1.076  0.3015 -0.1330  0.1230
 8895SOL    HW138147   2.141   1.149   1.038  1.0865 -1.0063  0.5357
 8895SOL    HW238148   2.105   1.062   1.155  0.7362 -0.9121 -0.4804
 8896SOL     OW38149   0.230   4.465   5.058  0.2611  0.1098 -0.5263
 8896SOL    HW138150   0.279   4.461   5.141  1.5060  3.8552 -1.0830
 8896SOL    HW238151   0.182   4.548   5.065  1.2670  0.4778  1.9508
 8897SOL     OW38152   1.036   1.095   5.336  0.4201 -0.4970 -0.5061
 8897SOL    HW138153   1.096   1.167   5.355  1.6729 -1.8262  0.6248
 8897SOL    HW238154   1.110   1.035   5.333 -0.6898 -1.8219 -1.4398
 8898SOL     OW38155   1.981   0.080  14.419  0.2186 -0.1681 -0.2023
 8898SOL    HW138156   2.063   0.096  14.464 -0.3308 -0.2174  0.8049
 8898SOL    HW238157   1.990   0.001  14.366 -1.1038  1.0347 -2.2210
 8899SOL     OW38158   2.050   2.282  16.488 -0.1433 -0.6443  0.2093
 8899SOL    HW138159   2.082   2.362  16.447  1.2199 -0.8040  0.9624
 8899SOL    HW238160   1.979   2.263  16.426  2.9140 -1.4044 -3.0706
 8900SOL     OW38161   4.673   1.396   9.533  0.0454 -0.2295  0.6158
 8900SOL    HW138162   0.038   1.426   9.560 -0.4681  0.1634  1.8645
 8900SOL    HW238163   4.615   1.439   9.596  0.0820  0.3039  0.2802
 8901SOL     OW38164   2.063   4.518  13.243  0.1021 -0.4259  0.0133
 8901SOL    HW138165   2.036   4.430  13.271  2.3311 -1.4605 -1.0829
 8901SOL    HW238166   1.982   4.546  13.201 -0.3795 -1.1290  0.4781
 8902SOL     OW38167   0.773   4.357   7.816  0.2595 -0.4838 -0.3035
 8902SOL    HW138168   0.866   4.371   7.831  0.2557 -0.0183 -0.7145
 8902SOL    HW238169   0.771   4.271   7.774 -0.9198 -0.9495  0.7029
 8903SOL     OW38170   4.238   3.524   3.629  0.4879  0.0763  0.2406
 8903SOL    HW138171   4.303   3.490   3.567 -0.8754 -0.8619 -0.6669
 8903SOL    HW238172   4.218   3.604   3.580 -1.6835 -0.4558  0.2714
 8904SOL     OW38173   2.710   1.945   3.545  0.3375  0.8674  0.4799
 8904SOL    HW138174   2.631   1.895   3.526 -0.1235  2.4125 -1.6853
 8904SOL    HW238175   2.698   2.009   3.475 -0.7632 -0.4361 -0.5275
 8905SOL     OW38176   1.282   1.720   8.565  0.0969  0.7493  0.1905
 8905SOL    HW138177   1.349   1.783   8.592  1.8492 -1.4577  0.9417
 8905SOL    HW238178   1.222   1.785   8.527 -1.5386  0.6607  2.6117
 8906SOL     OW38179   2.719   0.329   8.527 -0.1654 -0.2543  0.4855
 8906SOL    HW138180   2.680   0.246   8.555 -0.6033 -0.0246  0.5412
 8906SOL    HW238181   2.808   0.298   8.509  0.4371  0.4753  2.1971
 8907SOL     OW38182   2.019   3.685   3.065 -0.3360 -0.0591 -0.4367
 8907SOL    HW138183   2.014   3.679   3.161  0.7739  1.2645 -0.2851
 8907SOL    HW238184   1.937   3.728   3.039 -0.8907 -1.3483 -0.7896
 8908SOL     OW38185   3.872   2.247   7.950 -1.0100  0.2265  0.0178
 8908SOL    HW138186   3.897   2.303   8.023  0.6621  1.7341 -1.7035
 8908SOL    HW238187   3.780   2.273   7.947 -0.6957  1.1707 -1.7416
 8909SOL     OW38188   3.636   0.639   1.994  0.6346  0.0414 -0.1967
 8909SOL    HW138189   3.646   0.725   2.034 -3.0392  0.2845  0.1799
 8909SOL    HW238190   3.727   0.610   1.994  0.7606  0.4463 -1.2182
 8910SOL     OW38191   0.689   1.674   8.756  0.4486 -1.0534  0.0318
 8910SOL    HW138192   0.605   1.699   8.717  0.3128  0.8982  1.5383
 8910SOL    HW238193   0.734   1.758   8.754 -0.2931 -0.6643 -0.3038
 8911SOL     OW38194   4.661   4.169   4.709 -0.1181  0.1977  0.2037
 8911SOL    HW138195   0.004   4.208   4.768 -0.2072  0.0620  0.3912
 8911SOL    HW238196   4.699   4.201   4.627 -0.5664 -0.7503 -0.3736
 8912SOL     OW38197   3.419   1.251   7.951 -0.0131  0.1302 -0.3400
 8912SOL    HW138198   3.379   1.208   8.027  2.2203  1.5039  1.6089
 8912SOL    HW238199   3.508   1.268   7.981 -0.1817 -0.2109  0.3570
 8913SOL     OW38200   4.531   4.697   2.762 -0.5169  0.0233  0.0319
 8913SOL    HW138201   4.473   4.650   2.702  1.1751 -0.1136 -1.4928
 8913SOL    HW238202   4.578   4.627   2.806 -1.9902 -0.2812  1.1409
 8914SOL     OW38203   4.371   3.156   3.513 -0.4249  0.1365  0.9289
 8914SOL    HW138204   4.282   3.189   3.502 -0.1732  0.4915 -0.0445
 8914SOL    HW238205   4.354   3.076   3.563  1.7945 -1.3679 -0.7017
 8915SOL     OW38206   0.337   0.890   2.284  0.0369 -0.0486  0.0319
 8915SOL    HW138207   0.344   0.947   2.361 -2.0335 -0.6704  0.6657
 8915SOL    HW238208   0.347   0.952   2.212 -0.8842  0.6936  0.5402
 8916SOL     OW38209   0.419   2.329   3.622 -0.0826  0.2095 -0.3050
 8916SOL    HW138210   0.348   2.268   3.604  1.0623 -1.5766  1.2891
 8916SOL    HW238211   0.438   2.366   3.536  0.5899 -1.5909 -0.9117
 8917SOL     OW38212   4.167   3.804   1.619 -0.0387 -0.1896  0.3938
 8917SOL    HW138213   4.139   3.744   1.550 -1.3924  0.0189  0.7758
 8917SOL    HW238214   4.244   3.770   1.665  1.6130  1.1004 -1.3815
 8918SOL     OW38215   4.337   3.602   3.179 -0.5982  0.7960 -0.3954
 8918SOL    HW138216   4.293   3.623   3.097  0.1779  0.5563 -0.8635
 8918SOL    HW238217   4.267   3.556   3.225 -0.0512 -0.7071 -1.0678
 8919SOL     OW38218   4.332   4.328   4.671 -0.1696  0.7562  0.3742
 8919SOL    HW138219   4.386   4.269   4.618  0.8755  0.9363  1.2371
 8919SOL    HW238220   4.247   4.285   4.657  0.6234 -1.1606  1.3778
 8920SOL     OW38221   2.622   4.634  17.040 -0.0126 -0.1447  0.2754
 8920SOL    HW138222   2.609   4.575  16.966 -0.2881  1.4206 -0.9447
 8920SOL    HW238223   2.546   4.689  17.023  0.5118  0.0650 -1.4043
 8921SOL     OW38224   3.039   1.200   8.772  0.4125  0.5141  0.3677
 8921SOL    HW138225   2.980   1.274   8.782 -1.3202 -0.8557  0.3281
 8921SOL    HW238226   3.095   1.212   8.849 -1.2131 -0.0058  1.6441
 8922SOL     OW38227   1.013   4.344  10.346 -0.2492 -0.3545 -0.2458
 8922SOL    HW138228   1.001   4.270  10.286 -1.6753  0.0167 -0.4196
 8922SOL    HW238229   1.011   4.308  10.435  3.1327  0.9258  0.3531
 8923SOL     OW38230   2.521   1.856  10.554 -0.2078  0.8615 -0.1397
 8923SOL    HW138231   2.448   1.857  10.492  1.5010  0.7486 -2.1446
 8923SOL    HW238232   2.524   1.764  10.578  4.6276  1.6723  2.3947
 8924SOL     OW38233   3.107   4.291   2.731  0.5504  0.4665  0.0128
 8924SOL    HW138234   3.129   4.209   2.775 -2.9640 -1.0358 -1.0070
 8924SOL    HW238235   3.177   4.350   2.757  1.4001  0.0244 -1.2523
 8925SOL     OW38236   2.900   0.103  10.719 -0.0562  0.3010  0.3311
 8925SOL    HW138237   2.808   0.077  10.721  0.2389 -1.0000 -2.8149
 8925SOL    HW238238   2.903   0.155  10.799  1.1289  0.1275  0.4067
 8926SOL     OW38239   1.672   0.643   5.304  0.4250 -0.0097 -1.1240
 8926SOL    HW138240   1.755   0.664   5.346 -0.3291 -2.4665  1.5799
 8926SOL    HW238241   1.696   0.564   5.256  1.3826 -1.3186  1.4836
 8927SOL     OW38242   0.576   2.642  13.280 -0.6331  0.5006 -0.2985
 8927SOL    HW138243   0.493   2.597  13.294 -1.1435  1.0436 -1.5603
 8927SOL    HW238244   0.549   2.711  13.219 -2.6925 -1.4025 -1.5399
 8928SOL     OW38245   2.707   2.472   9.555 -0.1680  0.9372  0.2384
 8928SOL    HW138246   2.725   2.531   9.629 -1.0128  0.9928  0.3909
 8928SOL    HW238247   2.721   2.387   9.597  1.1998  1.5106  0.9524
 8929SOL     OW38248   3.360   1.454   6.479  0.2612  0.1372 -0.1746
 8929SOL    HW138249   3.281   1.491   6.441  1.6410  1.8563 -1.3611
 8929SOL    HW238250   3.385   1.531   6.530  2.3287 -0.2502 -0.6213
 8930SOL     OW38251   4.368   4.476   3.746 -0.0733  0.6724 -0.1819
 8930SOL    HW138252   4.352   4.553   3.691 -2.7602  0.7146  0.6303
 8930SOL    HW238253   4.462   4.480   3.759 -0.4273 -0.0032  2.6152
 8931SOL     OW38254   3.204   2.336   1.676 -0.3726 -0.0190 -0.2045
 8931SOL    HW138255   3.230   2.316   1.586 -0.5660 -1.2673  0.0091
 8931SOL    HW238256   3.190   2.249   1.713  0.7456  0.3304  1.0266
 8932SOL     OW38257   4.606   2.572   5.687 -0.1586 -0.1092 -0.3403
 8932SOL    HW138258   4.511   2.564   5.678 -0.5621  3.5352  0.9273
 8932SOL    HW238259   4.610   2.664   5.710 -2.9872 -0.1449  0.2477
 8933SOL     OW38260   3.387   0.421   6.325 -0.2359 -0.5997  0.4418
 8933SOL    HW138261   3.358   0.474   6.250 -1.7126 -1.0997  0.6506
 8933SOL    HW238262   3.357   0.471   6.400 -0.4298  0.1704 -0.1443
 8934SOL     OW38263   2.516   3.307   9.903  0.0718 -0.5161 -0.5036
 8934SOL    HW138264   2.509   3.212   9.891 -1.4306 -0.4782  0.0966
 8934SOL    HW238265   2.478   3.324   9.989 -1.6057  0.7513 -1.5114
 8935SOL     OW38266   3.824   2.968   0.667 -0.1839  0.3096 -0.5791
 8935SOL    HW138267   3.749   2.923   0.706  1.1075  0.0215  1.5495
 8935SOL    HW238268   3.889   2.977   0.736  0.7670 -0.8041 -1.3338
 8936SOL     OW38269   0.422   2.102  13.523 -0.3600 -0.0499 -0.1263
 8936SOL    HW138270   0.363   2.046  13.474 -0.8455  0.7810 -0.4826
 8936SOL    HW238271   0.416   2.060  13.609 -1.5589 -0.1320 -0.2590
 8937SOL     OW38272   0.378   2.613   8.871  0.3975 -0.2146 -0.1253
 8937SOL    HW138273   0.471   2.632   8.860  0.6770 -1.1876  0.5679
 8937SOL    HW238274   0.353   2.579   8.785  0.6991 -0.6304 -0.0466
 8938SOL     OW38275   2.326   1.706   0.070  0.4228 -0.4380 -0.6436
 8938SOL    HW138276   2.263   1.648   0.112 -2.4978  2.2833 -1.2068
 8938SOL    HW238277   2.302   1.694  17.668  1.0318 -1.5190 -0.6598
 8939SOL     OW38278   0.729   1.596   4.937  0.0614  0.7121  0.1066
 8939SOL    HW138279   0.647   1.578   4.890  0.9108 -2.2284 -0.2404
 8939SOL    HW238280   0.791   1.601   4.864 -0.9518  2.1090 -0.6738
 8940SOL     OW38281   3.964   4.111   8.692 -0.2580  0.1957 -0.3203
 8940SOL    HW138282   4.021   4.184   8.716  2.1905 -1.0376 -2.3934
 8940SOL    HW238283   3.933   4.139   8.605  1.7804  1.4937 -0.6077
 8941SOL     OW38284   3.310   3.545  16.020 -0.2248 -0.1602  0.4284
 8941SOL    HW138285   3.262   3.600  15.958 -2.2494 -1.0777  1.1959
 8941SOL    HW238286   3.392   3.575  15.980  0.4227 -1.2199  0.9678
 8942SOL     OW38287   1.410   0.873   7.110  0.7203  0.6049 -0.5603
 8942SOL    HW138288   1.485   0.883   7.168 -0.4486  3.0842  0.5217
 8942SOL    HW238289   1.420   0.957   7.066 -0.8648  1.1065  0.0225
 8943SOL     OW38290   0.497   2.075   3.785 -0.0174 -0.2199  0.4801
 8943SOL    HW138291   0.583   2.052   3.821 -0.9323 -1.8794  1.6304
 8943SOL    HW238292   0.496   2.168   3.763 -0.1004 -0.5547 -0.9154
 8944SOL     OW38293   1.128   0.257   9.489 -0.1171  0.6493 -0.0125
 8944SOL    HW138294   1.216   0.287   9.465  0.3357  1.2420  2.3880
 8944SOL    HW238295   1.100   0.205   9.413 -1.1107  0.2449  0.6386
 8945SOL     OW38296   0.655   1.175   6.763  0.6345  0.3061  0.5242
 8945SOL    HW138297   0.645   1.081   6.749 -0.2731  0.5836 -0.7376
 8945SOL    HW238298   0.740   1.183   6.722 -0.1026 -1.0272 -1.2604
 8946SOL     OW38299   1.295   2.309   6.830 -0.4677  0.4038  0.1887
 8946SOL    HW138300   1.345   2.368   6.887 -1.9259  2.7052 -0.9097
 8946SOL    HW238301   1.368   2.277   6.776 -0.2298  0.9473  0.1891
 8947SOL     OW38302   2.030   0.787   9.847  0.2195  0.5657 -0.1735
 8947SOL    HW138303   2.054   0.746   9.930 -3.0193 -1.0394  0.0064
 8947SOL    HW238304   2.045   0.714   9.787  1.0805  0.1436  0.5599
 8948SOL     OW38305   1.643   1.672   3.213  0.5586  0.1458 -0.2080
 8948SOL    HW138306   1.680   1.610   3.149 -0.8752 -1.4986  0.5434
 8948SOL    HW238307   1.707   1.743   3.219 -0.3243  0.9662 -0.6865
 8949SOL     OW38308   3.987   2.324   1.117  0.2575  0.3008 -0.1135
 8949SOL    HW138309   3.992   2.234   1.150 -1.2373  1.3813  3.1310
 8949SOL    HW238310   3.985   2.319   1.022  0.0701 -0.8570 -0.0427
 8950SOL     OW38311   1.267   1.981   6.844 -0.4457 -0.1208 -0.0755
 8950SOL    HW138312   1.232   1.986   6.755  0.3478  0.2966 -0.3597
 8950SOL    HW238313   1.233   1.894   6.865  1.5809 -0.5868  1.2033
 8951SOL     OW38314   3.780   3.261   5.082  0.1199  0.4095 -0.6633
 8951SOL    HW138315   3.806   3.237   4.994  0.1150 -2.8655  0.2269
 8951SOL    HW238316   3.732   3.342   5.069  2.2442  1.7790  0.0149
 8952SOL     OW38317   1.915   4.015  15.740  0.0833 -0.1286  0.2048
 8952SOL    HW138318   1.882   3.930  15.768 -1.7861  0.8334  0.9230
 8952SOL    HW238319   1.831   4.059  15.729 -0.3659 -1.1012 -0.2110
 8953SOL     OW38320   4.174   2.598   3.703  0.2053 -0.7965  0.5533
 8953SOL    HW138321   4.143   2.622   3.616  0.2037 -2.5364  0.0680
 8953SOL    HW238322   4.132   2.660   3.763 -0.8090 -1.9053  1.0217
 8954SOL     OW38323   1.924   3.477   7.625 -0.0471  0.0092 -0.6780
 8954SOL    HW138324   1.969   3.392   7.626 -1.3202 -0.6515  0.4136
 8954SOL    HW238325   1.998   3.533   7.600 -1.3264  1.6279 -0.8123
 8955SOL     OW38326   0.201   1.656   8.718 -0.0526  0.0702 -0.3472
 8955SOL    HW138327   0.276   1.662   8.776 -0.5496 -0.7287  0.3707
 8955SOL    HW238328   0.178   1.563   8.726 -1.6433  0.6204  1.3367
 8956SOL     OW38329   2.180   3.113   4.732 -0.5380 -0.1097 -0.1357
 8956SOL    HW138330   2.113   3.135   4.798 -0.1159  1.2268 -0.1559
 8956SOL    HW238331   2.230   3.051   4.786 -3.6304 -0.6070  2.1846
 8957SOL     OW38332   4.622   1.502   2.109  0.0855  0.4640 -0.5404
 8957SOL    HW138333   4.665   1.526   2.191 -0.2549 -0.3922 -0.1075
 8957SOL    HW238334   4.590   1.589   2.084 -0.4445  0.9407  1.7759
 8958SOL     OW38335   1.650   1.800   9.978  0.5247  0.0279 -0.0621
 8958SOL    HW138336   1.657   1.860   9.903  1.3995  0.6963  0.5607
 8958SOL    HW238337   1.669   1.721   9.928 -0.2991 -0.1039 -0.1795
 8959SOL     OW38338   0.426   0.962   7.767  0.1724 -0.3955  0.2465
 8959SOL    HW138339   0.386   0.957   7.681 -1.4114 -0.0911  0.9658
 8959SOL    HW238340   0.371   1.023   7.817  0.5088  0.1710 -0.0651
 8960SOL     OW38341   2.596   0.971   5.697 -0.3813  0.0405  0.4320
 8960SOL    HW138342   2.534   1.028   5.652  0.3447 -1.2054 -2.1091
 8960SOL    HW238343   2.651   0.956   5.620  0.2802 -0.5223  1.0181
 8961SOL     OW38344   4.353   3.233   2.736  0.1263  0.6036  0.0189
 8961SOL    HW138345   4.332   3.177   2.811 -0.1749 -0.8737 -1.1659
 8961SOL    HW238346   4.383   3.308   2.786  2.0715  1.6505 -2.7101
 8962SOL     OW38347   3.452   0.780  10.752  0.2718 -0.2173 -0.1646
 8962SOL    HW138348   3.359   0.798  10.759  0.5329  1.6207 -1.3650
 8962SOL    HW238349   3.469   0.788  10.658 -0.7297 -3.3329 -0.6298
 8963SOL     OW38350   3.435   3.728   3.853  0.0468 -0.1502  0.0222
 8963SOL    HW138351   3.437   3.821   3.830 -0.3727  0.1676  1.2885
 8963SOL    HW238352   3.439   3.680   3.770  1.7148 -2.1435  1.2317
 8964SOL     OW38353   2.854   4.595   8.517  0.3222  0.8169 -0.3341
 8964SOL    HW138354   2.787   4.576   8.583  0.4726  1.9518  0.1465
 8964SOL    HW238355   2.866   4.689   8.528 -1.7144  1.1696 -1.0229
 8965SOL     OW38356   2.507   4.291   8.507  0.4676  0.4236  0.1204
 8965SOL    HW138357   2.554   4.209   8.494  1.7993  1.2529 -0.3439
 8965SOL    HW238358   2.425   4.275   8.460 -0.3928  1.8495  1.1288
 8966SOL     OW38359   2.420   2.449  11.057  0.3029  0.2041 -0.1364
 8966SOL    HW138360   2.420   2.402  10.974 -2.8741  0.0759 -0.0621
 8966SOL    HW238361   2.326   2.449  11.075  0.2050 -0.8046 -0.7131
 8967SOL     OW38362   3.352   1.932   8.184 -0.4772 -0.5438 -0.0528
 8967SOL    HW138363   3.308   2.002   8.233  1.7664  1.2787 -0.5981
 8967SOL    HW238364   3.416   1.987   8.138  0.9019 -0.8517  1.5014
 8968SOL     OW38365   2.702   2.404  12.863 -0.0048 -0.1276 -0.3310
 8968SOL    HW138366   2.709   2.492  12.902 -1.0351 -1.0509  1.9771
 8968SOL    HW238367   2.786   2.373  12.897  0.2540 -0.6243 -1.4324
 8969SOL     OW38368   1.608   0.901  13.583  0.3721 -0.0355 -0.7060
 8969SOL    HW138369   1.559   0.837  13.633  0.7114  0.0258 -0.2933
 8969SOL    HW238370   1.565   0.986  13.592  0.9137  0.2088 -0.3700
 8970SOL     OW38371   4.636   0.728  14.282  0.1821 -0.7503  0.1024
 8970SOL    HW138372   4.706   0.714  14.219  1.4588 -0.9416  1.5704
 8970SOL    HW238373   4.643   0.823  14.292  0.4295 -0.6411 -1.1011
 8971SOL     OW38374   3.959   2.707   5.906  0.2813  0.5032 -0.4345
 8971SOL    HW138375   4.004   2.662   5.978  0.2183  0.0957 -0.6481
 8971SOL    HW238376   3.967   2.796   5.941 -1.3742  0.2590  0.5664
 8972SOL     OW38377   1.116   1.558   5.210 -0.3787  0.6726 -0.2151
 8972SOL    HW138378   1.175   1.613   5.159 -0.4086  0.9463  0.0427
 8972SOL    HW238379   1.113   1.469   5.174 -0.3586  0.2214  0.8880
 8973SOL     OW38380   4.701   2.976   9.833 -0.1402  0.9598  0.0200
 8973SOL    HW138381   0.044   2.992   9.901 -0.0721 -0.6878  0.3430
 8973SOL    HW238382   0.004   3.049   9.777 -1.2022 -0.4852 -2.3444
 8974SOL     OW38383   4.159   4.504   7.678  0.6509 -0.1308 -0.2790
 8974SOL    HW138384   4.086   4.546   7.633  0.7348  1.0939  0.7073
 8974SOL    HW238385   4.127   4.414   7.683 -2.7792  1.1372  0.0022
 8975SOL     OW38386   2.147   0.404   5.572 -0.0400 -0.0420 -0.4238
 8975SOL    HW138387   2.230   0.401   5.525  0.5162 -2.2689  0.7054
 8975SOL    HW238388   2.143   0.493   5.607 -0.9018  0.5884 -2.1400
 8976SOL     OW38389   3.114   1.977   0.281 -0.1979 -0.2667  0.4130
 8976SOL    HW138390   3.189   1.952   0.335 -0.3316 -0.1484  0.6502
 8976SOL    HW238391   3.157   2.024   0.209 -1.8435 -1.5146 -1.3756
 8977SOL     OW38392   1.065   3.876   2.159 -0.4331  0.0558  0.3200
 8977SOL    HW138393   1.125   3.807   2.187  0.8235  0.7428 -0.6689
 8977SOL    HW238394   1.099   3.902   2.073 -0.6958 -0.4248  0.0643
 8978SOL     OW38395   2.973   2.931   8.344  0.0946 -0.7773  0.5673
 8978SOL    HW138396   2.919   2.948   8.422  0.4046 -2.6521  1.1733
 8978SOL    HW238397   3.060   2.948   8.380  0.3423 -1.2730  0.1925
 8979SOL     OW38398   3.487   1.543   6.804  0.2721  0.4860 -0.3499
 8979SOL    HW138399   3.395   1.563   6.820  0.2409 -0.0226  0.0876
 8979SOL    HW238400   3.524   1.568   6.889 -0.6440  1.1160 -0.1265
 8980SOL     OW38401   1.167   3.044   0.089  0.1712  0.2352  0.4782
 8980SOL    HW138402   1.233   3.064   0.155  0.5893  2.6795 -0.7176
 8980SOL    HW238403   1.091   3.015   0.141 -1.7359  0.3639 -2.2252
 8981SOL     OW38404   2.007   2.968  15.741  0.1594 -0.3589 -0.0823
 8981SOL    HW138405   1.980   3.015  15.820  1.6789 -1.7012  1.2186
 8981SOL    HW238406   1.936   2.992  15.681  0.2529 -1.1048 -0.4881
 8982SOL     OW38407   2.428   3.373   3.389  0.2461  0.8078  0.1645
 8982SOL    HW138408   2.343   3.335   3.412 -0.9546  0.9058 -4.1833
 8982SOL    HW238409   2.459   3.322   3.314 -2.9240  0.8588 -1.1791
 8983SOL     OW38410   0.565   1.800   4.200 -0.2918 -0.1391  0.4042
 8983SOL    HW138411   0.488   1.797   4.144  0.4107 -0.0844 -0.5579
 8983SOL    HW238412   0.529   1.733   4.258 -3.8819  1.3120 -0.1232
 8984SOL     OW38413   0.748   0.714   5.317  0.2272 -0.1999  0.0894
 8984SOL    HW138414   0.802   0.654   5.368  2.0172  0.2968 -1.2015
 8984SOL    HW238415   0.733   0.778   5.388 -1.4571  0.6384 -1.0279
 8985SOL     OW38416   2.030   0.610   8.113  0.0570 -0.5989  0.3495
 8985SOL    HW138417   2.110   0.569   8.143 -0.1277 -1.2739 -0.0747
 8985SOL    HW238418   1.972   0.554   8.164 -0.8126  1.3940  1.5700
 8986SOL     OW38419   2.135   2.751   2.531 -0.0934  0.4612  0.1100
 8986SOL    HW138420   2.116   2.672   2.480 -0.8976  0.2755  0.6850
 8986SOL    HW238421   2.093   2.818   2.478 -0.1722 -0.6615 -1.2448
 8987SOL     OW38422   2.922   2.471  11.969  0.0366  0.4755  0.5788
 8987SOL    HW138423   2.912   2.462  12.064 -1.3100  0.4859  0.4450
 8987SOL    HW238424   2.926   2.380  11.943 -0.0924  0.1628  1.6317
 8988SOL     OW38425   3.084   0.728  11.028  0.0017  0.1549 -0.1939
 8988SOL    HW138426   3.098   0.822  11.017 -0.5167  0.0292 -1.8975
 8988SOL    HW238427   3.155   0.716  11.090 -0.8197 -0.4114  0.6376
 8989SOL     OW38428   3.469   1.863   7.391  0.0405 -0.0871 -0.4825
 8989SOL    HW138429   3.381   1.861   7.430  1.2342 -2.6163  2.1211
 8989SOL    HW238430   3.511   1.811   7.460 -0.4749 -2.4990 -1.9814
 8990SOL     OW38431   2.766   2.251   8.401  0.3048  0.0493 -0.2764
 8990SOL    HW138432   2.781   2.308   8.326 -0.3428  0.1415 -0.3358
 8990SOL    HW238433   2.673   2.269   8.420 -0.3689 -0.0357 -3.4593
 8991SOL     OW38434   1.237   0.531   1.158  0.2575  0.6142  0.0775
 8991SOL    HW138435   1.255   0.444   1.122 -0.0896  0.6717 -0.2351
 8991SOL    HW238436   1.264   0.523   1.249 -0.7934 -2.3010  0.1339
 8992SOL     OW38437   1.066   2.464   6.561  0.5494 -0.1960 -0.0828
 8992SOL    HW138438   1.115   2.405   6.503  0.8054 -0.7607  0.7061
 8992SOL    HW238439   1.109   2.550   6.553 -0.9724  0.5730  0.0208
 8993SOL     OW38440   1.031   0.336   2.580 -0.1027 -0.2339  0.2638
 8993SOL    HW138441   1.049   0.390   2.657  0.1445 -0.4027  0.3225
 8993SOL    HW238442   1.013   0.249   2.616  1.4027  0.3149  2.3044
 8994SOL     OW38443   0.997   2.175  11.887  0.2863 -0.0817  0.4513
 8994SOL    HW138444   0.922   2.157  11.829  0.8283  0.0550 -0.2955
 8994SOL    HW238445   0.945   2.186  11.967 -1.7209  0.5905 -0.9339
 8995SOL     OW38446   4.401   1.543   6.317  0.1438 -0.3483  0.3748
 8995SOL    HW138447   4.462   1.609   6.351  2.9373 -1.7779 -1.9024
 8995SOL    HW238448   4.426   1.464   6.365  2.0256  0.6253  0.9859
 8996SOL     OW38449   2.044   1.210  14.046 -0.6236  0.3687  0.2268
 8996SOL    HW138450   2.096   1.130  14.037  0.0371  0.7071  1.0389
 8996SOL    HW238451   2.116   1.274  14.040  1.1125 -1.4585  1.5621
 8997SOL     OW38452   2.052   4.708   8.678 -0.1716 -0.5296  0.0858
 8997SOL    HW138453   1.986   4.640   8.668 -0.3898 -0.2196 -0.6039
 8997SOL    HW238454   2.013   0.065   8.641  0.1636  1.0696  3.1584
 8998SOL     OW38455   4.434   0.190   8.922 -0.1390 -0.5918 -0.1455
 8998SOL    HW138456   4.378   0.254   8.965  1.5533  0.6323  0.2102
 8998SOL    HW238457   4.490   0.180   8.999 -0.3037  2.2845  0.3181
 8999SOL     OW38458   1.765   3.923   0.634 -0.0712  0.1763 -0.4019
 8999SOL    HW138459   1.752   3.868   0.711 -2.0766  0.0197 -0.8493
 8999SOL    HW238460   1.789   4.004   0.679 -0.5120  1.8170 -3.1450
 9000SOL     OW38461   2.452   3.207   6.388  0.0542  0.3799 -0.2478
 9000SOL    HW138462   2.489   3.285   6.429  2.3635 -0.6360 -0.3585
 9000SOL    HW238463   2.532   3.155   6.398  0.4618  0.4760 -3.0161
 9001SOL     OW38464   0.861   1.035   7.622 -0.3372 -1.3125 -0.0262
 9001SOL    HW138465   0.815   0.969   7.571 -1.6598 -0.7573  0.4612
 9001SOL    HW238466   0.800   1.063   7.690  3.5688  2.4576  1.9024
 9002SOL     OW38467   2.579   0.809  10.319 -0.3525  0.5245  0.3837
 9002SOL    HW138468   2.666   0.840  10.343 -0.0427  0.9569 -1.2557
 9002SOL    HW238469   2.553   0.886  10.268 -2.2633  0.4715  1.2924
 9003SOL     OW38470   2.823   0.055   8.912 -0.0972  0.0645 -0.7366
 9003SOL    HW138471   2.775   4.710   8.865  1.1306 -1.0628 -0.3832
 9003SOL    HW238472   2.766   0.129   8.891  1.2972  0.7590 -2.0297
 9004SOL     OW38473   2.040   2.651  14.211 -0.0234 -0.1904 -0.3037
 9004SOL    HW138474   1.997   2.571  14.239  3.2049 -1.0210  2.3298
 9004SOL    HW238475   2.133   2.640  14.231 -0.1863 -4.1639 -1.9018
 9005SOL     OW38476   2.007   0.841   2.939  0.0870 -0.0084 -0.5991
 9005SOL    HW138477   1.996   0.755   2.898  2.0615 -1.1574  1.2856
 9005SOL    HW238478   1.965   0.891   2.869  0.4421 -0.2328 -0.9718
 9006SOL     OW38479   3.564   2.833  13.036 -0.5423 -0.5599  0.4020
 9006SOL    HW138480   3.492   2.880  13.077  0.5705  0.7228  0.9142
 9006SOL    HW238481   3.615   2.810  13.114  0.1620  0.6978  0.3201
 9007SOL     OW38482   0.158   4.124   2.285  0.4084  0.2816 -0.1299
 9007SOL    HW138483   0.238   4.072   2.289  1.0428  1.0788 -2.1866
 9007SOL    HW238484   0.089   4.062   2.260  1.1459 -0.3792 -0.5081
 9008SOL     OW38485   2.460   4.513  13.101 -0.3023  0.3064  0.5417
 9008SOL    HW138486   2.508   4.439  13.138  0.6480  0.6920  0.0809
 9008SOL    HW238487   2.465   4.492  13.008  2.0488  0.3860  0.6682
 9009SOL     OW38488   2.714   1.241   1.468 -0.3202  0.8914  0.1333
 9009SOL    HW138489   2.783   1.208   1.526  1.0314  0.5237 -1.7048
 9009SOL    HW238490   2.733   1.334   1.479 -0.1422  0.8412  0.2564
 9010SOL     OW38491   1.498   3.926  16.246 -0.1883 -0.4386  0.0179
 9010SOL    HW138492   1.422   3.931  16.189 -0.0996 -0.9184 -0.1388
 9010SOL    HW238493   1.463   3.906  16.333 -1.3914  3.0032  0.3466
 9011SOL     OW38494   1.510   0.230   0.629  0.2929  0.1809  0.5184
 9011SOL    HW138495   1.448   0.159   0.647 -1.9819  2.0997  0.3418
 9011SOL    HW238496   1.461   0.301   0.671  0.8678  2.0564 -2.0346
 9012SOL     OW38497   4.639   2.093   6.190  0.2784 -0.1735 -0.5487
 9012SOL    HW138498   0.003   2.050   6.192  0.2539 -0.0892  2.7144
 9012SOL    HW238499   4.627   2.138   6.273 -0.9617 -0.4569 -0.5815
 9013SOL     OW38500   0.353   1.983   7.187 -0.4258  0.1896  0.1139
 9013SOL    HW138501   0.319   1.951   7.103 -1.9514 -2.6708  1.8417
 9013SOL    HW238502   0.384   1.902   7.228  0.8945  0.5847 -0.0940
 9014SOL     OW38503   0.901   4.019   8.388 -0.7101  0.1466 -0.1615
 9014SOL    HW138504   0.874   3.935   8.424 -1.9526  0.3104 -0.6929
 9014SOL    HW238505   0.842   4.021   8.313 -0.1600 -1.8969 -0.6395
 9015SOL     OW38506   0.179   3.812  13.277 -0.1536  0.4393  0.0242
 9015SOL    HW138507   0.238   3.866  13.330 -1.0549 -0.7993  2.2655
 9015SOL    HW238508   0.215   3.826  13.189  0.8416 -0.0169  0.3616
 9016SOL     OW38509   0.767   3.747   5.115 -0.4507 -0.0234  0.0171
 9016SOL    HW138510   0.722   3.724   5.196  2.4052 -0.2433  1.5446
 9016SOL    HW238511   0.845   3.692   5.107  0.0842  0.9303 -1.2563
 9017SOL     OW38512   0.710   3.553   8.043  0.2240  0.4662  0.6055
 9017SOL    HW138513   0.689   3.595   7.960 -0.7375 -1.7399 -0.2528
 9017SOL    HW238514   0.645   3.586   8.106 -2.8915 -1.8706 -1.3945
 9018SOL     OW38515   0.940   0.276  10.866 -0.6633 -0.4204  0.2541
 9018SOL    HW138516   0.984   0.346  10.817 -3.2178  0.1894 -1.1199
 9018SOL    HW238517   0.853   0.312  10.878  0.0693  1.6398 -0.6284
 9019SOL     OW38518   2.799   2.616   8.445 -0.2123  0.3636 -0.0263
 9019SOL    HW138519   2.709   2.636   8.420 -0.4099  0.5195  0.8001
 9019SOL    HW238520   2.818   2.679   8.515 -0.1862  0.3032  0.0212
 9020SOL     OW38521   2.985   3.227  13.568  0.0261  0.6305 -0.6542
 9020SOL    HW138522   3.017   3.167  13.635 -0.1211 -0.5546 -1.6494
 9020SOL    HW238523   2.985   3.302  13.628  0.0106  0.4497 -0.4322
 9021SOL     OW38524   1.079   2.570   3.389 -0.1008  0.3008 -0.2264
 9021SOL    HW138525   1.030   2.488   3.386 -0.1369  0.3014  0.2626
 9021SOL    HW238526   1.163   2.536   3.419 -0.8977  0.0740  1.7599
 9022SOL     OW38527   4.307   1.466  11.825  0.1103 -0.1055  0.4431
 9022SOL    HW138528   4.230   1.430  11.781 -0.6459 -0.5544  2.1386
 9022SOL    HW238529   4.284   1.559  11.834  1.7841  0.3413  0.0803
 9023SOL     OW38530   3.792   1.652   1.843 -0.1631 -0.1851 -0.0729
 9023SOL    HW138531   3.770   1.610   1.760 -2.3853  0.6219  0.1249
 9023SOL    HW238532   3.872   1.698   1.815 -0.2186 -0.8686 -1.3660
 9024SOL     OW38533   3.565   3.840  12.069  0.0139  0.1983  0.2072
 9024SOL    HW138534   3.484   3.839  12.121  0.5988  3.0620  1.1590
 9024SOL    HW238535   3.636   3.872  12.124  0.3118 -0.7048  0.3461
 9025SOL     OW38536   2.182   3.776   5.784 -1.0380 -0.1937  0.2719
 9025SOL    HW138537   2.137   3.859   5.771  0.1486  0.4881  0.5128
 9025SOL    HW238538   2.260   3.800   5.835 -1.3211 -1.2101  1.1804
 9026SOL     OW38539   4.201   3.287   3.988 -0.2986 -0.1612  0.1708
 9026SOL    HW138540   4.215   3.377   3.957 -1.5783  0.5249  1.5999
 9026SOL    HW238541   4.139   3.259   3.920  1.0434  1.4816 -1.7482
 9027SOL     OW38542   0.869   0.547   9.642 -0.4129 -0.6671 -0.2425
 9027SOL    HW138543   0.889   0.461   9.679 -0.6516 -0.1330  1.1184
 9027SOL    HW238544   0.798   0.532   9.579 -1.2838 -0.0396  0.5876
 9028SOL     OW38545   2.128   0.829   2.076 -0.5805  0.1933 -0.1101
 9028SOL    HW138546   2.034   0.841   2.064 -0.4732  0.4809 -0.6951
 9028SOL    HW238547   2.137   0.737   2.053  0.3651  0.7267 -1.9214
 9029SOL     OW38548   0.396   4.610   3.683 -1.0075  0.3181 -0.8089
 9029SOL    HW138549   0.465   4.545   3.694  0.6752  2.0871 -0.9971
 9029SOL    HW238550   0.455   4.685   3.690 -0.5830 -0.0026 -1.0212
 9030SOL     OW38551   4.541   1.107   8.107  0.0020  0.8315  0.6410
 9030SOL    HW138552   4.551   1.023   8.151 -1.0927  0.2782 -0.1940
 9030SOL    HW238553   4.512   1.152   8.187  0.5154 -0.0971  1.3532
 9031SOL     OW38554   1.136   0.731   0.344  0.1935  0.4441  0.1676
 9031SOL    HW138555   1.083   0.801   0.380  0.6345  0.8718 -0.0054
 9031SOL    HW238556   1.080   0.706   0.270  1.4252  1.7788 -1.2254
 9032SOL     OW38557   2.805   3.995   4.868 -0.1493  0.2596 -0.3324
 9032SOL    HW138558   2.816   3.973   4.775 -2.8580  0.5910 -0.7198
 9032SOL    HW238559   2.803   3.909   4.911 -0.1519  0.6362  0.4178
 9033SOL     OW38560   1.221   4.627   0.004 -0.5715  0.0952  0.3352
 9033SOL    HW138561   1.271   4.659   0.079 -1.5874 -0.2193  1.1528
 9033SOL    HW238562   1.269   4.546  17.680 -0.0762  0.5129 -0.3373
 9034SOL     OW38563   3.183   1.826   2.801  0.3135  0.0414 -0.7505
 9034SOL    HW138564   3.207   1.752   2.857  0.9005  0.7184 -0.1116
 9034SOL    HW238565   3.089   1.830   2.822  0.4898  0.0022  0.0499
 9035SOL     OW38566   3.486   3.922  12.990  0.4372  0.8355  0.2938
 9035SOL    HW138567   3.404   3.871  12.994  1.7541 -1.3476 -0.5207
 9035SOL    HW238568   3.547   3.850  13.005 -0.0560  0.5832  1.0894
 9036SOL     OW38569   3.569   0.767  14.136  0.2298  0.3073 -0.7381
 9036SOL    HW138570   3.534   0.679  14.118 -0.3271  0.7235 -1.6917
 9036SOL    HW238571   3.600   0.776  14.046  2.8574 -1.0801  0.0403
 9037SOL     OW38572   4.479   3.997   2.428  0.4194 -0.2796  0.0624
 9037SOL    HW138573   4.513   4.077   2.387  2.3869 -0.2096  1.8263
 9037SOL    HW238574   4.390   4.025   2.447  0.9570 -0.8664  3.4676
 9038SOL     OW38575   0.560   1.148   7.092  0.3986  0.4610 -0.1545
 9038SOL    HW138576   0.560   1.053   7.078  0.4335  0.6537 -1.4864
 9038SOL    HW238577   0.613   1.183   7.020 -0.4721 -0.3678 -1.1993
 9039SOL     OW38578   2.171   0.581   1.992 -0.2778  0.0737  0.5527
 9039SOL    HW138579   2.145   0.492   2.014  0.1433  0.7095  3.6336
 9039SOL    HW238580   2.192   0.575   1.899 -2.2952 -1.8975  0.2239
 9040SOL     OW38581   0.521   2.777   3.374 -0.1582 -0.4027  0.1992
 9040SOL    HW138582   0.502   2.818   3.459  2.4905 -0.0139  0.5939
 9040SOL    HW238583   0.446   2.717   3.368  0.1062 -0.9780  2.4181
 9041SOL     OW38584   1.669   0.433   3.471  0.1670  0.2547  0.0456
 9041SOL    HW138585   1.587   0.480   3.454 -0.1185  1.0607  3.7323
 9041SOL    HW238586   1.640   0.342   3.484 -0.1935  0.4390  0.5427
 9042SOL     OW38587   4.323   4.559   3.057 -0.2770  0.2267 -0.4665
 9042SOL    HW138588   4.379   4.636   3.055  1.9798 -1.3825  1.9435
 9042SOL    HW238589   4.270   4.573   2.978  1.3603  1.2170 -1.3801
 9043SOL     OW38590   4.609   2.400   0.995  0.3368  0.6331 -0.1785
 9043SOL    HW138591   4.655   2.431   0.916  0.6888  0.7436  0.0699
 9043SOL    HW238592   4.627   2.472   1.055 -1.5200  1.7671 -0.9966
 9044SOL     OW38593   2.066   1.199   7.158  0.1101 -0.3347 -0.6152
 9044SOL    HW138594   2.139   1.254   7.185 -0.0838 -0.2294 -0.3089
 9044SOL    HW238595   2.099   1.117   7.196 -0.0073  0.5774  1.4509
 9045SOL     OW38596   1.540   0.086   8.819  0.1241  0.2425 -0.1852
 9045SOL    HW138597   1.525   0.113   8.909 -2.0894 -0.9644 -0.2017
 9045SOL    HW238598   1.530   0.170   8.774 -1.7545  1.0618  1.7770
 9046SOL     OW38599   1.226   1.753   3.125 -0.1487 -0.0095  0.1046
 9046SOL    HW138600   1.140   1.742   3.086 -1.1762  0.8184  2.1659
 9046SOL    HW238601   1.277   1.765   3.044 -2.2536 -0.9030 -1.3468
 9047SOL     OW38602   3.714   4.666   9.020  0.2545 -0.1426  0.2728
 9047SOL    HW138603   3.662   0.024   9.008 -0.2696 -0.5406 -0.1426
 9047SOL    HW238604   3.702   4.637   9.110 -1.1312  0.4210  0.2674
 9048SOL     OW38605   1.314   1.957   5.877  0.2284  0.3198 -0.0930
 9048SOL    HW138606   1.285   1.939   5.966 -0.4953  0.3469 -0.3219
 9048SOL    HW238607   1.227   1.972   5.840  0.4640  2.4617  0.2674
 9049SOL     OW38608   3.215   3.254  12.649 -0.1080 -0.0167  0.4302
 9049SOL    HW138609   3.142   3.214  12.697 -0.9370  0.4264 -0.4538
 9049SOL    HW238610   3.252   3.179  12.602  1.8829 -0.2415  2.3846
 9050SOL     OW38611   2.942   1.800   1.982  0.2004 -0.2087 -0.7227
 9050SOL    HW138612   2.940   1.711   2.017 -1.7044  0.4204  0.7119
 9050SOL    HW238613   3.008   1.845   2.034 -1.6584  1.7490 -0.0679
 9051SOL     OW38614   1.781   2.734   4.833  0.1472 -0.3028 -0.4880
 9051SOL    HW138615   1.710   2.673   4.852 -0.7794 -0.1478 -3.4593
 9051SOL    HW238616   1.738   2.813   4.799  1.2986  0.9414  0.9496
 9052SOL     OW38617   4.334   4.691   9.175  0.8419  0.3022  0.0613
 9052SOL    HW138618   4.276   0.017   9.115 -2.0593 -2.7275  0.4551
 9052SOL    HW238619   4.334   0.025   9.253  1.7517  0.3238  0.0396
 9053SOL     OW38620   1.917   2.504   7.758 -0.7351 -0.5666  0.2557
 9053SOL    HW138621   1.882   2.443   7.694  2.3375 -0.9730 -1.0339
 9053SOL    HW238622   1.929   2.575   7.695 -1.9757  1.0375  1.8299
 9054SOL     OW38623   0.547   3.744   9.100  0.8382  0.1964 -0.1330
 9054SOL    HW138624   0.572   3.671   9.043  1.6547  0.0603  0.3891
 9054SOL    HW238625   0.502   3.692   9.167  0.1563  1.4777  0.3807
 9055SOL     OW38626   1.663   4.520  12.801  0.1317  0.3591 -0.1872
 9055SOL    HW138627   1.622   4.512  12.714  0.2853 -3.1842  0.0917
 9055SOL    HW238628   1.710   4.602  12.784 -0.9357  1.2869  1.3081
 9056SOL     OW38629   0.052   0.822   8.980 -0.0662  0.0475 -0.1169
 9056SOL    HW138630   0.114   0.763   8.939 -1.4272 -0.9262 -0.7729
 9056SOL    HW238631   0.006   0.759   9.034  2.3923 -1.7618 -0.1345
 9057SOL     OW38632   4.083   4.380   9.075 -0.7219 -0.1555  0.3865
 9057SOL    HW138633   4.152   4.320   9.101  2.0861  1.4377 -3.4058
 9057SOL    HW238634   4.078   4.448   9.143  0.7408  1.0802 -0.7318
 9058SOL     OW38635   2.900   4.403   8.838 -0.2866 -0.1999  0.0240
 9058SOL    HW138636   2.990   4.435   8.840  0.3826 -1.9756 -1.8600
 9058SOL    HW238637   2.884   4.375   8.928  0.8716 -2.6184 -0.5411
 9059SOL     OW38638   1.624   1.601  10.940 -0.4230  0.0616  0.6282
 9059SOL    HW138639   1.580   1.522  10.973  0.3125  0.2391  2.0564
 9059SOL    HW238640   1.674   1.615  11.021 -0.8199  1.3538  0.6474
 9060SOL     OW38641   3.917   2.219   1.722  0.0238  0.2399  0.1083
 9060SOL    HW138642   3.945   2.254   1.807 -0.2762 -1.7294  1.0150
 9060SOL    HW238643   3.891   2.301   1.680  2.2685  1.7733  1.6930
 9061SOL     OW38644   1.566   3.162  10.111 -0.3411  0.1430  0.0133
 9061SOL    HW138645   1.642   3.197  10.064  1.2374  0.5633  2.8808
 9061SOL    HW238646   1.515   3.109  10.050 -1.1015  1.1209 -0.1996
 9062SOL     OW38647   3.632   2.525  13.224  0.7867 -0.4523  0.0605
 9062SOL    HW138648   3.661   2.610  13.257  0.5996  0.2085 -1.4733
 9062SOL    HW238649   3.683   2.472  13.284  0.9335  0.1349  0.4510
 9063SOL     OW38650   1.688   3.669  14.033  0.6237 -0.0880 -0.2042
 9063SOL    HW138651   1.734   3.604  14.086  0.1698  0.7567  1.2164
 9063SOL    HW238652   1.619   3.705  14.089 -0.0458  0.4039 -1.3239
 9064SOL     OW38653   3.278   1.750   4.189 -0.1369  0.0644 -0.6989
 9064SOL    HW138654   3.356   1.696   4.202  0.8022  1.8012  0.9289
 9064SOL    HW238655   3.324   1.834   4.188 -0.8033  0.4104 -1.7221
 9065SOL     OW38656   0.328   1.001   2.906  0.5776 -0.9344  0.0403
 9065SOL    HW138657   0.310   1.084   2.861 -0.2289 -0.8136  0.5968
 9065SOL    HW238658   0.414   0.993   2.863  0.0896  0.5325 -1.2349
 9066SOL     OW38659   0.174   4.258   5.712  0.2859 -0.0918 -0.0280
 9066SOL    HW138660   0.268   4.251   5.694  0.4804 -0.7782  1.2866
 9066SOL    HW238661   0.176   4.233   5.804  0.7693 -0.2003 -0.0683
 9067SOL     OW38662   1.710   3.207  17.660 -0.3005  0.3359 -0.5587
 9067SOL    HW138663   1.672   3.287  17.624 -2.1625 -0.4494 -0.3277
 9067SOL    HW238664   1.635   3.161   0.009  0.5052  0.2079  0.8621
 9068SOL     OW38665   4.460   2.989   4.233  0.3464  0.5500  0.0405
 9068SOL    HW138666   4.401   3.063   4.246  1.6279  1.4211  0.8545
 9068SOL    HW238667   4.430   2.935   4.160 -1.3133  2.3457 -0.6006
 9069SOL     OW38668   2.125   1.815  11.713  0.1737 -0.1019  0.0291
 9069SOL    HW138669   2.088   1.902  11.731  3.3928  1.2843 -0.0169
 9069SOL    HW238670   2.216   1.837  11.692 -0.5202  2.7881  0.0098
 9070SOL     OW38671   4.653   2.166   3.052  0.1519  0.7359 -0.0576
 9070SOL    HW138672   0.015   2.208   3.035  1.1029 -1.2984 -0.3599
 9070SOL    HW238673   4.590   2.205   2.991 -2.5213 -0.3262  1.9825
 9071SOL     OW38674   0.613   3.670   6.718  0.4413  0.5515  0.3131
 9071SOL    HW138675   0.616   3.743   6.779 -1.4914  1.9808 -1.3153
 9071SOL    HW238676   0.661   3.604   6.768 -0.4325 -0.7417 -0.5565
 9072SOL     OW38677   2.557   3.413   3.659  0.0125  0.0015 -0.6049
 9072SOL    HW138678   2.627   3.476   3.643  0.9862 -0.5430  1.5282
 9072SOL    HW238679   2.546   3.375   3.572  2.1898  0.6065 -1.1472
 9073SOL     OW38680   3.068   3.005  16.833 -0.2539 -0.0510 -0.5021
 9073SOL    HW138681   2.997   3.046  16.783 -0.0459  1.6737  0.6205
 9073SOL    HW238682   3.141   3.041  16.782  1.6191 -0.3262  1.9870
 9074SOL     OW38683   3.470   3.081   7.842  0.6658 -0.2307 -0.0971
 9074SOL    HW138684   3.464   3.124   7.927 -2.8849 -1.6667  0.3615
 9074SOL    HW238685   3.392   3.102   7.791  0.3295  0.0208  0.5164
 9075SOL     OW38686   2.983   4.709  13.409  0.3949 -0.0273 -0.4143
 9075SOL    HW138687   2.913   4.656  13.372  0.3732  0.1334 -0.6050
 9075SOL    HW238688   3.032   4.633  13.440  1.2068  1.6094  2.2951
 9076SOL     OW38689   2.987   3.867   6.480 -0.2735 -0.0628 -0.1148
 9076SOL    HW138690   2.939   3.840   6.401 -0.5557  1.0002 -0.3079
 9076SOL    HW238691   3.023   3.950   6.448 -1.1108  1.2212  2.2478
 9077SOL     OW38692   2.730   4.459   0.842 -0.4523 -0.3567  0.4156
 9077SOL    HW138693   2.743   4.427   0.931  0.2063 -3.3045 -0.7468
 9077SOL    HW238694   2.758   4.388   0.784  0.1497 -1.0082  1.4963
 9078SOL     OW38695   2.491   1.841   3.422  0.0396 -0.8160 -0.2282
 9078SOL    HW138696   2.440   1.906   3.373  1.2982  0.1133 -0.2960
 9078SOL    HW238697   2.436   1.781   3.473  1.8703 -1.3584  1.1277
 9079SOL     OW38698   1.669   3.723   6.894 -0.4097  0.0040 -0.3562
 9079SOL    HW138699   1.750   3.679   6.865 -0.7875  0.4517 -2.1204
 9079SOL    HW238700   1.675   3.812   6.859  2.7596 -0.9146 -2.2213
 9080SOL     OW38701   4.315   1.724   2.286  0.1285  0.2809 -0.4108
 9080SOL    HW138702   4.314   1.705   2.380  0.9552 -0.4951 -0.5684
 9080SOL    HW238703   4.264   1.653   2.247  0.6467  0.1842 -0.9066
 9081SOL     OW38704   3.256   4.044   1.014 -0.1296 -0.6198 -0.1005
 9081SOL    HW138705   3.264   3.957   1.052 -2.5754 -0.1871  1.3877
 9081SOL    HW238706   3.171   4.034   0.971  0.7706 -1.2770 -1.7386
 9082SOL     OW38707   0.485   4.435  13.743  0.2930  0.5286 -0.1004
 9082SOL    HW138708   0.389   4.439  13.735  0.2119  0.3896  0.7851
 9082SOL    HW238709   0.481   4.506  13.807 -2.0416 -0.2008  0.5580
 9083SOL     OW38710   3.043   1.295   2.562 -0.0790 -0.2414 -0.2315
 9083SOL    HW138711   3.008   1.223   2.509 -0.7529  0.2611 -0.4655
 9083SOL    HW238712   2.972   1.357   2.547 -2.1042 -2.6729 -0.7494
 9084SOL     OW38713   1.057   3.446  15.518  0.2209 -0.3916  0.0173
 9084SOL    HW138714   1.010   3.491  15.447  1.1510  2.1015  0.9973
 9084SOL    HW238715   1.147   3.454  15.487  0.5027  0.9453  1.1752
 9085SOL     OW38716   0.073   4.562   6.608 -0.1155  0.1106 -0.1949
 9085SOL    HW138717   0.048   4.496   6.543 -0.5281  0.3572 -0.2818
 9085SOL    HW238718   0.169   4.562   6.605 -0.0054  0.3128  3.4253
 9086SOL     OW38719   1.345   0.086   9.310  0.2934  0.3361 -0.4482
 9086SOL    HW138720   1.371   0.160   9.364  0.4812  0.4002 -0.6261
 9086SOL    HW238721   1.359   0.011   9.368 -0.0091  0.2478 -0.4873
 9087SOL     OW38722   0.993   4.605  11.779 -0.2246  0.1903  0.3499
 9087SOL    HW138723   1.080   4.586  11.815 -0.0834 -0.7528 -0.4795
 9087SOL    HW238724   0.972   4.684  11.828 -0.1952  1.3728 -1.5533
 9088SOL     OW38725   2.054   0.686   8.390  0.5979  0.2945  0.2029
 9088SOL    HW138726   2.097   0.771   8.379  2.6292 -0.5313  1.7296
 9088SOL    HW238727   1.963   0.713   8.403 -0.0959 -0.9553 -2.2472
 9089SOL     OW38728   3.676   2.009   1.062  0.3605 -0.0294  0.0599
 9089SOL    HW138729   3.645   2.027   1.151 -2.5536 -0.8854 -0.7506
 9089SOL    HW238730   3.762   1.973   1.082 -0.1053 -0.4149  1.3750
 9090SOL     OW38731   2.157   2.555   5.396  0.3711  0.0813  0.0057
 9090SOL    HW138732   2.129   2.511   5.316  1.2149  0.4888 -0.5203
 9090SOL    HW238733   2.111   2.523   5.474  0.9894  0.9325  0.7315
 9091SOL     OW38734   1.231   1.902  10.953  0.2974 -0.2471  0.0069
 9091SOL    HW138735   1.226   1.939  11.041 -0.7667 -1.9833  0.6916
 9091SOL    HW238736   1.144   1.926  10.919  1.2766  0.8075 -1.7940
 9092SOL     OW38737   0.072   4.585   6.875  0.1971  0.4005 -0.2723
 9092SOL    HW138738   0.136   4.656   6.872  0.1924  0.2984 -2.9222
 9092SOL    HW238739   0.062   4.560   6.783  0.8390  2.0818 -0.8006
 9093SOL     OW38740   0.964   1.795   7.881 -0.2274 -0.0207 -0.7037
 9093SOL    HW138741   1.001   1.707   7.872  1.4482  0.7617 -1.3609
 9093SOL    HW238742   1.044   1.847   7.879 -0.3960  0.2864  0.4472
 9094SOL     OW38743   1.686   0.315   7.434 -0.2668 -0.0028 -0.0507
 9094SOL    HW138744   1.638   0.339   7.513 -0.9007  2.9683 -1.3488
 9094SOL    HW238745   1.649   0.229   7.413 -0.9330  0.2275  0.1747
 9095SOL     OW38746   3.762   2.930  17.283 -0.1725  0.6286 -0.0093
 9095SOL    HW138747   3.753   3.020  17.254 -0.1427  0.4837 -0.4800
 9095SOL    HW238748   3.855   2.930  17.307 -0.2529  0.4798  0.3060
 9096SOL     OW38749   4.383   4.501   5.618  0.0785 -0.5069  0.0034
 9096SOL    HW138750   4.294   4.473   5.599  0.1452 -1.2954  0.8505
 9096SOL    HW238751   4.432   4.447   5.557  1.0816  1.6950 -1.1565
 9097SOL     OW38752   2.765   4.586   7.003 -0.4552  0.0283  0.4969
 9097SOL    HW138753   2.716   4.531   6.942 -0.2479 -0.6535  0.9463
 9097SOL    HW238754   2.817   4.633   6.937 -0.8237  4.0369  3.0436
 9098SOL     OW38755   1.614   0.266   1.611  0.4420 -0.3145 -0.2314
 9098SOL    HW138756   1.544   0.222   1.564  1.5710  1.1918 -3.3213
 9098SOL    HW238757   1.652   0.313   1.537  2.4873  0.9243  1.5815
 9099SOL     OW38758   1.980   1.479   7.719 -0.2210 -0.6860 -0.2761
 9099SOL    HW138759   1.987   1.533   7.798 -1.8108 -2.4085  1.0286
 9099SOL    HW238760   1.994   1.391   7.752 -0.6301 -0.8857 -0.6254
 9100SOL     OW38761   1.296   3.060   8.238 -0.0114 -0.6740  0.2134
 9100SOL    HW138762   1.321   3.063   8.331 -0.1312 -0.0954  0.2265
 9100SOL    HW238763   1.342   2.983   8.205  2.7056  0.7437  0.6630
 9101SOL     OW38764   4.173   3.871   1.295 -0.2033  0.1475  0.3468
 9101SOL    HW138765   4.264   3.857   1.270  0.1733 -0.0254  1.7822
 9101SOL    HW238766   4.163   3.808   1.367  0.4135  1.6310  1.7475
 9102SOL     OW38767   0.674   2.058   0.653 -0.4785  0.3118  0.1885
 9102SOL    HW138768   0.633   2.017   0.728 -0.0088 -1.6990 -0.6417
 9102SOL    HW238769   0.641   2.146   0.669 -1.6537  0.0939 -1.0898
 9103SOL     OW38770   0.115   1.212   5.234  0.7414 -0.6083  0.5570
 9103SOL    HW138771   0.137   1.179   5.147  1.5779  0.9184  0.1958
 9103SOL    HW238772   0.045   1.275   5.218  0.7514 -0.3970  1.3225
 9104SOL     OW38773   2.700   3.814  12.514 -0.0743  0.1923 -0.1682
 9104SOL    HW138774   2.606   3.806  12.526  0.2200 -0.3106  1.7532
 9104SOL    HW238775   2.726   3.898  12.552 -2.3833  1.2551 -0.9833
 9105SOL     OW38776   4.234   3.151  14.854  0.0321 -0.3913 -0.2360
 9105SOL    HW138777   4.191   3.070  14.883  0.3884 -0.1645  0.9405
 9105SOL    HW238778   4.153   3.200  14.838  1.5278  1.9169 -0.7210
 9106SOL     OW38779   4.444   3.450  16.876 -0.7203 -0.4205 -0.2830
 9106SOL    HW138780   4.496   3.410  16.807  0.7939  0.0453  0.5992
 9106SOL    HW238781   4.485   3.535  16.892 -2.5906  0.3837  0.2490
 9107SOL     OW38782   4.191   4.192   6.463  0.0637  0.5079 -0.0940
 9107SOL    HW138783   4.196   4.178   6.558 -1.6130 -2.1576 -0.3854
 9107SOL    HW238784   4.185   4.287   6.459  3.1156  0.6927 -0.1359
 9108SOL     OW38785   2.004   1.636   6.878  0.4058 -0.1276  0.6408
 9108SOL    HW138786   2.026   1.644   6.971  1.9052 -0.4666  0.3054
 9108SOL    HW238787   2.023   1.726   6.851  0.2163 -1.2977 -3.3626
 9109SOL     OW38788   0.726   4.181   6.461  0.3002  0.1586  0.5688
 9109SOL    HW138789   0.686   4.098   6.486 -1.9856  0.1089 -3.2835
 9109SOL    HW238790   0.751   4.163   6.370  1.5162 -0.4849  1.0226
 9110SOL     OW38791   1.853   0.208   6.056 -0.3490  0.1559  0.0714
 9110SOL    HW138792   1.915   0.280   6.044  0.4813 -0.3931  0.9969
 9110SOL    HW238793   1.894   0.137   6.007  1.8595  1.0267  0.6507
 9111SOL     OW38794   3.998   3.965   3.068  0.5283 -0.3246 -0.0020
 9111SOL    HW138795   3.920   4.014   3.042  1.7113  2.2092  1.1199
 9111SOL    HW238796   3.971   3.947   3.158  1.4587  1.1185  0.5817
 9112SOL     OW38797   4.702   0.036   8.027  0.2520 -0.2212 -0.1915
 9112SOL    HW138798   4.643   0.106   8.002  1.7177  2.1215  2.8388
 9112SOL    HW238799   0.025   0.065   8.107  1.9235  0.6484 -1.4534
 9113SOL     OW38800   0.646   0.240   3.217 -0.6906  0.3502 -0.3463
 9113SOL    HW138801   0.709   0.310   3.234 -1.5185  0.3661  2.6164
 9113SOL    HW238802   0.703   0.174   3.176 -0.2865  0.4462  0.0624
 9114SOL     OW38803   2.947   0.291   7.786  0.0266 -0.1304  0.3409
 9114SOL    HW138804   3.034   0.255   7.770  0.3288  0.6575  0.1873
 9114SOL    HW238805   2.890   0.265   7.714  0.4408  2.1916 -0.8170
 9115SOL     OW38806   0.991   3.999   2.717 -0.0554 -0.0875  0.0723
 9115SOL    HW138807   0.966   4.087   2.689  2.2621 -0.1326 -2.1257
 9115SOL    HW238808   1.037   3.978   2.635 -0.0016 -1.2276  0.3924
 9116SOL     OW38809   0.518   2.950   7.153  0.4604  0.0374 -0.1549
 9116SOL    HW138810   0.496   2.974   7.242 -2.7085 -1.1882 -0.5906
 9116SOL    HW238811   0.489   2.858   7.152  1.3915 -0.2631  0.8837
 9117SOL     OW38812   3.101   2.932  12.005 -0.3638  0.5361  0.3623
 9117SOL    HW138813   3.195   2.931  11.989 -0.6094  0.5665 -1.1266
 9117SOL    HW238814   3.073   2.840  12.002 -1.1371  0.8759 -2.9374
 9118SOL     OW38815   0.501   0.058   6.675 -0.3645  0.1355 -0.3710
 9118SOL    HW138816   0.461   4.703   6.716 -3.0658  1.1756 -1.0837
 9118SOL    HW238817   0.594   0.036   6.670  0.3057  2.1924  2.8172
 9119SOL     OW38818   1.502   4.247   6.252  0.0816  0.4714 -0.1716
 9119SOL    HW138819   1.519   4.170   6.306 -4.2409 -0.0307  0.4131
 9119SOL    HW238820   1.593   4.274   6.236  0.2227  0.1612  0.1158
 9120SOL     OW38821   4.224   1.385   3.928  0.9142 -0.0222  0.7032
 9120SOL    HW138822   4.134   1.370   3.899  0.4918  0.7433  1.5981
 9120SOL    HW238823   4.270   1.305   3.904  2.4417  0.5898  1.5269
 9121SOL     OW38824   3.626   1.371  11.748  0.0611 -0.0508 -0.2956
 9121SOL    HW138825   3.579   1.363  11.665 -0.6924 -0.8271  0.2067
 9121SOL    HW238826   3.667   1.456  11.734 -0.9655  0.2682 -1.3008
 9122SOL     OW38827   4.529   2.945   5.203  0.6071 -0.1009 -0.5144
 9122SOL    HW138828   4.471   3.001   5.151 -2.0832 -2.4545 -0.0188
 9122SOL    HW238829   4.560   3.006   5.270  1.6604  0.3729 -1.4081
 9123SOL     OW38830   2.528   3.706   5.244  0.1643  0.2669 -0.2291
 9123SOL    HW138831   2.541   3.788   5.196  2.3091 -0.6389 -1.1995
 9123SOL    HW238832   2.437   3.710   5.275 -0.0630  0.0260 -0.8682
 9124SOL     OW38833   1.298   2.034   3.180 -0.4490  0.5789  0.4038
 9124SOL    HW138834   1.386   2.019   3.148 -1.2269 -0.3865 -1.2628
 9124SOL    HW238835   1.256   1.954   3.148 -1.5177  1.5198 -0.5479
 9125SOL     OW38836   0.731   4.661   6.583 -0.2898  0.2440 -0.9503
 9125SOL    HW138837   0.772   4.577   6.563 -1.0751 -1.0474  2.8365
 9125SOL    HW238838   0.756   4.707   6.503  0.3950 -1.1747 -1.5511
 9126SOL     OW38839   3.457   0.921   7.943 -0.4759  0.1220  0.3398
 9126SOL    HW138840   3.532   0.966   7.907  0.5490 -0.4621  1.7284
 9126SOL    HW238841   3.391   0.933   7.875  0.4097  0.9992 -0.3623
 9127SOL     OW38842   2.982   4.519   3.040 -0.3763 -0.1098 -0.2623
 9127SOL    HW138843   2.898   4.480   3.016 -0.6735  0.3133  0.0833
 9127SOL    HW238844   3.021   4.455   3.098  0.0925  0.3010 -0.1285
 9128SOL     OW38845   3.756   1.552   4.354 -0.4098  0.7231 -0.1715
 9128SOL    HW138846   3.829   1.497   4.325 -1.0558 -0.4801  0.4396
 9128SOL    HW238847   3.791   1.635   4.384 -2.3631  1.3670  0.3285
 9129SOL     OW38848   4.541   3.151   7.732 -0.3996  0.0309  0.2129
 9129SOL    HW138849   4.465   3.207   7.742 -0.2293  0.3682 -0.3801
 9129SOL    HW238850   4.608   3.198   7.782  0.8654  0.1744 -1.6084
 9130SOL     OW38851   2.589   3.597  10.832  0.5559  0.0585 -0.0438
 9130SOL    HW138852   2.674   3.556  10.816  0.2188 -0.4128 -0.6318
 9130SOL    HW238853   2.604   3.683  10.793  0.6185 -0.0527 -0.2697
 9131SOL     OW38854   1.497   1.741   3.709 -0.2863 -0.8549  0.7163
 9131SOL    HW138855   1.420   1.684   3.699 -0.6452 -0.0478 -1.2177
 9131SOL    HW238856   1.569   1.678   3.696  0.5459  0.7196 -2.4480
 9132SOL     OW38857   2.813   2.851  11.121  0.7404  0.5273  0.4649
 9132SOL    HW138858   2.843   2.933  11.082 -0.7527  0.6801 -0.3846
 9132SOL    HW238859   2.720   2.840  11.097  0.6822 -1.1193  1.4569
 9133SOL     OW38860   0.120   3.272   7.766  0.0727  0.5742  0.1062
 9133SOL    HW138861   0.161   3.307   7.845  0.2926 -0.2511  0.3523
 9133SOL    HW238862   0.097   3.350   7.716  0.5218 -0.2247 -1.3425
 9134SOL     OW38863   2.225   2.454  10.397 -0.0089 -0.9243  0.3121
 9134SOL    HW138864   2.143   2.490  10.429 -0.1913 -2.3055  1.4304
 9134SOL    HW238865   2.209   2.450  10.302  0.4882 -2.1446  0.2657
 9135SOL     OW38866   0.754   1.032   9.349  0.4641 -0.1048  0.2503
 9135SOL    HW138867   0.729   0.940   9.359 -2.4254  0.7559  1.0882
 9135SOL    HW238868   0.839   1.033   9.393 -0.6624 -1.4850  2.4769
 9136SOL     OW38869   1.279   2.444   1.358 -0.4397 -0.4897  0.6012
 9136SOL    HW138870   1.188   2.472   1.355 -0.2943 -0.1288 -0.5894
 9136SOL    HW238871   1.301   2.479   1.271 -2.3516 -0.1035  0.2867
 9137SOL     OW38872   2.324   0.203   7.348  0.0435  1.2414 -0.1642
 9137SOL    HW138873   2.241   0.248   7.334  0.6050  1.8965 -1.3647
 9137SOL    HW238874   2.378   0.255   7.289  2.0732 -0.9005 -0.1995
 9138SOL     OW38875   2.988   4.281   7.621 -0.3125 -0.3663  0.3505
 9138SOL    HW138876   2.981   4.301   7.527 -1.1209  0.3366  0.5576
 9138SOL    HW238877   2.904   4.243   7.647 -0.4560  0.4158  1.0141
 9139SOL     OW38878   1.327   1.168  15.310  0.1615  0.0121  0.0422
 9139SOL    HW138879   1.333   1.200  15.220 -1.1687 -0.1939 -0.1136
 9139SOL    HW238880   1.236   1.178  15.338 -0.1133  0.4891 -0.9929
 9140SOL     OW38881   1.331   4.605   6.856 -0.1757  0.5783 -0.5979
 9140SOL    HW138882   1.346   4.692   6.893  0.1113  0.6158 -0.8029
 9140SOL    HW238883   1.338   4.543   6.928 -0.7086  0.3501 -0.7441
 9141SOL     OW38884   1.483   4.648   8.393  0.2809 -0.3276  0.1331
 9141SOL    HW138885   1.527   4.649   8.478  1.5157 -1.9276 -0.4757
 9141SOL    HW238886   1.471   0.019   8.378  1.2832 -0.3880 -1.0660
 9142SOL     OW38887   4.111   0.419   9.582 -0.1562 -0.1754 -0.3339
 9142SOL    HW138888   4.140   0.498   9.628 -1.7027  0.7446 -0.9442
 9142SOL    HW238889   4.040   0.395   9.641 -0.6468  2.9907  0.3807
 9143SOL     OW38890   2.389   2.577   7.277  0.7805  0.2869  0.5252
 9143SOL    HW138891   2.402   2.648   7.214  1.0593 -1.9603 -1.9347
 9143SOL    HW238892   2.399   2.496   7.226  1.8614  1.1111 -0.5698
 9144SOL     OW38893   0.619   0.838   3.822 -0.0332  0.3535  0.0606
 9144SOL    HW138894   0.610   0.746   3.799 -1.1182  0.7423 -1.0635
 9144SOL    HW238895   0.713   0.846   3.804  0.2315  0.9914  1.7779
 9145SOL     OW38896   3.998   0.638   6.381 -0.3488  0.1925  0.6056
 9145SOL    HW138897   4.089   0.646   6.352 -0.5478  1.6085  0.3995
 9145SOL    HW238898   4.005   0.640   6.476  1.3396 -1.9549  0.5407
 9146SOL     OW38899   3.808   2.182   6.882  0.0237  0.4702  0.0909
 9146SOL    HW138900   3.775   2.257   6.930  0.1469  0.1772  0.6317
 9146SOL    HW238901   3.790   2.203   6.790 -0.4498  0.2071  0.1277
 9147SOL     OW38902   4.544   2.994   6.257 -0.6441 -0.3446  0.0115
 9147SOL    HW138903   4.516   3.083   6.275 -2.3487 -0.8467 -0.1412
 9147SOL    HW238904   4.521   2.945   6.336  0.1704  0.0367  0.4833
 9148SOL     OW38905   2.224   2.541  13.737  0.1246 -0.6315 -0.3385
 9148SOL    HW138906   2.190   2.598  13.807  0.5747  1.3786 -1.7508
 9148SOL    HW238907   2.145   2.488  13.727  0.2266 -0.9639  0.5598
 9149SOL     OW38908   0.853   1.964   4.702 -0.4890  0.7961 -0.3005
 9149SOL    HW138909   0.823   1.989   4.790 -0.4663 -0.1429 -0.0197
 9149SOL    HW238910   0.851   1.869   4.712  0.9592  1.0522  2.3209
 9150SOL     OW38911   3.195   1.210  12.079 -0.6533 -0.0765 -0.1958
 9150SOL    HW138912   3.132   1.240  12.144 -0.1695  0.3566  0.0701
 9150SOL    HW238913   3.165   1.126  12.044 -0.8953  0.0128 -0.2025
 9151SOL     OW38914   3.997   0.071   5.207 -1.0128 -0.6921 -0.6290
 9151SOL    HW138915   4.073   0.043   5.258 -2.1818 -1.5921  0.6122
 9151SOL    HW238916   4.005   0.165   5.225 -0.2455 -1.1290  1.2527
 9152SOL     OW38917   1.915   3.406  10.752 -0.1475  0.0694  0.6396
 9152SOL    HW138918   1.949   3.321  10.781 -2.5356 -0.6545  1.3288
 9152SOL    HW238919   1.911   3.396  10.657  0.7277  2.3484  0.3678
 9153SOL     OW38920   2.694   1.755   7.274  0.4489  0.0587  0.0844
 9153SOL    HW138921   2.638   1.779   7.199 -0.0633 -2.2832 -0.2740
 9153SOL    HW238922   2.624   1.742   7.337  0.7794 -0.7044  0.2908
 9154SOL     OW38923   4.644   2.919   7.062 -0.0496  0.1039 -0.2476
 9154SOL    HW138924   4.554   2.884   7.063  0.0693 -0.2464 -2.5415
 9154SOL    HW238925   4.663   2.910   7.155 -1.1476  1.4380  0.1237
 9155SOL     OW38926   2.429   2.591  10.175 -0.2981  0.5279 -0.4764
 9155SOL    HW138927   2.356   2.532  10.156  1.1348 -1.2560 -0.5386
 9155SOL    HW238928   2.493   2.553  10.115 -2.4074  1.2180 -3.1297
 9156SOL     OW38929   1.537   2.857   1.862 -0.1332  0.6877  0.4655
 9156SOL    HW138930   1.446   2.885   1.873 -0.1100  0.7662  0.4538
 9156SOL    HW238931   1.536   2.812   1.777 -0.3914  0.0010  0.8300
 9157SOL     OW38932   4.372   1.364   6.118 -0.3887  0.1379 -0.1477
 9157SOL    HW138933   4.331   1.311   6.186  3.7868 -2.2100  0.4980
 9157SOL    HW238934   4.388   1.445   6.166  0.0616  0.6572 -1.1695
 9158SOL     OW38935   1.204   0.423   0.423 -0.2736  0.0926  0.0549
 9158SOL    HW138936   1.147   0.421   0.499  0.0777  1.5021  0.3530
 9158SOL    HW238937   1.149   0.471   0.361 -0.7410 -0.6664 -0.1206
 9159SOL     OW38938   4.581   0.801  16.090  0.5906  0.5791  0.1412
 9159SOL    HW138939   4.601   0.708  16.101 -2.1073 -0.2544 -2.0352
 9159SOL    HW238940   4.514   0.795  16.022 -1.3647 -1.3095  2.2546
 9160SOL     OW38941   1.953   0.277   8.679 -0.6041  0.2081 -0.4068
 9160SOL    HW138942   1.895   0.274   8.755 -3.3329 -0.2751 -2.5405
 9160SOL    HW238943   1.894   0.266   8.605  0.6115 -0.3985 -1.2767
 9161SOL     OW38944   2.334   2.965   7.071 -0.4796  0.6387  0.1906
 9161SOL    HW138945   2.325   2.971   7.166  1.2993 -0.3413  0.4382
 9161SOL    HW238946   2.319   3.059   7.060 -0.5208  1.0862  4.1291
 9162SOL     OW38947   2.030   1.258   5.528  0.1763 -0.3290 -0.4672
 9162SOL    HW138948   1.987   1.319   5.589  1.6539  2.7853 -2.5490
 9162SOL    HW238949   1.957   1.202   5.501 -0.2050 -0.4708  0.8132
 9163SOL     OW38950   3.849   1.761   7.263  0.3063  0.4278  0.2632
 9163SOL    HW138951   3.809   1.675   7.275 -0.9807  1.0470  0.4903
 9163SOL    HW238952   3.770   1.799   7.223  1.4571 -2.3344 -4.5666
 9164SOL     OW38953   0.313   1.876   5.035  0.3156 -0.4122  0.5508
 9164SOL    HW138954   0.257   1.824   5.092 -2.6318  0.9336 -1.1323
 9164SOL    HW238955   0.373   1.808   5.005 -0.9882 -1.3077 -0.0029
 9165SOL     OW38956   3.884   3.902  14.636 -0.1834 -0.3333  0.5846
 9165SOL    HW138957   3.803   3.917  14.587  0.2250 -1.6862 -0.4915
 9165SOL    HW238958   3.851   3.863  14.717  0.6683  1.6916  1.9082
 9166SOL     OW38959   1.526   2.473   2.460  0.5234  0.0975  0.5416
 9166SOL    HW138960   1.551   2.464   2.552  1.2087  1.5560  0.4931
 9166SOL    HW238961   1.469   2.545   2.485 -3.0245 -2.1613 -1.0382
 9167SOL     OW38962   0.095   3.670   2.394 -0.1036  0.0908  0.6091
 9167SOL    HW138963   0.173   3.623   2.365  1.1393  2.7368 -0.4212
 9167SOL    HW238964   0.045   3.671   2.312 -0.0543  0.1255  0.5794
 9168SOL     OW38965   1.637   0.528   0.757 -0.3425  0.0098 -0.0323
 9168SOL    HW138966   1.621   0.434   0.767 -2.2398  0.4036  0.5319
 9168SOL    HW238967   1.732   0.537   0.755 -0.3107 -0.4248 -0.6199
 9169SOL     OW38968   3.121   0.855   4.987 -0.5989  0.0018 -0.0031
 9169SOL    HW138969   3.083   0.823   4.905 -2.2283 -1.2313  1.2464
 9169SOL    HW238970   3.116   0.773   5.036  1.1231  1.1082  2.0252
 9170SOL     OW38971   3.577   4.705   7.267 -0.2402  0.0043  0.3506
 9170SOL    HW138972   3.672   4.717   7.261 -0.3944  0.4333 -1.5351
 9170SOL    HW238973   3.559   0.034   7.346 -0.6084 -0.4062  0.5248
 9171SOL     OW38974   3.855   0.138   8.566  0.2910 -0.5197 -0.0121
 9171SOL    HW138975   3.914   0.074   8.526  1.2066 -0.0207  0.5177
 9171SOL    HW238976   3.772   0.092   8.574  0.7282 -1.0908  1.3154
 9172SOL     OW38977   2.683   4.367   4.429  0.5116 -0.2509  0.3912
 9172SOL    HW138978   2.658   4.387   4.519 -1.0032  1.8771 -0.4923
 9172SOL    HW238979   2.647   4.280   4.407 -0.3703  0.2331 -0.0888
 9173SOL     OW38980   0.322   1.519   2.969  0.1332 -0.5271  0.0818
 9173SOL    HW138981   0.332   1.441   3.024  2.4838 -0.5197 -0.3513
 9173SOL    HW238982   0.235   1.547   2.997  1.5335  1.4674  2.5054
 9174SOL     OW38983   2.545   0.552   1.014  0.0132 -0.3918 -0.1435
 9174SOL    HW138984   2.460   0.595   1.007  1.0110  1.3893 -1.2637
 9174SOL    HW238985   2.583   0.560   0.927 -3.2977 -0.0081 -1.5581
 9175SOL     OW38986   0.424   2.563   5.902 -0.0726  0.1837 -0.6006
 9175SOL    HW138987   0.347   2.571   5.845  0.1737  0.6723 -0.8702
 9175SOL    HW238988   0.429   2.468   5.910 -0.1641  0.3866  2.0632
 9176SOL     OW38989   1.190   3.487  11.856  0.5724  0.0041 -0.1399
 9176SOL    HW138990   1.195   3.447  11.943 -1.2339  0.6821  0.2814
 9176SOL    HW238991   1.101   3.522  11.865 -0.2519 -2.3638  0.8753
 9177SOL     OW38992   4.344   1.821   3.387 -0.3768  0.4278  0.2518
 9177SOL    HW138993   4.285   1.879   3.435 -0.0492 -1.2988  2.7382
 9177SOL    HW238994   4.302   1.737   3.401  0.1113  0.3565  1.2867
 9178SOL     OW38995   0.336   3.300   9.533  0.9604 -0.4616  0.0216
 9178SOL    HW138996   0.302   3.273   9.448  0.2030  2.2889 -0.5211
 9178SOL    HW238997   0.427   3.315   9.506  0.8247 -0.7912 -0.6030
 9179SOL     OW38998   4.399   1.571   8.927  0.4913 -0.5096  0.2706
 9179SOL    HW138999   4.329   1.570   8.992  1.0040 -2.2505  0.7744
 9179SOL    HW239000   4.478   1.539   8.971 -0.2180 -1.1787  1.0541
 9180SOL     OW39001   4.095   1.050   9.833  0.2561 -0.4268  0.1784
 9180SOL    HW139002   4.098   0.993   9.756  0.2775 -0.7410  0.4088
 9180SOL    HW239003   4.041   0.996   9.891 -1.5922  2.5143  1.1461
 9181SOL     OW39004   3.607   2.856   6.263 -0.1813  0.1425  0.1215
 9181SOL    HW139005   3.605   2.771   6.220 -1.1520  0.2827 -0.1158
 9181SOL    HW239006   3.649   2.904   6.191 -0.2015 -0.6878 -0.4464
 9182SOL     OW39007   4.289   0.868  17.340 -0.4082 -0.1276 -0.0561
 9182SOL    HW139008   4.273   0.778  17.368  0.7809 -0.1662  0.4900
 9182SOL    HW239009   4.350   0.900  17.405 -0.9574  1.0011 -0.0994
 9183SOL     OW39010   1.252   3.216  13.493 -0.4774 -0.7076 -0.0245
 9183SOL    HW139011   1.175   3.261  13.459 -0.6428 -0.7289  0.3235
 9183SOL    HW239012   1.317   3.284  13.514 -1.2236 -0.1611  0.5036
 9184SOL     OW39013   2.144   0.823  10.976 -0.0635  0.2391  0.1603
 9184SOL    HW139014   2.113   0.847  10.889 -0.5757  0.1122  0.3078
 9184SOL    HW239015   2.238   0.838  10.968  0.0704 -0.2345  0.8403
 9185SOL     OW39016   4.219   1.247  16.745 -0.3697  0.1445  0.5326
 9185SOL    HW139017   4.299   1.257  16.796 -0.7106 -1.9986  1.4891
 9185SOL    HW239018   4.184   1.175  16.798  1.3792 -1.6354 -0.7620
 9186SOL     OW39019   1.844   4.351   7.282  0.2076 -0.2233  0.2220
 9186SOL    HW139020   1.769   4.298   7.253  1.8557 -0.6545 -3.2819
 9186SOL    HW239021   1.890   4.367   7.200  1.3858 -1.8460  0.5524
 9187SOL     OW39022   3.356   3.164   3.233 -0.0439 -0.0245  0.2676
 9187SOL    HW139023   3.404   3.145   3.313 -1.3861 -1.3157  0.7647
 9187SOL    HW239024   3.429   3.174   3.172  0.9654 -1.2198  1.2753
 9188SOL     OW39025   3.747   2.478   5.190 -0.5122  0.4132 -0.0811
 9188SOL    HW139026   3.706   2.481   5.103 -0.8264 -1.2388  0.0110
 9188SOL    HW239027   3.694   2.409   5.230 -0.4314  0.0118 -0.6603
 9189SOL     OW39028   3.137   2.784   1.605 -0.3903  0.7554  0.3925
 9189SOL    HW139029   3.108   2.770   1.515  0.1395  0.3654  0.2813
 9189SOL    HW239030   3.178   2.870   1.596  0.7506 -0.0213 -1.6164
 9190SOL     OW39031   1.552   1.168   0.928  0.0278  0.2678 -0.6428
 9190SOL    HW139032   1.581   1.126   1.009  0.2159  1.6557  0.0203
 9190SOL    HW239033   1.494   1.235   0.964  2.1163  1.8411 -0.2104
 9191SOL     OW39034   4.008   2.766   3.908  0.0526  0.0738  0.5999
 9191SOL    HW139035   3.946   2.829   3.944  1.2483  1.8614 -0.4391
 9191SOL    HW239036   4.088   2.774   3.960 -0.8641 -0.3922  2.0716
 9192SOL     OW39037   1.930   4.570   9.409 -0.0104 -0.1325 -0.3240
 9192SOL    HW139038   2.006   4.622   9.435  2.9806 -4.7281  0.2262
 9192SOL    HW239039   1.864   4.636   9.389 -1.3678 -0.5915  2.6550
 9193SOL     OW39040   2.037   0.918   5.290 -0.0402  0.9438  0.3814
 9193SOL    HW139041   2.047   0.826   5.316 -1.8966  0.3234 -1.0727
 9193SOL    HW239042   2.035   0.907   5.195 -0.6741  0.3299  0.4666
 9194SOL     OW39043   2.721   4.107   8.459 -0.6008  0.3295 -0.0780
 9194SOL    HW139044   2.772   4.161   8.398  1.3917  1.0216  2.2279
 9194SOL    HW239045   2.766   4.116   8.543 -0.5910  1.1462 -0.1753
 9195SOL     OW39046   1.864   2.437  12.257  0.1068 -0.4536  0.5320
 9195SOL    HW139047   1.911   2.355  12.269  0.9593 -0.1043 -0.4848
 9195SOL    HW239048   1.865   2.492  12.336  1.8155 -1.2249  1.0336
 9196SOL     OW39049   2.698   3.804  11.019  0.3200 -0.0590 -0.3378
 9196SOL    HW139050   2.750   3.740  11.067  0.6897  0.7245  0.2992
 9196SOL    HW239051   2.625   3.743  11.002 -0.3265  0.1348  1.8213
 9197SOL     OW39052   1.244   2.805   7.465  0.3809 -0.3723  0.9062
 9197SOL    HW139053   1.279   2.890   7.490  2.1986 -0.7740 -0.3024
 9197SOL    HW239054   1.309   2.768   7.406  0.6610  1.7249 -0.0886
 9198SOL     OW39055   1.207   3.496   5.202  0.3296  0.1520 -0.3191
 9198SOL    HW139056   1.119   3.523   5.178 -0.4275 -2.3825 -0.4645
 9198SOL    HW239057   1.213   3.412   5.156  1.7407  0.9374 -1.5503
 9199SOL     OW39058   3.931   0.760   3.856  0.5936 -0.1249  0.1044
 9199SOL    HW139059   4.011   0.759   3.908  0.4103  0.4845  0.4051
 9199SOL    HW239060   3.946   0.837   3.801  1.6212 -0.5438 -0.1972
 9200SOL     OW39061   3.894   3.967   6.869 -0.2292  0.5478  0.0791
 9200SOL    HW139062   3.963   3.935   6.928 -0.1025 -0.3353 -0.5431
 9200SOL    HW239063   3.863   4.036   6.928 -1.3135  0.3677 -0.2865
 9201SOL     OW39064   2.066   0.639   2.450  0.0582  0.1356  0.0709
 9201SOL    HW139065   1.970   0.636   2.445 -0.0125 -0.4655  1.7014
 9201SOL    HW239066   2.071   0.544   2.441 -0.9896  0.2587 -1.8088
 9202SOL     OW39067   0.891   3.467   2.042 -0.0178  0.6335  0.1082
 9202SOL    HW139068   0.954   3.407   2.002 -0.7178  1.2364 -1.9048
 9202SOL    HW239069   0.819   3.465   1.979  0.2595 -0.1487 -0.1795
 9203SOL     OW39070   0.888   0.174   3.702 -0.3720  0.5458  0.6460
 9203SOL    HW139071   0.891   0.129   3.786  1.4216 -1.0850 -0.2754
 9203SOL    HW239072   0.980   0.185   3.679 -1.5171  1.7619 -3.4061
 9204SOL     OW39073   1.822   0.615   4.154  0.0776  0.2081 -0.4800
 9204SOL    HW139074   1.760   0.544   4.139  1.0285 -0.2911 -2.0763
 9204SOL    HW239075   1.786   0.670   4.084  0.3656  0.3074 -0.5511
 9205SOL     OW39076   0.722   1.673   7.935  0.6895 -0.1840  0.8248
 9205SOL    HW139077   0.750   1.602   7.993  1.6544  0.4490  1.1423
 9205SOL    HW239078   0.803   1.724   7.937  0.4842  0.1899 -0.4924
 9206SOL     OW39079   0.730   0.325  10.497  0.5521 -0.0324  0.4206
 9206SOL    HW139080   0.823   0.345  10.501  0.8100 -1.6768  2.7680
 9206SOL    HW239081   0.703   0.357  10.584 -0.2557 -0.2293  0.2485
 9207SOL     OW39082   3.256   3.499   9.376  0.1050  0.3669  0.3173
 9207SOL    HW139083   3.336   3.475   9.328  1.7899  1.5590  2.4988
 9207SOL    HW239084   3.202   3.428   9.343  2.6195 -1.5140  0.2237
 9208SOL     OW39085   4.013   3.944   7.871  0.0714 -0.1840 -0.0353
 9208SOL    HW139086   4.090   4.001   7.881 -1.3688  1.3611  2.0594
 9208SOL    HW239087   4.052   3.867   7.912 -1.9586 -0.7152  0.8623
 9209SOL     OW39088   1.163   2.871   6.242  0.1292 -0.2217 -0.3844
 9209SOL    HW139089   1.243   2.879   6.294  0.8998 -1.0571 -1.4356
 9209SOL    HW239090   1.117   2.949   6.274  0.0369  0.0197 -1.0888
 9210SOL     OW39091   1.611   0.774  13.846  0.1736  0.7254 -0.1208
 9210SOL    HW139092   1.689   0.767  13.901 -0.6237 -1.7981  0.6823
 9210SOL    HW239093   1.532   0.787  13.898  0.9304 -1.9866  1.7149
 9211SOL     OW39094   1.852   0.792   0.764 -0.0309 -0.4588  0.3934
 9211SOL    HW139095   1.780   0.752   0.716  1.4364 -1.9846 -0.5443
 9211SOL    HW239096   1.829   0.884   0.749  0.6396 -0.2021  0.8980
 9212SOL     OW39097   2.626   1.756   6.627 -0.1434 -0.2181  0.0412
 9212SOL    HW139098   2.681   1.690   6.668 -3.3795 -1.5917  2.1737
 9212SOL    HW239099   2.591   1.717   6.547  0.0197  3.1966 -1.7040
 9213SOL     OW39100   1.917   1.285   3.527  0.0550  0.0981  0.1374
 9213SOL    HW139101   1.969   1.331   3.593  0.5208 -2.4012  1.5426
 9213SOL    HW239102   1.901   1.359   3.469  1.6250 -0.1305 -0.5934
 9214SOL     OW39103   1.800   1.044   5.908  0.5059 -0.7465 -0.1510
 9214SOL    HW139104   1.724   1.065   5.961  0.7489 -0.3665  0.0482
 9214SOL    HW239105   1.789   1.125   5.858 -1.4434 -1.1866 -0.4448
 9215SOL     OW39106   4.131   3.270   5.136  0.9725  0.5297  0.4574
 9215SOL    HW139107   4.062   3.322   5.094  1.0507 -1.6157 -2.4064
 9215SOL    HW239108   4.078   3.241   5.210 -0.4330 -1.1026 -1.1979
 9216SOL     OW39109   3.333   4.322  12.818  0.0413  0.3286 -0.0335
 9216SOL    HW139110   3.316   4.324  12.724 -2.6023 -1.1263  0.3874
 9216SOL    HW239111   3.427   4.334  12.818  0.0255  0.4376  1.9048
 9217SOL     OW39112   1.185   2.940   8.614  0.5982  0.1348  0.4325
 9217SOL    HW139113   1.176   2.845   8.614 -0.6653  0.2576 -0.9347
 9217SOL    HW239114   1.265   2.954   8.563  0.0820  0.5870 -0.2433
 9218SOL     OW39115   1.983   1.163   9.535  0.0909  0.0531  0.0830
 9218SOL    HW139116   2.015   1.105   9.604  0.3350 -0.6391 -0.6191
 9218SOL    HW239117   2.034   1.239   9.565 -2.5133  2.3723 -1.4201
 9219SOL     OW39118   2.485   4.018   3.375 -0.2002 -0.1501  0.6465
 9219SOL    HW139119   2.539   4.021   3.453  1.3735  2.3968 -0.5628
 9219SOL    HW239120   2.483   4.105   3.336  0.7192 -1.0099 -1.3635
 9220SOL     OW39121   4.579   3.934   7.405 -0.3807 -0.0339  0.5223
 9220SOL    HW139122   4.606   3.913   7.316 -1.8510  1.0843 -0.1878
 9220SOL    HW239123   4.630   4.013   7.423 -2.6195  1.3615  0.7737
 9221SOL     OW39124   0.687   4.248  11.874  0.0126 -0.0474 -0.4167
 9221SOL    HW139125   0.668   4.174  11.932 -2.0077  0.7789 -0.0102
 9221SOL    HW239126   0.601   4.278  11.844 -0.5353 -0.7346  0.4672
 9222SOL     OW39127   4.343   0.275   9.594 -0.1296 -0.2738 -0.3995
 9222SOL    HW139128   4.256   0.313   9.606 -0.8659 -1.4800 -1.9007
 9222SOL    HW239129   4.378   0.269   9.683  0.6116  0.9668 -0.6131
 9223SOL     OW39130   0.269   3.054   8.056 -0.0355  0.1784  0.1066
 9223SOL    HW139131   0.263   3.124   7.990 -0.4583 -0.7727 -0.8548
 9223SOL    HW239132   0.257   2.978   8.000  1.0148 -1.7351  2.4829
 9224SOL     OW39133   3.830   2.927   3.570  0.0613  0.0930 -0.0316
 9224SOL    HW139134   3.841   2.999   3.633 -0.2186  0.0224  0.0996
 9224SOL    HW239135   3.784   2.868   3.630  1.2545 -2.0484 -1.2571
 9225SOL     OW39136   4.207   4.247  10.208  0.4043  0.0460 -0.7784
 9225SOL    HW139137   4.292   4.208  10.226  0.0843  0.2125  1.1407
 9225SOL    HW239138   4.186   4.192  10.133  1.4132 -0.4455 -0.6920
 9226SOL     OW39139   0.565   0.097   3.709  0.2666  0.1772 -0.5291
 9226SOL    HW139140   0.649   0.069   3.672 -0.2164 -0.1055 -1.4197
 9226SOL    HW239141   0.530   0.154   3.641  0.4126  0.2243 -0.5636
 9227SOL     OW39142   0.341   1.328  11.267 -0.4260 -0.0283  0.1672
 9227SOL    HW139143   0.382   1.413  11.282 -1.5681  0.8496 -1.6954
 9227SOL    HW239144   0.423   1.279  11.261  0.5748  1.6230  0.3526
 9228SOL     OW39145   4.634   0.547   7.786 -0.0721 -0.0420  0.0987
 9228SOL    HW139146   4.623   0.618   7.850 -0.5180 -0.5046  0.5405
 9228SOL    HW239147   4.604   0.593   7.708 -0.3971 -2.2064 -1.0549
 9229SOL     OW39148   2.086   0.169   4.303 -0.5421  0.3477 -0.2103
 9229SOL    HW139149   2.127   0.189   4.219 -0.6835  0.9045 -0.1435
 9229SOL    HW239150   2.032   0.246   4.323  1.3725  1.0928  2.0668
 9230SOL     OW39151   1.349   3.592  11.509  0.5926 -0.8174  0.1218
 9230SOL    HW139152   1.345   3.670  11.564  0.7424  1.3122 -2.8777
 9230SOL    HW239153   1.366   3.632  11.424  1.5865 -0.7962  0.3360
 9231SOL     OW39154   4.532   1.728  12.645  0.2128  0.2684  0.0427
 9231SOL    HW139155   4.481   1.780  12.707 -0.8890  0.0320 -0.6640
 9231SOL    HW239156   4.622   1.756  12.662  0.4624 -1.7172  1.9269
 9232SOL     OW39157   0.170   1.954   6.558 -0.0056  0.2850 -0.5998
 9232SOL    HW139158   0.185   1.930   6.466  1.2276 -0.1385 -0.2878
 9232SOL    HW239159   0.226   2.031   6.564  2.8311 -1.8374  0.0750
 9233SOL     OW39160   3.950   0.496   2.992 -0.2740  0.2747  0.2452
 9233SOL    HW139161   3.996   0.422   2.951  0.1357  0.3420  0.5824
 9233SOL    HW239162   3.883   0.510   2.926  0.0580  1.7831  0.2238
 9234SOL     OW39163   2.491   2.720   4.038  0.3293 -0.0245  0.0362
 9234SOL    HW139164   2.407   2.696   3.998  0.9606 -0.1575 -1.2096
 9234SOL    HW239165   2.485   2.815   4.044  1.9283  0.0932 -0.2110
 9235SOL     OW39166   0.518   0.305   7.389 -0.0707  0.1012 -0.2172
 9235SOL    HW139167   0.447   0.340   7.336  0.0178 -1.9117 -1.6721
 9235SOL    HW239168   0.575   0.271   7.320 -0.1205 -0.1197 -0.1497
 9236SOL     OW39169   4.601   3.763   5.236  0.2887  0.6088  0.3976
 9236SOL    HW139170   4.625   3.670   5.233  2.2837  1.1415  0.1665
 9236SOL    HW239171   4.656   3.788   5.310 -1.9453 -1.0121  2.6139
 9237SOL     OW39172   3.934   1.435   2.214  0.1519  0.0033  0.3822
 9237SOL    HW139173   3.853   1.450   2.165  0.4425  0.7359  0.1256
 9237SOL    HW239174   3.911   1.362   2.272 -1.5328  0.7887  0.7105
 9238SOL     OW39175   1.637   4.505   9.424 -0.5718  0.1520 -0.1227
 9238SOL    HW139176   1.602   4.552   9.500 -1.5838  1.1658 -1.2087
 9238SOL    HW239177   1.672   4.582   9.378  0.8213 -0.1263  0.4678
 9239SOL     OW39178   4.221   1.575   3.413  0.0621 -0.0340 -0.1537
 9239SOL    HW139179   4.149   1.591   3.474 -0.7316 -0.4764 -0.9868
 9239SOL    HW239180   4.215   1.480   3.398 -0.7352  0.1797 -1.1548
 9240SOL     OW39181   0.234   2.251   3.039  0.0258 -0.2376 -0.1602
 9240SOL    HW139182   0.315   2.210   3.069 -0.5242 -0.9539  0.3582
 9240SOL    HW239183   0.255   2.266   2.947 -0.3151 -1.6507 -0.4799
 9241SOL     OW39184   2.877   0.055   1.987 -0.0461  0.0382 -0.2975
 9241SOL    HW139185   2.800   0.006   1.956 -0.4795  0.4136  0.2028
 9241SOL    HW239186   2.948   0.011   1.938  0.1522 -0.5684  0.5400
 9242SOL     OW39187   2.850   4.037  13.577  1.0966 -0.0824 -0.1424
 9242SOL    HW139188   2.802   4.065  13.499 -1.1162 -1.4514  0.7466
 9242SOL    HW239189   2.933   4.009  13.537  1.1109  1.2630 -1.0791
 9243SOL     OW39190   2.650   0.822   5.368  0.3412 -0.8342 -0.6394
 9243SOL    HW139191   2.706   0.809   5.292 -0.1128  0.8105 -1.2502
 9243SOL    HW239192   2.696   0.894   5.412 -1.1808 -0.2559  0.0218
 9244SOL     OW39193   4.190   2.439  13.456 -0.2222  0.0371 -0.5740
 9244SOL    HW139194   4.147   2.360  13.423  0.9630 -1.4812  1.5637
 9244SOL    HW239195   4.269   2.409  13.500 -1.1161  0.7544  1.5109
 9245SOL     OW39196   3.306   3.920  15.144  0.1403  0.6761  0.5307
 9245SOL    HW139197   3.309   3.994  15.205  0.3926  2.1646 -1.2861
 9245SOL    HW239198   3.260   3.858  15.200  0.5038  1.2407  1.4593
 9246SOL     OW39199   2.334   1.085   2.144  0.2870  0.1229 -0.0600
 9246SOL    HW139200   2.260   1.072   2.085  0.5091 -0.5710 -0.1815
 9246SOL    HW239201   2.382   1.004   2.129  0.9848  0.4838  0.2372
 9247SOL     OW39202   4.077   4.087  12.735  0.1282  0.0271  0.2796
 9247SOL    HW139203   4.171   4.091  12.722  0.1840 -0.7170  0.4729
 9247SOL    HW239204   4.050   4.170  12.694  0.4370  0.4156  0.8611
 9248SOL     OW39205   1.636   3.542   5.537  0.5829  0.3753  0.0089
 9248SOL    HW139206   1.635   3.583   5.450  2.1000  1.3593  0.4564
 9248SOL    HW239207   1.553   3.495   5.532  0.4051  0.6482  0.4258
 9249SOL     OW39208   2.106   1.061   9.746  0.3124  0.2766 -0.3432
 9249SOL    HW139209   2.097   1.101   9.833  0.6238 -1.0523  0.3082
 9249SOL    HW239210   2.108   0.969   9.771 -1.6184  0.5215  0.6885
 9250SOL     OW39211   0.361   1.288   5.369 -0.2823  0.6265  0.2435
 9250SOL    HW139212   0.374   1.355   5.437 -0.5713  2.5217 -1.5797
 9250SOL    HW239213   0.270   1.286   5.343  0.8924  0.3274 -3.7727
 9251SOL     OW39214   1.821   0.489   8.264 -0.9303 -0.1357  0.1092
 9251SOL    HW139215   1.750   0.453   8.318  0.0708 -1.7212  0.3510
 9251SOL    HW239216   1.802   0.582   8.280 -0.7255 -0.4277  1.9945
 9252SOL     OW39217   1.538   0.128   9.101  0.2804  0.2091 -0.3966
 9252SOL    HW139218   1.471   0.104   9.165  2.4811 -1.7332  1.1591
 9252SOL    HW239219   1.609   0.149   9.161  1.6124 -0.7911 -1.6049
 9253SOL     OW39220   2.302   3.249  14.398  0.3828 -0.3801 -0.3659
 9253SOL    HW139221   2.247   3.184  14.353 -2.1069  0.5477  1.3385
 9253SOL    HW239222   2.391   3.220  14.378  0.8050  0.5847  0.1101
 9254SOL     OW39223   2.247   4.274   5.021  0.0438  0.1894  0.3612
 9254SOL    HW139224   2.204   4.359   5.033  0.7535  0.4767  0.7916
 9254SOL    HW239225   2.183   4.240   4.958  0.7644  1.6450 -1.1580
 9255SOL     OW39226   0.846   3.318   5.795  0.2297  0.2086  0.0572
 9255SOL    HW139227   0.774   3.257   5.810 -1.2976  1.8012 -0.8126
 9255SOL    HW239228   0.795   3.399   5.787 -1.1289 -0.5805  0.7306
 9256SOL     OW39229   2.364   2.433  13.995  0.3048 -0.2094  0.0234
 9256SOL    HW139230   2.271   2.430  14.016 -0.0220  0.6731 -1.3691
 9256SOL    HW239231   2.369   2.369  13.924 -0.9756  1.3678 -1.4870
 9257SOL     OW39232   4.711   0.926   5.141  0.3148  0.3874  0.3097
 9257SOL    HW139233   0.079   0.894   5.154  0.5854  0.5496 -1.1884
 9257SOL    HW239234   4.676   0.853   5.089  0.5277  1.4573 -1.3321
 9258SOL     OW39235   4.399   4.122   2.698 -0.7197 -0.0399 -0.0972
 9258SOL    HW139236   4.466   4.172   2.652 -2.3348 -0.2027 -2.6397
 9258SOL    HW239237   4.329   4.186   2.708  0.6416  1.2311  1.2794
 9259SOL     OW39238   2.847   2.719   4.611 -0.3182  0.1580  0.5398
 9259SOL    HW139239   2.765   2.671   4.615 -0.3676  0.3282  1.4529
 9259SOL    HW239240   2.907   2.645   4.619  0.3400  0.7280  0.9207
 9260SOL     OW39241   4.105   4.525   2.844  0.0365 -0.3170 -0.1162
 9260SOL    HW139242   4.057   4.476   2.910  1.2105  1.2466  1.8946
 9260SOL    HW239243   4.033   4.559   2.791  0.7687  1.0264 -0.2445
 9261SOL     OW39244   3.778   4.583  11.195  0.9892  0.5038 -0.2852
 9261SOL    HW139245   3.783   4.622  11.282 -0.7059  0.1283 -0.0242
 9261SOL    HW239246   3.780   4.489  11.212 -0.3205  0.2661 -1.4323
 9262SOL     OW39247   2.540   0.730   1.853 -0.1672  0.2322 -0.0036
 9262SOL    HW139248   2.622   0.687   1.878 -1.0949 -1.5931 -0.1379
 9262SOL    HW239249   2.494   0.659   1.809 -1.2029  0.1297  1.2635
 9263SOL     OW39250   1.071   3.422   3.692 -0.3724 -0.7795 -1.2575
 9263SOL    HW139251   1.121   3.498   3.660  0.1614 -1.0275 -1.0225
 9263SOL    HW239252   0.985   3.448   3.661 -0.7720  0.6241  1.0689
 9264SOL     OW39253   3.068   2.325   6.003 -0.7558 -0.2991  0.4702
 9264SOL    HW139254   2.994   2.268   6.025 -0.9485 -0.4100 -0.4994
 9264SOL    HW239255   3.034   2.413   6.024 -0.8850  0.1174 -1.5279
 9265SOL     OW39256   0.236   3.933   6.069  0.2927  0.5156  0.4140
 9265SOL    HW139257   0.302   3.865   6.077  1.4251  1.6009  0.1922
 9265SOL    HW239258   0.153   3.885   6.066  0.0405  1.0337 -1.2939
 9266SOL     OW39259   0.305   0.960   4.450  0.0637 -0.1689  0.2948
 9266SOL    HW139260   0.369   0.920   4.391  0.3140  3.9982 -2.2796
 9266SOL    HW239261   0.372   0.997   4.508 -0.9130  1.6916  0.2409
 9267SOL     OW39262   4.399   2.837   8.305  0.2948  0.1284 -0.4029
 9267SOL    HW139263   4.420   2.748   8.279 -1.7929 -0.6041  0.3712
 9267SOL    HW239264   4.461   2.860   8.375 -1.5767 -1.0034  1.6385
 9268SOL     OW39265   0.224   3.763   2.000 -0.1475  0.5336  0.2210
 9268SOL    HW139266   0.308   3.791   1.962 -0.8360  0.9251 -1.0116
 9268SOL    HW239267   0.253   3.698   2.064  0.4457  2.2433  1.6986
 9269SOL     OW39268   2.810   3.734   4.999 -0.3538  0.4157  0.2905
 9269SOL    HW139269   2.867   3.682   5.056 -0.3992  2.1700  1.9333
 9269SOL    HW239270   2.772   3.664   4.946 -4.5894  2.2216  0.9385
 9270SOL     OW39271   0.793   2.577  14.912 -0.2656 -0.0859  0.1760
 9270SOL    HW139272   0.872   2.562  14.963  0.4028 -0.5957 -1.0217
 9270SOL    HW239273   0.746   2.636  14.971  1.1782  0.7253  0.5138
 9271SOL     OW39274   4.376   4.430   4.928 -0.2781  0.5054 -0.2195
 9271SOL    HW139275   4.316   4.503   4.938 -0.0789  0.0085  4.4919
 9271SOL    HW239276   4.351   4.404   4.839 -1.7036  0.5895  0.1702
 9272SOL     OW39277   1.518   2.456   7.261  0.1726  0.5270 -0.0477
 9272SOL    HW139278   1.481   2.430   7.346  0.2922  1.1480  0.1908
 9272SOL    HW239279   1.507   2.549   7.278  2.5162  1.1637 -1.8969
 9273SOL     OW39280   1.578   0.929   3.617 -0.2015 -0.0404  0.0751
 9273SOL    HW139281   1.620   0.867   3.558  0.3432 -0.4581  0.8906
 9273SOL    HW239282   1.508   0.875   3.654  1.3384 -1.5889  0.7360
 9274SOL     OW39283   3.560   1.225   7.597 -0.6061  0.2615  0.4229
 9274SOL    HW139284   3.643   1.271   7.581  0.6418 -2.6814 -1.5587
 9274SOL    HW239285   3.536   1.272   7.677  0.9023  0.8830  0.5143
 9275SOL     OW39286   3.516   2.346  15.349 -0.0552  0.0124 -0.2492
 9275SOL    HW139287   3.430   2.383  15.371  0.2630  1.3983 -1.3760
 9275SOL    HW239288   3.517   2.257  15.384  0.9698 -0.3369 -1.1690
 9276SOL     OW39289   0.629   2.594  12.252  0.7864  0.7709 -0.4973
 9276SOL    HW139290   0.642   2.669  12.310 -0.7824  0.5489  0.1401
 9276SOL    HW239291   0.699   2.604  12.187 -0.8619  2.6310 -1.9955
 9277SOL     OW39292   4.698   2.157   8.880  0.5594 -0.0341 -0.4894
 9277SOL    HW139293   4.713   2.091   8.812  0.9210 -0.6545  0.1907
 9277SOL    HW239294   0.033   2.229   8.854  0.6760  0.2731  0.6182
 9278SOL     OW39295   2.231   2.147   1.342  0.0012 -0.2817  0.1669
 9278SOL    HW139296   2.325   2.142   1.355 -0.3531 -2.4982  1.8140
 9278SOL    HW239297   2.203   2.059   1.317 -4.1776  1.2084 -0.4483
 9279SOL     OW39298   0.351   0.379   2.480  0.0316 -0.4081 -0.2676
 9279SOL    HW139299   0.359   0.434   2.402 -4.5407 -0.5863 -0.8672
 9279SOL    HW239300   0.258   0.359   2.477  0.2108 -1.3515  0.4792
 9280SOL     OW39301   3.762   1.270   3.169 -0.0204  0.1406  0.0267
 9280SOL    HW139302   3.708   1.348   3.185 -2.0067 -1.0270 -1.0845
 9280SOL    HW239303   3.852   1.297   3.191  0.3187 -2.7168  2.0832
 9281SOL     OW39304   3.104   2.639   9.874  0.4346 -0.2450 -0.4557
 9281SOL    HW139305   3.023   2.679   9.843 -0.6337 -0.9204  1.5054
 9281SOL    HW239306   3.161   2.688   9.814  0.7204  0.3271  0.2755
 9282SOL     OW39307   0.327   2.235  12.808 -0.0445  0.8289 -0.0335
 9282SOL    HW139308   0.399   2.294  12.786  1.1422 -1.1039 -1.2984
 9282SOL    HW239309   0.250   2.267  12.760  0.1000  1.3319  0.0774
 9283SOL     OW39310   2.800   4.347   3.646 -0.1409 -0.2359 -0.0204
 9283SOL    HW139311   2.834   4.377   3.561 -1.2950 -0.7304 -0.6648
 9283SOL    HW239312   2.706   4.365   3.637 -0.2291 -1.1985 -1.0356
 9284SOL     OW39313   0.162   2.673   8.508  0.6061  0.9366 -0.0598
 9284SOL    HW139314   0.250   2.638   8.513  0.7355  1.8138  3.6854
 9284SOL    HW239315   0.112   2.592   8.510  1.6480  0.3050  0.4066
 9285SOL     OW39316   3.988   1.438   7.339 -0.3913 -0.0307  0.2954
 9285SOL    HW139317   4.070   1.465   7.379 -0.4919  0.4829  0.1560
 9285SOL    HW239318   4.002   1.344   7.352 -0.6240 -0.0964  0.0833
 9286SOL     OW39319   3.630   0.521  15.007  0.0857  0.2645 -0.1111
 9286SOL    HW139320   3.542   0.552  15.028  0.2913  0.9555 -0.2725
 9286SOL    HW239321   3.658   0.589  14.945 -0.0722 -0.4848 -1.0154
 9287SOL     OW39322   1.418   2.190   2.911 -0.4182 -0.6578 -0.1148
 9287SOL    HW139323   1.470   2.141   2.975  0.5354  0.9371  0.3188
 9287SOL    HW239324   1.440   2.277   2.945 -3.8037  0.0852  0.2376
 9288SOL     OW39325   2.531   4.576   4.121 -0.2333 -0.0779 -0.6251
 9288SOL    HW139326   2.553   4.648   4.179 -1.5876 -0.0058 -0.2230
 9288SOL    HW239327   2.582   4.597   4.042  0.6269  3.2729  0.8473
 9289SOL     OW39328   0.128   4.188  13.754  0.2795  0.2868 -0.6610
 9289SOL    HW139329   0.102   4.107  13.708 -0.3755  0.6924 -1.0068
 9289SOL    HW239330   0.121   4.159  13.845 -1.4538 -0.3901 -1.0171
 9290SOL     OW39331   0.902   0.194   6.102  0.0239 -0.7122 -0.3947
 9290SOL    HW139332   0.840   0.148   6.046  0.2706 -1.9116  0.3102
 9290SOL    HW239333   0.961   0.122   6.125 -0.6493 -0.7257  1.2295
 9291SOL     OW39334   0.074   2.962   8.986 -0.3619 -0.0871  0.2033
 9291SOL    HW139335   0.136   2.944   9.056  0.9375 -0.5264 -1.0589
 9291SOL    HW239336   0.121   3.020   8.926 -2.6266 -0.4786 -1.9783
 9292SOL     OW39337   4.262   3.944   0.348 -0.2305  0.2460  0.6451
 9292SOL    HW139338   4.176   3.986   0.341 -0.9595 -1.6862 -2.0152
 9292SOL    HW239339   4.314   3.985   0.279 -0.6651 -0.4776 -0.1103
 9293SOL     OW39340   1.987   0.952   2.324  0.2064  0.0668  0.1152
 9293SOL    HW139341   2.067   0.917   2.363  1.5577  0.5680 -2.2080
 9293SOL    HW239342   2.004   0.944   2.231 -0.9209  0.3862 -0.1249
 9294SOL     OW39343   2.331   1.895   7.626 -0.2102  0.0441  0.6189
 9294SOL    HW139344   2.265   1.878   7.693  1.1258 -0.2603  1.8631
 9294SOL    HW239345   2.378   1.968   7.666 -0.1603  1.7736 -2.5768
 9295SOL     OW39346   0.188   0.359   7.640  0.3901 -0.6578 -0.1284
 9295SOL    HW139347   0.152   0.285   7.591 -0.7884  1.6824 -2.7743
 9295SOL    HW239348   0.158   0.332   7.727  2.7990 -1.1548  0.5571
 9296SOL     OW39349   3.692   2.722   8.085 -0.8363  0.6454  0.0299
 9296SOL    HW139350   3.717   2.796   8.031 -0.9932  0.6628 -0.0187
 9296SOL    HW239351   3.597   2.735   8.089 -1.1082 -1.1804 -0.4223
 9297SOL     OW39352   1.858   4.477   3.519  0.5198 -0.2749  0.2710
 9297SOL    HW139353   1.914   4.437   3.586  0.3733 -0.3257  0.3632
 9297SOL    HW239354   1.917   4.536   3.472 -0.7676 -0.2693 -1.3426
 9298SOL     OW39355   1.173   0.358   6.349 -0.1799 -0.5300 -0.4799
 9298SOL    HW139356   1.170   0.270   6.386  2.9366 -0.7571 -0.7528
 9298SOL    HW239357   1.227   0.405   6.412 -1.0471  1.7691 -1.4481
 9299SOL     OW39358   1.212   0.360   7.396 -0.0166 -0.1571 -0.4726
 9299SOL    HW139359   1.235   0.453   7.397 -0.8772  0.0737 -2.7549
 9299SOL    HW239360   1.118   0.360   7.416  0.4317  3.9064  1.6874
 9300SOL     OW39361   4.063   1.407   9.321 -0.6057  0.1401 -0.3684
 9300SOL    HW139362   3.991   1.400   9.384  0.7325 -0.0281  1.1358
 9300SOL    HW239363   4.119   1.330   9.328 -2.4967 -1.0923  1.4540
 9301SOL     OW39364   4.431   4.399   7.479 -0.5679  0.1460 -0.3053
 9301SOL    HW139365   4.462   4.368   7.394 -0.4299  1.2692 -0.6685
 9301SOL    HW239366   4.418   4.489   7.450 -2.1601 -0.2163 -0.7087
 9302SOL     OW39367   3.521   4.395   2.687  0.3460 -0.3829  0.0152
 9302SOL    HW139368   3.563   4.431   2.609  1.4200  1.8770  1.6120
 9302SOL    HW239369   3.497   4.305   2.665  2.6817 -1.2772  1.0367
 9303SOL     OW39370   0.643   3.221   2.252 -0.5212  0.7263 -0.4753
 9303SOL    HW139371   0.669   3.292   2.311  0.9511  0.0837 -0.3498
 9303SOL    HW239372   0.648   3.143   2.307 -1.6268  0.2923 -0.9790
 9304SOL     OW39373   0.009   3.598   1.957 -0.1743 -0.3687  0.4542
 9304SOL    HW139374   0.084   3.650   1.930  0.0413 -0.7808  0.2462
 9304SOL    HW239375   4.698   3.636   2.038  0.6138 -0.8533  1.0090
 9305SOL     OW39376   2.510   1.296  11.105  0.3387 -0.0171 -0.2685
 9305SOL    HW139377   2.479   1.267  11.019  1.7804 -1.6637 -0.2291
 9305SOL    HW239378   2.525   1.390  11.099 -2.4286  0.3349 -2.0133
 9306SOL     OW39379   1.500   4.569   5.099 -0.0892  0.4176 -0.4341
 9306SOL    HW139380   1.442   4.645   5.103 -0.3900  0.0885  1.1153
 9306SOL    HW239381   1.520   4.555   5.191  0.4820 -1.9845 -0.9270
 9307SOL     OW39382   2.836   3.196   6.244 -0.2639 -0.2723  0.0672
 9307SOL    HW139383   2.784   3.179   6.323 -0.1369 -0.7403  0.0465
 9307SOL    HW239384   2.888   3.116   6.245  1.4983  0.8592  0.8357
 9308SOL     OW39385   0.919   0.514  10.161  0.2559  0.2265 -0.2125
 9308SOL    HW139386   0.942   0.446  10.098  1.6406  1.4034 -0.9772
 9308SOL    HW239387   0.850   0.554  10.108 -1.2429 -1.1288  0.6771
 9309SOL     OW39388   4.000   2.970   6.047 -0.2044 -0.0908 -0.3599
 9309SOL    HW139389   4.076   2.975   6.104 -0.8175 -0.5232  0.4952
 9309SOL    HW239390   4.015   3.032   5.975  1.0514  1.4826  1.2549
 9310SOL     OW39391   0.543   0.349  12.639 -0.4291 -0.0271 -0.1009
 9310SOL    HW139392   0.567   0.384  12.725 -1.9176  0.4876  0.1160
 9310SOL    HW239393   0.509   0.428  12.598  1.1242  0.3660 -0.6199
 9311SOL     OW39394   0.924   4.337   5.102 -0.2008  0.5292  0.0237
 9311SOL    HW139395   0.932   4.318   5.009  2.3005  0.5485  0.2363
 9311SOL    HW239396   0.891   4.250   5.125  0.8925 -0.4267 -2.0327
 9312SOL     OW39397   2.036   4.394   9.658 -0.1111 -0.2153 -0.4552
 9312SOL    HW139398   2.001   4.449   9.727  1.1606  1.4378 -1.1134
 9312SOL    HW239399   2.035   4.451   9.581  1.5684  1.5379  0.8197
 9313SOL     OW39400   2.873   2.659   6.346  0.2478 -0.2807 -0.5691
 9313SOL    HW139401   2.809   2.705   6.400 -1.4375 -1.2271 -1.7777
 9313SOL    HW239402   2.945   2.646   6.408 -2.1939  1.9424  2.7087
 9314SOL     OW39403   0.201   0.532   3.482 -0.2958  0.0181 -0.0427
 9314SOL    HW139404   0.214   0.485   3.400 -1.3312 -1.3057  0.5489
 9314SOL    HW239405   0.116   0.490   3.496 -0.9353  0.9276 -1.2020
 9315SOL     OW39406   1.015   1.711   5.405 -0.3134  0.2459 -0.9376
 9315SOL    HW139407   0.934   1.660   5.401  0.3232 -0.7919 -0.6192
 9315SOL    HW239408   1.061   1.659   5.339  0.3243 -3.0066  2.0564
 9316SOL     OW39409   3.279   3.887  11.801  0.3827  0.3377  0.4450
 9316SOL    HW139410   3.269   3.817  11.866  0.3423  0.3243  0.4244
 9316SOL    HW239411   3.296   3.958  11.863  0.8080  0.1125  0.5872
 9317SOL     OW39412   0.283   3.504   5.174  0.1740  0.1426 -0.2592
 9317SOL    HW139413   0.358   3.450   5.149  0.4537  0.5110 -0.2206
 9317SOL    HW239414   0.288   3.500   5.269  0.8234 -1.0906 -0.3385
 9318SOL     OW39415   2.040   3.993  16.708 -0.0615  0.1843 -0.9272
 9318SOL    HW139416   2.078   4.077  16.683  0.1450  0.3579 -0.0556
 9318SOL    HW239417   2.075   3.936  16.640 -0.9361  0.9840 -2.0408
 9319SOL     OW39418   1.922   0.754  16.248 -0.0780  0.1069  0.6133
 9319SOL    HW139419   1.891   0.835  16.288 -1.9567  0.8599 -2.3624
 9319SOL    HW239420   1.843   0.707  16.220 -0.4418  1.0637  0.0533
 9320SOL     OW39421   3.025   0.400   4.959  0.2766  0.1092  0.3718
 9320SOL    HW139422   3.038   0.376   4.867 -0.2405 -2.5431  0.9749
 9320SOL    HW239423   3.031   0.316   5.004 -1.3589 -0.1628  0.0821
 9321SOL     OW39424   4.417   0.298   9.840  0.1583  0.1890  0.4997
 9321SOL    HW139425   4.497   0.246   9.851  0.7379  1.2430  1.2542
 9321SOL    HW239426   4.380   0.297   9.928  0.9090 -2.6188  0.7863
 9322SOL     OW39427   0.356   1.517   9.513  0.4028 -0.1220 -1.0664
 9322SOL    HW139428   0.359   1.609   9.541 -3.0197  0.0331 -1.2134
 9322SOL    HW239429   0.295   1.533   9.441  0.1915 -1.5949 -1.2076
 9323SOL     OW39430   1.718   4.134   4.116  0.0401  0.1226  0.1831
 9323SOL    HW139431   1.648   4.200   4.118  1.2989  1.4682 -0.2170
 9323SOL    HW239432   1.776   4.167   4.185  0.7950  3.8028 -2.2123
 9324SOL     OW39433   3.688   2.315   5.411 -0.0280 -0.0843  0.4688
 9324SOL    HW139434   3.740   2.235   5.406  0.9523  0.5829  0.0376
 9324SOL    HW239435   3.609   2.284   5.455 -0.9468 -0.2777 -1.3342
 9325SOL     OW39436   3.500   4.051   6.056 -0.1068  0.4529 -0.2396
 9325SOL    HW139437   3.469   3.963   6.036 -0.1824  0.4589 -0.1495
 9325SOL    HW239438   3.562   4.055   5.983  0.0293  0.0459 -0.1442
 9326SOL     OW39439   3.832   4.620   7.252  0.0272 -0.3004 -0.0049
 9326SOL    HW139440   3.901   4.681   7.224  0.8521 -1.4425 -0.4395
 9326SOL    HW239441   3.819   4.569   7.172 -1.4576 -1.2296  0.8431
 9327SOL     OW39442   1.603   1.106   6.059 -0.1793  0.2432 -0.3892
 9327SOL    HW139443   1.662   1.148   6.121 -1.9575 -0.9868  2.1339
 9327SOL    HW239444   1.518   1.133   6.092 -0.1155  0.5748 -0.5031
 9328SOL     OW39445   2.897   2.985   8.833 -0.3805 -0.1935  0.1087
 9328SOL    HW139446   2.982   2.966   8.791 -1.2775  0.5710 -2.0527
 9328SOL    HW239447   2.876   3.071   8.796  0.4358  0.3354  0.8864
 9329SOL     OW39448   2.003   1.313   8.070 -0.4437 -0.0937 -0.3301
 9329SOL    HW139449   2.091   1.280   8.052  0.1800  0.9160  0.8541
 9329SOL    HW239450   1.933   1.268   8.023 -0.0127 -1.9152  0.7933
 9330SOL     OW39451   0.308   1.118   1.221  0.3975 -0.6110 -0.0309
 9330SOL    HW139452   0.268   1.187   1.169  0.2812  0.0378  0.9236
 9330SOL    HW239453   0.330   1.051   1.156 -1.2191  2.5746 -3.8310
 9331SOL     OW39454   1.540   1.912   1.957  0.9145  0.4116  0.0495
 9331SOL    HW139455   1.525   1.930   2.050  0.8668 -2.8402  0.6733
 9331SOL    HW239456   1.584   1.827   1.961 -0.5650 -0.4152 -1.3414
 9332SOL     OW39457   2.529   3.964   0.023  0.5024 -0.0826 -0.1741
 9332SOL    HW139458   2.624   3.958   0.032  0.4450 -1.5196 -0.4780
 9332SOL    HW239459   2.518   3.869   0.013  2.3678 -0.1017 -2.0054
 9333SOL     OW39460   1.726   3.098   6.640  0.5572 -0.5993  0.5118
 9333SOL    HW139461   1.761   3.010   6.653 -0.0979 -1.0037 -0.4183
 9333SOL    HW239462   1.688   3.090   6.552  1.6377  0.6294 -0.0729
 9334SOL     OW39463   2.314   0.926  13.196 -0.2683  0.1701 -0.5374
 9334SOL    HW139464   2.282   0.847  13.153 -2.6030 -0.3724  2.2334
 9334SOL    HW239465   2.247   0.957  13.257  0.5028 -0.6981  0.7488
 9335SOL     OW39466   1.580   0.408   4.091  0.4235  0.1463  0.1915
 9335SOL    HW139467   1.516   0.376   4.154  0.2080 -2.6207 -1.4324
 9335SOL    HW239468   1.528   0.409   4.010 -0.0847  1.3436  0.5377
 9336SOL     OW39469   0.660   4.132   0.571  0.9373 -0.7671  0.4309
 9336SOL    HW139470   0.745   4.091   0.581  1.7300  1.2467  1.8830
 9336SOL    HW239471   0.675   4.202   0.634 -1.5529  0.8817 -0.7993
 9337SOL     OW39472   3.323   4.610   2.620  0.1107 -0.4122 -0.5683
 9337SOL    HW139473   3.251   4.600   2.682  0.4695  1.5332  0.1627
 9337SOL    HW239474   3.384   4.538   2.637  2.1752  0.9316 -2.1354
 9338SOL     OW39475   0.917   2.874   1.438 -0.0988 -0.0528  0.0633
 9338SOL    HW139476   0.909   2.796   1.492 -1.0988  1.0131  1.4439
 9338SOL    HW239477   0.860   2.933   1.488 -0.9416 -0.2850 -0.6133
 9339SOL     OW39478   4.018   3.545   7.249 -0.3460 -0.5128  0.0805
 9339SOL    HW139479   4.012   3.567   7.342  0.5758  0.2598 -0.0475
 9339SOL    HW239480   4.079   3.471   7.258  0.6523  0.3630  0.4285
 9340SOL     OW39481   2.761   0.875   4.910  0.2637  0.2613  0.2702
 9340SOL    HW139482   2.816   0.937   4.958  1.4017 -0.7184  0.2455
 9340SOL    HW239483   2.722   0.936   4.847 -1.1946 -3.4607 -2.4403
 9341SOL     OW39484   1.979   3.093  10.681  0.7039  0.9250 -0.0669
 9341SOL    HW139485   1.950   3.003  10.691 -0.1541  1.4145  1.8482
 9341SOL    HW239486   2.014   3.112  10.767 -0.3997  0.5559  0.4647
 9342SOL     OW39487   4.592   1.746   6.351  0.0906 -0.8118  0.3471
 9342SOL    HW139488   4.563   1.821   6.403  2.4547  0.3796 -0.0309
 9342SOL    HW239489   4.683   1.771   6.335 -1.5791  3.5537 -2.1867
 9343SOL     OW39490   3.002   1.755   7.197 -0.0259  0.4534  0.1293
 9343SOL    HW139491   3.015   1.735   7.290 -0.3745  1.3826  0.3757
 9343SOL    HW239492   2.908   1.774   7.202 -0.2887 -0.7336 -0.3112
 9344SOL     OW39493   0.431   3.838   3.202  0.3073  0.0763 -0.0255
 9344SOL    HW139494   0.452   3.773   3.269 -0.0880  0.4415  0.4583
 9344SOL    HW239495   0.367   3.789   3.151 -0.6347 -0.2442  1.4613
 9345SOL     OW39496   0.732   1.850   7.354  0.1189  0.2830 -0.3266
 9345SOL    HW139497   0.732   1.943   7.328 -1.6297 -0.3555 -2.6175
 9345SOL    HW239498   0.690   1.843   7.440 -0.3546  1.6546 -0.4419
 9346SOL     OW39499   1.441   2.311   1.796 -0.1984 -0.3025 -0.2411
 9346SOL    HW139500   1.430   2.362   1.716  1.5230  1.9111  0.9394
 9346SOL    HW239501   1.418   2.385   1.853  2.5253  0.8013 -0.5746
 9347SOL     OW39502   1.505   2.144   5.330 -0.1095 -0.8143 -0.0170
 9347SOL    HW139503   1.560   2.221   5.342 -2.6696  1.2758 -1.5756
 9347SOL    HW239504   1.426   2.179   5.288 -0.7169 -0.3095  1.5259
 9348SOL     OW39505   4.482   4.003   5.122  0.0934 -0.2800 -0.1312
 9348SOL    HW139506   4.566   3.961   5.106  0.7611  1.2497 -0.7064
 9348SOL    HW239507   4.427   3.944   5.070  0.8360 -1.6933  0.6900
 9349SOL     OW39508   2.503   0.802  14.590 -0.7221 -0.6035 -0.3455
 9349SOL    HW139509   2.476   0.846  14.670 -0.7011 -2.0851  0.4652
 9349SOL    HW239510   2.564   0.863  14.548 -0.5996 -0.2999  0.2792
 9350SOL     OW39511   1.203   4.644   0.920  0.0519 -0.3953  0.5076
 9350SOL    HW139512   1.153   4.563   0.935  0.5619 -0.4144  2.1178
 9350SOL    HW239513   1.280   4.622   0.973 -0.3445  0.8273  1.5798
 9351SOL     OW39514   2.584   2.090  14.691 -0.1162  0.3543  0.0506
 9351SOL    HW139515   2.521   2.108  14.622  0.5809 -1.2558 -1.0173
 9351SOL    HW239516   2.621   2.006  14.666 -1.0428  0.0077 -0.1431
 9352SOL     OW39517   3.836   3.001   3.182 -0.3519  0.2149 -0.5090
 9352SOL    HW139518   3.906   2.966   3.237  0.1689  2.5672  0.3236
 9352SOL    HW239519   3.892   3.040   3.114  0.0764 -0.1245 -0.3551
 9353SOL     OW39520   0.161   2.169  12.142  0.0957 -0.3216 -1.0956
 9353SOL    HW139521   0.076   2.141  12.175 -0.1171 -1.9142 -3.0246
 9353SOL    HW239522   0.161   2.117  12.062  1.2792 -3.2345  0.8099
 9354SOL     OW39523   3.345   0.221   8.652 -0.1584  0.2826  0.2885
 9354SOL    HW139524   3.325   0.309   8.621 -2.2714 -0.1788  0.2801
 9354SOL    HW239525   3.424   0.229   8.705 -0.7698 -3.2312  1.7536
 9355SOL     OW39526   2.483   1.233   5.960 -0.0581 -0.4022 -0.4430
 9355SOL    HW139527   2.417   1.258   5.895 -0.7590 -0.2065  0.3451
 9355SOL    HW239528   2.559   1.252   5.904  0.7629 -2.1190  0.0942
 9356SOL     OW39529   2.278   1.436  10.889  0.5315  0.7190 -1.2851
 9356SOL    HW139530   2.309   1.494  10.820  0.7408  1.0618 -0.9042
 9356SOL    HW239531   2.320   1.351  10.872  0.1307  0.4020 -0.6857
 9357SOL     OW39532   3.922   3.737  10.599  0.4542 -0.6666 -0.4815
 9357SOL    HW139533   3.989   3.801  10.576 -0.6400  0.6908  0.0796
 9357SOL    HW239534   3.909   3.686  10.519 -0.1853  0.9220 -1.4036
 9358SOL     OW39535   0.516   2.206   7.170 -0.4677  0.5858 -0.5217
 9358SOL    HW139536   0.469   2.126   7.197 -0.4301  0.9196  0.5033
 9358SOL    HW239537   0.598   2.204   7.219 -0.1279  1.1224 -1.0717
 9359SOL     OW39538   2.025   2.564   5.680 -0.3347  0.0591 -0.4194
 9359SOL    HW139539   2.110   2.533   5.710 -0.4027  0.5746  0.3061
 9359SOL    HW239540   1.987   2.481   5.652  0.8403  0.5026 -3.3433
 9360SOL     OW39541   1.705   0.696   2.921  0.3087 -0.2388 -0.2385
 9360SOL    HW139542   1.649   0.618   2.920 -1.1208  0.7916  0.5361
 9360SOL    HW239543   1.739   0.693   2.831 -1.5089 -1.9108 -0.8568
 9361SOL     OW39544   0.028   4.522   6.220 -0.1180  0.1059  0.4201
 9361SOL    HW139545   4.711   4.598   6.178  0.1662  0.6646  1.1831
 9361SOL    HW239546   0.121   4.540   6.233 -0.2177  0.5185  0.5494
 9362SOL     OW39547   2.413   2.157  11.195  0.5466  0.3662 -0.3700
 9362SOL    HW139548   2.491   2.212  11.187 -0.1073  0.9835 -2.6585
 9362SOL    HW239549   2.413   2.108  11.113 -0.3423 -1.8985  0.9886
 9363SOL     OW39550   4.297   4.152  15.652  0.8288  0.6029 -0.0957
 9363SOL    HW139551   4.208   4.155  15.619  1.1802  0.8793 -1.0174
 9363SOL    HW239552   4.339   4.112  15.575 -2.5843  0.6232 -1.9557
 9364SOL     OW39553   0.527   3.262  12.277  0.1562  0.0652  0.1172
 9364SOL    HW139554   0.613   3.240  12.241  0.7621  2.8862 -0.2200
 9364SOL    HW239555   0.516   3.352  12.245 -1.3449 -0.1903 -0.0636
 9365SOL     OW39556   1.385   2.365   8.071 -0.3651  0.3839  0.3525
 9365SOL    HW139557   1.371   2.323   8.156  0.1577  0.3825  0.4342
 9365SOL    HW239558   1.299   2.380   8.031 -0.1815  0.1452 -0.1380
 9366SOL     OW39559   3.768   4.100   3.045  0.1349 -0.5101  0.4463
 9366SOL    HW139560   3.774   4.137   3.133 -2.8793 -0.1043  0.4542
 9366SOL    HW239561   3.704   4.162   3.011  0.5833  0.5840  1.5982
 9367SOL     OW39562   3.627   4.270   8.082 -0.1721  0.2884  0.4462
 9367SOL    HW139563   3.623   4.178   8.107  0.6603  0.2599  0.4549
 9367SOL    HW239564   3.664   4.264   7.995  1.6691 -2.7406  1.4419
 9368SOL     OW39565   2.342   4.389   6.432  0.1011  0.7942  0.0939
 9368SOL    HW139566   2.427   4.346   6.432 -0.7766 -0.9387  1.4354
 9368SOL    HW239567   2.363   4.469   6.384  2.6328  1.0421  1.6562
 9369SOL     OW39568   1.940   3.457   4.693 -0.0049  0.4411  0.1110
 9369SOL    HW139569   1.950   3.400   4.770 -3.7595 -1.1921 -0.6144
 9369SOL    HW239570   1.939   3.539   4.742  1.3786  1.5650 -1.7705
 9370SOL     OW39571   4.357   1.253   8.963  0.7203  0.0421  0.4269
 9370SOL    HW139572   4.306   1.333   8.974 -0.2815 -0.4464 -0.6458
 9370SOL    HW239573   4.312   1.212   8.890 -0.2055  1.4132  0.2275
 9371SOL     OW39574   1.269   3.032  14.185  0.2306  0.0570  0.2236
 9371SOL    HW139575   1.300   3.119  14.210 -0.7551  1.1426 -2.2868
 9371SOL    HW239576   1.315   3.021  14.102 -1.9808  1.6285 -1.2303
 9372SOL     OW39577   3.309   2.280   2.453 -0.6076 -0.0748  0.0196
 9372SOL    HW139578   3.299   2.364   2.409  0.6636  1.6154  2.9140
 9372SOL    HW239579   3.323   2.217   2.382  0.3309 -1.1760  1.1814
 9373SOL     OW39580   0.458   2.082   2.155  0.4221 -0.2351 -0.1717
 9373SOL    HW139581   0.450   2.010   2.218 -0.8702  0.1394  0.1091
 9373SOL    HW239582   0.380   2.068   2.101  1.8991 -3.7119 -1.3963
 9374SOL     OW39583   1.952   1.456   2.078  0.2267 -0.1722 -0.6411
 9374SOL    HW139584   2.005   1.421   2.150 -2.1467 -1.5902  0.4264
 9374SOL    HW239585   1.889   1.509   2.128  0.3726 -0.8976  0.3189
 9375SOL     OW39586   1.194   0.820   8.118  0.1264  0.2405 -0.1353
 9375SOL    HW139587   1.151   0.817   8.204 -2.1113 -0.8237 -1.2898
 9375SOL    HW239588   1.174   0.909   8.090 -1.5625  0.2811  1.1541
 9376SOL     OW39589   0.595   1.132   7.371 -0.3410 -0.2495 -0.2834
 9376SOL    HW139590   0.686   1.160   7.357 -0.9408  1.7472 -0.2265
 9376SOL    HW239591   0.556   1.128   7.283  3.4811 -5.0801 -1.7566
 9377SOL     OW39592   4.581   1.318  10.467  0.1745  0.3739  0.1249
 9377SOL    HW139593   4.538   1.233  10.479  1.3481  0.1885  3.0509
 9377SOL    HW239594   4.509   1.377  10.491  0.7535  1.3179 -0.5004
 9378SOL     OW39595   0.759   2.212   3.717 -0.1290  0.1823 -0.3962
 9378SOL    HW139596   0.843   2.169   3.730  0.8501  2.1063 -0.4000
 9378SOL    HW239597   0.785   2.303   3.726  0.0166  0.1573 -0.5538
 9379SOL     OW39598   4.086   2.728   5.621 -0.3641  0.1021 -0.2505
 9379SOL    HW139599   4.033   2.711   5.698  2.0123  1.3863  1.6610
 9379SOL    HW239600   4.022   2.761   5.558  1.7130  0.9271 -1.9306
 9380SOL     OW39601   2.131   3.608   6.485  1.2199  0.7781  0.0477
 9380SOL    HW139602   2.124   3.514   6.502  2.4215  0.8183  0.7760
 9380SOL    HW239603   2.043   3.634   6.459  1.2672  0.1504 -0.7186
 9381SOL     OW39604   4.314   3.131   2.989 -0.5495 -0.2150 -0.5188
 9381SOL    HW139605   4.368   3.166   3.060 -2.6395  0.1681  0.8921
 9381SOL    HW239606   4.344   3.040   2.987  1.3519  0.4401 -2.2697
 9382SOL     OW39607   0.757   2.724  13.458  0.2031 -0.4966 -0.3767
 9382SOL    HW139608   0.751   2.632  13.435 -1.3259 -0.4691 -0.0660
 9382SOL    HW239609   0.686   2.756  13.403 -1.0560  0.6580  1.8851
 9383SOL     OW39610   1.603   3.663   3.705 -0.0295  0.5102 -0.1285
 9383SOL    HW139611   1.588   3.666   3.611 -0.7105  0.6815 -0.0190
 9383SOL    HW239612   1.669   3.731   3.716  1.8370 -1.5958  1.9414
 9384SOL     OW39613   3.012   4.279   9.069 -0.2659 -0.2606 -0.0737
 9384SOL    HW139614   3.005   4.184   9.074  0.6318 -0.3539 -0.5649
 9384SOL    HW239615   3.100   4.291   9.105 -0.3445 -0.3830  0.1555
 9385SOL     OW39616   3.916   0.860   1.880  0.3855  0.8906 -0.2525
 9385SOL    HW139617   3.930   0.903   1.796  0.1402  0.5321 -0.4756
 9385SOL    HW239618   3.998   0.888   1.921 -0.2395  1.7883  0.4011
 9386SOL     OW39619   0.410   2.514   3.918 -0.6386 -0.1131  0.3018
 9386SOL    HW139620   0.431   2.464   3.839 -1.4083 -1.4168  0.9200
 9386SOL    HW239621   0.377   2.594   3.879  0.7465  0.0384 -0.5269
 9387SOL     OW39622   2.957   0.893  17.471 -0.2317  0.0230 -0.2804
 9387SOL    HW139623   2.951   0.966  17.409 -1.1093 -1.9010 -2.4728
 9387SOL    HW239624   2.875   0.845  17.458 -2.2374  3.6925 -1.0189
 9388SOL     OW39625   3.275   3.486   1.134  0.7334  0.1023  0.2317
 9388SOL    HW139626   3.345   3.423   1.154  0.0071 -0.1011  2.1373
 9388SOL    HW239627   3.272   3.542   1.211 -1.3352  2.8166 -1.8257
 9389SOL     OW39628   3.587   4.619  13.035  0.0830  0.2262  0.6392
 9389SOL    HW139629   3.679   4.646  13.038  0.5062 -1.1248  0.0267
 9389SOL    HW239630   3.557   4.665  13.113 -0.7768 -0.1798  0.5523
 9390SOL     OW39631   1.343   2.723  15.194  0.4667  0.0948  0.6603
 9390SOL    HW139632   1.295   2.783  15.137  1.8373  1.5681  1.0325
 9390SOL    HW239633   1.374   2.786  15.259  0.7219  2.8016 -2.0725
 9391SOL     OW39634   2.571   2.343   5.371  0.1589 -0.6448 -0.7438
 9391SOL    HW139635   2.525   2.411   5.420 -0.4012 -1.3160 -0.3309
 9391SOL    HW239636   2.590   2.387   5.288 -0.6830 -1.6984 -1.5021
 9392SOL     OW39637   0.643   3.880   6.894 -0.2540 -0.0382 -0.1552
 9392SOL    HW139638   0.716   3.827   6.925  0.2510  0.9983  0.4111
 9392SOL    HW239639   0.607   3.914   6.975 -0.4718  1.9602 -1.0879
 9393SOL     OW39640   0.562   4.343   6.581  0.4514 -0.1705  0.4124
 9393SOL    HW139641   0.579   4.277   6.648  2.0285  1.4971  1.6761
 9393SOL    HW239642   0.633   4.309   6.525  1.1326  3.4193 -0.9009
 9394SOL     OW39643   0.058   4.720  14.645 -0.2504 -0.2263 -0.3261
 9394SOL    HW139644   0.017   0.006  14.559 -1.1085 -1.1057 -0.0084
 9394SOL    HW239645   0.107   0.080  14.646  0.8283 -0.8923  1.0481
 9395SOL     OW39646   0.937   3.423  11.653  0.3962  0.0034  0.0537
 9395SOL    HW139647   0.992   3.345  11.658 -0.0315 -0.2510  0.9673
 9395SOL    HW239648   0.878   3.404  11.581  1.0341 -2.9041  0.2910
 9396SOL     OW39649   0.395   1.806  13.035 -0.1391 -0.2515  0.0419
 9396SOL    HW139650   0.319   1.774  13.083  0.1859 -2.1133 -0.6782
 9396SOL    HW239651   0.461   1.738  13.050 -1.1719 -0.6436  2.7417
 9397SOL     OW39652   3.252   3.588   5.799  0.6904 -0.4458 -0.0124
 9397SOL    HW139653   3.294   3.573   5.884 -1.7607  0.1311  1.2861
 9397SOL    HW239654   3.243   3.682   5.813 -1.2824 -0.6172 -0.1855
 9398SOL     OW39655   1.316   0.747   7.879  0.3370  0.4254  0.1745
 9398SOL    HW139656   1.346   0.789   7.960 -1.1090  0.5739  0.6491
 9398SOL    HW239657   1.223   0.770   7.884 -0.8190 -3.2954 -4.6859
 9399SOL     OW39658   0.385   0.214   2.839  0.3266 -0.1304  0.4186
 9399SOL    HW139659   0.305   0.182   2.799  0.5205 -0.0440 -0.0420
 9399SOL    HW239660   0.374   0.208   2.934  1.0340 -0.3229  0.4884
 9400SOL     OW39661   0.145   2.354   4.706 -0.6026 -0.7076 -0.5610
 9400SOL    HW139662   0.230   2.364   4.663 -0.1703 -1.0301  0.2130
 9400SOL    HW239663   0.131   2.260   4.697 -3.6423 -0.2858 -0.0664
 9401SOL     OW39664   1.614   0.841   1.790 -0.2307 -0.4425  0.2728
 9401SOL    HW139665   1.601   0.857   1.883 -0.2594 -1.1121  0.3849
 9401SOL    HW239666   1.618   0.745   1.791  1.2689 -0.3741  0.7385
 9402SOL     OW39667   3.492   0.611  12.778  0.0138 -0.2737  0.2246
 9402SOL    HW139668   3.537   0.696  12.780 -2.4149  1.0752 -1.5778
 9402SOL    HW239669   3.549   0.555  12.831  0.8512 -1.9555 -2.4497
 9403SOL     OW39670   2.641   0.561  12.985  0.1051 -0.0222  0.1600
 9403SOL    HW139671   2.548   0.583  12.991 -0.5756 -2.5821 -1.1553
 9403SOL    HW239672   2.639   0.466  12.991 -0.3795  0.1107  2.0731
 9404SOL     OW39673   1.695   0.018  12.371 -0.0538  0.3685 -0.6513
 9404SOL    HW139674   1.676   0.095  12.316 -0.1335  0.4413 -0.5198
 9404SOL    HW239675   1.622   4.686  12.343 -2.4094  3.0250  0.3190
 9405SOL     OW39676   4.302   0.114   7.598 -0.3422  0.0406 -0.0283
 9405SOL    HW139677   4.212   0.106   7.631 -0.5723  0.3663 -0.5933
 9405SOL    HW239678   4.342   0.062   7.668 -0.9881 -3.0987 -2.0042
 9406SOL     OW39679   4.101   0.739  12.898 -0.3935 -0.2967  0.0158
 9406SOL    HW139680   4.124   0.779  12.814 -0.1186  0.2490  0.3581
 9406SOL    HW239681   4.180   0.695  12.928 -2.0507 -2.1506  1.7117
 9407SOL     OW39682   1.353   0.306   1.080  0.2263 -0.1320 -0.1101
 9407SOL    HW139683   1.366   0.237   1.145  1.4478 -1.2311 -1.5048
 9407SOL    HW239684   1.443   0.309   1.046  0.6391 -0.6289  0.9233
 9408SOL     OW39685   4.588   0.886  13.228  0.0156  0.3064  0.4056
 9408SOL    HW139686   4.535   0.935  13.165  0.9442 -0.0337 -0.6516
 9408SOL    HW239687   4.535   0.812  13.257  2.0183 -1.1594  0.3627
 9409SOL     OW39688   1.427   0.154   1.445 -0.1384 -0.1334 -0.0459
 9409SOL    HW139689   1.355   0.197   1.399 -1.3691 -2.6076 -0.3938
 9409SOL    HW239690   1.408   0.063   1.426 -0.4753 -0.1276  0.2777
 9410SOL     OW39691   4.538   3.371   5.150 -0.1640  0.4972  0.2122
 9410SOL    HW139692   4.617   3.369   5.203 -0.9401 -0.0305  1.3506
 9410SOL    HW239693   4.560   3.442   5.089  1.0345  1.2168  1.4712
 9411SOL     OW39694   4.024   2.071   6.187  0.0734  0.2310  0.0481
 9411SOL    HW139695   4.040   1.996   6.130  0.4935 -0.4811  1.0811
 9411SOL    HW239696   4.050   2.134   6.121  1.2363  2.2048  2.3902
 9412SOL     OW39697   4.427   2.528   7.713  0.0583 -0.5464 -0.0392
 9412SOL    HW139698   4.392   2.609   7.749  0.0501 -0.2288 -0.7577
 9412SOL    HW239699   4.449   2.498   7.801  0.4796 -1.7651 -0.5549
 9413SOL     OW39700   0.331   0.378   7.189  0.2460 -0.4988 -0.2924
 9413SOL    HW139701   0.252   0.389   7.135 -0.4310 -0.6186  0.6700
 9413SOL    HW239702   0.392   0.434   7.141 -1.5557 -0.0113 -2.0355
 9414SOL     OW39703   3.011   1.566  13.386  0.4331 -0.2380 -0.0358
 9414SOL    HW139704   2.931   1.530  13.423  0.9419 -1.6470 -0.3189
 9414SOL    HW239705   2.980   1.652  13.357 -3.0169 -1.2423  0.6675
 9415SOL     OW39706   1.379   1.095   3.155 -0.5143 -0.3480  0.8548
 9415SOL    HW139707   1.406   1.178   3.117  1.3275  0.3808  3.7492
 9415SOL    HW239708   1.323   1.059   3.086  1.6947  0.0032 -1.1435
 9416SOL     OW39709   2.979   3.009   5.418  0.2395 -0.2198 -0.2563
 9416SOL    HW139710   2.967   3.079   5.354  0.8588 -0.7178 -0.9232
 9416SOL    HW239711   2.994   3.062   5.496 -0.9135  0.1577 -0.2899
 9417SOL     OW39712   2.152   0.459   8.644 -0.8928  0.0762  0.2251
 9417SOL    HW139713   2.088   0.526   8.667 -3.9855 -2.8410  0.3061
 9417SOL    HW239714   2.089   0.387   8.655  0.3101 -0.6403  2.4003
 9418SOL     OW39715   4.708   3.742  11.206  0.1229 -0.0163  0.3287
 9418SOL    HW139716   4.658   3.751  11.287  0.0518  0.3815  0.2446
 9418SOL    HW239717   4.662   3.792  11.139 -1.3308 -2.8152 -0.7320
 9419SOL     OW39718   2.409   1.173   7.002  0.2994 -0.1162  0.4137
 9419SOL    HW139719   2.413   1.078   7.012  0.0730 -0.4177 -2.5379
 9419SOL    HW239720   2.323   1.184   6.962  0.5978  0.7786  0.0319
 9420SOL     OW39721   0.569   2.082  14.866  0.1903  0.1227  0.3236
 9420SOL    HW139722   0.497   2.027  14.838 -0.0581  0.0446  1.1059
 9420SOL    HW239723   0.517   2.162  14.864  0.5153  0.3815  2.1553
 9421SOL     OW39724   3.791   0.563   2.769 -0.6562 -0.4432 -0.0277
 9421SOL    HW139725   3.701   0.553   2.738 -0.3315 -4.2543  0.2097
 9421SOL    HW239726   3.797   0.658   2.759 -0.4590 -0.2818  1.5349
 9422SOL     OW39727   3.493   2.653   5.662  0.3704  0.5522  0.3700
 9422SOL    HW139728   3.545   2.669   5.741  1.5991  1.5481 -0.6337
 9422SOL    HW239729   3.557   2.681   5.596  1.1121  2.1012  1.7473
 9423SOL     OW39730   3.816   1.047   5.978 -0.3654 -0.1604  0.0997
 9423SOL    HW139731   3.744   1.035   6.040  1.6414 -1.4972  2.1862
 9423SOL    HW239732   3.862   1.121   6.017 -1.6300 -0.2223  1.7042
 9424SOL     OW39733   1.309   4.637  15.106  0.0193  0.0880 -0.4803
 9424SOL    HW139734   1.260   4.587  15.040 -0.1193 -0.8235  0.3147
 9424SOL    HW239735   1.394   4.633  15.063 -0.1565 -0.2171 -0.8060
 9425SOL     OW39736   2.577   0.962   1.688 -0.5368 -0.4721 -0.2458
 9425SOL    HW139737   2.585   0.877   1.733  0.8055 -0.3957 -0.3438
 9425SOL    HW239738   2.660   0.977   1.643 -1.0961 -2.8980 -2.1029
 9426SOL     OW39739   2.030   4.098   1.131 -0.3588  0.1247  0.4349
 9426SOL    HW139740   2.089   4.163   1.169 -0.4526  0.9190 -0.7795
 9426SOL    HW239741   1.947   4.145   1.137  0.4545  1.6188 -0.1729
 9427SOL     OW39742   2.649   1.006   7.144 -0.1324 -0.3967 -0.0500
 9427SOL    HW139743   2.554   0.998   7.134  0.0836 -2.0837 -0.7839
 9427SOL    HW239744   2.671   0.925   7.097 -1.8436  0.1405 -1.7700
 9428SOL     OW39745   2.535   2.724  13.198 -0.0936  0.2882 -0.0791
 9428SOL    HW139746   2.559   2.785  13.268 -1.5236 -1.4564  1.9516
 9428SOL    HW239747   2.462   2.679  13.241 -0.7009  1.5752  0.2487
 9429SOL     OW39748   4.268   4.608   6.589 -0.2065 -0.5598  0.1007
 9429SOL    HW139749   4.216   4.548   6.643  0.1290 -0.7808  0.1775
 9429SOL    HW239750   4.213   4.624   6.512  1.1811 -0.0629 -0.7816
 9430SOL     OW39751   3.940   2.549   3.254 -0.0442  0.7018  0.3729
 9430SOL    HW139752   4.012   2.504   3.209  1.3067  2.7139  0.5300
 9430SOL    HW239753   3.866   2.550   3.193  2.1916 -1.1922 -2.3959
 9431SOL     OW39754   2.187   3.252  13.788 -0.0560  0.1895 -0.8679
 9431SOL    HW139755   2.254   3.316  13.766  0.3209 -0.0074 -0.3017
 9431SOL    HW239756   2.105   3.299  13.778 -0.3493  0.4505  3.0239
 9432SOL     OW39757   1.733   4.339  10.324 -0.3176  0.3927 -0.4403
 9432SOL    HW139758   1.782   4.293  10.392 -1.9475 -1.5304 -0.5558
 9432SOL    HW239759   1.800   4.353  10.258 -0.9944  0.1496 -1.1755
 9433SOL     OW39760   4.558   4.573   3.381  0.2927  0.0091  0.2359
 9433SOL    HW139761   4.551   4.596   3.474 -0.1332  3.8397 -0.7646
 9433SOL    HW239762   4.652   4.558   3.374  0.3673  1.9038 -2.8237
 9434SOL     OW39763   3.823   3.419   4.400  0.1471  0.6468  0.0475
 9434SOL    HW139764   3.878   3.401   4.477  2.0440  0.9807 -1.2280
 9434SOL    HW239765   3.883   3.440   4.329  0.3072  0.8486  0.2414
 9435SOL     OW39766   1.463   0.357   6.186 -0.3776  0.2923  0.1305
 9435SOL    HW139767   1.376   0.392   6.207  0.0168  0.9492  0.6662
 9435SOL    HW239768   1.490   0.309   6.265  1.8387  2.1828  0.4993
 9436SOL     OW39769   3.861   1.305  17.022 -0.1090 -0.2041  0.0844
 9436SOL    HW139770   3.811   1.379  16.988  1.1025  0.5225 -0.1480
 9436SOL    HW239771   3.944   1.349  17.041  0.4086 -1.5886  1.0863
 9437SOL     OW39772   0.214   3.876   7.249  0.4183 -0.3225 -0.2466
 9437SOL    HW139773   0.128   3.855   7.213  1.0616  0.0816 -2.0664
 9437SOL    HW239774   0.224   3.972   7.251  0.0320 -0.3290  1.5059
 9438SOL     OW39775   4.107   0.348   4.874  0.3523  0.2919 -0.0788
 9438SOL    HW139776   4.169   0.276   4.860  0.1852  0.0947  0.2049
 9438SOL    HW239777   4.080   0.362   4.784 -0.3840  0.1428  0.1219
 9439SOL     OW39778   4.300   0.256   5.087 -0.1055 -0.0283  0.3661
 9439SOL    HW139779   4.261   0.344   5.089  1.1059  0.4662  2.1278
 9439SOL    HW239780   4.343   0.257   5.173  0.4956 -1.2443  0.0805
 9440SOL     OW39781   4.362   3.755   5.594 -0.1440  0.1913 -0.2956
 9440SOL    HW139782   4.393   3.665   5.581  0.7061  0.4770 -0.2585
 9440SOL    HW239783   4.365   3.777   5.501 -3.6309 -0.1897 -0.4756
 9441SOL     OW39784   2.573   0.686   7.550 -0.3739 -0.3840  0.1534
 9441SOL    HW139785   2.522   0.753   7.595  0.2839 -0.1708  0.5783
 9441SOL    HW239786   2.572   0.702   7.455  0.2791 -1.4721 -0.0364
 9442SOL     OW39787   4.118   1.847   0.717 -0.4751 -0.1488 -0.4889
 9442SOL    HW139788   4.040   1.879   0.762 -0.6888 -0.7024 -0.4691
 9442SOL    HW239789   4.153   1.933   0.692  1.1005 -0.9303 -0.9989
 9443SOL     OW39790   3.196   3.658   7.321  0.0162  0.1575  0.1039
 9443SOL    HW139791   3.208   3.564   7.313  0.4513  0.0175  2.4750
 9443SOL    HW239792   3.130   3.669   7.389  0.1774 -3.2047  0.8149
 9444SOL     OW39793   4.619   0.329   8.355 -0.0186  0.6994  0.5091
 9444SOL    HW139794   4.607   0.310   8.447  1.9391 -0.7774  0.4538
 9444SOL    HW239795   4.528   0.308   8.335  0.9507 -1.1245 -1.9617
 9445SOL     OW39796   2.476   3.000   6.129 -0.3017 -0.1026  0.2018
 9445SOL    HW139797   2.469   3.070   6.195 -1.1837  2.5967 -2.7481
 9445SOL    HW239798   2.395   2.949   6.122 -0.4601  0.1480  0.2122
 9446SOL     OW39799   1.715   2.485  16.620 -0.2192 -0.1518 -0.0319
 9446SOL    HW139800   1.619   2.485  16.622 -0.1681  3.8713  2.3540
 9446SOL    HW239801   1.723   2.429  16.543 -0.3365 -1.2213  0.7357
 9447SOL     OW39802   1.836   2.371   5.609 -0.2922 -0.0138  0.1652
 9447SOL    HW139803   1.815   2.344   5.520 -0.6598  0.1040  0.2159
 9447SOL    HW239804   1.811   2.299   5.668  1.7680 -1.7973 -1.1553
 9448SOL     OW39805   2.925   1.327  10.274  1.0034 -0.5081  0.1612
 9448SOL    HW139806   2.879   1.410  10.261  0.3914 -0.9343 -0.4049
 9448SOL    HW239807   2.860   1.269  10.314 -0.4821  0.9028 -0.2104
 9449SOL     OW39808   2.203   2.963  16.502 -0.3443 -0.1857  0.9791
 9449SOL    HW139809   2.251   3.031  16.454  0.0174  0.1624  1.8358
 9449SOL    HW239810   2.153   3.014  16.565  1.2752  1.2013  1.1377
 9450SOL     OW39811   3.379   1.128   6.115 -0.2934 -0.3699 -0.3656
 9450SOL    HW139812   3.467   1.122   6.153 -0.1849 -2.4016 -0.9172
 9450SOL    HW239813   3.393   1.105   6.023  0.5320  0.4517 -0.4539
 9451SOL     OW39814   1.568   1.651   7.644 -0.2158  0.0878 -0.4051
 9451SOL    HW139815   1.567   1.563   7.681  0.9197  0.5838  0.7888
 9451SOL    HW239816   1.639   1.639   7.580 -0.1681 -1.2317 -0.1193
 9452SOL     OW39817   2.678   2.539   6.695 -0.0735 -0.4150  0.1809
 9452SOL    HW139818   2.607   2.574   6.749 -1.2779 -3.4326  0.5998
 9452SOL    HW239819   2.650   2.447   6.690 -0.0650 -0.4734  1.2294
 9453SOL     OW39820   3.948   2.327   3.083 -0.7161  0.1713  0.0833
 9453SOL    HW139821   3.994   2.344   3.000 -0.6093 -0.7485 -0.0558
 9453SOL    HW239822   3.865   2.311   3.038 -1.0159 -0.8971  1.0102
 9454SOL     OW39823   2.197   0.843   4.170  0.0070  0.9458  0.0808
 9454SOL    HW139824   2.215   0.876   4.083  0.7430  0.9453  0.2377
 9454SOL    HW239825   2.274   0.789   4.183  0.4161  0.4570 -4.6627
 9455SOL     OW39826   3.347   2.124   2.227  0.2169 -0.1029  0.4886
 9455SOL    HW139827   3.389   2.171   2.155  2.2857 -1.0413  1.0912
 9455SOL    HW239828   3.258   2.127   2.193  0.5662  0.5011 -0.3546
 9456SOL     OW39829   3.296   3.265   8.497 -0.2894 -0.0116 -0.0927
 9456SOL    HW139830   3.278   3.262   8.403 -0.6982 -2.3126  0.0475
 9456SOL    HW239831   3.287   3.359   8.508 -0.5080 -0.1294  0.6846
 9457SOL     OW39832   0.922   3.097  15.325  0.1327 -0.5211  0.3770
 9457SOL    HW139833   0.862   3.033  15.288 -0.5221  0.8980 -1.0508
 9457SOL    HW239834   0.867   3.171  15.353  0.2325 -0.0097 -0.7450
 9458SOL     OW39835   1.138   0.101  14.847 -0.3585 -0.4640 -0.0706
 9458SOL    HW139836   1.201   0.150  14.901 -0.6068  1.0096 -1.1158
 9458SOL    HW239837   1.057   0.119  14.895 -0.2287 -0.5351  0.1761
 9459SOL     OW39838   3.872   3.409  16.666  0.0368 -0.5816  0.0959
 9459SOL    HW139839   3.921   3.391  16.585 -2.5297  0.4135 -1.6579
 9459SOL    HW239840   3.809   3.475  16.637 -0.3654 -1.5216 -1.1313
 9460SOL     OW39841   2.932   2.655  14.110  0.4220  1.0652 -0.1137
 9460SOL    HW139842   2.888   2.587  14.059  0.6530 -0.2372  1.4248
 9460SOL    HW239843   2.856   2.709  14.133 -0.1679 -0.1185  0.6825
 9461SOL     OW39844   1.259   1.778   9.304 -0.8512 -0.3901 -0.1168
 9461SOL    HW139845   1.258   1.738   9.391  1.3061  1.9416  0.9815
 9461SOL    HW239846   1.195   1.723   9.258 -1.2976  0.7778 -0.8878
 9462SOL     OW39847   0.556   1.956   2.792 -0.1957  0.5747  0.6616
 9462SOL    HW139848   0.637   1.989   2.831 -0.1175 -1.0346  1.8892
 9462SOL    HW239849   0.526   1.888   2.852  1.5002  0.1000  0.9710
 9463SOL     OW39850   2.948   0.877   6.187  1.0281 -0.2032  0.6404
 9463SOL    HW139851   2.927   0.792   6.227  1.7331 -0.2485  0.9230
 9463SOL    HW239852   2.953   0.845   6.097 -0.2296 -0.3346  0.6169
 9464SOL     OW39853   1.824   1.255   2.588 -0.3470  0.1873 -0.0157
 9464SOL    HW139854   1.795   1.338   2.624 -1.5736  0.1817 -0.9834
 9464SOL    HW239855   1.767   1.242   2.512 -0.4647 -1.6913  0.3992
 9465SOL     OW39856   2.582   1.904   1.963  0.0877  0.0838 -0.4059
 9465SOL    HW139857   2.578   1.848   2.040 -4.3374  1.0210  0.0117
 9465SOL    HW239858   2.508   1.963   1.977 -0.7444 -0.9536 -0.4313
 9466SOL     OW39859   0.458   0.251  10.861  0.3361 -0.4252 -0.0136
 9466SOL    HW139860   0.452   0.158  10.839  0.5811 -0.3801 -0.2737
 9466SOL    HW239861   0.402   0.252  10.939  0.5995 -2.9912  0.1988
 9467SOL     OW39862   0.338   2.570   7.934 -0.1887 -0.0443 -0.2949
 9467SOL    HW139863   0.425   2.574   7.974 -0.2141  0.5911 -0.3158
 9467SOL    HW239864   0.337   2.652   7.886  0.0229 -0.2906 -0.7159
 9468SOL     OW39865   3.113   4.518   8.206  0.0010 -0.6931 -0.6167
 9468SOL    HW139866   3.062   4.440   8.184 -0.0042 -0.4592 -1.4205
 9468SOL    HW239867   3.106   4.514   8.301 -1.1147  1.1794 -0.6171
 9469SOL     OW39868   3.905   1.573  11.472  0.1218 -0.2477 -0.2925
 9469SOL    HW139869   3.935   1.482  11.466  1.2027  0.2902 -3.0855
 9469SOL    HW239870   3.857   1.574  11.555 -2.3963 -1.7812 -1.7204
 9470SOL     OW39871   4.300   0.639   8.998  0.2892  0.0460  0.0032
 9470SOL    HW139872   4.210   0.670   9.013  0.6783  0.3323  1.7169
 9470SOL    HW239873   4.345   0.678   9.073  2.1622 -1.7824 -0.1792
 9471SOL     OW39874   3.691   1.640   7.877 -0.0080 -0.0985 -0.0270
 9471SOL    HW139875   3.761   1.694   7.841  1.0139 -1.7064 -0.4581
 9471SOL    HW239876   3.739   1.604   7.952  2.7858  1.6153 -0.9855
 9472SOL     OW39877   4.667   4.345  16.963  0.0978 -0.2455 -0.0904
 9472SOL    HW139878   4.628   4.410  17.021 -2.5516 -1.2606 -0.7507
 9472SOL    HW239879   4.680   4.386  16.877  0.3591  1.6089  0.8163
 9473SOL     OW39880   1.669   1.618   2.016  0.4624  0.3291 -0.0436
 9473SOL    HW139881   1.586   1.616   1.969  0.0129  2.1329  0.6590
 9473SOL    HW239882   1.728   1.570   1.958  1.6765 -0.8194  2.1488
 9474SOL     OW39883   0.512   1.513   7.850 -0.2696  0.4784  0.2160
 9474SOL    HW139884   0.577   1.583   7.849  1.3198 -1.0359 -0.9485
 9474SOL    HW239885   0.546   1.445   7.792  1.0891  0.9074  0.4976
 9475SOL     OW39886   1.964   0.788   4.296  0.0765 -0.3589 -0.0839
 9475SOL    HW139887   2.044   0.798   4.245  0.1159  0.6284  0.1668
 9475SOL    HW239888   1.906   0.728   4.250  0.9981 -0.8809 -0.5692
 9476SOL     OW39889   1.765   0.994   4.498 -0.4162 -0.3589  0.1657
 9476SOL    HW139890   1.808   1.020   4.417 -1.6100  1.7426  0.2076
 9476SOL    HW239891   1.754   1.074   4.549 -1.1443  0.0809 -0.6723
 9477SOL     OW39892   3.333   2.365  16.362 -0.0395  0.1923 -0.4532
 9477SOL    HW139893   3.296   2.452  16.348 -1.7962 -0.5522 -0.3422
 9477SOL    HW239894   3.293   2.314  16.292  0.2376 -0.9846  0.2389
 9478SOL     OW39895   0.156   0.402   8.770 -0.0985 -0.1042  0.6016
 9478SOL    HW139896   0.123   0.461   8.703 -0.2481 -0.1388  0.6435
 9478SOL    HW239897   0.226   0.458   8.802  0.6462 -0.7085  0.0170
 9479SOL     OW39898   1.337   0.687   9.187  0.0573  0.1427  0.6406
 9479SOL    HW139899   1.293   0.772   9.194 -1.5604 -0.6749  0.4582
 9479SOL    HW239900   1.411   0.705   9.129 -1.1362  0.4942 -0.7700
 9480SOL     OW39901   4.467   0.401   4.298  0.8706  0.0269  0.0545
 9480SOL    HW139902   4.455   0.417   4.391  0.4146  0.6266 -0.1012
 9480SOL    HW239903   4.549   0.354   4.284 -0.2910 -2.2408  0.8473
 9481SOL     OW39904   4.655   2.123   0.970 -0.3116 -0.0548  0.0801
 9481SOL    HW139905   4.631   2.213   0.990  0.9046  0.7923 -2.3205
 9481SOL    HW239906   4.684   2.134   0.879  1.7141  0.2183  0.7819
 9482SOL     OW39907   1.630   2.403  14.179 -0.5546 -0.2026 -0.6624
 9482SOL    HW139908   1.563   2.354  14.228  0.0629 -2.1062 -1.7426
 9482SOL    HW239909   1.638   2.489  14.222 -1.3038 -0.0119 -0.9033
 9483SOL     OW39910   0.221   3.849   2.654 -0.1674  0.0468 -0.2385
 9483SOL    HW139911   0.138   3.850   2.607 -1.2081 -2.3839  1.5374
 9483SOL    HW239912   0.277   3.904   2.599 -0.4367  1.2518  0.7030
 9484SOL     OW39913   0.910   0.638   7.408  0.3992 -0.1401 -0.0574
 9484SOL    HW139914   0.958   0.613   7.330 -0.5212  1.3759 -1.1131
 9484SOL    HW239915   0.865   0.555   7.423 -0.3779 -0.0202 -1.6670
 9485SOL     OW39916   0.110   1.328   4.073  0.4841 -0.6395  0.1325
 9485SOL    HW139917   0.172   1.283   4.131  2.4268  0.7008 -0.9249
 9485SOL    HW239918   0.083   1.246   4.031 -2.5419  1.4602 -1.9598
 9486SOL     OW39919   2.862   0.011   4.582 -0.0609  0.2059 -0.1075
 9486SOL    HW139920   2.857   0.006   4.487 -0.2705  1.6772 -0.1797
 9486SOL    HW239921   2.770   0.010   4.610 -0.1444  0.0423 -0.3909
 9487SOL     OW39922   0.161   0.667   8.282 -0.0339 -0.2061 -0.4929
 9487SOL    HW139923   0.177   0.745   8.335 -1.8716 -0.0098 -0.2404
 9487SOL    HW239924   0.225   0.665   8.211  1.5905  0.6375  0.9565
 9488SOL     OW39925   0.819   2.771   8.076 -0.3643  0.3156 -0.2874
 9488SOL    HW139926   0.758   2.844   8.074 -0.3204  0.3207 -1.2126
 9488SOL    HW239927   0.834   2.762   7.982  3.5437  2.2072  0.1342
 9489SOL     OW39928   1.769   1.613   3.930 -0.3256 -0.3258 -0.3172
 9489SOL    HW139929   1.836   1.680   3.947  0.0753 -1.1660  1.4618
 9489SOL    HW239930   1.826   1.537   3.917  0.8278  0.3431  0.7590
 9490SOL     OW39931   1.410   4.572  14.781  0.6179  0.0468  0.2207
 9490SOL    HW139932   1.462   4.610  14.852  0.1539 -0.1460  0.6689
 9490SOL    HW239933   1.429   4.479  14.795 -1.7009 -0.5789 -0.8177
 9491SOL     OW39934   1.423   0.008   0.767 -0.2277 -0.0006  0.1316
 9491SOL    HW139935   1.359   4.668   0.799  0.3564  0.7973  2.8625
 9491SOL    HW239936   1.455   0.037   0.852 -0.5370 -1.7121  0.8263
 9492SOL     OW39937   4.680   1.618  11.864  0.6250  0.4791 -0.5326
 9492SOL    HW139938   0.007   1.700  11.859  1.2509  0.2636  2.0086
 9492SOL    HW239939   4.607   1.638  11.923  0.5755 -0.9370 -0.1249
 9493SOL     OW39940   2.606   1.309   9.661  0.3088  0.2273 -0.1030
 9493SOL    HW139941   2.522   1.303   9.706 -0.0050  0.8500 -0.6116
 9493SOL    HW239942   2.650   1.240   9.711  2.4340  1.0765 -0.8061
 9494SOL     OW39943   0.856   3.172   5.576  0.3665 -0.2661 -0.2196
 9494SOL    HW139944   0.785   3.226   5.541 -1.3077 -2.0856  0.3748
 9494SOL    HW239945   0.892   3.219   5.651  1.0136 -3.4632  1.4973
 9495SOL     OW39946   2.092   3.813   1.543  0.4222 -0.4723 -0.3865
 9495SOL    HW139947   2.050   3.898   1.553 -0.1388 -0.6058 -1.5331
 9495SOL    HW239948   2.126   3.822   1.454  2.7109 -0.6831  0.4656
 9496SOL     OW39949   2.377   0.990   6.654  0.4984  0.3312 -0.2836
 9496SOL    HW139950   2.336   0.924   6.710 -1.3698  0.6790 -1.2391
 9496SOL    HW239951   2.318   0.990   6.579  0.8597 -4.6392 -0.5345
 9497SOL     OW39952   3.323   3.604  16.289  0.2958 -0.4689  0.1879
 9497SOL    HW139953   3.263   3.569  16.355  0.6760 -0.3825  0.5762
 9497SOL    HW239954   3.323   3.540  16.219 -1.3390  1.7591 -1.8555
 9498SOL     OW39955   1.427   0.178  14.421 -0.1021  0.1311  0.5904
 9498SOL    HW139956   1.429   0.190  14.515 -1.7980  1.4497  0.4445
 9498SOL    HW239957   1.352   0.119  14.414  2.3488 -3.2637  2.6697
 9499SOL     OW39958   2.053   2.480   6.052 -0.6407  0.3271  0.0771
 9499SOL    HW139959   2.001   2.427   5.992 -1.0924  1.3924 -0.4668
 9499SOL    HW239960   2.008   2.564   6.064 -0.4840  0.2555  1.1469
 9500SOL     OW39961   4.580   3.666   8.069  0.2177  0.4128 -0.1960
 9500SOL    HW139962   4.668   3.679   8.033 -0.6760  0.9750 -2.2053
 9500SOL    HW239963   4.570   3.572   8.051  0.0531  0.6749 -1.4830
 9501SOL     OW39964   4.654   2.006  15.510 -0.0089  0.0537 -0.1284
 9501SOL    HW139965   4.655   2.017  15.415  2.7573 -3.2581 -0.4854
 9501SOL    HW239966   4.574   1.961  15.537  0.2898 -0.0979  0.5228
 9502SOL     OW39967   4.034   1.577   1.430  0.4982  0.2501 -0.3177
 9502SOL    HW139968   4.012   1.484   1.422 -3.0022  1.1975 -1.5939
 9502SOL    HW239969   4.105   1.562   1.492  1.1185 -1.7364 -1.4956
 9503SOL     OW39970   4.323   3.649   1.841  0.3639 -0.0341  0.7338
 9503SOL    HW139971   4.279   3.565   1.854 -2.1333  1.2657  0.5521
 9503SOL    HW239972   4.416   3.625   1.839  0.8778  2.1068 -1.6471
 9504SOL     OW39973   0.845   2.650   6.229  0.7306  0.0710  0.0674
 9504SOL    HW139974   0.815   2.584   6.291  0.4692  0.3022  0.1895
 9504SOL    HW239975   0.773   2.646   6.167  0.8266  1.0040 -0.0998
 9505SOL     OW39976   2.578   0.213   8.869  0.1219  0.0093  0.2281
 9505SOL    HW139977   2.549   0.139   8.923 -1.8849  0.1005 -0.7637
 9505SOL    HW239978   2.501   0.270   8.868  2.0018  2.5670  0.6908
 9506SOL     OW39979   3.194   0.901   1.167  0.4029  0.7530  0.2624
 9506SOL    HW139980   3.246   0.825   1.140 -1.4591  0.1870 -1.6972
 9506SOL    HW239981   3.109   0.883   1.127  0.6493  0.6932 -0.2380
 9507SOL     OW39982   2.588   3.913   9.642 -0.3287  0.0840  0.6458
 9507SOL    HW139983   2.656   3.954   9.588 -2.0494  1.4516 -0.5218
 9507SOL    HW239984   2.517   3.914   9.578 -0.3048  1.6689  0.6419
 9508SOL     OW39985   0.694   2.295   3.024 -0.3826  0.1034 -0.1817
 9508SOL    HW139986   0.682   2.352   2.949  2.5191  0.2331 -0.5495
 9508SOL    HW239987   0.764   2.346   3.066 -2.4244  2.6200  0.1876
 9509SOL     OW39988   4.577   1.428  16.708  0.2361  0.2649  0.4367
 9509SOL    HW139989   4.556   1.466  16.623  3.7729 -1.0842 -1.0053
 9509SOL    HW239990   4.642   1.488  16.744  0.4947  1.4713 -2.0258
 9510SOL     OW39991   1.355   1.946   3.593  0.1069 -0.4786 -0.1253
 9510SOL    HW139992   1.416   1.896   3.647  0.2199 -0.1413  0.0599
 9510SOL    HW239993   1.334   1.874   3.534  1.8756 -2.2559  1.4310
 9511SOL     OW39994   0.546   4.429   7.641  0.0231 -0.1002 -0.3856
 9511SOL    HW139995   0.622   4.390   7.685  0.7005  2.4702  0.7356
 9511SOL    HW239996   0.577   4.520   7.635 -0.0608  0.0168  1.1817
 9512SOL     OW39997   3.862   4.500   8.397  0.1900 -0.5574 -0.2889
 9512SOL    HW139998   3.793   4.566   8.404  0.7604  0.0673 -0.5435
 9512SOL    HW239999   3.938   4.557   8.410  1.9197 -2.3659 -2.3687
 9513SOL     OW40000   2.261   3.971   0.391 -0.5306 -0.2577 -0.1217
 9513SOL    HW140001   2.224   3.909   0.327 -1.8817  1.2799 -0.8286
 9513SOL    HW240002   2.181   3.994   0.439 -0.3741 -1.0945  0.5336
 9514SOL     OW40003   2.080   2.313   2.721  0.5296 -0.3898 -0.5159
 9514SOL    HW140004   2.070   2.353   2.635 -1.3201 -0.2433 -0.2215
 9514SOL    HW240005   2.011   2.364   2.762  0.7851 -0.5174  0.0753
 9515SOL     OW40006   4.432   3.381   6.709  0.1369  0.1135 -0.0828
 9515SOL    HW140007   4.398   3.292   6.697 -1.2711  0.7382 -0.7037
 9515SOL    HW240008   4.347   3.417   6.733  0.4530 -0.3902  1.7802
 9516SOL     OW40009   0.021   0.218  13.356 -0.3513  0.6228  0.8828
 9516SOL    HW140010   0.015   0.243  13.448  1.5339  0.2733  1.1051
 9516SOL    HW240011   0.061   0.132  13.366  0.7117  1.0809  0.5909
 9517SOL     OW40012   4.625   0.375   5.395 -0.5717  0.3646 -0.0194
 9517SOL    HW140013   4.623   0.459   5.442  2.2899 -0.7327  2.0908
 9517SOL    HW240014   4.661   0.403   5.311  1.0403  0.5722  0.7372
 9518SOL     OW40015   2.650   4.353   7.947 -0.1147 -0.5084  0.3087
 9518SOL    HW140016   2.577   4.299   7.976  0.8898 -1.6147  0.7906
 9518SOL    HW240017   2.617   4.441   7.968  0.6024 -0.1414 -0.0657
 9519SOL     OW40018   2.209   1.044   7.579 -0.0242  0.5990  0.4644
 9519SOL    HW140019   2.185   0.954   7.559  0.0566  1.1828 -2.2514
 9519SOL    HW240020   2.303   1.036   7.596 -0.1937 -0.9791  0.6358
 9520SOL     OW40021   0.709   1.572   2.336  0.7863  0.5274 -0.7227
 9520SOL    HW140022   0.790   1.551   2.289  0.9336  0.1087 -0.2769
 9520SOL    HW240023   0.738   1.533   2.419 -1.4746  0.6926  0.1457
 9521SOL     OW40024   3.584   4.447  16.426  0.4592 -0.3596 -0.2412
 9521SOL    HW140025   3.608   4.364  16.468  2.2097  1.2526  1.8983
 9521SOL    HW240026   3.627   4.440  16.341  0.8740 -0.7273 -0.0027
 9522SOL     OW40027   0.443   0.499   0.025 -0.1915 -0.2747 -0.2243
 9522SOL    HW140028   0.459   0.420  17.664 -1.5386 -1.6777  1.5447
 9522SOL    HW240029   0.447   0.465   0.114  0.1357  2.2211  0.7090
 9523SOL     OW40030   4.710   2.097   5.251 -0.3300  0.3606 -0.1642
 9523SOL    HW140031   4.632   2.044   5.233  0.0341 -1.6445  4.2602
 9523SOL    HW240032   0.030   2.110   5.166  0.8445 -1.2390  0.1815
 9524SOL     OW40033   3.251   0.670  11.244  0.2452 -0.3142  0.0375
 9524SOL    HW140034   3.249   0.716  11.327  1.8210 -2.1378  1.0838
 9524SOL    HW240035   3.241   0.578  11.269 -0.9865 -0.2027 -0.0236
 9525SOL     OW40036   3.745   0.750   4.072  0.1894  0.5658  0.3863
 9525SOL    HW140037   3.791   0.708   4.000  0.9008 -1.7959  2.2524
 9525SOL    HW240038   3.747   0.843   4.046  0.9489  0.7705  1.1664
 9526SOL     OW40039   4.361   1.339   7.888 -0.4971  0.0977 -0.1667
 9526SOL    HW140040   4.411   1.258   7.884  1.1842  1.1122  0.2853
 9526SOL    HW240041   4.381   1.369   7.977  1.8592  0.0222 -0.6676
 9527SOL     OW40042   1.085   1.964   5.378 -0.1357 -0.8096  0.3471
 9527SOL    HW140043   1.125   1.996   5.459 -1.4726  1.0144  0.3083
 9527SOL    HW240044   1.044   1.882   5.404 -0.4585 -0.5456  0.6846
 9528SOL     OW40045   0.989   2.507   1.405  0.3579 -0.2584  0.7717
 9528SOL    HW140046   0.934   2.537   1.477  0.1683  2.5741 -0.5713
 9528SOL    HW240047   0.990   2.413   1.425  0.9628 -0.4694 -0.2412
 9529SOL     OW40048   0.028   1.118   3.936  0.2654 -0.3293  0.0156
 9529SOL    HW140049   0.052   1.184   3.871 -0.8239 -0.7562 -0.8094
 9529SOL    HW240050   4.699   1.059   3.881  0.7142 -0.6442 -0.0601
 9530SOL     OW40051   3.228   2.673  16.969  0.1252  0.5547  0.3142
 9530SOL    HW140052   3.219   2.578  16.963 -2.0464  0.7574  0.1467
 9530SOL    HW240053   3.305   2.686  16.914  0.4414 -1.8154  0.2030
 9531SOL     OW40054   1.795   1.431  12.886 -0.4273 -0.1687  0.3266
 9531SOL    HW140055   1.707   1.467  12.898 -0.6999 -0.5297 -0.6154
 9531SOL    HW240056   1.814   1.425  12.793 -1.6862 -0.3116  0.0828
 9532SOL     OW40057   2.081   0.815   0.168 -0.1977 -0.8062 -0.2222
 9532SOL    HW140058   2.028   0.779   0.097  0.0607  2.9539 -2.3194
 9532SOL    HW240059   2.014   0.863   0.217 -1.9779 -3.5544  0.0407
 9533SOL     OW40060   4.427   1.759  16.376 -0.5444 -0.0068  0.1053
 9533SOL    HW140061   4.338   1.793  16.368 -1.1620 -1.5057  0.4913
 9533SOL    HW240062   4.461   1.789  16.292  0.6766 -1.1921  0.1846
 9534SOL     OW40063   0.265   3.721   3.565  0.0346  0.6859 -0.3456
 9534SOL    HW140064   0.254   3.774   3.644  0.1639  0.7847 -0.3951
 9534SOL    HW240065   0.360   3.714   3.558  0.1568 -0.2633  2.5243
 9535SOL     OW40066   2.288   0.183   0.803  0.4094  0.5548  0.9020
 9535SOL    HW140067   2.342   0.162   0.727 -1.9931 -0.2958 -0.5860
 9535SOL    HW240068   2.282   0.097   0.844  0.3918 -0.2322 -0.7534
 9536SOL     OW40069   3.806   1.340  12.855  0.4777 -0.4255  0.7211
 9536SOL    HW140070   3.855   1.312  12.933 -0.2597 -1.7330  0.7217
 9536SOL    HW240071   3.723   1.352  12.902 -0.1348 -0.1437 -0.4181
 9537SOL     OW40072   1.918   0.301   2.900  0.3260 -0.2372  0.1471
 9537SOL    HW140073   1.825   0.284   2.880  0.4785 -3.0340  1.7821
 9537SOL    HW240074   1.906   0.347   2.983 -0.3901  0.6225 -0.4314
 9538SOL     OW40075   0.192   0.446   6.871 -0.0735 -0.2897  0.3487
 9538SOL    HW140076   0.246   0.373   6.903 -1.2928 -0.2474  2.4657
 9538SOL    HW240077   0.135   0.458   6.946 -1.0753 -0.2437 -0.4153
 9539SOL     OW40078   0.517   2.943   6.650 -0.1437  0.1959  0.1454
 9539SOL    HW140079   0.535   2.850   6.666 -0.7010  0.2210  0.8686
 9539SOL    HW240080   0.436   2.937   6.700  0.7271 -0.8106  1.4296
 9540SOL     OW40081   3.871   0.487   6.819  0.2883  0.7925  0.3972
 9540SOL    HW140082   3.886   0.503   6.913 -0.9897  2.6351  0.2871
 9540SOL    HW240083   3.776   0.485   6.809  0.6570 -0.2228 -2.8153
 9541SOL     OW40084   2.300   0.116   8.298 -0.8705 -0.1841  0.4900
 9541SOL    HW140085   2.292   0.208   8.325 -0.2342 -0.1601  0.5974
 9541SOL    HW240086   2.214   0.087   8.329 -0.7631 -1.4619 -0.4414
 9542SOL     OW40087   0.584   4.417   1.725 -0.1915 -0.8611 -0.2815
 9542SOL    HW140088   0.550   4.374   1.804  1.5737  0.7528  1.3716
 9542SOL    HW240089   0.668   4.447   1.760 -0.1983 -1.5140  0.2984
 9543SOL     OW40090   2.404   2.164   6.989 -0.1240 -0.0838 -0.4678
 9543SOL    HW140091   2.483   2.132   7.032 -0.7189 -1.1028 -0.1312
 9543SOL    HW240092   2.419   2.138   6.898 -0.7050  0.0247 -0.5952
 9544SOL     OW40093   3.218   2.387   1.401 -0.5544  0.2578  0.0242
 9544SOL    HW140094   3.289   2.368   1.340  0.2471 -0.2795  1.1084
 9544SOL    HW240095   3.137   2.383   1.351  0.2144 -0.2034 -1.1926
 9545SOL     OW40096   1.322   3.791  11.696 -0.2232  0.2500 -0.0509
 9545SOL    HW140097   1.375   3.867  11.718 -1.4157  1.2722 -0.6451
 9545SOL    HW240098   1.266   3.779  11.773 -0.5781  0.7927 -0.2260
 9546SOL     OW40099   4.081   0.928   4.525  0.0109 -0.3784 -0.6507
 9546SOL    HW140100   4.007   0.925   4.465 -1.6979 -1.3876  1.5421
 9546SOL    HW240101   4.078   0.841   4.564  0.0489  0.2494  0.7391
 9547SOL     OW40102   0.841   4.672   3.882 -0.7024 -0.0166  0.2139
 9547SOL    HW140103   0.759   4.659   3.931 -0.9416 -1.5948 -0.6258
 9547SOL    HW240104   0.819   4.650   3.792  0.2562  0.1061 -0.0468
 9548SOL     OW40105   3.491   1.811  17.356 -0.0148 -0.4781  0.7456
 9548SOL    HW140106   3.442   1.746  17.306  0.8811 -0.3795 -0.2737
 9548SOL    HW240107   3.424   1.871  17.388  0.1124 -0.1339  0.3785
 9549SOL     OW40108   1.368   3.020   4.233  0.2965 -0.3524  0.1720
 9549SOL    HW140109   1.284   3.054   4.203  0.1090 -1.3502 -0.4500
 9549SOL    HW240110   1.384   2.958   4.162  0.9005  1.3189 -1.1355
 9550SOL     OW40111   2.404   4.183   2.050  0.7408  0.2103 -0.6482
 9550SOL    HW140112   2.347   4.135   2.110  0.7319  0.7763 -0.2067
 9550SOL    HW240113   2.452   4.230   2.119  1.5369  0.8368 -1.6328
 9551SOL     OW40114   2.163   4.191   7.053  0.7642  0.1305 -0.6335
 9551SOL    HW140115   2.201   4.224   7.135  0.7477  2.3383 -1.5253
 9551SOL    HW240116   2.088   4.250   7.050  0.2394 -0.4635  0.5928
 9552SOL     OW40117   2.855   2.830   7.912  0.2779  0.0152  0.5499
 9552SOL    HW140118   2.814   2.743   7.911  1.5327 -0.5709  0.5499
 9552SOL    HW240119   2.778   2.886   7.925  1.1918  1.6398 -1.1690
 9553SOL     OW40120   1.236   4.251   7.546 -0.1349 -0.9619 -0.4615
 9553SOL    HW140121   1.266   4.326   7.597 -1.3022 -1.3719  0.8432
 9553SOL    HW240122   1.141   4.261   7.538 -0.1078  1.0243  1.9549
 9554SOL     OW40123   1.976   3.190  17.571 -0.0726 -0.1166  0.0009
 9554SOL    HW140124   1.893   3.214  17.611 -1.2616 -4.3510  0.1235
 9554SOL    HW240125   2.012   3.274  17.544 -2.2446  0.8942  0.2581
 9555SOL     OW40126   2.095   2.397  14.030  0.5423 -0.0310  0.2877
 9555SOL    HW140127   2.008   2.383  13.992  0.4989 -1.0951  0.7869
 9555SOL    HW240128   2.083   2.363  14.118  1.6627  0.3773  0.5917
 9556SOL     OW40129   4.243   1.405   8.516  0.5471 -0.1474  0.7139
 9556SOL    HW140130   4.289   1.479   8.476 -1.4629  0.3134 -0.7211
 9556SOL    HW240131   4.315   1.348   8.542 -1.4582 -1.7974  2.6171
 9557SOL     OW40132   1.590   1.634   7.959  0.1065  0.1569  0.2027
 9557SOL    HW140133   1.632   1.548   7.968  1.0094  0.4912 -0.9338
 9557SOL    HW240134   1.509   1.602   7.919 -0.1788  1.6398 -0.4029
 9558SOL     OW40135   1.338   0.088   5.125  0.0577 -0.0957  0.6606
 9558SOL    HW140136   1.375   0.174   5.106  0.2438 -0.5759 -1.1286
 9558SOL    HW240137   1.245   0.102   5.109  0.4704  0.3493 -1.3661
 9559SOL     OW40138   3.515   1.702   6.098  0.0969 -0.2619 -0.1525
 9559SOL    HW140139   3.492   1.691   6.005 -2.2649  2.1585  0.1364
 9559SOL    HW240140   3.594   1.757   6.097 -1.2117  1.6439  1.1832
 9560SOL     OW40141   3.496   0.333   4.678 -0.2617 -0.1467 -0.0479
 9560SOL    HW140142   3.586   0.356   4.656 -0.1118 -0.3434  0.3615
 9560SOL    HW240143   3.509   0.274   4.753 -0.8312  0.5419  0.5966
 9561SOL     OW40144   3.345   1.023   5.332 -0.5081  0.6414 -0.3639
 9561SOL    HW140145   3.354   1.071   5.249  0.4301  0.5749 -0.2979
 9561SOL    HW240146   3.411   1.073   5.379  2.1189 -2.5736 -0.6631
 9562SOL     OW40147   2.527   4.094   2.462 -0.4691 -0.3990  0.0608
 9562SOL    HW140148   2.441   4.126   2.490 -0.5052  0.8609 -1.4804
 9562SOL    HW240149   2.511   4.099   2.368  0.4323 -2.1451 -0.1729
 9563SOL     OW40150   4.623   0.525  15.563  0.5570  0.0302 -0.1324
 9563SOL    HW140151   4.641   0.590  15.495 -2.9066  1.6585  0.5378
 9563SOL    HW240152   4.647   0.574  15.642  1.1452 -1.6523  0.7289
 9564SOL     OW40153   0.196   4.190  10.502 -0.1232  0.3030  0.0684
 9564SOL    HW140154   0.290   4.175  10.491  0.0355  1.0897  0.3524
 9564SOL    HW240155   0.189   4.170  10.595 -0.0460 -0.8195 -0.1751
 9565SOL     OW40156   3.525   3.721   6.973  0.1946 -0.1997  0.6096
 9565SOL    HW140157   3.522   3.674   6.890 -0.9947  0.4306  0.2872
 9565SOL    HW240158   3.453   3.782   6.958  1.4239  1.1677  0.2840
 9566SOL     OW40159   0.516   4.235   6.216 -0.0196 -0.4036  0.1155
 9566SOL    HW140160   0.450   4.269   6.155  0.8391  1.1401  0.0609
 9566SOL    HW240161   0.454   4.222   6.288  0.3032 -0.1686  0.4362
 9567SOL     OW40162   1.006   0.097   5.718 -0.2170  0.6206  0.2575
 9567SOL    HW140163   1.000   0.090   5.622  1.0313 -1.9850  0.3774
 9567SOL    HW240164   0.960   0.015   5.736  1.5568 -0.0449  1.6624
 9568SOL     OW40165   0.251   3.073   6.200  0.1678 -0.4854  0.3171
 9568SOL    HW140166   0.329   3.052   6.252  1.4700 -0.3068 -1.5630
 9568SOL    HW240167   0.259   3.167   6.188  0.3427 -0.6413 -0.8398
   4.72201   4.72201  17.69021
