Membrane in water
40167
    1TCq1    O1    1   2.429   2.007  10.503  0.1541  0.7676  0.0338
    1TCq1    C1    2   2.497   1.929  10.600  0.3143  0.0130 -0.0678
    1TCq1    O2    3   2.501   1.808  10.598  0.0118 -0.0432 -0.3162
    1TCq1    C2    4   2.518   1.995  10.722  0.3014  0.9042 -0.4862
    1TCq1    C3    5   2.600   2.106  10.731  0.3583  0.2569 -0.6162
    1TCq1    C4    6   2.627   2.159  10.855 -0.2805  0.0907  0.6312
    1TCq1    C5    7   2.582   2.101  10.970  0.4831  0.6504  0.1408
    1TCq1    C6    8   2.506   1.986  10.957 -0.2193 -0.0376  0.3742
    1TCq1    C7    9   2.479   1.933  10.840 -0.0583  0.0506  0.2151
    1TCq1    C8   10   2.447   1.927  11.077 -0.2444 -0.0574 -0.6562
    1TCq1    O4   11   2.374   1.828  11.061 -0.0703  0.8049  0.3297
    1TCq1    C9   12   2.709   2.283  10.858  0.4667 -0.1404 -0.5600
    1TCq1    O5   13   2.714   2.352  10.751  0.3490 -0.1097  0.1266
    1TCq1    O6   14   2.772   2.310  10.966 -0.2052 -0.0462  0.5380
    1TCq1    H1   15   2.413   2.094  10.546 -0.9910  1.0853 -1.0370
    1TCq1    H2   16   2.652   2.150  10.647  1.6445 -0.7615 -0.3434
    1TCq1    H3   17   2.614   2.146  11.063  2.0382 -0.7141  0.2778
    1TCq1    H4   18   2.422   1.841  10.839 -0.1282  0.0869  1.2010
    2MPD2     C   19   2.318   1.902  11.573 -0.8102  0.2796 -0.2881
    2MPD2    C1   20   2.361   2.032  11.545 -0.0539  0.0786 -0.1881
    2MPD2    C2   21   2.416   2.059  11.419 -0.2490  0.1733  0.4993
    2MPD2    C3   22   2.410   1.970  11.318 -0.0521 -0.1549 -0.4830
    2MPD2    C4   23   2.358   1.848  11.343 -0.0849 -0.3223 -0.2308
    2MPD2    C5   24   2.327   1.813  11.471 -0.1714 -0.4309 -0.2900
    2MPD2     H   25   2.459   2.155  11.395  0.7509 -0.2802  0.4642
    2MPD2    H1   26   2.355   1.768  11.270  0.6558  2.6187 -3.4415
    2MPD2    H2   27   2.283   1.867  11.670 -2.0502 -0.5461 -1.0438
    2MPD2    H3   28   2.312   1.707  11.488 -1.2082 -0.4199 -1.1594
    2MPD2     N   29   2.467   2.001  11.191  0.1835  0.1133  0.0770
    2MPD2    H5   30   2.534   2.078  11.192  1.4917 -1.0069 -0.7572
    2MPD2    N1   31   2.337   2.146  11.631 -0.3962 -0.4966 -0.3917
    2MPD2    H7   32   2.373   2.234  11.597  0.0157 -1.0784 -1.4666
    3TCq1    O1   33   2.145   3.670  10.836 -0.6547  0.5309 -0.2159
    3TCq1    C1   34   2.201   3.553  10.791 -0.7919 -0.0922 -0.2297
    3TCq1    O2   35   2.315   3.546  10.745 -0.6280  0.5545 -0.6161
    3TCq1    C2   36   2.109   3.442  10.807 -0.1224  0.1006 -0.2474
    3TCq1    C3   37   2.090   3.364  10.697 -0.5264  0.5295 -0.1426
    3TCq1    C4   38   2.003   3.259  10.707 -0.2415  0.0710 -0.3392
    3TCq1    C5   39   1.925   3.244  10.821  0.4872 -0.1186 -0.1408
    3TCq1    C6   40   1.951   3.328  10.931  0.2712  0.4088  0.0826
    3TCq1    C7   41   2.045   3.429  10.922 -0.2074 -0.5339 -0.0282
    3TCq1    C8   42   1.854   3.330  11.034 -0.0835 -0.9368 -0.2924
    3TCq1    O4   43   1.809   3.225  11.076 -0.4677 -0.4697  0.1435
    3TCq1    C9   44   1.988   3.171  10.592 -0.7506  0.6325  0.3098
    3TCq1    O5   45   1.897   3.082  10.604 -0.0050  0.0976 -0.5687
    3TCq1    O6   46   2.074   3.175  10.496  0.1396  0.7157 -0.3905
    3TCq1    H1   47   2.049   3.663  10.852 -0.7362  0.1876 -0.8814
    3TCq1    H2   48   2.168   3.365  10.622  1.8673 -0.2629  2.3113
    3TCq1    H3   49   1.856   3.161  10.826 -0.0378  0.3443  0.3022
    3TCq1    H4   50   2.070   3.493  11.006  1.4502 -2.3598  0.8849
    4MPD2     C   51   1.510   3.597  11.318 -0.0742 -0.0624 -0.0392
    4MPD2    C1   52   1.585   3.687  11.234  1.4788  0.4382  0.1699
    4MPD2    C2   53   1.689   3.633  11.158 -0.2471  0.4816  0.1887
    4MPD2    C3   54   1.716   3.497  11.156  0.0598 -0.4267 -0.2665
    4MPD2    C4   55   1.649   3.412  11.241 -0.0754  0.6180  0.0082
    4MPD2    C5   56   1.545   3.466  11.317 -0.2092 -0.7564 -0.1545
    4MPD2     H   57   1.742   3.695  11.087  1.2247 -0.0300  0.8244
    4MPD2    H1   58   1.678   3.308  11.255 -1.1805  0.4971  1.3199
    4MPD2    H2   59   1.438   3.628  11.393  1.0091 -1.0614  1.4177
    4MPD2    H3   60   1.498   3.393  11.383 -1.6389  1.2698  1.0615
    4MPD2     N   61   1.823   3.457  11.076 -0.3625 -0.5082  0.6559
    4MPD2    H5   62   1.871   3.530  11.024 -0.9041  0.3622  1.3711
    4MPD2    N1   63   1.559   3.826  11.248  0.0763  0.3953  0.6109
    4MPD2    H7   64   1.619   3.875  11.183  0.0554  0.8983  0.9712
    5TCq1    O1   65   2.642   0.680  12.468  0.2840  0.1644  0.1320
    5TCq1    C1   66   2.689   0.692  12.346  0.5525  0.1410  0.3292
    5TCq1    O2   67   2.807   0.695  12.323 -0.5096  0.1475 -0.1891
    5TCq1    C2   68   2.593   0.685  12.240  0.4865 -0.2475  0.1378
    5TCq1    C3   69   2.464   0.729  12.270  0.2091 -0.4686 -0.0282
    5TCq1    C4   70   2.382   0.752  12.165  0.2073 -0.6461 -0.2576
    5TCq1    C5   71   2.418   0.735  12.031  0.0804 -0.1634  0.7142
    5TCq1    C6   72   2.545   0.702  12.003  0.8537 -0.0068  0.3678
    5TCq1    C7   73   2.631   0.676  12.108  0.3921  0.0858  0.2601
    5TCq1    C8   74   2.597   0.687  11.872  0.3247 -0.1168  0.2230
    5TCq1    O4   75   2.714   0.654  11.852  0.0517 -0.8479 -0.3920
    5TCq1    C9   76   2.256   0.812  12.197 -0.1108  0.5709  0.0844
    5TCq1    O5   77   2.248   0.859  12.313 -0.7068  0.1220 -0.2046
    5TCq1    O6   78   2.172   0.820  12.102  0.3006  0.4118  0.4558
    5TCq1    H1   79   2.564   0.621  12.465 -0.6412  1.5000 -1.9057
    5TCq1    H2   80   2.427   0.745  12.370  1.3400  1.5267  0.0703
    5TCq1    H3   81   2.349   0.782  11.962  1.1263  1.7259  0.9624
    5TCq1    H4   82   2.735   0.647  12.099  0.2778 -0.4756  0.6921
    6MPD2     C   83   2.420   0.747  11.553 -0.6026  0.2144 -0.2426
    6MPD2    C1   84   2.511   0.687  11.634 -1.1235  0.1669  0.4814
    6MPD2    C2   85   2.614   0.601  11.578 -0.8487 -0.0836 -0.7324
    6MPD2    C3   86   2.604   0.574  11.445 -0.2228 -0.3908  0.1125
    6MPD2    C4   87   2.515   0.645  11.366  0.3194  0.1903  0.2382
    6MPD2    C5   88   2.422   0.732  11.424  0.0825 -0.5005 -0.6851
    6MPD2     H   89   2.678   0.543  11.644 -0.5525 -2.0656 -2.7747
    6MPD2    H1   90   2.501   0.629  11.259  1.8030  0.4976 -0.0008
    6MPD2    H2   91   2.349   0.821  11.590 -1.0911  0.2048 -1.1713
    6MPD2    H3   92   2.364   0.783  11.348 -0.0570 -1.3986 -1.1790
    6MPD2     N   93   2.686   0.465  11.392  0.3220 -1.3281 -0.3523
    6MPD2    H5   94   2.738   0.413  11.462 -1.2224  0.2828  1.9704
    6MPD2    N1   95   2.504   0.720  11.773  0.2402 -0.5840  0.2516
    6MPD2    H7   96   2.416   0.763  11.800 -0.3336 -1.4166 -0.3068
    7TCq1    O1   97   0.505   0.896  13.626 -0.1083  0.1797  0.2887
    7TCq1    C1   98   0.469   0.960  13.515 -0.1310  0.3851 -0.3472
    7TCq1    O2   99   0.457   1.081  13.506  0.8629  0.2987  0.2393
    7TCq1    C2  100   0.425   0.859  13.416  1.0481 -0.4574 -0.0122
    7TCq1    C3  101   0.415   0.900  13.286 -0.2922  0.2811 -0.8992
    7TCq1    C4  102   0.401   0.813  13.186  0.0945  0.1638 -0.5132
    7TCq1    C5  103   0.415   0.682  13.214 -0.4220  1.1064 -0.3731
    7TCq1    C6  104   0.422   0.646  13.345 -0.1969  0.0513  0.1857
    7TCq1    C7  105   0.422   0.729  13.453  0.0853  0.2190 -0.1005
    7TCq1    C8  106   0.406   0.510  13.361 -0.1417  0.0559 -0.4947
    7TCq1    O4  107   0.370   0.452  13.258 -0.6270  0.3503  0.3469
    7TCq1    C9  108   0.386   0.858  13.055 -0.1791 -0.3266 -0.2455
    7TCq1    O5  109   0.383   0.774  12.958 -0.2757  0.0128  0.1354
    7TCq1    O6  110   0.402   0.978  13.034  0.2186 -0.0639 -0.2020
    7TCq1    H1  111   0.527   0.801  13.616  0.0659  0.6454 -3.8425
    7TCq1    H2  112   0.439   1.003  13.263 -0.6209  0.6009  0.1647
    7TCq1    H3  113   0.426   0.611  13.133  0.7196  1.4309 -0.4984
    7TCq1    H4  114   0.397   0.688  13.550  0.5894  2.7377  1.0851
    8MPD2     C  115   0.371   0.071  13.614  0.1328 -0.9485 -0.0171
    8MPD2    C1  116   0.301   0.115  13.502  0.3046  0.2252 -0.6140
    8MPD2    C2  117   0.327   0.241  13.451 -0.4839  0.3988 -0.3659
    8MPD2    C3  118   0.419   0.318  13.517 -0.2997  0.8659 -0.3426
    8MPD2    C4  119   0.482   0.282  13.633 -0.1297 -0.4952  0.0363
    8MPD2    C5  120   0.444   0.162  13.677  0.0778  0.4687  0.1618
    8MPD2     H  121   0.266   0.268  13.365  0.5792  0.4379 -1.1158
    8MPD2    H1  122   0.533   0.355  13.696 -1.9528 -0.9115  1.9921
    8MPD2    H2  123   0.355   4.697  13.658  1.8288 -1.2033  0.0514
    8MPD2    H3  124   0.482   0.130  13.773 -1.1972 -0.4968  0.3520
    8MPD2     N  125   0.443   0.457  13.483  0.7008 -0.0322 -0.2319
    8MPD2    H5  126   0.494   0.515  13.549  0.8420 -1.2124  0.6851
    8MPD2    N1  127   0.215   0.027  13.440  0.2028 -0.0369  0.1433
    8MPD2    H7  128   0.222   4.661  13.488 -0.6322 -0.0561  0.2285
    9TCq1    O1  129   3.400   2.559  10.743 -0.1222  0.0980  0.1877
    9TCq1    C1  130   3.397   2.688  10.781 -0.0386  0.1343  0.2687
    9TCq1    O2  131   3.494   2.764  10.796  0.1393  0.2647 -0.1195
    9TCq1    C2  132   3.294   2.696  10.873  0.0140  0.0879  0.3293
    9TCq1    C3  133   3.167   2.683  10.823  0.1410 -0.7137 -0.1769
    9TCq1    C4  134   3.065   2.698  10.913  0.5010 -0.2045  0.0190
    9TCq1    C5  135   3.084   2.711  11.047 -0.2551  0.1207  0.7392
    9TCq1    C6  136   3.212   2.723  11.096  0.2989 -0.6463 -0.1368
    9TCq1    C7  137   3.315   2.722  11.006  0.6274 -0.3197 -0.1223
    9TCq1    C8  138   3.241   2.752  11.233 -0.4281  0.3710  0.3024
    9TCq1    O4  139   3.357   2.771  11.271  0.1000 -0.2512 -0.3453
    9TCq1    C9  140   2.932   2.671  10.867 -0.2102 -0.1757 -0.0967
    9TCq1    O5  141   2.841   2.657  10.951 -0.1347  0.2994 -0.2406
    9TCq1    O6  142   2.917   2.635  10.749 -0.5360 -0.0533  0.2771
    9TCq1    H1  143   3.317   2.514  10.768  0.0138  0.1393  0.7091
    9TCq1    H2  144   3.149   2.658  10.719  4.1669  0.0312 -1.0629
    9TCq1    H3  145   2.996   2.702  11.109  1.0566 -2.0211  2.2858
    9TCq1    H4  146   3.418   2.728  11.039  0.2462 -2.3634  1.4256
   10MPD2     C  147   3.199   2.793  11.530  0.1513 -0.4561  0.0465
   10MPD2    C1  148   3.108   2.827  11.433 -0.1954 -0.6714 -0.4882
   10MPD2    C2  149   2.992   2.895  11.476  0.0678  0.4816 -0.6391
   10MPD2    C3  150   2.977   2.937  11.610  1.0486 -0.3329 -0.2511
   10MPD2    C4  151   3.074   2.904  11.704  0.0361 -0.6433  0.5850
   10MPD2    C5  152   3.187   2.833  11.663 -0.0085  0.5132 -0.2664
   10MPD2     H  153   2.922   2.933  11.403 -0.2769 -2.3191 -1.7672
   10MPD2    H1  154   3.064   2.942  11.805 -0.4801  0.0378  0.2737
   10MPD2    H2  155   3.292   2.740  11.511  1.1511  0.8251  1.3711
   10MPD2    H3  156   3.259   2.805  11.739 -0.3986 -0.7927 -0.3824
   10MPD2     N  157   2.873   3.025  11.654  0.3758  0.1007 -0.4969
   10MPD2    H5  158   2.882   3.054  11.750 -1.7192 -0.9346  0.0118
   10MPD2    N1  159   3.127   2.791  11.302  0.0792  0.9328  0.2600
   10MPD2    H7  160   3.046   2.793  11.240  0.6110 -0.7732 -0.4891
   11TCq1    O1  161   2.841   3.646  14.787  0.3958  0.6242  0.4225
   11TCq1    C1  162   2.734   3.677  14.716  0.1481 -0.2316 -0.2353
   11TCq1    O2  163   2.615   3.682  14.746 -0.2812  0.2665  0.2878
   11TCq1    C2  164   2.768   3.608  14.588 -0.1690 -0.0646 -0.1703
   11TCq1    C3  165   2.904   3.605  14.556  0.5947  0.1647  0.8042
   11TCq1    C4  166   2.943   3.520  14.458 -0.8232  0.2565 -0.2231
   11TCq1    C5  167   2.868   3.413  14.422  0.8119  0.4267  0.1402
   11TCq1    C6  168   2.729   3.414  14.459  0.5346  1.1107  0.2714
   11TCq1    C7  169   2.684   3.508  14.544 -0.6800  0.0998 -0.2529
   11TCq1    C8  170   2.634   3.359  14.358 -0.4004 -0.7737 -0.9778
   11TCq1    O4  171   2.676   3.265  14.289  0.3152 -0.3080 -0.1078
   11TCq1    C9  172   3.076   3.528  14.411  1.2298  0.2112  0.4055
   11TCq1    O5  173   3.139   3.607  14.481 -0.0165  0.5844  0.4408
   11TCq1    O6  174   3.100   3.490  14.291  0.3889  0.4369 -0.1758
   11TCq1    H1  175   2.916   3.610  14.735 -0.1785 -0.4260  0.3108
   11TCq1    H2  176   2.960   3.695  14.578  1.2588  0.2370 -1.2069
   11TCq1    H3  177   2.893   3.345  14.342 -0.0693  0.4178 -0.1228
   11TCq1    H4  178   2.581   3.504  14.577  0.0912  0.1383  2.0909
   12MPD2     C  179   2.288   3.476  14.288  0.1825  0.1363  0.6488
   12MPD2    C1  180   2.398   3.392  14.286 -0.7038  0.1865  0.2105
   12MPD2    C2  181   2.387   3.279  14.211  0.2425 -0.4129 -0.5954
   12MPD2    C3  182   2.281   3.256  14.127 -0.0581  0.2686  0.1617
   12MPD2    C4  183   2.183   3.345  14.111 -0.7805  0.3455  0.1998
   12MPD2    C5  184   2.185   3.454  14.198  0.5532  0.4826 -0.5218
   12MPD2     H  185   2.471   3.211  14.204  0.4039 -0.2181 -0.5554
   12MPD2    H1  186   2.093   3.323  14.054 -1.5357  1.9631  0.7449
   12MPD2    H2  187   2.285   3.567  14.346 -0.5803  0.9773 -0.7205
   12MPD2    H3  188   2.099   3.520  14.205  0.1845 -0.0076 -0.4695
   12MPD2     N  189   2.286   3.133  14.052 -0.0964 -0.3502  0.4548
   12MPD2    H5  190   2.370   3.078  14.064 -0.5915 -0.9312  1.2853
   12MPD2    N1  191   2.509   3.413  14.363 -0.6950  0.1081 -1.1606
   12MPD2    H7  192   2.503   3.503  14.411 -1.7073  0.4134 -1.8403
   13TCq1    O1  193   2.770   3.538  10.671  0.2388 -0.5747  0.1150
   13TCq1    C1  194   2.670   3.552  10.758  0.0938  0.0272 -0.4034
   13TCq1    O2  195   2.622   3.660  10.792 -0.0563  0.0332  0.0421
   13TCq1    C2  196   2.668   3.431  10.843  0.0792 -0.8437 -0.0077
   13TCq1    C3  197   2.762   3.333  10.835  0.5013  0.8864 -0.6773
   13TCq1    C4  198   2.730   3.206  10.872 -1.0616  0.1258 -0.0430
   13TCq1    C5  199   2.608   3.174  10.932 -0.5516 -0.4865  0.4308
   13TCq1    C6  200   2.525   3.276  10.955 -0.0722  0.2895 -0.6552
   13TCq1    C7  201   2.553   3.406  10.914 -0.3728 -0.6469 -0.2460
   13TCq1    C8  202   2.387   3.251  10.993  0.3172 -0.6886 -0.1333
   13TCq1    O4  203   2.350   3.320  11.081  0.1731 -0.0299  0.0216
   13TCq1    C9  204   2.822   3.097  10.844 -0.3562 -0.4184  0.4982
   13TCq1    O5  205   2.785   2.982  10.893  0.0801 -0.6198 -0.1611
   13TCq1    O6  206   2.923   3.126  10.777  0.4676  0.4107 -0.8187
   13TCq1    H1  207   2.788   3.442  10.664  0.5881 -0.6235  1.6557
   13TCq1    H2  208   2.864   3.356  10.809  1.6199 -1.0440  1.9137
   13TCq1    H3  209   2.582   3.073  10.960 -0.7836 -0.5184  0.1016
   13TCq1    H4  210   2.484   3.488  10.929  2.0793  1.1570  1.1260
   14MPD2     C  211   2.188   2.952  10.889  0.7379  0.1992  0.3064
   14MPD2    C1  212   2.232   3.053  10.972 -0.0967 -0.1689 -0.9718
   14MPD2    C2  213   2.170   3.083  11.089  0.3794  0.0439 -0.0963
   14MPD2    C3  214   2.064   3.005  11.127  0.3338  0.8326  0.0090
   14MPD2    C4  215   2.018   2.903  11.051 -0.0508  0.2399 -0.0067
   14MPD2    C5  216   2.079   2.880  10.929  0.2991  0.3417 -0.1746
   14MPD2     H  217   2.211   3.151  11.163 -0.3902  1.9741 -1.4239
   14MPD2    H1  218   1.942   2.829  11.074  0.6801 -0.6498 -0.4616
   14MPD2    H2  219   2.232   2.930  10.793  1.3978  0.3600  0.5727
   14MPD2    H3  220   2.043   2.801  10.865  3.7334  0.1508 -1.8897
   14MPD2     N  221   2.009   3.028  11.255  0.2647 -0.2443 -0.0595
   14MPD2    H5  222   2.029   3.111  11.310  1.4324 -1.1254  0.8306
   14MPD2    N1  223   2.346   3.127  10.933 -0.3869  0.3293  0.0970
   14MPD2    H7  224   2.407   3.103  10.855  0.4231 -1.0834  1.1767
   15TCq1    O1  225   2.899   2.720   1.842 -0.9373 -0.4798 -0.3648
   15TCq1    C1  226   2.990   2.761   1.752  0.1351  0.2131  0.3693
   15TCq1    O2  227   2.968   2.822   1.646 -0.3199 -0.2284  0.2083
   15TCq1    C2  228   3.097   2.661   1.766  0.0104 -0.2260 -0.0602
   15TCq1    C3  229   3.122   2.631   1.901 -0.0160  0.1609  0.4243
   15TCq1    C4  230   3.161   2.499   1.933  0.1184  0.7850 -0.6403
   15TCq1    C5  231   3.167   2.407   1.835  0.1470 -0.5568 -0.2602
   15TCq1    C6  232   3.140   2.440   1.707 -0.4534 -0.3269  0.2949
   15TCq1    C7  233   3.098   2.567   1.669 -0.4814 -0.0143  0.9750
   15TCq1    C8  234   3.164   2.339   1.604 -0.9053 -0.2462 -0.3966
   15TCq1    O4  235   3.180   2.223   1.645 -0.2414 -0.0804 -0.2791
   15TCq1    C9  236   3.195   2.465   2.069  0.4376 -0.1915  0.9160
   15TCq1    O5  237   3.247   2.351   2.079  0.5446  0.3162  0.2700
   15TCq1    O6  238   3.220   2.557   2.154 -0.0735  0.1891 -0.2845
   15TCq1    H1  239   2.938   2.655   1.905 -3.2619  1.6450  3.2268
   15TCq1    H2  240   3.110   2.709   1.976  1.8109  0.6829  0.1793
   15TCq1    H3  241   3.214   2.311   1.855  1.0605 -0.1877 -0.6111
   15TCq1    H4  242   3.068   2.582   1.566 -1.2788 -2.5301  0.8416
   16MPD2     C  243   3.166   2.371   1.235 -0.4505  0.0448  0.1641
   16MPD2    C1  244   3.181   2.307   1.356  0.0978  0.5623  0.3479
   16MPD2    C2  245   3.227   2.177   1.356  0.3863  0.3757 -0.9375
   16MPD2    C3  246   3.261   2.102   1.248 -0.0550  0.4344  0.7156
   16MPD2    C4  247   3.236   2.164   1.128 -0.0517 -1.3010  0.5158
   16MPD2    C5  248   3.199   2.294   1.128  0.0724 -0.0475  0.5426
   16MPD2     H  249   3.238   2.123   1.449  0.6796 -0.9941 -1.7606
   16MPD2    H1  250   3.264   2.117   1.034  1.9055  1.7049 -0.3944
   16MPD2    H2  251   3.143   2.476   1.229  1.6314  0.5469  1.0215
   16MPD2    H3  252   3.197   2.335   1.027 -0.9990  0.8108  0.9147
   16MPD2     N  253   3.306   1.971   1.266 -1.0138  0.4856 -0.0882
   16MPD2    H5  254   3.313   1.956   1.366 -2.6475 -1.4723 -0.2863
   16MPD2    N1  255   3.156   2.385   1.474 -0.2725  0.0157 -0.4492
   16MPD2    H7  256   3.134   2.482   1.456 -3.4198 -0.4793  0.7324
   17TCq1    O1  257   1.665   1.917   9.480 -0.4293  0.3242  0.0055
   17TCq1    C1  258   1.743   2.032   9.461 -0.8065  0.2850  0.2204
   17TCq1    O2  259   1.717   2.133   9.395  0.1074 -0.0235  0.0351
   17TCq1    C2  260   1.878   1.998   9.496 -1.3955  0.4027 -0.4373
   17TCq1    C3  261   1.983   2.053   9.419 -0.6917 -0.6088  0.1013
   17TCq1    C4  262   2.113   2.038   9.479  0.1916 -0.5364 -0.1713
   17TCq1    C5  263   2.124   1.984   9.605 -0.1759  0.1787  0.4678
   17TCq1    C6  264   2.019   1.934   9.672  0.2485 -0.6533 -0.6413
   17TCq1    C7  265   1.893   1.943   9.621  0.4365  0.3248  0.6812
   17TCq1    C8  266   2.022   1.932   9.816  0.3245 -0.1533 -0.0691
   17TCq1    O4  267   1.938   1.868   9.874 -0.1490 -0.2327 -0.2278
   17TCq1    C9  268   2.230   2.078   9.409  0.4716  0.1820 -0.4246
   17TCq1    O5  269   2.210   2.133   9.297 -0.9171  0.2678 -0.4019
   17TCq1    O6  270   2.336   2.087   9.484  0.5851 -0.2590  0.4530
   17TCq1    H1  271   1.711   1.836   9.513 -0.0302  1.3854  2.0508
   17TCq1    H2  272   1.966   2.087   9.318 -1.5337 -3.1611 -0.6084
   17TCq1    H3  273   2.226   1.978   9.642  0.7295 -1.3608 -2.3102
   17TCq1    H4  274   1.800   1.920   9.673  0.2149 -2.7153 -1.0483
   18MPD2     C  275   2.066   1.987  10.103 -0.5243  0.3092 -0.8288
   18MPD2    C1  276   2.151   2.031   9.999  0.4103 -0.5297  0.1610
   18MPD2    C2  277   2.271   2.081  10.036 -0.0017 -0.4751  0.1537
   18MPD2    C3  278   2.292   2.122  10.165 -0.5656  0.0524  0.4032
   18MPD2    C4  279   2.208   2.087  10.264  0.2740  0.0207  0.0695
   18MPD2    C5  280   2.101   2.010  10.232 -0.7582  0.4980 -0.3566
   18MPD2     H  281   2.349   2.108   9.966  1.3650 -0.5851  1.6491
   18MPD2    H1  282   2.239   2.101  10.367 -0.2882 -1.2565  0.4100
   18MPD2    H2  283   1.970   1.938  10.086  0.0580 -1.6971  1.6376
   18MPD2    H3  284   2.037   1.986  10.317 -0.6755 -0.2332 -0.5006
   18MPD2     N  285   2.407   2.200  10.204  0.1206  0.2199  0.6367
   18MPD2    H5  286   2.414   2.221  10.303 -1.7620 -1.0600  1.0442
   18MPD2    N1  287   2.125   2.008   9.866  0.2359 -0.0087 -0.2178
   18MPD2    H7  288   2.190   2.061   9.809  0.2322 -0.4964 -0.6768
   19TMC2    C1  289   3.653   3.441  14.174 -0.0379 -0.3850 -0.1424
   19TMC2    C2  290   3.578   3.554  14.193 -0.7231 -0.0719 -0.2910
   19TMC2    C3  291   3.438   3.551  14.192 -0.8817 -0.6687  0.3106
   19TMC2    C4  292   3.592   3.318  14.147 -0.9268  0.2569  0.2610
   19TMC2    C5  293   3.450   3.318  14.152  0.3367  0.0776  0.0998
   19TMC2    C6  294   3.374   3.430  14.173 -0.8849 -0.0029 -0.7550
   19TMC2     C  295   3.795   3.451  14.172 -0.2357  0.0593 -0.1241
   19TMC2     O  296   3.840   3.562  14.150  0.3181  0.1550 -0.2263
   19TMC2     H  297   3.634   3.645  14.208  0.0248 -0.6571  0.4378
   19TMC2    H1  298   3.649   3.228  14.127 -1.1537  0.2276 -0.2486
   19TMC2    H2  299   3.271   3.434  14.142 -1.3517 -1.5446  0.5700
   19TMC2    C7  300   3.380   3.186  14.157  0.3964 -0.0304  0.9812
   19TMC2    C8  301   3.374   3.683  14.180  0.1637 -0.0553  0.2568
   19TMC2    O1  302   3.455   3.089  14.146 -0.5032  0.0216 -0.9099
   19TMC2    O2  303   3.437   3.786  14.146 -0.6288 -0.3448 -0.4468
   19TMC2    O5  304   3.248   3.682  14.225 -0.2272  0.3220 -0.3987
   19TMC2    H5  305   3.207   3.602  14.265  1.7479  0.0988  1.1786
   20MPD2     C  306   4.083   3.408  14.224 -0.7097 -0.1219 -0.0473
   20MPD2    C1  307   3.994   3.312  14.246 -0.5152  0.1430 -0.2797
   20MPD2    C2  308   4.030   3.182  14.284 -0.6902  0.2108  0.2551
   20MPD2    C3  309   4.171   3.160  14.316 -1.1827  0.0403 -0.3716
   20MPD2    C4  310   4.265   3.256  14.283 -0.3366 -0.0735  0.5384
   20MPD2    C5  311   4.214   3.374  14.232 -1.1623 -0.0768 -0.0500
   20MPD2     H  312   3.956   3.104  14.296 -0.6273  0.2406  0.8130
   20MPD2    H1  313   4.371   3.239  14.297 -0.8112 -1.8871  1.9807
   20MPD2    H2  314   4.057   3.496  14.165  2.3228  0.2188 -0.8905
   20MPD2    H3  315   4.294   3.445  14.213 -1.9605  0.1652 -2.5127
   20MPD2     N  316   4.219   3.040  14.374 -0.5994 -0.2517 -0.5136
   20MPD2    H5  317   4.319   3.028  14.386 -0.5470  1.9120  1.2205
   20MPD2    N1  318   3.858   3.335  14.220 -0.2255 -0.0257  0.1970
   20MPD2    H7  319   3.792   3.269  14.260  0.8155 -1.5269 -0.5840
   21MPD2     C  320   1.427   3.522  14.168  0.2423  0.2034  0.1553
   21MPD2    C1  321   1.489   3.506  14.293 -0.3589 -0.0889  0.2261
   21MPD2    C2  322   1.428   3.544  14.409  0.0311  0.6095 -0.3181
   21MPD2    C3  323   1.300   3.590  14.402  0.2528 -0.3135  0.4950
   21MPD2    C4  324   1.244   3.633  14.279  0.7929  0.5753 -0.3582
   21MPD2    C5  325   1.312   3.595  14.166  0.0982 -0.2821 -0.2539
   21MPD2     H  326   1.479   3.523  14.502 -1.3107 -1.1872  0.0178
   21MPD2    H1  327   1.139   3.659  14.266  1.0978  1.3113 -1.3350
   21MPD2    H2  328   1.471   3.512  14.069  1.6045 -1.7097  0.9656
   21MPD2    H3  329   1.264   3.620  14.071  1.1733  3.2045  0.1077
   21MPD2     N  330   1.224   3.591  14.517  0.1971 -0.3931 -0.5541
   21MPD2    H5  331   1.148   3.658  14.519 -0.3152 -1.0054  0.4449
   21MPD2    N1  332   1.616   3.440  14.303 -0.6246 -0.4835 -0.3803
   21MPD2    H7  333   1.663   3.440  14.393 -1.3841 -0.5652  0.0173
   22TCq2    C1  334   1.257   3.525  14.633 -0.1370  0.5462 -0.1514
   22TCq2    O2  335   1.328   3.428  14.655  1.0432 -0.4896 -0.2753
   22TCq2    C2  336   1.164   3.560  14.740  0.2959 -0.0835  0.3789
   22TCq2    C3  337   1.149   3.474  14.839 -0.7390  0.1899  0.0866
   22TCq2    C4  338   1.074   3.519  14.945  0.3243 -0.3927 -0.1902
   22TCq2    C5  339   1.017   3.639  14.953 -0.2913  0.7026  0.1984
   22TCq2    C6  340   1.018   3.708  14.832 -0.4588  0.2270  0.1996
   22TCq2    C7  341   1.107   3.684  14.737  0.0847  0.2199  0.3165
   22TCq2    C8  342   0.968   3.849  14.842 -0.0065 -0.1578 -0.5258
   22TCq2    O4  343   0.934   3.887  14.955 -0.2598 -0.5078  0.1932
   22TCq2    C9  344   1.040   3.429  15.059  0.2701  0.3219 -0.2138
   22TCq2    O5  345   1.111   3.328  15.077 -0.4979  0.7059  0.5308
   22TCq2    O6  346   0.965   3.470  15.151  0.4667  0.4895  0.5175
   22TCq2    H2  347   1.186   3.372  14.840  2.8485  1.4935 -0.4732
   22TCq2    H3  348   0.955   3.670  15.036 -1.3311  2.5949 -1.2624
   22TCq2    H4  349   1.133   3.763  14.668  1.0977 -1.4200 -1.1712
   23MPD2     C  350   3.348   4.501  14.543  0.1678  0.3070 -0.4275
   23MPD2    C1  351   3.258   4.520  14.641 -0.2057  0.2445 -0.1995
   23MPD2    C2  352   3.201   4.642  14.646  0.0427 -0.6200 -0.2592
   23MPD2    C3  353   3.220   0.011  14.541  0.2572  0.2269  0.2379
   23MPD2    C4  354   3.287   4.694  14.428  0.2879 -0.5603  0.2883
   23MPD2    C5  355   3.357   4.583  14.434 -0.6918  0.3084 -0.2675
   23MPD2     H  356   3.140   4.664  14.733  0.2582 -4.9929  1.0100
   23MPD2    H1  357   3.305   0.041  14.347  0.9754 -0.3326  0.6430
   23MPD2    H2  358   3.414   4.416  14.529 -1.5393 -1.4047  1.8487
   23MPD2    H3  359   3.415   4.551  14.348 -1.3301 -1.8227  0.0800
   23MPD2     N  360   3.148   0.126  14.530  0.0356  0.4427 -0.1860
   23MPD2    H5  361   3.157   0.170  14.439 -1.4066 -0.3009 -0.6825
   23MPD2    N1  362   3.236   4.428  14.748  0.0410  0.7695 -0.4228
   23MPD2    H7  363   3.175   4.454  14.825  0.7375  0.4900  0.2181
   24TCq2    C1  364   3.051   0.167  14.617  0.5429  0.1435 -0.5373
   24TCq2    O2  365   3.007   0.115  14.715  0.0452 -0.1116 -0.5125
   24TCq2    C2  366   2.977   0.290  14.567 -0.0379 -0.0420  0.2673
   24TCq2    C3  367   2.963   0.310  14.431  0.4672 -0.8975 -0.7594
   24TCq2    C4  368   2.865   0.396  14.392 -0.3491 -0.3180 -0.1189
   24TCq2    C5  369   2.775   0.449  14.483 -0.1882 -0.6580  0.8479
   24TCq2    C6  370   2.794   0.433  14.618  0.3873 -0.1695  0.0422
   24TCq2    C7  371   2.899   0.353  14.655 -0.3534 -0.2063 -0.0807
   24TCq2    C8  372   2.673   0.402  14.690  0.5226  0.5843  0.1331
   24TCq2    O4  373   2.682   0.327  14.784 -0.1201 -0.0685 -0.3543
   24TCq2    C9  374   2.822   0.411  14.252  0.1020  0.1505 -0.1137
   24TCq2    O5  375   2.732   0.494  14.230 -0.6567 -0.5442 -0.4336
   24TCq2    O6  376   2.861   0.320  14.172 -0.0937 -0.4390 -0.1700
   24TCq2    H2  377   3.020   0.255  14.358 -1.5005 -1.1651 -2.0999
   24TCq2    H3  378   2.691   0.507  14.446  1.2254  0.9354  0.1026
   24TCq2    H4  379   2.921   0.337  14.760 -0.8123 -0.7315 -0.0659
   25TMC2    C1  380   2.082   1.514  11.587 -0.1746 -0.8237  0.5475
   25TMC2    C2  381   2.196   1.484  11.656 -0.8029 -0.2778 -0.1587
   25TMC2    C3  382   2.204   1.521  11.790 -0.3192 -0.8357  0.1213
   25TMC2    C4  383   1.976   1.583  11.639 -0.2684 -0.6950  0.5802
   25TMC2    C5  384   1.991   1.612  11.773  0.1758  0.3418  0.3205
   25TMC2    C6  385   2.098   1.581  11.851 -0.0569  0.5926  0.1807
   25TMC2     C  386   2.094   1.475  11.443  0.3892 -0.2428  0.6449
   25TMC2     O  387   2.208   1.479  11.395  0.2309 -0.4100 -0.1468
   25TMC2     H  388   2.270   1.423  11.607  1.6227 -0.1799  3.3755
   25TMC2    H1  389   1.889   1.595  11.576 -3.0670 -1.5533  4.2417
   25TMC2    H2  390   2.095   1.607  11.957  1.3876 -0.0300  0.3842
   25TMC2    C7  391   1.881   1.672  11.851  0.0542 -0.3375 -0.8847
   25TMC2    C8  392   2.285   1.439  11.874  0.0476  0.6597 -0.3807
   25TMC2    O1  393   1.894   1.700  11.967 -0.6640  0.3991  0.4268
   25TMC2    O2  394   2.267   1.318  11.874  0.8749  0.2244  0.1277
   25TMC2    O5  395   2.342   1.522  11.964 -0.5509  0.5362 -0.2557
   25TMC2    H5  396   2.322   1.616  11.942  1.0755  0.6309 -1.3624
   26MPD2     C  397   1.904   1.246  11.020  0.1390 -0.0353 -0.1433
   26MPD2    C1  398   1.813   1.242  11.118 -0.4977  0.4564  0.1485
   26MPD2    C2  399   1.836   1.303  11.236 -0.4688  0.4109  0.8902
   26MPD2    C3  400   1.960   1.366  11.269 -0.7585  0.4275 -0.0102
   26MPD2    C4  401   2.053   1.372  11.167 -0.3388  0.2252  0.7472
   26MPD2    C5  402   2.021   1.310  11.047 -0.3298  0.2447 -0.2980
   26MPD2     H  403   1.766   1.303  11.319 -1.7364  4.6938 -0.2050
   26MPD2    H1  404   2.148   1.425  11.174 -1.1273  1.7433  0.1200
   26MPD2    H2  405   1.903   1.194  10.924  1.1886 -1.2240  0.4998
   26MPD2    H3  406   2.103   1.309  10.975  0.1181  0.3114  0.2120
   26MPD2     N  407   1.978   1.416  11.398 -0.6153  0.3333  0.8074
   26MPD2    H5  408   1.898   1.410  11.460 -0.3064  0.3888  1.2145
   26MPD2    N1  409   1.690   1.175  11.088  0.4116  0.2393  0.0117
   26MPD2    H7  410   1.689   1.125  11.000  2.5762  0.7150 -0.2671
   27TMC2    C1  411   0.787   3.757  12.041  0.1030  0.0215 -0.3952
   27TMC2    C2  412   0.906   3.700  12.010  0.1179 -0.5160 -0.1918
   27TMC2    C3  413   0.988   3.752  11.917 -0.5210 -0.7511 -0.3131
   27TMC2    C4  414   0.747   3.868  11.976  0.6227  0.1704 -0.3545
   27TMC2    C5  415   0.837   3.924  11.892 -0.3751 -0.6132  0.1432
   27TMC2    C6  416   0.956   3.866  11.847 -0.4089  0.5489  0.1920
   27TMC2     C  417   0.703   3.701  12.147  0.7583 -0.1199  0.2350
   27TMC2     O  418   0.751   3.609  12.205  0.2283 -0.3500  0.4025
   27TMC2     H  419   0.940   3.603  12.045 -1.0744 -0.4290  1.2411
   27TMC2    H1  420   0.645   3.904  11.980 -1.0844 -4.9357  2.1431
   27TMC2    H2  421   1.022   3.920  11.780  0.5346 -1.2808 -0.3669
   27TMC2    C7  422   0.840   4.074  11.916 -0.0839 -0.7698  0.1398
   27TMC2    C8  423   1.114   3.683  11.888  0.2808 -0.3196 -0.8566
   27TMC2    O1  424   0.937   4.126  11.869  0.2429  0.1337  0.0374
   27TMC2    O2  425   1.163   3.592  11.950  0.5727 -0.2372 -0.2352
   27TMC2    O5  426   1.169   3.715  11.769 -0.8014  0.4732 -0.0545
   27TMC2    H5  427   1.111   3.770  11.713  0.1545  1.3957 -0.1530
   28MPD2     C  428   0.299   3.577  12.405  0.0367 -0.1278  0.0426
   28MPD2    C1  429   0.292   3.714  12.391 -0.5791 -0.5259 -0.2607
   28MPD2    C2  430   0.389   3.780  12.316  0.4470  0.6534 -0.5482
   28MPD2    C3  431   0.490   3.706  12.251  0.8895  0.1187 -0.2183
   28MPD2    C4  432   0.490   3.568  12.271  0.5246  0.7510 -0.0712
   28MPD2    C5  433   0.393   3.503  12.344 -0.0019  0.0087 -0.6662
   28MPD2     H  434   0.376   3.886  12.293  2.1203  0.4188 -2.6378
   28MPD2    H1  435   0.558   3.496  12.228 -0.7194 -1.1528  1.1800
   28MPD2    H2  436   0.243   3.531  12.486  0.0389 -3.5797 -1.9517
   28MPD2    H3  437   0.393   3.398  12.368  0.6328  0.3008  0.6033
   28MPD2     N  438   0.585   3.769  12.173  0.2273  0.5191 -0.6906
   28MPD2    H5  439   0.550   3.853  12.127  1.7354  1.0912 -0.7771
   28MPD2    N1  440   0.190   3.777  12.460  0.2756  0.9238 -0.6554
   28MPD2    H7  441   0.129   3.711  12.508 -0.3743 -0.2630 -3.1511
   29MPD2     C  442   4.474   1.621  14.175 -0.1985 -0.2404  0.3951
   29MPD2    C1  443   4.582   1.603  14.260  0.3510  0.1527 -0.0891
   29MPD2    C2  444   4.641   1.703  14.325 -0.3150  0.8543  0.5904
   29MPD2    C3  445   4.578   1.828  14.331 -0.3685  0.4803  1.1378
   29MPD2    C4  446   4.465   1.847  14.251  0.4440 -0.6721  0.3551
   29MPD2    C5  447   4.420   1.744  14.171 -0.2462  0.6938  0.4616
   29MPD2     H  448   0.006   1.687  14.385 -0.4473 -3.5599 -0.3914
   29MPD2    H1  449   4.416   1.943  14.245 -0.9614 -1.5622 -1.8505
   29MPD2    H2  450   4.435   1.541  14.113 -0.6411  0.7884 -0.6494
   29MPD2    H3  451   4.334   1.768  14.110  0.3005  0.9038 -0.2312
   29MPD2     N  452   4.645   1.943  14.386  0.7136 -0.1725  0.8544
   29MPD2    H5  453   4.584   2.022  14.402  1.9483  0.6880  1.2587
   29MPD2    N1  454   4.645   1.477  14.273  0.2417 -0.4724  0.0223
   29MPD2    H7  455   0.004   1.472  14.332 -0.7300 -3.8260  1.0879
   30TCq2    C1  456   0.037   1.938  14.458 -0.1959 -0.5026 -0.1188
   30TCq2    O2  457   0.140   1.868  14.460  0.2636  0.1237  0.3345
   30TCq2    C2  458   0.048   2.059  14.537  0.9816  0.4586 -0.3688
   30TCq2    C3  459   0.061   2.044  14.669  0.7123 -0.2023 -0.8920
   30TCq2    C4  460   0.076   2.159  14.744  0.3151 -0.7171 -0.4998
   30TCq2    C5  461   0.056   2.286  14.683 -0.1747  0.7780  0.1328
   30TCq2    C6  462   0.036   2.303  14.550 -0.2934 -0.1651  0.3068
   30TCq2    C7  463   0.038   2.186  14.478 -0.1499 -0.0197 -0.1437
   30TCq2    C8  464   0.049   2.427  14.486  0.6064  0.6231  0.0816
   30TCq2    O4  465   4.719   2.438  14.375 -0.2198 -0.2891  0.2225
   30TCq2    C9  466   0.103   2.156  14.885  0.1139 -0.1635  0.3616
   30TCq2    O5  467   0.068   2.053  14.953 -0.0652  0.1534 -0.3969
   30TCq2    O6  468   0.159   2.253  14.934 -0.3598  0.0747  0.2228
   30TCq2    H2  469   0.077   1.946  14.713  2.4384  0.6749  0.4353
   30TCq2    H3  470   0.045   2.377  14.742 -2.6200  1.5726 -1.5712
   30TCq2    H4  471   0.049   2.186  14.371  1.0660  2.8114 -0.0234
   31MPD2     C  472   3.287   0.423  14.649  0.0550 -0.8959 -0.4348
   31MPD2    C1  473   3.213   0.542  14.657 -0.7275 -0.1123  0.6693
   31MPD2    C2  474   3.151   0.571  14.779  0.1660 -0.7031  0.1130
   31MPD2    C3  475   3.150   0.478  14.881 -0.0474 -0.1913 -1.0034
   31MPD2    C4  476   3.224   0.363  14.867  0.1902 -0.4442  0.3363
   31MPD2    C5  477   3.291   0.335  14.751 -0.2740  0.9134 -0.8495
   31MPD2     H  478   3.099   0.667  14.782  0.5443 -0.4987  0.0466
   31MPD2    H1  479   3.219   0.289  14.946 -1.5857 -0.3587  0.3054
   31MPD2    H2  480   3.338   0.407  14.554  0.0034 -0.8637 -0.4681
   31MPD2    H3  481   3.342   0.239  14.751 -1.4386  0.2848  0.6128
   31MPD2     N  482   3.068   0.504  14.996 -0.4304 -0.3369 -0.3095
   31MPD2    H5  483   3.084   0.447  15.078  1.5215 -0.7989 -1.0256
   31MPD2    N1  484   3.187   0.612  14.535 -0.7440  0.3670 -0.0765
   31MPD2    H7  485   3.245   0.591  14.455  0.5273 -0.4290  1.0477
   32TCq2    C1  486   2.971   0.601  15.000 -0.0356 -0.0042 -0.0429
   32TCq2    O2  487   2.920   0.672  14.915  0.4939  0.2934 -0.0009
   32TCq2    C2  488   2.928   0.634  15.133 -0.4706 -0.5072  0.1931
   32TCq2    C3  489   2.895   0.766  15.166  0.3397  0.0656 -0.0785
   32TCq2    C4  490   2.852   0.793  15.291 -0.2657 -0.2384  0.8442
   32TCq2    C5  491   2.831   0.690  15.381 -0.4035 -0.3356  0.1712
   32TCq2    C6  492   2.875   0.564  15.344  0.0337 -0.1013  0.7511
   32TCq2    C7  493   2.925   0.529  15.219 -0.1350 -0.5184 -0.6670
   32TCq2    C8  494   2.869   0.457  15.439 -0.0420 -0.5966  0.0923
   32TCq2    O4  495   2.941   0.362  15.413  0.2417 -0.5506 -0.5185
   32TCq2    C9  496   2.825   0.938  15.329  0.1204 -0.4775  0.1496
   32TCq2    O5  497   2.812   1.022  15.233 -0.5749 -0.0317  0.5073
   32TCq2    O6  498   2.813   0.966  15.452  0.1968  0.2637  0.1994
   32TCq2    H2  499   2.914   0.842  15.090 -0.4032 -0.1063 -0.4420
   32TCq2    H3  500   2.794   0.720  15.478  0.3747 -2.6129  1.1592
   32TCq2    H4  501   2.945   0.424  15.200  0.3242 -0.7042  0.7852
   33MPD2     C  502   3.281   2.504  10.102  0.1875  0.4378 -0.1456
   33MPD2    C1  503   3.161   2.515  10.033  0.1568 -0.0007  0.0453
   33MPD2    C2  504   3.171   2.539   9.897  0.2809 -0.2302  0.1156
   33MPD2    C3  505   3.288   2.563   9.838  1.2296 -0.5245  0.0428
   33MPD2    C4  506   3.410   2.545   9.905  0.3964 -0.6250 -0.4511
   33MPD2    C5  507   3.405   2.519  10.037 -0.0351  0.3740  0.2923
   33MPD2     H  508   3.074   2.538   9.849 -0.3451 -0.3723  1.3681
   33MPD2    H1  509   3.501   2.561   9.848  0.0526 -0.3413 -0.9171
   33MPD2    H2  510   3.286   2.472  10.205 -0.6175 -0.7662 -0.4810
   33MPD2    H3  511   3.496   2.507  10.095  0.2551  0.9277 -0.0442
   33MPD2     N  512   3.305   2.583   9.700  0.1815 -0.0896 -0.1334
   33MPD2    H5  513   3.402   2.604   9.680  0.0153 -0.5080 -1.3919
   33MPD2    N1  514   3.050   2.462  10.097 -0.6384 -0.1425 -0.4446
   33MPD2    H7  515   3.066   2.430  10.192  2.9875  1.3088 -0.5883
   34TCq2    C1  516   3.216   2.565   9.594  0.0272  0.0599 -0.0397
   34TCq2    O2  517   3.116   2.493   9.601  0.3850 -0.2339  0.1043
   34TCq2    C2  518   3.267   2.614   9.469  0.5307 -0.0623  0.1253
   34TCq2    C3  519   3.207   2.577   9.352 -0.4262  0.4832 -0.1024
   34TCq2    C4  520   3.223   2.655   9.238 -0.4506  1.0459 -0.2327
   34TCq2    C5  521   3.295   2.772   9.249 -0.5478 -0.0199 -0.2150
   34TCq2    C6  522   3.343   2.821   9.366 -0.2062 -0.0224  0.0106
   34TCq2    C7  523   3.325   2.738   9.477 -0.4102 -0.2850 -0.0064
   34TCq2    C8  524   3.422   2.944   9.369 -0.1120 -0.3152  0.2326
   34TCq2    O4  525   3.400   3.023   9.457 -0.2780  0.3462  0.2775
   34TCq2    C9  526   3.157   2.620   9.119  0.2334  0.0575  0.1123
   34TCq2    O5  527   3.192   2.689   9.014  0.1435  0.3026 -0.1574
   34TCq2    O6  528   3.064   2.539   9.130  0.0569  0.7192  0.0110
   34TCq2    H2  529   3.137   2.495   9.361 -0.1526 -0.0071 -2.4043
   34TCq2    H3  530   3.298   2.836   9.162 -1.7500  1.5153  0.8678
   34TCq2    H4  531   3.353   2.789   9.569 -0.4133  2.5234 -1.5728
   35MPD2     C  532   4.604   4.709  11.900  0.7179 -0.1612 -0.1612
   35MPD2    C1  533   4.573   4.578  11.883  0.0651  0.0826  0.3519
   35MPD2    C2  534   4.495   4.544  11.774 -0.4921 -0.1038 -0.4891
   35MPD2    C3  535   4.444   4.639  11.687 -0.2535  0.1365  0.5783
   35MPD2    C4  536   4.488   0.045  11.705 -0.8470 -0.5775  0.0391
   35MPD2    C5  537   4.554   0.086  11.821 -0.2953 -0.0097 -0.1669
   35MPD2     H  538   4.456   4.443  11.760 -0.0726 -0.4257  0.6784
   35MPD2    H1  539   4.455   0.121  11.636 -0.6117  0.8461  1.5083
   35MPD2    H2  540   4.666   0.017  11.983 -2.0393  1.8547  1.1388
   35MPD2    H3  541   4.571   0.192  11.837 -1.6696 -0.0437  1.4998
   35MPD2     N  542   4.360   4.618  11.572  0.7365  0.4557 -0.7463
   35MPD2    H5  543   4.359   4.692  11.502 -1.2802  1.3529  0.2481
   35MPD2    N1  544   4.609   4.483  11.986  0.4322  0.0064  1.1999
   35MPD2    H7  545   4.657   4.527  12.063  0.9292  0.2637  0.7493
   36TCq2    C1  546   4.280   4.505  11.561  0.5675  0.4908  0.7305
   36TCq2    O2  547   4.250   4.432  11.659 -0.3225 -1.0255  0.0428
   36TCq2    C2  548   4.221   4.471  11.428 -0.2126 -0.2370  0.4189
   36TCq2    C3  549   4.248   4.550  11.316  0.2168 -0.0696  0.0238
   36TCq2    C4  550   4.208   4.505  11.195  0.9338 -0.3190  0.3360
   36TCq2    C5  551   4.166   4.372  11.179 -0.1953  0.0764 -0.1563
   36TCq2    C6  552   4.156   4.292  11.295 -0.0374 -0.8589 -0.8806
   36TCq2    C7  553   4.169   4.347  11.418  0.5778  0.4528  0.2036
   36TCq2    C8  554   4.103   4.157  11.292 -0.2893  0.3916 -0.2633
   36TCq2    O4  555   4.066   4.115  11.400 -0.5437 -0.2240  0.6778
   36TCq2    C9  556   4.198   4.586  11.079  0.5347 -0.3988  0.2496
   36TCq2    O5  557   4.146   4.529  10.977 -0.5188 -0.0618  0.1797
   36TCq2    O6  558   4.252   4.701  11.077 -0.2265  0.4592 -0.1085
   36TCq2    H2  559   4.281   4.653  11.328  2.5174 -0.4139 -3.4254
   36TCq2    H3  560   4.169   4.322  11.083 -1.0852  1.8431 -1.1043
   36TCq2    H4  561   4.131   4.292  11.503 -2.1129  0.2251 -1.1396
   37TMC2    C1  562   1.770   4.546  11.372  0.2635  0.3146 -0.2745
   37TMC2    C2  563   1.670   4.580  11.287 -0.3086 -0.0652  0.0974
   37TMC2    C3  564   1.702   4.668  11.182  0.9249  0.3537  0.2064
   37TMC2    C4  565   1.892   4.604  11.362 -0.0791  0.7998 -0.5594
   37TMC2    C5  566   1.919   4.694  11.262  0.1800  0.4295 -0.0881
   37TMC2    C6  567   1.822   0.006  11.177 -0.0050 -0.4155  0.2301
   37TMC2     C  568   1.755   4.434  11.457  0.5192  0.2322  0.9642
   37TMC2     O  569   1.856   4.373  11.480 -0.1328  0.0299 -0.2391
   37TMC2     H  570   1.569   4.542  11.301  0.3019 -1.3667  0.8939
   37TMC2    H1  571   1.962   4.583  11.442 -2.5577  0.0686  1.4437
   37TMC2    H2  572   1.831   0.077  11.095  0.9261 -2.3018 -1.3181
   37TMC2    C7  573   2.049   0.037  11.258  0.5001 -0.5106  0.5461
   37TMC2    C8  574   1.601   4.720  11.098  0.6477 -0.1888  0.2377
   37TMC2    O1  575   2.068   0.116  11.167  0.0368  0.2171 -1.1194
   37TMC2    O2  576   1.598   0.113  11.061  0.3158 -0.4502  0.0937
   37TMC2    O5  577   1.527   4.619  11.038  0.8702 -0.2930  0.0937
   37TMC2    H5  578   1.567   4.535  11.068  0.3144  0.1207  1.9874
   38MPD2     C  579   1.510   4.062  11.707 -0.2878 -0.5234 -0.5023
   38MPD2    C1  580   1.429   4.170  11.705 -0.6714  0.0504 -0.5874
   38MPD2    C2  581   1.460   4.277  11.617 -1.1993  0.1522 -0.5321
   38MPD2    C3  582   1.585   4.288  11.563 -0.5039  0.6811 -0.0073
   38MPD2    C4  583   1.666   4.182  11.565 -0.4014  0.3861 -0.1806
   38MPD2    C5  584   1.628   4.068  11.629 -0.5240 -0.6449 -0.5170
   38MPD2     H  585   1.386   4.355  11.614 -0.4675  0.8488 -0.6258
   38MPD2    H1  586   1.770   4.174  11.536 -0.6138 -0.3377 -0.7347
   38MPD2    H2  587   1.502   3.974  11.770 -1.6928 -0.7952 -1.0650
   38MPD2    H3  588   1.699   3.987  11.639  0.5750  0.4507  0.5139
   38MPD2     N  589   1.622   4.413  11.501  0.5487 -0.0544 -0.0774
   38MPD2    H5  590   1.551   4.484  11.494 -1.8784 -2.5831 -0.9857
   38MPD2    N1  591   1.322   4.181  11.798  0.1567 -0.6097 -0.7397
   38MPD2    H7  592   1.278   4.272  11.811  0.8632 -0.2164 -1.0617
   39MPD2     C  593   4.171   1.344   1.415 -0.2074  0.0088  0.3735
   39MPD2    C1  594   4.069   1.314   1.500  0.4156 -0.4632  0.0914
   39MPD2    C2  595   3.948   1.257   1.452  0.5027 -0.1678 -0.4651
   39MPD2    C3  596   3.930   1.229   1.310 -0.0957  0.7125  0.5054
   39MPD2    C4  597   4.032   1.276   1.226  0.1043 -0.4176 -0.1773
   39MPD2    C5  598   4.147   1.330   1.279  0.3847 -0.3186 -0.1236
   39MPD2     H  599   3.873   1.216   1.518  0.9696  1.7927  1.2880
   39MPD2    H1  600   4.008   1.287   1.121 -0.4781 -4.1891 -0.4350
   39MPD2    H2  601   4.270   1.377   1.446  0.4286  0.8168 -2.5347
   39MPD2    H3  602   4.222   1.363   1.207  1.4996 -0.1488  1.1181
   39MPD2     N  603   3.807   1.186   1.253  0.2381  0.8771  0.2963
   39MPD2    H5  604   3.810   1.185   1.152 -0.4726 -0.3548  0.2938
   39MPD2    N1  605   4.101   1.330   1.640  0.6706  0.1650  0.1453
   39MPD2    H7  606   4.196   1.356   1.662  1.1628 -1.1223 -0.4378
   40TCq2    C1  607   4.017   1.307   1.754 -0.2793 -0.5454  0.0286
   40TCq2    O2  608   3.897   1.285   1.764 -0.4362  0.2883 -0.1771
   40TCq2    C2  609   4.101   1.316   1.878 -0.4218  0.1405 -0.4660
   40TCq2    C3  610   4.027   1.302   1.991  0.5065 -0.4054 -0.2788
   40TCq2    C4  611   4.088   1.327   2.108 -0.4927 -0.2326  0.1284
   40TCq2    C5  612   4.215   1.377   2.119 -0.6379 -0.4972 -0.0275
   40TCq2    C6  613   4.283   1.387   2.005  0.0698 -0.3635 -0.5204
   40TCq2    C7  614   4.233   1.350   1.880  0.5316  0.7993  0.0095
   40TCq2    C8  615   4.430   1.391   2.012  0.3272  0.4507  0.2773
   40TCq2    O4  616   4.479   1.353   2.118  0.7841  0.1612  0.0404
   40TCq2    C9  617   4.012   1.320   2.229  0.2705  0.2133  0.4217
   40TCq2    O5  618   3.886   1.309   2.212 -0.2987 -0.2342 -0.3347
   40TCq2    O6  619   4.069   1.341   2.340  0.0756 -0.0010  0.0544
   40TCq2    H2  620   3.922   1.274   1.988  1.3624 -3.5560 -0.6931
   40TCq2    H3  621   4.258   1.397   2.216 -0.3698 -2.5064  0.2678
   40TCq2    H4  622   4.302   1.360   1.797 -0.3108  0.8298 -0.6792
   41TMC2    C1  623   3.705   4.240  14.551 -0.0319  0.7276 -0.2920
   41TMC2    C2  624   3.736   4.121  14.483  0.2735 -0.1140  0.6044
   41TMC2    C3  625   3.763   4.136  14.343 -0.2807  0.3368 -0.6489
   41TMC2    C4  626   3.690   4.363  14.487  0.1900  0.3925 -0.3286
   41TMC2    C5  627   3.726   4.370  14.354 -0.1399  0.1035  0.6655
   41TMC2    C6  628   3.759   4.258  14.280 -0.1668  0.3301  0.6328
   41TMC2     C  629   3.672   4.228  14.691 -0.4869  0.3781 -0.1577
   41TMC2     O  630   3.661   4.109  14.721 -0.3894 -0.1087 -0.2334
   41TMC2     H  631   3.769   4.037  14.542  0.5632 -0.0954  0.4714
   41TMC2    H1  632   3.664   4.455  14.539  0.0230 -0.2342  0.7000
   41TMC2    H2  633   3.774   4.258  14.173  0.1342 -2.3255  0.6510
   41TMC2    C7  634   3.682   4.492  14.284  0.0264  0.5713 -0.3758
   41TMC2    C8  635   3.753   4.010  14.274  0.0568 -0.0921 -0.8361
   41TMC2    O1  636   3.663   4.589  14.354 -0.4009  0.2709 -0.2330
   41TMC2    O2  637   3.766   3.903  14.335 -0.1654  0.6713 -0.1433
   41TMC2    O5  638   3.648   4.026  14.191  0.0185 -0.4532 -0.5086
   41TMC2    H5  639   3.627   4.119  14.167  4.0560  0.2281 -1.2914
   42MPD2     C  640   3.599   4.242  14.978  0.3118  0.0773  0.1311
   42MPD2    C1  641   3.615   4.353  14.906 -0.5203 -0.1354  0.2926
   42MPD2    C2  642   3.607   4.481  14.953  0.1071  0.2886 -0.0619
   42MPD2    C3  643   3.584   4.500  15.088 -0.1269  0.0799 -1.2637
   42MPD2    C4  644   3.582   4.387  15.172  0.4372  0.1817  0.2446
   42MPD2    C5  645   3.583   4.260  15.114 -0.6806  0.1059 -0.2317
   42MPD2     H  646   3.571   4.556  14.884 -0.7039 -0.4839 -0.4734
   42MPD2    H1  647   3.563   4.398  15.278 -2.3025  1.3460 -0.3531
   42MPD2    H2  648   3.619   4.145  14.934  0.5480  0.7063 -1.1522
   42MPD2    H3  649   3.583   4.172  15.177 -0.8028 -0.5046 -1.0757
   42MPD2     N  650   3.564   4.625  15.150  0.6618 -0.0890  0.2504
   42MPD2    H5  651   3.545   4.622  15.250 -2.6553 -1.9344 -0.4453
   42MPD2    N1  652   3.651   4.343  14.767 -0.2124 -0.0293  0.0334
   42MPD2    H7  653   3.687   4.428  14.726 -1.3917 -0.2271 -1.4088
   43MPD2     C  654   0.217   2.958   0.757  0.1199 -0.3228 -0.2578
   43MPD2    C1  655   0.188   2.869   0.857 -0.1457  0.3102  0.0618
   43MPD2    C2  656   0.224   2.908   0.988  0.7194 -0.1817  0.3732
   43MPD2    C3  657   0.274   3.037   1.013  0.4541 -0.0927 -0.5398
   43MPD2    C4  658   0.294   3.123   0.910 -0.0058 -0.4158 -0.2887
   43MPD2    C5  659   0.272   3.084   0.785 -0.4626  0.0353  0.3534
   43MPD2     H  660   0.194   2.841   1.069 -1.5985 -1.5949 -1.6843
   43MPD2    H1  661   0.335   3.223   0.921  2.2009 -1.6582  2.7861
   43MPD2    H2  662   0.205   2.935   0.652 -1.0188  0.9079 -0.3812
   43MPD2    H3  663   0.292   3.154   0.705 -0.5100 -1.3257 -0.8678
   43MPD2     N  664   0.304   3.088   1.139 -0.4952 -0.6270  0.8000
   43MPD2    H5  665   0.336   3.185   1.143 -1.1255 -0.3858  0.0327
   43MPD2    N1  666   0.128   2.740   0.834 -0.2047  0.8742 -0.1559
   43MPD2    H7  667   0.119   2.675   0.911 -1.3314  1.3265  0.0924
   44TCq2    C1  668   0.331   3.424   1.495 -0.4726 -0.3899 -1.3344
   44TCq2    O2  669   0.415   3.505   1.536  0.0290 -0.1978  0.9987
   44TCq2    C2  670   0.378   3.294   1.476  0.1145  0.1024  0.2244
   44TCq2    C3  671   0.443   3.238   1.582 -0.2985 -0.3091 -0.7896
   44TCq2    C4  672   0.471   3.100   1.576  0.8875 -0.2013 -0.1716
   44TCq2    C5  673   0.419   3.030   1.471  0.3819  0.3918 -0.1509
   44TCq2    C6  674   0.355   3.095   1.372 -0.3311 -0.1821  0.5526
   44TCq2    C7  675   0.326   3.223   1.376  0.0324  0.0570  0.4598
   44TCq2    C8  676   0.302   3.018   1.256  0.5424  0.1168 -0.7080
   44TCq2    O4  677   0.305   2.901   1.279 -0.6415 -0.5518  0.2121
   44TCq2    C9  678   0.528   3.035   1.681 -0.3320 -0.4995 -0.7528
   44TCq2    O5  679   0.507   2.910   1.689 -0.3793 -0.5825  0.1528
   44TCq2    O6  680   0.578   3.108   1.774 -0.5210  0.1203 -0.0352
   44TCq2    H2  681   0.486   3.295   1.664  1.5378 -1.1617 -1.1534
   44TCq2    H3  682   0.443   2.925   1.458  0.5556  0.3493  0.5455
   44TCq2    H4  683   0.274   3.280   1.300 -1.9624 -0.1667  1.6433
   45TMC2    C1  684   1.386   3.972   9.466 -0.5662  0.4022  0.2178
   45TMC2    C2  685   1.490   3.917   9.408 -0.0534 -0.0222 -0.5902
   45TMC2    C3  686   1.605   3.984   9.413  0.4222  0.5936  0.2520
   45TMC2    C4  687   1.391   4.084   9.543 -0.0202  0.1028 -0.1091
   45TMC2    C5  688   1.514   4.151   9.549 -0.0950  0.4970  0.3265
   45TMC2    C6  689   1.622   4.102   9.480 -0.2662  0.5910 -0.0669
   45TMC2     C  690   1.252   3.939   9.416  0.6367  0.4772 -0.1709
   45TMC2     O  691   1.228   3.825   9.374 -0.3424 -0.2351 -0.0324
   45TMC2     H  692   1.489   3.816   9.370  1.5021 -0.5151  0.6783
   45TMC2    H1  693   1.304   4.124   9.594 -1.2168 -0.5056 -1.6871
   45TMC2    H2  694   1.719   4.151   9.476 -0.7973  1.5762 -0.8789
   45TMC2    C7  695   1.521   4.264   9.635 -0.0089 -0.3369 -0.0608
   45TMC2    C8  696   1.687   3.975   9.304  0.7836 -0.6931  0.1580
   45TMC2    O1  697   1.440   4.274   9.724  0.4221 -0.9459  0.2200
   45TMC2    O2  698   1.807   4.005   9.304 -0.3012  0.0452 -0.2051
   45TMC2    O5  699   1.603   4.007   9.204 -0.2098 -0.5973 -0.1968
   45TMC2    H5  700   1.509   3.981   9.210  0.2098 -1.2131  3.9361
   46MPD2     C  701   0.964   3.962   9.350 -0.1476  0.2132 -0.3590
   46MPD2    C1  702   1.055   4.065   9.339  0.3208 -0.2138  0.0876
   46MPD2    C2  703   1.011   4.186   9.282 -0.0660 -0.2539  0.4651
   46MPD2    C3  704   0.880   4.200   9.228 -0.2549 -0.0015 -0.2344
   46MPD2    C4  705   0.789   4.089   9.243  0.4874  0.4606 -0.6628
   46MPD2    C5  706   0.834   3.980   9.307  0.1501  0.4420 -0.0858
   46MPD2     H  707   1.076   4.271   9.262 -1.8784  1.0938  0.2325
   46MPD2    H1  708   0.687   4.084   9.208  1.0287 -0.5246 -2.1644
   46MPD2    H2  709   0.988   3.866   9.395  0.2133 -1.2303 -3.6349
   46MPD2    H3  710   0.767   3.895   9.299  0.8846 -0.0737 -0.7906
   46MPD2     N  711   0.843   4.310   9.158  0.3217  0.3535  0.1091
   46MPD2    H5  712   0.907   4.389   9.164 -1.1640  1.3770  2.4931
   46MPD2    N1  713   1.188   4.054   9.397 -0.2735 -0.2454  0.2058
   46MPD2    H7  714   1.243   4.139   9.412  0.9211 -0.3456 -3.6904
   47TMC2    C1  715   2.490   4.610   9.130 -0.1736  0.0761 -0.0237
   47TMC2    C2  716   2.526   4.475   9.145 -0.2821  0.2323 -0.5235
   47TMC2    C3  717   2.428   4.391   9.187  0.1702  0.3400 -0.1229
   47TMC2    C4  718   2.363   4.657   9.146 -1.1888  0.5994  0.4223
   47TMC2    C5  719   2.267   4.568   9.180 -0.7192 -0.7792 -0.1435
   47TMC2    C6  720   2.300   4.439   9.210 -0.0766  0.1950  0.5221
   47TMC2     C  721   2.588   4.707   9.090 -0.3552  0.4018  0.6433
   47TMC2     O  722   2.545   0.091   9.055 -0.3880 -0.2253 -0.2772
   47TMC2     H  723   2.625   4.439   9.120 -0.0591  0.5761 -0.1404
   47TMC2    H1  724   2.337   0.029   9.101 -1.1044 -0.2621 -1.4597
   47TMC2    H2  725   2.226   4.375   9.257  0.1406 -0.6519 -0.2854
   47TMC2    C7  726   2.140   4.611   9.225 -0.1873  0.3198 -0.8445
   47TMC2    C8  727   2.454   4.251   9.152 -0.3246  0.2174  0.5277
   47TMC2    O1  728   2.063   4.530   9.275 -0.5108 -0.5421  0.5946
   47TMC2    O2  729   2.562   4.193   9.156 -0.4944  0.5342  0.6991
   47TMC2    O5  730   2.363   4.224   9.065  0.0331 -0.1276  0.0454
   47TMC2    H5  731   2.293   4.292   9.054  0.4767  0.6719  2.1497
   48MPD2     C  732   2.825   0.144   9.023 -0.3624  0.3489  0.3504
   48MPD2    C1  733   2.830   0.026   9.093  0.2593 -0.1610 -0.6409
   48MPD2    C2  734   2.953   4.722   9.136  0.2571 -0.6767 -0.6173
   48MPD2    C3  735   3.068   0.088   9.132 -0.6461 -0.5665  0.6313
   48MPD2    C4  736   3.049   0.206   9.069 -0.1571  0.2146  0.6219
   48MPD2    C5  737   2.928   0.236   9.004 -0.0048 -0.0909  0.2460
   48MPD2     H  738   2.973   4.629   9.188 -3.7257 -0.0902  1.9629
   48MPD2    H1  739   3.127   0.279   9.053  0.0747  0.2231  1.7682
   48MPD2    H2  740   2.737   0.172   8.966 -0.7143  1.9383  1.6772
   48MPD2    H3  741   2.911   0.329   8.951  0.7156  1.0653  2.0272
   48MPD2     N  742   3.185   0.047   9.207 -0.3792  0.1894  0.0047
   48MPD2    H5  743   3.187   4.672   9.228 -0.2842  0.3825  0.9023
   48MPD2    N1  744   2.720   4.665   9.112 -0.1648 -0.3808 -0.8368
   48MPD2    H7  745   2.733   4.568   9.141  1.7404 -0.4096 -1.7644
   49MPD2     C  746   2.103   2.376   9.951 -0.1396  0.2440 -0.1710
   49MPD2    C1  747   1.994   2.366  10.035  0.4734 -0.1860 -0.1327
   49MPD2    C2  748   2.010   2.413  10.164 -0.3733 -0.0663  0.5533
   49MPD2    C3  749   2.125   2.472  10.203 -1.2693  0.2830  0.3928
   49MPD2    C4  750   2.222   2.505  10.108  0.0274 -0.3743  0.3058
   49MPD2    C5  751   2.209   2.456   9.984 -0.0897  0.0800 -0.0308
   49MPD2     H  752   1.930   2.388  10.233 -1.2806  0.0935 -0.4299
   49MPD2    H1  753   2.320   2.546  10.131 -0.8016  0.6289  2.0817
   49MPD2    H2  754   2.117   2.331   9.853 -0.7313 -0.6362  0.1442
   49MPD2    H3  755   2.297   2.449   9.921  1.0262 -2.7287  1.8300
   49MPD2     N  756   2.148   2.519  10.331  0.4677  0.5804 -0.5945
   49MPD2    H5  757   2.238   2.564  10.344  0.7096 -0.7608  2.1800
   49MPD2    N1  758   1.875   2.290   9.999  0.2438  0.3083  0.6320
   49MPD2    H7  759   1.813   2.259  10.073 -0.9656  1.1472 -0.0305
   50TCq2    C1  760   1.842   2.265   9.865  0.6732 -0.6395  0.6253
   50TCq2    O2  761   1.917   2.275   9.772  0.9040  0.8196  0.1349
   50TCq2    C2  762   1.729   2.169   9.857  0.5271  0.9117  0.0804
   50TCq2    C3  763   1.642   2.185   9.752 -0.1563 -0.0721 -0.2315
   50TCq2    C4  764   1.533   2.102   9.744 -0.2100 -0.2989  0.8175
   50TCq2    C5  765   1.515   2.005   9.837 -0.6895 -0.4167  0.1639
   50TCq2    C6  766   1.609   1.978   9.931  0.3445 -0.4405  0.4605
   50TCq2    C7  767   1.723   2.058   9.937 -0.4339 -0.6431 -0.2386
   50TCq2    C8  768   1.602   1.855  10.011  0.1684 -0.1096 -0.0119
   50TCq2    O4  769   1.491   1.831  10.065 -0.3883  0.0200 -0.3390
   50TCq2    C9  770   1.435   2.120   9.636  0.1521 -0.1938  0.5307
   50TCq2    O5  771   1.345   2.035   9.624  0.2213  0.4590  0.1562
   50TCq2    O6  772   1.448   2.227   9.566  0.0262 -0.9396 -0.1673
   50TCq2    H2  773   1.653   2.278   9.696  0.2719  0.4593  0.7401
   50TCq2    H3  774   1.429   1.939   9.831 -1.1719  0.2163  0.1531
   50TCq2    H4  775   1.794   2.052  10.018 -1.2929  0.7819  0.6219
   51MPD2     C  776   1.228   0.517   0.526 -0.6033 -0.3930 -0.1668
   51MPD2    C1  777   1.281   0.449   0.631  0.4042  0.0360 -0.4034
   51MPD2    C2  778   1.356   0.519   0.721  0.0349  0.6910  0.2091
   51MPD2    C3  779   1.373   0.654   0.708 -0.2403  0.2859  1.2335
   51MPD2    C4  780   1.306   0.722   0.601 -0.5770 -0.0555  0.1907
   51MPD2    C5  781   1.234   0.649   0.518  0.2504  0.0214  0.5616
   51MPD2     H  782   1.412   0.455   0.787  0.2451 -1.8616 -2.4249
   51MPD2    H1  783   1.310   0.828   0.576 -1.2681 -0.4237 -1.4600
   51MPD2    H2  784   1.165   0.475   0.449  1.6465  0.6729 -2.5695
   51MPD2    H3  785   1.182   0.691   0.434 -0.6273 -2.8662 -0.3390
   51MPD2     N  786   1.459   0.731   0.784  0.0967 -0.2810  0.6545
   51MPD2    H5  787   1.461   0.830   0.761  1.0523 -0.1138  1.4823
   51MPD2    N1  788   1.283   0.307   0.640  0.6277  0.0969  0.3677
   51MPD2    H7  789   1.338   0.272   0.717 -2.1346 -0.6186  2.0444
   52TCq2    C1  790   1.560   0.687   0.862 -0.1914  0.4280 -0.1314
   52TCq2    O2  791   1.587   0.565   0.878  0.2009  0.3885  0.6754
   52TCq2    C2  792   1.633   0.790   0.927  0.4333  0.3110 -0.3574
   52TCq2    C3  793   1.736   0.748   1.000 -0.0219  0.2642  0.6291
   52TCq2    C4  794   1.807   0.843   1.069 -0.2537  0.2499 -0.3283
   52TCq2    C5  795   1.765   0.972   1.069 -0.1820  0.0910 -1.2668
   52TCq2    C6  796   1.660   1.013   0.994 -0.3047 -0.1631  0.5613
   52TCq2    C7  797   1.587   0.921   0.929  0.3714  0.3007 -0.4029
   52TCq2    C8  798   1.629   1.154   1.002 -0.5720  1.0897 -0.4050
   52TCq2    O4  799   1.711   1.220   1.066 -0.0428 -0.3709 -0.4443
   52TCq2    C9  800   1.925   0.808   1.131 -0.2832 -1.0729  0.4671
   52TCq2    O5  801   1.981   0.892   1.207 -0.5780  0.1105 -0.0257
   52TCq2    O6  802   1.950   0.686   1.131 -0.2146 -0.0868  0.4922
   52TCq2    H2  803   1.769   0.645   0.995 -0.9964 -0.0083 -0.3876
   52TCq2    H3  804   1.838   1.041   1.110  0.4151 -1.0745 -0.3567
   52TCq2    H4  805   1.502   0.956   0.872 -1.0503  0.2218  1.6763
   53TMC2    C1  806   2.609   4.722  11.868 -0.3778  0.3072  0.3341
   53TMC2    C2  807   2.734   4.716  11.918  0.2234 -1.1387  0.4482
   53TMC2    C3  808   2.749   4.717  12.052 -0.4806 -0.3033  0.0429
   53TMC2    C4  809   2.493   0.010  11.947 -0.1977 -0.2269  0.7227
   53TMC2    C5  810   2.523   0.007  12.080  0.9908  0.9527  0.8919
   53TMC2    C6  811   2.648   4.720  12.134 -0.4059  0.6313 -0.3603
   53TMC2     C  812   2.597   0.038  11.729 -1.0901 -0.0763  0.6469
   53TMC2     O  813   2.688   0.089  11.669  0.0707  0.3747 -0.0630
   53TMC2     H  814   2.822   0.011  11.858  0.3632 -0.0336  0.9921
   53TMC2    H1  815   2.394   0.006  11.902  0.2522  0.3914 -0.3422
   53TMC2    H2  816   2.663   4.697  12.239 -1.8941 -0.9007 -0.4801
   53TMC2    C7  817   2.411   0.030  12.169 -0.4408  0.5871 -0.4907
   53TMC2    C8  818   2.886   4.700  12.096  0.2238  0.1705  0.5365
   53TMC2    O1  819   2.303   0.021  12.112 -0.2220  0.0366  0.5507
   53TMC2    O2  820   2.907   0.006  12.212  0.0872  0.0747 -0.1990
   53TMC2    O5  821   2.935   4.589  12.043  0.0364 -0.4876 -0.0904
   53TMC2    H5  822   2.900   4.579  11.952  0.1738  4.0946 -0.6591
   54MPD2     C  823   2.467   0.179  11.502  0.2056  0.1314  0.6024
   54MPD2    C1  824   2.427   0.052  11.553  0.0717  0.0918  0.1801
   54MPD2    C2  825   2.317   4.710  11.502  0.1678  0.5661 -0.1658
   54MPD2    C3  826   2.258   0.040  11.387  0.3520  0.2188 -0.3286
   54MPD2    C4  827   2.301   0.158  11.331  0.1400 -1.1409  0.3567
   54MPD2    C5  828   2.401   0.228  11.392 -0.2632  0.5082  0.5414
   54MPD2     H  829   2.280   4.623  11.555 -0.9288  1.5353  0.6661
   54MPD2    H1  830   2.264   0.215  11.246  0.8762  1.2892  1.6643
   54MPD2    H2  831   2.546   0.242  11.542 -0.2436 -0.0959  1.8345
   54MPD2    H3  832   2.419   0.326  11.350  1.3706 -0.5931 -1.2941
   54MPD2     N  833   2.132   4.713  11.356  0.4060 -0.2179 -0.5139
   54MPD2    H5  834   2.098   4.634  11.409  0.7335 -1.2013 -1.7777
   54MPD2    N1  835   2.476   4.722  11.674  0.5645 -0.3156  0.4015
   54MPD2    H7  836   2.424   4.653  11.727  0.9480 -2.5148 -2.1366
   55MPD2     C  837   2.753   2.672  17.088 -0.0123  0.2820  0.3148
   55MPD2    C1  838   2.668   2.598  17.169  0.6714 -1.0288  0.8503
   55MPD2    C2  839   2.595   2.671  17.260 -0.2040  0.3615 -0.4408
   55MPD2    C3  840   2.606   2.810  17.278  0.0846  0.6612 -0.0898
   55MPD2    C4  841   2.691   2.881  17.199 -0.4478  0.9462  0.3824
   55MPD2    C5  842   2.760   2.810  17.103  0.6596  1.0751  0.3645
   55MPD2     H  843   2.528   2.612  17.322  0.2684 -0.2637 -0.5229
   55MPD2    H1  844   2.699   2.989  17.202  0.2623  0.8848  0.7574
   55MPD2    H2  845   2.816   2.622  17.016 -0.0353  0.2360  0.3263
   55MPD2    H3  846   2.830   2.867  17.043  0.8940  1.2264  0.7875
   55MPD2     N  847   2.520   2.871  17.370  0.0636 -0.0459 -0.1718
   55MPD2    H5  848   2.468   2.818  17.439  0.4290  1.1750  1.0349
   55MPD2    N1  849   2.676   2.460  17.166  0.0904  0.9310 -0.6896
   55MPD2    H7  850   2.758   2.428  17.115 -0.4570  1.0093 -1.6223
   56TCq2    C1  851   2.589   2.370  17.227  0.2233 -0.2091 -0.9112
   56TCq2    O2  852   2.472   2.401  17.253  0.4205  0.7337  0.3581
   56TCq2    C2  853   2.626   2.234  17.237  0.1584 -0.3219  0.0802
   56TCq2    C3  854   2.742   2.197  17.168 -0.5274 -0.3787 -0.4478
   56TCq2    C4  855   2.816   2.091  17.215 -0.0482  0.2464 -0.6157
   56TCq2    C5  856   2.759   2.013  17.311  0.0005 -0.1322  0.0796
   56TCq2    C6  857   2.646   2.053  17.384  0.0792  0.2873  0.5244
   56TCq2    C7  858   2.574   2.169  17.345 -0.1947  0.5078 -0.1931
   56TCq2    C8  859   2.597   1.980  17.505  0.0272 -0.2030 -0.3793
   56TCq2    O4  860   2.637   1.863  17.517  0.1913 -0.4124 -0.0646
   56TCq2    C9  861   2.948   2.056  17.172 -0.2980  0.1150  0.5861
   56TCq2    O5  862   3.000   1.958  17.233  0.1464  0.3084  0.2462
   56TCq2    O6  863   2.992   2.123  17.074 -0.6040  0.4671 -0.5478
   56TCq2    H2  864   2.786   2.251  17.084  1.0986  1.3770  1.5396
   56TCq2    H3  865   2.810   1.924  17.345  0.8676 -0.2287 -1.5093
   56TCq2    H4  866   2.493   2.209  17.404 -1.1881  0.3024 -1.3994
   57TMC2    C1  867   1.250   3.317  13.282  0.1651 -0.6370  0.7659
   57TMC2    C2  868   1.115   3.300  13.308 -0.2095 -0.0760  0.1194
   57TMC2    C3  869   1.058   3.204  13.236  0.1621  0.4793 -0.1769
   57TMC2    C4  870   1.328   3.235  13.204 -0.3250 -0.6420  0.2295
   57TMC2    C5  871   1.257   3.139  13.144 -0.5006  0.0934 -0.0709
   57TMC2    C6  872   1.124   3.117  13.151  0.6188 -0.0946 -0.5248
   57TMC2     C  873   1.315   3.408  13.379  0.1370  0.1358 -0.2484
   57TMC2     O  874   1.264   3.412  13.488  0.3249  0.1356  0.4424
   57TMC2     H  875   1.058   3.371  13.367  1.4961 -0.1377  1.8407
   57TMC2    H1  876   1.434   3.253  13.191  0.1199 -1.0860  3.2356
   57TMC2    H2  877   1.068   3.034  13.108  0.5299  0.8628 -2.2278
   57TMC2    C7  878   1.327   3.045  13.054 -0.4483 -0.4311  0.0724
   57TMC2    C8  879   0.913   3.189  13.235  0.0447  0.3941 -0.3058
   57TMC2    O1  880   1.262   3.005  12.960 -0.1198 -0.4337 -0.2322
   57TMC2    O2  881   0.866   3.101  13.160 -0.1600 -0.3512  0.2684
   57TMC2    O5  882   0.866   3.320  13.237  0.0356 -0.1710 -0.1285
   57TMC2    H5  883   0.918   3.399  13.262 -0.1660 -0.3255  0.7931
   58MPD2     C  884   1.724   3.625  13.593 -0.1354 -0.7029  0.0243
   58MPD2    C1  885   1.593   3.617  13.634 -0.2163  0.1095  0.5959
   58MPD2    C2  886   1.502   3.555  13.553 -0.2666 -0.5069 -0.0109
   58MPD2    C3  887   1.536   3.511  13.429  0.3053 -0.0183  0.4268
   58MPD2    C4  888   1.667   3.518  13.382  0.3664 -0.1504 -0.3020
   58MPD2    C5  889   1.754   3.574  13.472 -0.0797  0.4146 -0.4779
   58MPD2     H  890   1.400   3.552  13.591  0.0707 -0.3102  0.9149
   58MPD2    H1  891   1.702   3.487  13.284  0.4689 -2.2721  0.4008
   58MPD2    H2  892   1.800   3.672  13.654 -1.7381 -0.6087  1.9514
   58MPD2    H3  893   1.858   3.587  13.446 -0.0932 -0.0340 -0.7531
   58MPD2     N  894   1.440   3.452  13.345 -0.7275  0.6274  0.1015
   58MPD2    H5  895   1.475   3.428  13.253 -2.4062 -2.7339  0.3456
   58MPD2    N1  896   1.539   3.680  13.745 -0.6553 -0.1001  0.1350
   58MPD2    H7  897   1.438   3.689  13.755 -0.8681 -1.2239 -0.9348
   59MPD2     C  898   4.413   3.466  13.037  0.5617  0.0914 -0.0561
   59MPD2    C1  899   4.534   3.443  12.969  0.0098 -0.2529  0.1080
   59MPD2    C2  900   4.656   3.494  13.021  0.4947 -0.2203 -0.3936
   59MPD2    C3  901   4.666   3.547  13.146 -0.5280  0.2195 -0.6666
   59MPD2    C4  902   4.544   3.565  13.213 -0.1400  0.2368  0.0095
   59MPD2    C5  903   4.425   3.521  13.161 -0.0642 -0.1052 -0.4337
   59MPD2     H  904   0.016   3.481  12.954 -1.0609 -0.3727 -2.3261
   59MPD2    H1  905   4.537   3.612  13.310  1.3678  0.5550 -0.0449
   59MPD2    H2  906   4.316   3.453  12.990  1.5724 -2.4625 -1.4828
   59MPD2    H3  907   4.339   3.531  13.226  0.1051 -0.9575 -0.0831
   59MPD2     N  908   0.060   3.599  13.204  0.2197  0.4431 -0.3472
   59MPD2    H5  909   0.059   3.635  13.299 -1.6467  0.3852 -0.3625
   59MPD2    N1  910   4.543   3.388  12.846 -0.2444 -0.0506  0.0411
   59MPD2    H7  911   4.638   3.392  12.811 -1.2442 -0.8226 -2.7834
   60TCq2    C1  912   4.448   3.298  12.795  0.1661 -0.2054  0.7376
   60TCq2    O2  913   4.340   3.268  12.852 -0.6342 -0.3283 -0.6358
   60TCq2    C2  914   4.488   3.242  12.666 -0.5446 -0.2644 -0.1438
   60TCq2    C3  915   4.464   3.102  12.655 -0.8517 -0.1646 -0.1882
   60TCq2    C4  916   4.511   3.034  12.551  0.4924 -0.0496  0.1488
   60TCq2    C5  917   4.585   3.103  12.457 -0.3787  1.6155  0.2152
   60TCq2    C6  918   4.614   3.233  12.465 -0.2051  0.2861 -0.0173
   60TCq2    C7  919   4.561   3.306  12.575  0.4609  0.1565 -0.5704
   60TCq2    C8  920   4.691   3.292  12.358 -0.3747 -0.0543 -0.1024
   60TCq2    O4  921   0.041   3.223  12.289 -0.0085 -0.0944 -0.1766
   60TCq2    C9  922   4.476   2.897  12.544 -0.4519 -0.2890  0.1268
   60TCq2    O5  923   4.372   2.856  12.601 -0.4707 -0.1984  0.1844
   60TCq2    O6  924   4.561   2.828  12.482  0.6864  0.1275 -0.1390
   60TCq2    H2  925   4.421   3.050  12.739 -1.2658  0.9203  0.2785
   60TCq2    H3  926   4.613   3.042  12.372  0.2797 -0.0556  1.6297
   60TCq2    H4  927   4.583   3.412  12.577  0.3657  0.1666 -0.0506
   61MPD2     C  928   4.251   0.077  15.219  0.6122 -0.3672  0.1098
   61MPD2    C1  929   4.255   0.211  15.256  1.0239  0.4243 -0.7047
   61MPD2    C2  930   4.276   0.311  15.155  0.1869 -0.9855  0.3158
   61MPD2    C3  931   4.275   0.270  15.023 -0.1018 -0.0930  0.3473
   61MPD2    C4  932   4.259   0.139  14.986 -0.8043  0.3275 -0.0698
   61MPD2    C5  933   4.250   0.047  15.092  0.3756 -0.1752 -0.8603
   61MPD2     H  934   4.266   0.417  15.175  0.0936 -1.1166  0.9814
   61MPD2    H1  935   4.256   0.104  14.883 -2.6036 -0.4465  0.2493
   61MPD2    H2  936   4.247   4.718  15.289  1.6644 -0.4706  0.0429
   61MPD2    H3  937   4.238   4.665  15.069 -0.2851 -0.0401 -1.1444
   61MPD2     N  938   4.271   0.369  14.925 -0.4381  0.2019 -0.0909
   61MPD2    H5  939   4.240   0.343  14.832 -1.0305  1.1391 -0.1604
   61MPD2    N1  940   4.225   0.256  15.387  0.2546 -0.0251  0.0977
   61MPD2    H7  941   4.224   0.356  15.401 -0.3377  0.0629 -0.5919
   62TCq2    C1  942   4.204   0.180  15.502 -0.1818  0.2223 -0.3083
   62TCq2    O2  943   4.214   0.058  15.514 -0.3775 -0.1402 -0.3027
   62TCq2    C2  944   4.148   0.262  15.612  0.8149 -0.4595 -0.0345
   62TCq2    C3  945   4.061   0.201  15.697 -0.1941  0.4102 -0.1862
   62TCq2    C4  946   3.976   0.281  15.766  0.3322  0.0417 -0.5811
   62TCq2    C5  947   3.974   0.420  15.747  0.1108  0.3128  0.1815
   62TCq2    C6  948   4.064   0.479  15.667 -0.3970 -0.5987 -0.3125
   62TCq2    C7  949   4.152   0.401  15.593  0.3567  0.0967 -0.0750
   62TCq2    C8  950   4.048   0.616  15.628  0.3255 -0.1042  0.0793
   62TCq2    O4  951   4.142   0.689  15.606 -0.4913 -0.4953 -0.1258
   62TCq2    C9  952   3.861   0.224  15.832 -0.1401  0.1270  0.4663
   62TCq2    O5  953   3.755   0.284  15.810  0.2235  0.2515  0.0887
   62TCq2    O6  954   3.860   0.101  15.864  0.7547 -0.1847 -0.0538
   62TCq2    H2  955   4.033   0.098  15.681  0.4866  0.0765  0.8285
   62TCq2    H3  956   3.894   0.483  15.785 -0.7854  0.0204 -1.1985
   62TCq2    H4  957   4.207   0.458  15.519  0.7232  0.3365  0.3845
   63TMC2    C1  958   3.798   0.002  10.227 -0.2470 -0.2980 -0.1638
   63TMC2    C2  959   3.922   0.061  10.200 -0.7915 -0.1039 -0.5454
   63TMC2    C3  960   3.959   0.057  10.071  0.2757  0.7653  0.9995
   63TMC2    C4  961   3.715   4.677  10.130 -0.6178  0.8687  0.0722
   63TMC2    C5  962   3.751   4.690   9.998  0.6397  0.2765  0.2865
   63TMC2    C6  963   3.880   0.004   9.971 -0.2816 -0.1323  0.1280
   63TMC2     C  964   3.766   4.690  10.368  0.3071  0.4905  0.2019
   63TMC2     O  965   3.801   0.040  10.461  0.1295  0.5484 -0.4851
   63TMC2     H  966   3.988   0.085  10.283 -0.9462  0.7836 -0.6831
   63TMC2    H1  967   3.614   4.667  10.169  0.3746 -0.7798  2.2265
   63TMC2    H2  968   3.918   0.022   9.871 -0.7560  0.9676  0.1429
   63TMC2    C7  969   3.643   4.701   9.901  0.3669  0.3370 -0.1841
   63TMC2    C8  970   4.100   0.075  10.047 -0.4440 -0.2887  0.1960
   63TMC2    O1  971   3.668   0.053   9.810 -0.1859  0.0978  0.0651
   63TMC2    O2  972   4.175   4.707  10.032  0.0049 -0.8545  0.0124
   63TMC2    O5  973   4.126   0.176  10.132 -0.3585 -0.2769 -0.5158
   63TMC2    H5  974   4.061   0.248  10.120 -2.1223 -1.8143 -0.3022
   64MPD2     C  975   3.542   4.384  10.720  0.1193 -0.1589  0.4391
   64MPD2    C1  976   3.534   4.324  10.589 -1.2200 -0.7597 -0.3424
   64MPD2    C2  977   3.586   4.383  10.482 -0.3364  0.4863 -0.0420
   64MPD2    C3  978   3.647   4.504  10.498  0.0525  0.0282 -0.7263
   64MPD2    C4  979   3.672   4.554  10.623 -0.8923  0.0866 -0.6635
   64MPD2    C5  980   3.615   4.500  10.735 -0.2198 -0.1548 -0.2553
   64MPD2     H  981   3.583   4.341  10.382 -0.6181  1.5845 -0.4998
   64MPD2    H1  982   3.737   4.640  10.639 -1.2966  0.7102 -2.4060
   64MPD2    H2  983   3.523   4.326  10.810  5.0213 -1.3945  0.6902
   64MPD2    H3  984   3.643   4.550  10.827  0.4538 -0.8299 -0.1012
   64MPD2     N  985   3.703   4.567  10.380 -1.0232  0.2563 -0.1806
   64MPD2    H5  986   3.682   4.522  10.292  0.4199 -1.4460  0.3448
   64MPD2    N1  987   3.507   4.189  10.563  0.1545  0.0692  0.2878
   64MPD2    H7  988   3.498   4.156  10.468 -0.8824  1.7365 -0.1851
   65MPD2     C  989   4.445   4.273  15.942 -0.2974  0.3396  0.2990
   65MPD2    C1  990   4.462   4.258  15.806  0.2176 -0.3773 -0.0813
   65MPD2    C2  991   4.418   4.143  15.752 -0.0689  0.4233 -0.1433
   65MPD2    C3  992   4.363   4.043  15.824 -0.2774  0.3980  0.2916
   65MPD2    C4  993   4.347   4.057  15.964  0.7808  0.6468  0.1275
   65MPD2    C5  994   4.391   4.172  16.024  0.0707  0.3654  0.5982
   65MPD2     H  995   4.442   4.124  15.648  1.4025 -2.0248  0.6581
   65MPD2    H1  996   4.297   3.986  16.029 -1.7844 -0.0385 -2.6080
   65MPD2    H2  997   4.459   4.371  15.985  1.5994 -0.9809  2.7310
   65MPD2    H3  998   4.386   4.185  16.131 -0.5848 -1.5262  0.8013
   65MPD2     N  999   4.312   3.916  15.771 -0.6026  0.0843  0.4822
   65MPD2    H5 1000   4.273   3.849  15.836 -1.6224  1.1472  0.9731
   65MPD2    N1 1001   4.489   4.362  15.717 -0.1703 -0.2607  0.4786
   65MPD2    H7 1002   4.458   4.345  15.622 -0.7550 -0.8264  0.7635
   66TCq2    C1 1003   4.545   4.483  15.747 -0.2085  0.0835  0.5314
   66TCq2    O2 1004   4.575   4.530  15.855  0.6654  0.4444  0.4905
   66TCq2    C2 1005   4.582   4.563  15.634 -0.0535 -0.3727  0.4826
   66TCq2    C3 1006   4.607   4.510  15.509 -0.5663  0.0028  0.8212
   66TCq2    C4 1007   4.650   4.600  15.409  0.4166 -0.3346  0.1217
   66TCq2    C5 1008   4.651   0.009  15.434  0.0794 -0.7500  0.1613
   66TCq2    C6 1009   4.610   0.061  15.557 -0.1813 -0.4682  0.5516
   66TCq2    C7 1010   4.582   4.698  15.658 -0.0008  0.4399 -0.3630
   66TCq2    C8 1011   4.588   0.203  15.567 -0.1438  0.1519  0.4130
   66TCq2    O4 1012   4.632   0.268  15.471  0.0218 -0.0166 -0.1805
   66TCq2    C9 1013   4.687   4.554  15.282 -0.4006  0.2311 -0.7064
   66TCq2    O5 1014   0.023   4.634  15.206 -0.1882 -0.6871 -0.6277
   66TCq2    O6 1015   4.685   4.429  15.261 -0.2590 -0.2798 -0.3259
   66TCq2    H2 1016   4.592   4.405  15.486 -1.7898  0.5105 -0.6760
   66TCq2    H3 1017   4.681   0.072  15.351 -0.6060 -0.4255  0.1676
   66TCq2    H4 1018   4.543   0.012  15.752 -0.0649 -2.0246  0.5953
   67MPD2     C 1019   4.501   3.960  13.950  0.1903  0.4065  0.4383
   67MPD2    C1 1020   4.421   4.027  14.042 -1.0009 -0.1760  0.0229
   67MPD2    C2 1021   4.300   4.072  13.995  0.3095 -0.6521  0.5350
   67MPD2    C3 1022   4.257   4.039  13.863  0.2959 -0.4418 -0.0818
   67MPD2    C4 1023   4.338   3.973  13.776  0.5343 -0.4204  0.5660
   67MPD2    C5 1024   4.463   3.936  13.825  0.6854  0.0733 -0.5499
   67MPD2     H 1025   4.236   4.119  14.069 -1.1238  1.2860 -1.9576
   67MPD2    H1 1026   4.313   3.969  13.670  1.3096 -1.7117  0.4244
   67MPD2    H2 1027   4.603   3.937  13.979  1.5842  1.6108 -3.5079
   67MPD2    H3 1028   4.526   3.872  13.764  1.7050  0.0572  0.5365
   67MPD2     N 1029   4.134   4.077  13.812 -0.2080  0.0937 -0.2356
   67MPD2    H5 1030   4.114   4.069  13.713 -1.0001 -0.4229 -0.0266
   67MPD2    N1 1031   4.463   4.059  14.176  0.1667  0.0316 -0.2560
   67MPD2    H7 1032   4.394   4.097  14.240  0.6605  0.0858  0.2438
   68TCq2    C1 1033   4.582   4.029  14.235  0.0712  0.7702  0.1855
   68TCq2    O2 1034   4.690   3.992  14.196 -0.3508 -0.0640  0.4245
   68TCq2    C2 1035   4.577   4.059  14.377 -0.7034  0.4793 -0.0490
   68TCq2    C3 1036   4.494   4.152  14.441 -0.1882 -0.2600 -0.2722
   68TCq2    C4 1037   4.529   4.203  14.561 -0.6690  0.0312 -0.1958
   68TCq2    C5 1038   4.638   4.163  14.626 -0.9160 -0.7794 -0.8442
   68TCq2    C6 1039   4.719   4.067  14.570 -0.5583 -0.1925  0.2170
   68TCq2    C7 1040   4.691   4.009  14.448 -0.1574 -0.3564  0.4915
   68TCq2    C8 1041   0.114   4.025  14.637  0.0393  0.0873 -0.8563
   68TCq2    O4 1042   0.191   3.962  14.568 -0.1574 -0.1908 -0.4525
   68TCq2    C9 1043   4.458   4.307  14.622 -0.1744 -0.4144  0.7339
   68TCq2    O5 1044   4.442   4.408  14.555  0.0191 -0.0043  0.0789
   68TCq2    O6 1045   4.459   4.309  14.748 -0.0935 -0.4128  0.0652
   68TCq2    H2 1046   4.405   4.192  14.395 -0.4545 -0.4224  0.1085
   68TCq2    H3 1047   4.659   4.222  14.715  1.2223 -1.1672 -1.0948
   68TCq2    H4 1048   0.033   3.934  14.408 -1.7192 -0.4533 -1.9181
   69TMC2    C1 1049   1.908   0.388  12.509  0.0692  0.0091  0.4830
   69TMC2    C2 1050   1.803   0.361  12.421  0.6790  0.6106  0.7336
   69TMC2    C3 1051   1.833   0.353  12.289  0.2090 -0.1325 -0.1154
   69TMC2    C4 1052   2.035   0.403  12.457 -0.4178 -0.0779 -0.5652
   69TMC2    C5 1053   2.058   0.419  12.322 -0.6202 -0.0782  0.1214
   69TMC2    C6 1054   1.950   0.397  12.237  0.4214  0.0727  0.2013
   69TMC2     C 1055   1.900   0.319  12.636 -0.4614  0.4101 -0.2678
   69TMC2     O 1056   1.844   0.211  12.634 -0.2527 -0.5339  0.0118
   69TMC2     H 1057   1.701   0.337  12.448  0.5940 -1.5606 -1.4800
   69TMC2    H1 1058   2.112   0.437  12.525 -0.5738 -1.3683  0.2538
   69TMC2    H2 1059   1.944   0.431  12.135  1.4036 -1.7389 -0.4611
   69TMC2    C7 1060   2.196   0.429  12.266  0.2575  0.2737  0.7289
   69TMC2    C8 1061   1.738   0.278  12.205  0.3359 -1.2660  0.5607
   69TMC2    O1 1062   2.284   0.463  12.342 -0.7722 -0.3338 -0.6830
   69TMC2    O2 1063   1.616   0.261  12.221 -0.4230 -0.1531  0.8884
   69TMC2    O5 1064   1.813   0.201  12.127  0.2270  0.6274  0.3611
   69TMC2    H5 1065   1.909   0.222  12.135  0.0868  2.0777 -1.6654
   70MPD2     C 1066   2.066   0.411  12.947  0.9173  0.0243  0.0084
   70MPD2    C1 1067   1.992   0.333  12.860  0.4361 -0.0384 -0.2745
   70MPD2    C2 1068   1.928   0.222  12.920 -0.6978 -0.4320  0.0355
   70MPD2    C3 1069   1.950   0.187  13.047 -0.2671  0.1817 -1.0289
   70MPD2    C4 1070   2.026   0.259  13.133  0.3237  0.2715 -0.7096
   70MPD2    C5 1071   2.077   0.371  13.080 -0.0434 -0.6492 -0.1428
   70MPD2     H 1072   1.850   0.175  12.860  1.1295 -2.5889 -0.6418
   70MPD2    H1 1073   2.053   0.233  13.234 -1.0209 -1.1395 -0.7001
   70MPD2    H2 1074   2.112   0.503  12.913  0.3488  0.8980  1.5856
   70MPD2    H3 1075   2.132   0.430  13.152 -2.9638 -0.3872  1.8904
   70MPD2     N 1076   1.879   0.074  13.109 -0.0369 -0.0748 -0.2426
   70MPD2    H5 1077   1.888   0.060  13.209  1.5177 -0.5048 -0.4464
   70MPD2    N1 1078   1.966   0.391  12.731  0.0420 -0.2963  0.7948
   70MPD2    H7 1079   2.012   0.477  12.702  0.3362 -0.5227  0.5929
   71TMC2    C1 1080   3.588   0.516   1.621 -0.5421  0.8553 -0.7221
   71TMC2    C2 1081   3.653   0.517   1.743  0.5252  0.5023  0.0668
   71TMC2    C3 1082   3.569   0.494   1.849 -0.1683  0.2332 -0.2270
   71TMC2    C4 1083   3.451   0.487   1.601  0.1189  0.9458 -0.0788
   71TMC2    C5 1084   3.382   0.465   1.711 -0.1155  0.1981 -0.2947
   71TMC2    C6 1085   3.438   0.462   1.838  0.7848  0.5290 -0.4858
   71TMC2     C 1086   3.668   0.538   1.497  0.9322 -0.0921  0.0169
   71TMC2     O 1087   3.610   0.536   1.390  0.2545  0.3736 -0.3083
   71TMC2     H 1088   3.755   0.548   1.762  0.3150  1.9339 -1.1568
   71TMC2    H1 1089   3.409   0.480   1.502  0.1603  2.4620 -0.2079
   71TMC2    H2 1090   3.374   0.455   1.926  0.4740 -0.4774 -0.7921
   71TMC2    C7 1091   3.241   0.435   1.704  0.6861 -0.6312 -0.5440
   71TMC2    C8 1092   3.629   0.517   1.981  0.4089 -0.6431  0.2651
   71TMC2    O1 1093   3.181   0.445   1.811  0.4118 -0.1958 -0.6523
   71TMC2    O2 1094   3.732   0.579   1.998  0.0101  0.0797 -0.2454
   71TMC2    O5 1095   3.589   0.420   2.062  0.2720 -0.3433  0.1264
   71TMC2    H5 1096   3.539   0.351   2.014 -1.5126  1.4299 -0.5757
   72MPD2     C 1097   4.137   0.587   1.275  0.5871  0.5759  0.0000
   72MPD2    C1 1098   4.008   0.624   1.232 -0.2993 -0.2101  0.2920
   72MPD2    C2 1099   3.895   0.601   1.310 -0.2433  0.2406  0.6136
   72MPD2    C3 1100   3.910   0.546   1.440  0.0450  0.5631  0.9975
   72MPD2    C4 1101   4.032   0.519   1.481  0.0440 -0.3399 -0.0468
   72MPD2    C5 1102   4.146   0.533   1.401 -0.3670  0.2511  0.2609
   72MPD2     H 1103   3.796   0.621   1.271 -0.0929  0.5679  0.4044
   72MPD2    H1 1104   4.034   0.498   1.588 -0.3148 -1.3870 -0.2512
   72MPD2    H2 1105   4.225   0.612   1.218 -0.4999  0.9657 -1.5144
   72MPD2    H3 1106   4.247   0.515   1.435 -0.6750 -1.0343  0.4789
   72MPD2     N 1107   3.806   0.523   1.528 -0.5116  0.1890  0.0564
   72MPD2    H5 1108   3.829   0.487   1.620  0.0697 -1.7864 -0.8550
   72MPD2    N1 1109   3.995   0.675   1.101  0.1954 -0.9028  0.0867
   72MPD2    H7 1110   3.905   0.714   1.073  1.3899  1.6865 -0.1245
   73TMC2    C1 1111   3.859   2.832  14.033 -0.3655 -0.1068 -0.5466
   73TMC2    C2 1112   3.790   2.825  14.154  0.4848 -0.3052  0.8438
   73TMC2    C3 1113   3.805   2.712  14.230  0.4118  0.0042 -0.0650
   73TMC2    C4 1114   3.940   2.731  14.001  0.0370 -0.0483  0.4959
   73TMC2    C5 1115   3.969   2.630  14.089  0.0429  0.2032  0.3459
   73TMC2    C6 1116   3.893   2.613  14.197 -0.3831  0.7812  0.9167
   73TMC2     C 1117   3.936   2.952  13.994 -0.4582  0.7394  0.2548
   73TMC2     O 1118   4.054   2.941  13.966  0.0493 -0.9256 -0.4078
   73TMC2     H 1119   3.749   2.918  14.192 -0.3995 -0.7158  0.8912
   73TMC2    H1 1120   3.995   2.727  13.907  1.3747 -0.1774  1.2944
   73TMC2    H2 1121   3.911   2.531  14.265  1.3303  0.7874  0.4761
   73TMC2    C7 1122   4.113   2.605  14.117  0.1849  0.2770  0.0146
   73TMC2    C8 1123   3.769   2.719  14.368  0.6094 -0.4003 -0.0457
   73TMC2    O1 1124   4.147   2.501  14.179  0.2761 -0.2566 -0.5938
   73TMC2    O2 1125   3.841   2.659  14.451 -0.1542 -0.5311  0.0050
   73TMC2    O5 1126   3.635   2.708  14.366 -0.4370  0.5950  0.1018
   73TMC2    H5 1127   3.603   2.750  14.283 -0.0868  0.4181 -0.1213
   74MPD2     C 1128   4.005   3.410  13.772 -0.3277 -0.3835 -0.3814
   74MPD2    C1 1129   4.081   3.338  13.861 -0.4737 -0.1922  0.3742
   74MPD2    C2 1130   4.035   3.230  13.923 -0.0898  0.4337  0.2735
   74MPD2    C3 1131   3.907   3.181  13.907 -0.4707  0.8736  0.0230
   74MPD2    C4 1132   3.821   3.266  13.842 -0.2953 -0.2264 -0.3444
   74MPD2    C5 1133   3.871   3.377  13.775 -0.8654 -0.8260  0.5664
   74MPD2     H 1134   4.092   3.175  13.996 -0.3151  0.4585  0.4687
   74MPD2    H1 1135   3.715   3.244  13.830 -0.2743 -1.1944  1.0719
   74MPD2    H2 1136   4.042   3.485  13.703 -0.1559 -1.6303 -1.6319
   74MPD2    H3 1137   3.804   3.444  13.722  0.1768  1.0550  1.6209
   74MPD2     N 1138   3.854   3.062  13.958 -0.2501  0.9027 -0.0303
   74MPD2    H5 1139   3.756   3.042  13.941  0.2684 -1.9082  0.2388
   74MPD2    N1 1140   4.217   3.377  13.876  0.3243  0.5145  0.2505
   74MPD2    H7 1141   4.238   3.465  13.829  2.8298  0.3479  1.0923
   75TCq2    C1 1142   4.029   4.121  13.892  0.4620 -0.0513  0.0442
   75TCq2    O2 1143   4.023   4.100  14.011 -0.6060 -0.3390 -0.4158
   75TCq2    C2 1144   3.906   4.153  13.820  0.3645 -0.1673  0.2796
   75TCq2    C3 1145   3.792   4.153  13.896 -0.9568  0.0174  0.0116
   75TCq2    C4 1146   3.681   4.218  13.850  0.6272 -0.6570  0.2009
   75TCq2    C5 1147   3.676   4.265  13.721 -0.5268  0.4351 -0.4014
   75TCq2    C6 1148   3.786   4.244  13.642 -0.0037 -0.2567  0.5748
   75TCq2    C7 1149   3.905   4.190  13.689  0.0749  0.2080  0.1697
   75TCq2    C8 1150   3.787   4.255  13.493 -0.0312 -0.5093  0.3987
   75TCq2    O4 1151   3.840   4.170  13.425  0.2961  0.0430  0.0982
   75TCq2    C9 1152   3.561   4.258  13.933  0.4041 -0.1636 -0.0739
   75TCq2    O5 1153   3.456   4.297  13.883 -0.3391  0.4521  0.3207
   75TCq2    O6 1154   3.575   4.237  14.058 -0.5340  0.3510 -0.5927
   75TCq2    H2 1155   3.799   4.115  13.997  2.7173 -0.9043 -0.5799
   75TCq2    H3 1156   3.581   4.291  13.676 -0.5457 -0.4030 -0.8483
   75TCq2    H4 1157   3.991   4.174  13.625  0.2388  0.1579  0.3991
   76MPD2     C 1158   3.165   0.024  12.703  0.0653  0.4825 -0.4234
   76MPD2    C1 1159   3.216   0.018  12.576 -0.3210 -0.3906 -0.7837
   76MPD2    C2 1160   3.322   4.656  12.561  0.0829 -0.2482  1.1583
   76MPD2    C3 1161   3.370   4.568  12.654  0.0481 -0.8149 -0.5858
   76MPD2    C4 1162   3.325   4.577  12.778  0.6497  0.2371 -0.2779
   76MPD2    C5 1163   3.223   4.666  12.800 -0.1867 -0.2672 -0.3968
   76MPD2     H 1164   3.376   4.662  12.467  0.9898 -0.3110  1.6744
   76MPD2    H1 1165   3.367   4.529  12.865  2.0053  1.1747 -0.4123
   76MPD2    H2 1166   3.091   0.099  12.732  1.2222  1.1214  0.8386
   76MPD2    H3 1167   3.183   4.672  12.900  1.0352  1.2202 -0.0110
   76MPD2     N 1168   3.465   4.462  12.623  0.3787 -0.3652  0.2464
   76MPD2    H5 1169   3.484   4.396  12.697 -2.9341  0.7933  2.1466
   76MPD2    N1 1170   3.171   0.095  12.468  0.4312 -0.6368  0.6505
   76MPD2    H7 1171   3.204   0.077  12.374 -0.2393  0.9638  0.1086
   77TCq2    C1 1172   3.507   4.439  12.493 -0.3561 -0.1716 -0.4861
   77TCq2    O2 1173   3.474   4.482  12.385  0.4236 -0.0385  0.2800
   77TCq2    C2 1174   3.603   4.331  12.485  0.0540 -0.2141 -0.9768
   77TCq2    C3 1175   3.626   4.290  12.362 -0.5288  0.0815  0.2808
   77TCq2    C4 1176   3.738   4.213  12.340  0.4457  1.4469  0.3016
   77TCq2    C5 1177   3.825   4.184  12.438  0.1587  0.4856 -0.3468
   77TCq2    C6 1178   3.799   4.232  12.560  0.2259  0.0948 -0.0831
   77TCq2    C7 1179   3.692   4.310  12.586 -0.7986  0.2492 -0.2069
   77TCq2    C8 1180   3.883   4.183  12.671  0.2489 -0.3758  0.2662
   77TCq2    O4 1181   3.956   4.085  12.658 -0.2937  0.2300  0.2610
   77TCq2    C9 1182   3.765   4.167  12.208 -0.0182  0.4184  0.0252
   77TCq2    O5 1183   3.674   4.179  12.122  0.3501 -0.2522 -0.4288
   77TCq2    O6 1184   3.880   4.123  12.190 -0.3260  0.2923 -0.5335
   77TCq2    H2 1185   3.565   4.312  12.275 -1.7652 -1.1050  0.8447
   77TCq2    H3 1186   3.914   4.126  12.418 -0.0622 -0.2270  0.7581
   77TCq2    H4 1187   3.671   4.340  12.688 -0.3723  0.8399 -0.2926
   78MPD1     C 1188   3.048   0.730   1.527  0.2509 -0.2601 -0.0977
   78MPD1    C1 1189   3.147   0.750   1.431 -0.0054 -0.0035 -0.7057
   78MPD1    C2 1190   3.270   0.799   1.468 -0.1820  0.3604 -0.0339
   78MPD1    C3 1191   3.302   0.824   1.605 -0.0514  0.1219 -0.4088
   78MPD1    C4 1192   3.200   0.807   1.702 -0.1628 -0.0840  0.5718
   78MPD1    C5 1193   3.082   0.761   1.660 -0.4840 -0.1188  0.3268
   78MPD1     H 1194   3.341   0.819   1.388  0.4432  1.3697  0.7678
   78MPD1    H1 1195   3.226   0.816   1.807  0.7460 -0.6218  0.3942
   78MPD1    H2 1196   2.951   0.707   1.485  0.6300 -0.5771 -0.7884
   78MPD1    H3 1197   3.019   0.746   1.746  0.2289  0.1095  0.8917
   78MPD1     N 1198   3.431   0.864   1.646 -0.3176 -0.5565  0.3478
   78MPD1    H5 1199   3.445   0.854   1.746  0.8400 -0.5952  0.1802
   78MPD1    N1 1200   3.107   0.752   1.295  0.4838 -0.1371 -0.1537
   78MPD1    H6 1201   3.187   0.730   1.237 -0.1117 -1.7545 -0.3421
   78MPD1    H7 1202   3.039   0.677   1.284 -0.5112  0.6180  0.9215
   79TCq2    C1 1203   3.529   0.915   1.570 -0.6421  0.1907 -0.4472
   79TCq2    O2 1204   3.544   0.924   1.450  0.3525  0.3401  0.4070
   79TCq2    C2 1205   3.651   0.950   1.653  0.2769  1.0882 -0.5029
   79TCq2    C3 1206   3.635   0.959   1.790  0.8485  0.3533 -0.0553
   79TCq2    C4 1207   3.752   0.954   1.865  0.2302 -0.0547  0.3441
   79TCq2    C5 1208   3.874   0.940   1.809 -0.1993 -0.0568  0.0940
   79TCq2    C6 1209   3.883   0.925   1.669  0.4290 -0.2251  0.3372
   79TCq2    C7 1210   3.775   0.933   1.588 -0.6684 -0.5688 -0.1449
   79TCq2    C8 1211   4.014   0.906   1.612 -0.0527 -0.1836  0.5674
   79TCq2    O4 1212   4.110   0.904   1.691 -0.2892  0.0115 -0.0700
   79TCq2    C9 1213   3.743   0.972   2.004 -0.2658 -0.7509  0.1854
   79TCq2    O5 1214   3.630   0.968   2.057 -0.3007 -0.0779  0.7021
   79TCq2    O6 1215   3.854   0.979   2.063  0.0047 -0.1062  0.3431
   79TCq2    H2 1216   3.540   0.971   1.840  0.6994 -0.1898 -0.2106
   79TCq2    H3 1217   3.966   0.937   1.866 -1.6753  1.1182  2.4882
   79TCq2    H4 1218   3.773   0.909   1.483  0.0083 -1.1203 -0.0281
   80MPD2     C 1219   1.855   4.282  12.484 -0.3365 -0.9134  0.1069
   80MPD2    C1 1220   1.856   4.238  12.355  0.6981 -0.4484  0.5014
   80MPD2    C2 1221   1.738   4.246  12.278 -0.6781  0.1627  0.1236
   80MPD2    C3 1222   1.618   4.302  12.325 -0.1897 -0.1239  0.4106
   80MPD2    C4 1223   1.627   4.345  12.452  0.2564  0.7234  0.9395
   80MPD2    C5 1224   1.735   4.326  12.531 -0.0764  0.6403 -0.0320
   80MPD2     H 1225   1.756   4.198  12.183 -1.6633  0.9869 -0.4749
   80MPD2    H1 1226   1.543   4.389  12.504 -0.7413 -0.0182 -0.0632
   80MPD2    H2 1227   1.938   4.279  12.554 -0.1929 -0.9288 -0.0636
   80MPD2    H3 1228   1.719   4.341  12.637  0.1494 -0.9114  0.2215
   80MPD2     N 1229   1.504   4.292  12.241 -0.4499 -0.2907  0.8895
   80MPD2    H5 1230   1.521   4.250  12.151  3.1184  2.3983  0.3290
   80MPD2    N1 1231   1.967   4.176  12.303 -0.1401 -0.1876  0.3133
   80MPD2    H7 1232   1.954   4.135  12.211 -1.6868  0.3073  0.3034
   81TCq2    C1 1233   2.085   4.159  12.368  0.5527 -0.3524 -0.5918
   81TCq2    O2 1234   2.130   4.218  12.464  0.5908  0.5084  0.0385
   81TCq2    C2 1235   2.171   4.072  12.301  0.2238  0.0067 -0.3299
   81TCq2    C3 1236   2.303   4.118  12.285  0.3018  0.1516 -0.0431
   81TCq2    C4 1237   2.382   4.052  12.194  0.3653  0.5090  0.7307
   81TCq2    C5 1238   2.333   3.950  12.127  0.5364  0.1332 -0.7985
   81TCq2    C6 1239   2.210   3.904  12.143  0.0729 -0.1572  0.7043
   81TCq2    C7 1240   2.123   3.962  12.229 -0.0124 -0.7604  0.0281
   81TCq2    C8 1241   2.151   3.818  12.047  0.3032 -0.2997 -0.1265
   81TCq2    O4 1242   2.196   3.838  11.936  0.3301  0.2721  0.4418
   81TCq2    C9 1243   2.504   4.102  12.157 -0.3625  0.2078  0.2525
   81TCq2    O5 1244   2.565   4.041  12.064  0.2288  0.0276 -0.8732
   81TCq2    O6 1245   2.553   4.194  12.228  0.0974 -0.6945  0.7444
   81TCq2    H2 1246   2.334   4.199  12.349  1.2080 -0.6864  0.5791
   81TCq2    H3 1247   2.398   3.910  12.051 -3.4609 -3.3690 -2.3768
   81TCq2    H4 1248   2.020   3.928  12.237 -0.7688  1.8994  1.7167
   82MPD2     C 1249   0.362   3.539  10.908  0.6899 -0.1528 -0.3494
   82MPD2    C1 1250   0.449   3.566  10.806 -0.5385 -0.5166 -0.6080
   82MPD2    C2 1251   0.577   3.498  10.795  0.1934  0.0623 -0.5917
   82MPD2    C3 1252   0.614   3.409  10.895  0.4091  0.2131 -0.7279
   82MPD2    C4 1253   0.531   3.395  11.006 -0.3626 -0.2263 -0.4658
   82MPD2    C5 1254   0.412   3.458  11.011 -0.1866 -1.2943 -0.4372
   82MPD2     H 1255   0.652   3.509  10.718  1.8494  1.0005  1.1521
   82MPD2    H1 1256   0.558   3.329  11.088 -1.4178 -0.4256 -0.2727
   82MPD2    H2 1257   0.268   3.593  10.917  0.3203 -0.7817 -0.4844
   82MPD2    H3 1258   0.355   3.443  11.101  0.4085 -0.1735  0.1352
   82MPD2     N 1259   0.722   3.320  10.889 -0.3274  0.0283 -0.3415
   82MPD2    H5 1260   0.733   3.259  10.969  1.2402 -1.1339 -1.4520
   82MPD2    N1 1261   0.401   3.637  10.696 -0.5816 -1.5835 -0.2928
   82MPD2    H7 1262   0.306   3.671  10.704 -0.5379 -0.8797 -3.0481
   83TCq2    C1 1263   0.829   3.329  10.802 -0.0820 -0.3835  1.0256
   83TCq2    O2 1264   0.870   3.420  10.727 -0.2205  0.3288 -0.3896
   83TCq2    C2 1265   0.903   3.206  10.794  0.2763 -0.6463  0.0733
   83TCq2    C3 1266   1.037   3.210  10.766 -0.0464 -0.4111  0.2369
   83TCq2    C4 1267   1.101   3.088  10.760 -0.0965 -0.1758  0.5005
   83TCq2    C5 1268   1.038   2.971  10.793 -0.4134  0.0627  0.1880
   83TCq2    C6 1269   0.907   2.978  10.837 -0.1666  0.5739 -0.1937
   83TCq2    C7 1270   0.839   3.096  10.840 -0.9034  0.1656  0.5516
   83TCq2    C8 1271   0.833   2.848  10.856  0.6544  0.2239 -0.2089
   83TCq2    O4 1272   0.872   2.746  10.796 -0.0410  0.3253  0.0637
   83TCq2    C9 1273   1.236   3.078  10.712 -0.3250 -0.7187  0.8731
   83TCq2    O5 1274   1.299   3.186  10.714  0.3051  0.0615 -0.0541
   83TCq2    O6 1275   1.281   2.969  10.671  0.7944 -0.1971 -0.5844
   83TCq2    H2 1276   1.085   3.296  10.722  0.6313 -2.2651 -2.6356
   83TCq2    H3 1277   1.093   2.877  10.795  0.3148  0.4540 -1.4635
   83TCq2    H4 1278   0.735   3.092  10.872 -0.9894  2.2181  0.4903
   84TCq2    C1 1279   2.051   2.521  10.436 -0.6765  0.3977  0.1313
   84TCq2    O2 1280   1.933   2.488  10.438  0.6062  0.1162  0.1582
   84TCq2    C2 1281   2.106   2.557  10.566 -0.8398 -0.9844  0.3888
   84TCq2    C3 1282   2.246   2.570  10.576 -0.1909 -0.5037  0.5583
   84TCq2    C4 1283   2.291   2.562  10.700 -0.0825 -0.2325 -0.6228
   84TCq2    C5 1284   2.212   2.553  10.815  0.2811  0.1671 -0.1725
   84TCq2    C6 1285   2.075   2.556  10.799 -0.7884 -0.6895  0.1323
   84TCq2    C7 1286   2.024   2.562  10.672 -0.1762  0.3296 -0.3519
   84TCq2    C8 1287   1.993   2.535  10.918  0.4584 -0.5966  0.2820
   84TCq2    O4 1288   1.874   2.549  10.888 -0.5539  0.1347 -0.0386
   84TCq2    C9 1289   2.429   2.555  10.722 -0.6161  0.1507 -0.3394
   84TCq2    O5 1290   2.473   2.575  10.838  0.3221 -0.4768 -0.4008
   84TCq2    O6 1291   2.501   2.542  10.616 -1.1746  0.1039 -0.0124
   84TCq2    H2 1292   2.315   2.556  10.493 -2.3241  2.3092 -1.6708
   84TCq2    H3 1293   2.257   2.559  10.913 -2.5988 -0.8768  1.2244
   84TCq2    H4 1294   1.916   2.556  10.665 -0.2833  1.6197  0.2065
   85MPD2     C 1295   2.090   0.568  16.520 -0.0713 -0.3470  0.2667
   85MPD2    C1 1296   2.023   0.591  16.400  0.1828  0.2707 -0.3154
   85MPD2    C2 1297   2.022   0.712  16.332 -0.6534 -0.3400 -0.0863
   85MPD2    C3 1298   2.098   0.813  16.386  0.2178  0.1713 -0.5949
   85MPD2    C4 1299   2.173   0.792  16.495 -0.0987 -0.7154 -0.5768
   85MPD2    C5 1300   2.165   0.676  16.569 -0.3360  0.2036  0.2268
   85MPD2     H 1301   1.984   0.720  16.231 -1.3500  1.6809  0.3308
   85MPD2    H1 1302   2.249   0.867  16.512 -0.8883 -0.3258  1.2064
   85MPD2    H2 1303   2.095   0.474  16.573  0.3234 -1.4584 -1.7448
   85MPD2    H3 1304   2.224   0.668  16.660 -0.4338  1.5490  0.4092
   85MPD2     N 1305   2.110   0.934  16.309  0.1136 -0.0306 -0.3398
   85MPD2    H5 1306   2.067   0.920  16.218 -1.3647 -1.5799  0.5927
   85MPD2    N1 1307   1.940   0.494  16.340  0.5586  0.5956  0.3360
   85MPD2    H7 1308   1.892   0.523  16.256  2.5440  1.7770 -0.4079
   86TCq2    C1 1309   2.147   1.062  16.354 -0.5450 -0.7091 -0.4386
   86TCq2    O2 1310   2.178   1.099  16.467  0.0732 -0.5787  0.6035
   86TCq2    C2 1311   2.142   1.167  16.244 -0.1495 -0.5606 -1.1439
   86TCq2    C3 1312   2.189   1.295  16.277  0.8053  0.4329 -0.6646
   86TCq2    C4 1313   2.211   1.380  16.171  0.7434  0.4095  0.1985
   86TCq2    C5 1314   2.193   1.348  16.038  0.5759 -0.2869 -0.1650
   86TCq2    C6 1315   2.156   1.220  16.010  0.1853  0.7886  0.7123
   86TCq2    C7 1316   2.126   1.131  16.112  0.2623 -0.3092  0.3153
   86TCq2    C8 1317   2.254   1.163  15.928 -0.1794  0.0387 -0.6169
   86TCq2    O4 1318   2.292   1.046  15.960 -0.0170  0.2978 -0.2821
   86TCq2    C9 1319   2.259   1.515  16.198 -0.1151  0.7488 -0.0386
   86TCq2    O5 1320   2.282   1.594  16.097 -0.2300 -0.3812 -0.2785
   86TCq2    O6 1321   2.292   1.542  16.315  0.1309 -0.0394  0.0268
   86TCq2    H2 1322   2.200   1.328  16.380 -2.3291  4.7179 -1.6558
   86TCq2    H3 1323   2.204   1.417  15.955 -2.8740 -1.2306 -1.3936
   86TCq2    H4 1324   2.092   1.032  16.086 -0.2007 -0.0825  0.0695
   87MPD2     C 1325   3.847   4.217   1.393  0.1776  0.2164  0.3409
   87MPD2    C1 1326   3.810   4.256   1.265  0.1207  0.7785 -0.3778
   87MPD2    C2 1327   3.776   4.386   1.231  0.3844  0.3198  0.2795
   87MPD2    C3 1328   3.772   4.476   1.340 -0.0479  0.3080  0.2337
   87MPD2    C4 1329   3.811   4.435   1.465 -0.4934 -0.4123  0.5668
   87MPD2    C5 1330   3.850   4.308   1.492  0.4258  0.2912 -1.0495
   87MPD2     H 1331   3.744   4.417   1.132  0.0343 -0.2739  0.2072
   87MPD2    H1 1332   3.809   4.496   1.554 -1.1504  1.1954 -0.5554
   87MPD2    H2 1333   3.880   4.115   1.410 -2.7323 -0.7991 -0.0791
   87MPD2    H3 1334   3.890   4.271   1.585 -0.7391  0.0403 -0.6493
   87MPD2     N 1335   3.723   4.610   1.330  0.3324 -0.4526  0.4552
   87MPD2    H5 1336   3.719   4.660   1.418 -1.6984 -1.0654  0.7107
   87MPD2    N1 1337   3.832   4.156   1.162 -0.4998 -0.4309 -0.0425
   87MPD2    H7 1338   3.858   4.062   1.193  0.4699 -1.2306 -3.3007
   88TCq2    C1 1339   3.834   4.176   1.027 -0.5328  0.2338  0.5681
   88TCq2    O2 1340   3.839   4.278   0.959  0.0348  0.4769  0.2091
   88TCq2    C2 1341   3.884   4.054   0.957 -0.0332 -0.0349  0.6536
   88TCq2    C3 1342   3.826   3.941   0.994 -0.2838 -0.1807 -0.1392
   88TCq2    C4 1343   3.880   3.833   0.928 -0.3997  0.2237  0.0957
   88TCq2    C5 1344   3.976   3.850   0.836  0.1981 -0.0697 -1.0964
   88TCq2    C6 1345   4.023   3.973   0.797  0.0776  0.2702 -0.0216
   88TCq2    C7 1346   3.973   4.082   0.858  0.1543 -0.4540  0.5002
   88TCq2    C8 1347   4.151   3.984   0.735  0.0680  0.0071  0.8939
   88TCq2    O4 1348   4.180   4.089   0.690  0.0817  0.4130 -0.0567
   88TCq2    C9 1349   3.842   3.696   0.958  0.7408  0.1178 -0.1330
   88TCq2    O5 1350   3.863   3.612   0.870 -0.2642 -0.4788 -0.7343
   88TCq2    O6 1351   3.788   3.680   1.072  0.0645  0.2813  0.0704
   88TCq2    H2 1352   3.757   3.930   1.077 -2.4003  1.8881 -1.6197
   88TCq2    H3 1353   4.011   3.762   0.783 -1.5846 -0.9474 -0.8105
   88TCq2    H4 1354   4.020   4.179   0.842 -1.0638 -0.0913 -0.9341
   89MPD2     C 1355   4.716   1.470   1.973 -0.3718  1.0142 -0.1159
   89MPD2    C1 1356   4.607   1.529   1.915 -0.5641  1.2802 -0.7535
   89MPD2    C2 1357   4.629   1.633   1.826 -1.0580 -1.3431 -0.0377
   89MPD2    C3 1358   0.034   1.677   1.799  0.1321  0.5108  0.4175
   89MPD2    C4 1359   0.141   1.612   1.853 -0.1905  0.5131 -0.3978
   89MPD2    C5 1360   0.121   1.510   1.943 -0.3284 -0.2687  0.8774
   89MPD2     H 1361   4.542   1.686   1.787  2.7234  3.1894 -2.3846
   89MPD2    H1 1362   0.245   1.633   1.830  0.5651 -1.6885  1.0323
   89MPD2    H2 1363   4.700   1.386   2.040  0.5387  1.8804  1.1964
   89MPD2    H3 1364   0.203   1.465   1.999  0.8323  0.1683 -0.4637
   89MPD2     N 1365   0.052   1.764   1.691  1.3336  0.1230  0.2937
   89MPD2    H5 1366   4.692   1.810   1.658  1.9255  1.6159  0.8749
   89MPD2    N1 1367   4.474   1.489   1.929  0.3938 -0.4365  0.0368
   89MPD2    H7 1368   4.403   1.536   1.874 -1.3812 -3.6610 -0.3876
   90TCq2    C1 1369   0.170   1.792   1.626 -0.1906 -0.9115 -0.1538
   90TCq2    O2 1370   0.276   1.730   1.636 -0.7014  0.6021  0.4079
   90TCq2    C2 1371   0.153   1.899   1.525  0.2701  0.1641  0.8575
   90TCq2    C3 1372   0.070   2.003   1.560 -0.2545 -0.0605  0.0247
   90TCq2    C4 1373   0.037   2.101   1.469 -0.0036  0.1925 -0.4272
   90TCq2    C5 1374   0.109   2.107   1.350 -0.3671 -0.1524  0.1431
   90TCq2    C6 1375   0.188   1.995   1.312  0.2457 -0.4085 -0.3590
   90TCq2    C7 1376   0.216   1.899   1.406 -0.2585  0.4211 -0.3609
   90TCq2    C8 1377   0.232   1.975   1.176  0.8191 -1.3757  0.3202
   90TCq2    O4 1378   0.258   1.863   1.130  0.6329 -0.1399 -0.5936
   90TCq2    C9 1379   4.667   2.199   1.500 -0.1557  0.2240 -0.4884
   90TCq2    O5 1380   4.668   2.300   1.427  0.5099  0.0707  0.0360
   90TCq2    O6 1381   4.603   2.181   1.606 -0.0099  0.4101  0.0421
   90TCq2    H2 1382   0.025   2.001   1.659 -0.5162  0.8031 -0.0745
   90TCq2    H3 1383   0.085   2.187   1.281 -1.0237  0.8208  1.5086
   90TCq2    H4 1384   0.258   1.806   1.369 -1.0136 -0.1218  0.1666
   91TMC2    C1 1385   1.889   1.997  16.683  1.1389  0.5677  0.5937
   91TMC2    C2 1386   1.925   2.044  16.561 -0.4734  0.0893  0.0502
   91TMC2    C3 1387   1.828   2.064  16.475 -0.7828 -0.8485  0.1739
   91TMC2    C4 1388   1.756   1.979  16.712  0.0832  0.1134  0.4644
   91TMC2    C5 1389   1.661   1.988  16.615  0.1371 -0.2033  0.3932
   91TMC2    C6 1390   1.691   2.041  16.494  0.8310 -0.5719 -0.0209
   91TMC2     C 1391   1.987   1.927  16.762 -0.1732 -0.0009 -0.4367
   91TMC2     O 1392   1.952   1.869  16.862  0.1449 -0.4517 -0.1832
   91TMC2     H 1393   2.023   2.080  16.533 -2.3268  4.6162 -0.5873
   91TMC2    H1 1394   1.718   1.930  16.801  0.2283  0.5458  0.7631
   91TMC2    H2 1395   1.625   2.052  16.408  1.0929  3.5494  0.2937
   91TMC2    C7 1396   1.521   1.955  16.645 -0.7822 -0.1740  0.3513
   91TMC2    C8 1397   1.874   2.149  16.372  0.1608 -0.4310  0.1702
   91TMC2    O1 1398   1.471   1.970  16.754 -0.3344  0.3692  0.3445
   91TMC2    O2 1399   1.982   2.147  16.318  0.7332  0.0077 -0.0986
   91TMC2    O5 1400   1.811   2.264  16.398 -0.3724 -0.0948  0.1824
   91TMC2    H5 1401   1.742   2.272  16.467 -0.7199  3.8652 -0.6076
   92MPD2     C 1402   2.223   1.774  16.856 -0.2894 -0.1088 -0.2108
   92MPD2    C1 1403   2.230   1.868  16.753 -0.4557 -0.5713  0.0518
   92MPD2    C2 1404   2.350   1.878  16.687 -0.0138  0.2445 -0.0234
   92MPD2    C3 1405   2.454   1.792  16.716 -0.2054 -0.3762 -0.5518
   92MPD2    C4 1406   2.454   1.700  16.815  0.0530  0.4617 -0.3296
   92MPD2    C5 1407   2.333   1.692  16.881 -0.4635 -0.1674  0.3895
   92MPD2     H 1408   2.344   1.944  16.601 -1.2138  1.2882  0.8489
   92MPD2    H1 1409   2.528   1.626  16.843  0.0318  0.2259 -0.9090
   92MPD2    H2 1410   2.136   1.763  16.919  0.0978  1.4334  0.5993
   92MPD2    H3 1411   2.322   1.622  16.963 -1.4785 -0.8964 -0.3661
   92MPD2     N 1412   2.571   1.821  16.638  0.2983 -0.3397 -0.2886
   92MPD2    H5 1413   2.551   1.897  16.574  0.8552 -1.2296 -1.5022
   92MPD2    N1 1414   2.115   1.940  16.712 -0.7689  0.5081 -0.2746
   92MPD2    H7 1415   2.129   2.008  16.637  1.0839  0.8012  0.3479
   93MPD2     C 1416   3.636   1.490  13.782  0.0213  0.4433  0.4713
   93MPD2    C1 1417   3.649   1.607  13.711 -0.1383  0.5849  0.3083
   93MPD2    C2 1418   3.536   1.671  13.671  0.0245 -0.4784 -0.5304
   93MPD2    C3 1419   3.410   1.625  13.695  0.1634 -0.1862 -0.2811
   93MPD2    C4 1420   3.398   1.515  13.778  0.0772  0.4917  0.8302
   93MPD2    C5 1421   3.509   1.448  13.811 -0.2863  0.0403 -0.6710
   93MPD2     H 1422   3.551   1.750  13.598 -0.4509  1.0776  1.0536
   93MPD2    H1 1423   3.305   1.472  13.814 -0.5440 -0.9167 -2.4694
   93MPD2    H2 1424   3.726   1.438  13.815 -1.0680 -1.1628  0.9044
   93MPD2    H3 1425   3.486   1.358  13.867 -1.3098  2.2560  2.5137
   93MPD2     N 1426   3.292   1.700  13.657  0.0594  0.3875  0.5681
   93MPD2    H5 1427   3.206   1.664  13.696  0.2896 -0.3549  0.3858
   93MPD2    N1 1428   3.767   1.676  13.680 -0.1141  0.0470  0.6377
   93MPD2    H7 1429   3.755   1.752  13.614 -1.9885 -1.8847 -1.2327
   94TCq2    C1 1430   3.900   1.656  13.731  0.9511  0.2221 -0.6150
   94TCq2    O2 1431   3.937   1.567  13.807 -0.2356 -0.1042  0.4666
   94TCq2    C2 1432   4.000   1.761  13.688  0.2913 -0.6263  0.2156
   94TCq2    C3 1433   3.968   1.856  13.589 -0.4957  0.1603  0.1183
   94TCq2    C4 1434   4.057   1.954  13.559 -0.1370  0.0651 -0.4287
   94TCq2    C5 1435   4.171   1.963  13.634  0.2583 -0.7163 -0.3257
   94TCq2    C6 1436   4.203   1.862  13.726  0.7224 -0.1213 -0.2052
   94TCq2    C7 1437   4.121   1.752  13.749  0.1965 -0.3486  0.1638
   94TCq2    C8 1438   4.313   1.880  13.813  0.1005 -0.3225  0.2072
   94TCq2    O4 1439   4.377   1.779  13.847 -0.0833  0.6164  0.0709
   94TCq2    C9 1440   4.035   2.036  13.442 -0.0180 -0.0470  0.2844
   94TCq2    O5 1441   4.093   2.152  13.438  0.0138 -0.2736 -0.5655
   94TCq2    O6 1442   3.943   2.000  13.367  0.5366 -0.5313  0.5427
   94TCq2    H2 1443   3.881   1.845  13.525 -1.5295  1.3100  1.3344
   94TCq2    H3 1444   4.247   2.026  13.588 -0.4717  1.5942  1.6353
   94TCq2    H4 1445   4.150   1.674  13.819  1.8795 -1.3531 -1.6460
   95TMC2    C1 1446   3.498   3.421  16.084 -0.2132  1.0553  0.0943
   95TMC2    C2 1447   3.476   3.486  16.207 -0.1748  0.7773 -0.5450
   95TMC2    C3 1448   3.349   3.469  16.258  0.6313  0.3963 -1.0422
   95TMC2    C4 1449   3.405   3.352  16.019  0.7480  0.7666 -0.3798
   95TMC2    C5 1450   3.278   3.349  16.074  0.1314 -0.2417  0.5745
   95TMC2    C6 1451   3.251   3.400  16.193  0.1537  0.8569 -0.1659
   95TMC2     C 1452   3.636   3.403  16.054  1.0468 -0.5358 -0.2118
   95TMC2     O 1453   3.722   3.480  16.085 -0.4345  0.8436  0.2201
   95TMC2     H 1454   3.545   3.549  16.261  0.1265 -1.0269  1.1583
   95TMC2    H1 1455   3.422   3.317  15.917  1.6719 -0.5946  0.2347
   95TMC2    H2 1456   3.156   3.385  16.242 -1.2354  4.1662 -1.8124
   95TMC2    C7 1457   3.172   3.292  15.995  0.6558  0.7794  0.2621
   95TMC2    C8 1458   3.328   3.502  16.396 -0.3915 -0.0588  0.4368
   95TMC2    O1 1459   3.203   3.240  15.890  0.2282  0.6577  0.0913
   95TMC2    O2 1460   3.417   3.529  16.476  0.2770  0.3776  0.3147
   95TMC2    O5 1461   3.198   3.544  16.405 -0.4673 -0.2556 -0.0291
   95TMC2    H5 1462   3.149   3.544  16.319  1.4662  0.6351 -1.1392
   96MPD2     C 1463   3.956   3.149  15.725 -0.9404 -0.2151 -0.1356
   96MPD2    C1 1464   3.973   3.269  15.790  0.2295  0.5464 -0.2391
   96MPD2    C2 1465   3.872   3.319  15.871  0.2552  0.6518 -0.4458
   96MPD2    C3 1466   3.760   3.250  15.898  0.7143  0.5179  1.0749
   96MPD2    C4 1467   3.739   3.133  15.827 -0.2820  0.1433 -0.7762
   96MPD2    C5 1468   3.840   3.081  15.741  0.1053 -0.0152  0.2824
   96MPD2     H 1469   3.880   3.417  15.915  0.7542 -0.1071  1.1842
   96MPD2    H1 1470   3.649   3.079  15.851 -0.8921  1.3748 -0.3607
   96MPD2    H2 1471   4.027   3.120  15.649 -2.2119 -1.0681 -0.9847
   96MPD2    H3 1472   3.831   2.987  15.687 -0.2511  0.6217 -0.7651
   96MPD2     N 1473   3.650   3.296  15.976 -0.4608 -0.2475  0.4776
   96MPD2    H5 1474   3.567   3.239  15.963  0.3728 -1.2357 -0.4478
   96MPD2    N1 1475   4.086   3.345  15.758  0.3843 -0.8283 -0.2203
   96MPD2    H7 1476   4.138   3.308  15.680  2.7370 -0.4623  1.1570
   97MPD2     C 1477   1.015   0.869   0.948 -0.1201 -0.0042 -0.0255
   97MPD2    C1 1478   0.972   1.001   0.966 -0.2686  0.2621 -0.0227
   97MPD2    C2 1479   0.959   1.089   0.853 -0.0532  0.3486  0.7754
   97MPD2    C3 1480   0.975   1.039   0.726 -0.3125 -0.1409 -0.2513
   97MPD2    C4 1481   1.020   0.909   0.714 -0.2427  0.1999  0.4975
   97MPD2    C5 1482   1.055   0.830   0.824  0.0148  0.1196 -0.3025
   97MPD2     H 1483   0.901   1.181   0.856  1.4163  1.3883 -3.0087
   97MPD2    H1 1484   1.049   0.867   0.619  1.1362  0.1465  0.9402
   97MPD2    H2 1485   1.029   0.798   1.029 -2.0531  0.0830  0.3832
   97MPD2    H3 1486   1.079   0.725   0.808  1.7203  0.4720  0.0530
   97MPD2     N 1487   0.962   1.121   0.610  0.2274  0.1094 -0.4731
   97MPD2    H5 1488   0.983   1.073   0.523 -0.4937  2.6920 -2.0620
   97MPD2    N1 1489   0.955   1.048   1.098 -0.4811 -0.6676  0.5595
   97MPD2    H7 1490   0.962   0.969   1.161  0.6753 -0.2923  0.9034
   98TCq2    C1 1491   0.952   1.255   0.599 -0.5476  0.4216 -0.2514
   98TCq2    O2 1492   0.949   1.339   0.692  0.0867 -0.0842 -0.4916
   98TCq2    C2 1493   0.965   1.298   0.456  0.0681 -0.2600  0.0545
   98TCq2    C3 1494   0.979   1.209   0.353 -0.1004 -0.2179 -0.1400
   98TCq2    C4 1495   1.035   1.239   0.234  0.0342 -0.7201 -0.0481
   98TCq2    C5 1496   1.092   1.361   0.207  0.6544 -0.5500  0.2135
   98TCq2    C6 1497   1.083   1.453   0.305  0.1352  0.3264  0.3267
   98TCq2    C7 1498   1.018   1.424   0.426 -0.0486  0.3891  0.4965
   98TCq2    C8 1499   1.122   1.586   0.282  0.3449  0.2550  0.0502
   98TCq2    O4 1500   1.156   1.659   0.374  0.2098  0.1542 -0.6339
   98TCq2    C9 1501   1.032   1.146   0.130 -0.6379  0.2386  0.1107
   98TCq2    O5 1502   0.992   1.029   0.160  0.8159 -0.7962 -0.5043
   98TCq2    O6 1503   1.113   1.167   0.036 -0.2124  0.0139  0.6369
   98TCq2    H2 1504   0.929   1.114   0.366  0.4063 -0.4684 -0.0001
   98TCq2    H3 1505   1.143   1.384   0.114  0.6482  1.4647  0.7031
   98TCq2    H4 1506   1.014   1.500   0.503 -1.7050  0.7483  0.0436
   99MPD2     C 1507   4.663   3.755   1.534  0.1578  0.3914 -0.0517
   99MPD2    C1 1508   4.616   3.624   1.544 -0.5991 -0.6157  0.2450
   99MPD2    C2 1509   4.703   3.521   1.536 -0.0012 -0.0461  0.1259
   99MPD2    C3 1510   0.118   3.544   1.510 -0.0975  0.0419 -0.5356
   99MPD2    C4 1511   0.171   3.674   1.514 -0.3636  0.0214 -0.8038
   99MPD2    C5 1512   0.080   3.780   1.523  0.7247  0.5414  0.3469
   99MPD2     H 1513   4.676   3.418   1.555 -0.0176  0.2510  1.6784
   99MPD2    H1 1514   0.277   3.695   1.527 -0.5339  1.7731 -2.2617
   99MPD2    H2 1515   4.597   3.841   1.538  0.4994  0.6841 -0.7565
   99MPD2    H3 1516   0.118   3.881   1.539  1.0485  0.9713 -3.1375
   99MPD2     N 1517   0.198   3.428   1.487  0.0116 -0.1182 -0.2028
   99MPD2    H5 1518   0.155   3.341   1.459 -0.5072  0.1208 -0.1563
   99MPD2    N1 1519   4.473   3.589   1.559 -0.9535  0.1325  0.1316
   99MPD2    H7 1520   4.450   3.492   1.580  1.4049 -0.0191  1.9926
  100TCq2    C1 1521   4.375   3.685   1.597 -0.0706  0.6601 -0.1492
  100TCq2    O2 1522   4.366   3.803   1.567 -0.2848  0.0796 -0.0407
  100TCq2    C2 1523   4.260   3.621   1.657 -0.0306  0.9628 -0.0143
  100TCq2    C3 1524   4.271   3.516   1.750 -0.3839  0.3430 -0.0874
  100TCq2    C4 1525   4.160   3.451   1.775 -0.2270  0.4916 -0.1746
  100TCq2    C5 1526   4.042   3.506   1.745  0.0358  0.1788  0.3943
  100TCq2    C6 1527   4.031   3.613   1.664 -0.0346 -0.2802  0.8877
  100TCq2    C7 1528   4.143   3.679   1.618 -0.2735 -0.5055  0.1305
  100TCq2    C8 1529   3.902   3.638   1.596  0.5099 -0.3603 -0.6759
  100TCq2    O4 1530   3.893   3.732   1.514 -0.4447 -0.3695  0.2436
  100TCq2    C9 1531   4.173   3.327   1.845  0.2728 -0.7305  0.1714
  100TCq2    O5 1532   4.271   3.321   1.924  0.4528 -0.1676  0.0902
  100TCq2    O6 1533   4.071   3.255   1.846 -0.3147 -0.0382  0.4526
  100TCq2    H2 1534   4.368   3.479   1.781 -0.4019 -1.6006 -2.2984
  100TCq2    H3 1535   3.947   3.468   1.780  0.4249 -0.9486  0.2456
  100TCq2    H4 1536   4.144   3.756   1.542  0.8224 -2.0545 -1.4356
  101MPD2     C 1537   1.054   4.010  13.074 -0.2930 -0.2515  0.1047
  101MPD2    C1 1538   0.980   4.088  13.161 -0.3820 -0.3008 -0.1317
  101MPD2    C2 1539   0.860   4.041  13.206  0.8282  0.3767  0.9706
  101MPD2    C3 1540   0.817   3.908  13.178  0.6663  0.4258 -0.3163
  101MPD2    C4 1541   0.902   3.833  13.102  0.6359  0.3542 -0.3600
  101MPD2    C5 1542   1.012   3.885  13.044  0.5406  0.2276 -0.5055
  101MPD2     H 1543   0.796   4.103  13.268 -0.8509 -0.6068  0.2396
  101MPD2    H1 1544   0.889   3.728  13.083  0.1542  0.4898 -0.7824
  101MPD2    H2 1545   1.153   4.041  13.042 -0.6097 -0.1848 -0.8314
  101MPD2    H3 1546   1.070   3.818  12.983 -1.2761 -2.4253  0.6722
  101MPD2     N 1547   0.691   3.851  13.225 -0.2303  0.3684  1.1642
  101MPD2    H5 1548   0.625   3.910  13.273 -2.3222  0.9630 -2.4732
  101MPD2    N1 1549   1.033   4.214  13.199 -0.1668 -0.5782 -0.1058
  101MPD2    H7 1550   1.122   4.247  13.163  0.8727 -3.0649  0.2263
  102TCq2    C1 1551   1.299   4.611  13.122 -0.7227 -0.4733  0.0237
  102TCq2    O2 1552   1.322   4.535  13.032 -0.1800 -0.5065  0.2147
  102TCq2    C2 1553   1.204   4.574  13.224 -0.0662  0.3527  0.3808
  102TCq2    C3 1554   1.222   4.628  13.350  0.9465 -0.7026  0.3350
  102TCq2    C4 1555   1.137   4.589  13.449  0.2660  0.0301 -0.5013
  102TCq2    C5 1556   1.062   4.477  13.441  0.0012  0.3966  0.2242
  102TCq2    C6 1557   1.070   4.409  13.322  0.8678  0.4940  0.0733
  102TCq2    C7 1558   1.133   4.458  13.207 -0.4438 -0.4227 -0.5400
  102TCq2    C8 1559   0.984   4.294  13.300  0.9834 -0.3421  0.1561
  102TCq2    O4 1560   0.890   4.277  13.378  0.3465  0.7613  0.0791
  102TCq2    C9 1561   1.150   4.647  13.577 -0.2786 -0.0603 -0.1132
  102TCq2    O5 1562   1.081   4.598  13.668 -0.5282 -0.7610 -0.0597
  102TCq2    O6 1563   1.190   0.042  13.570 -0.4744 -0.5401  0.0427
  102TCq2    H2 1564   1.294   4.704  13.376 -0.5813  0.5544  0.8484
  102TCq2    H3 1565   1.015   4.427  13.525 -0.9413  0.2905 -0.3758
  102TCq2    H4 1566   1.123   4.420  13.107 -2.9870 -2.1168  0.3758
  103TMC2    C1 1567   3.974   4.648  13.313  0.1974 -0.6644  0.3097
  103TMC2    C2 1568   3.936   0.052  13.282 -0.2819 -0.7522 -0.2323
  103TMC2    C3 1569   3.892   0.134  13.377 -0.2147  0.4771  0.0049
  103TMC2    C4 1570   3.959   4.597  13.440 -0.3429  0.0370  0.7543
  103TMC2    C5 1571   3.895   4.680  13.537  0.6589 -0.4242 -0.5259
  103TMC2    C6 1572   3.877   0.089  13.504  0.1051  1.2618  0.0293
  103TMC2     C 1573   3.966   4.557  13.199  0.4712  0.2034 -0.1554
  103TMC2     O 1574   3.912   4.613  13.104 -0.3531 -0.2458  0.1992
  103TMC2     H 1575   3.968   0.102  13.191 -0.4429 -0.8886 -0.3644
  103TMC2    H1 1576   3.960   4.489  13.451 -2.7524  0.1369  1.9943
  103TMC2    H2 1577   3.850   0.157  13.584  0.6330  0.1216  1.1779
  103TMC2    C7 1578   3.837   4.615  13.656 -0.3300  0.1887  0.3236
  103TMC2    C8 1579   3.933   0.270  13.362 -0.6271  0.3650  0.2507
  103TMC2    O1 1580   3.888   4.509  13.693  0.4095  0.3506  0.0462
  103TMC2    O2 1581   3.916   0.332  13.257  0.0073 -0.3883 -0.3940
  103TMC2    O5 1582   4.060   0.268  13.415 -0.1063 -0.6676 -0.0295
  103TMC2    H5 1583   4.067   0.226  13.503 -1.7368 -1.3472 -0.2299
  104MPD2     C 1584   4.075   4.214  13.145 -0.3738  0.1321 -0.7668
  104MPD2    C1 1585   4.007   4.330  13.121 -0.1789 -0.7733 -0.4862
  104MPD2    C2 1586   3.927   4.334  13.000  0.0257  0.1266  0.0236
  104MPD2    C3 1587   3.937   4.238  12.906 -0.4830  0.5817  0.1565
  104MPD2    C4 1588   4.011   4.122  12.933  0.0994  0.5560  0.1656
  104MPD2    C5 1589   4.084   4.121  13.050 -0.2982  0.1273  0.0213
  104MPD2     H 1590   3.883   4.430  12.975  0.4929 -0.3085 -2.4920
  104MPD2    H1 1591   4.028   4.045  12.859 -0.1054 -1.0664  1.8263
  104MPD2    H2 1592   4.125   4.193  13.239 -1.2606  1.6922  0.0579
  104MPD2    H3 1593   4.133   4.026  13.070  1.7132  0.6104 -2.5379
  104MPD2     N 1594   3.870   4.253  12.787  0.1278 -0.1753 -0.2244
  104MPD2    H5 1595   3.813   4.336  12.778 -1.4693 -1.3208 -0.6855
  104MPD2    N1 1596   4.010   4.428  13.219 -0.0532  0.4324  0.1659
  104MPD2    H7 1597   4.054   4.412  13.309  1.2330  2.2569 -0.1272
  105MPD2     C 1598   0.481   3.646  17.482 -0.6073 -0.4984 -0.6319
  105MPD2    C1 1599   0.382   3.736  17.450  0.1786 -0.0615 -0.1734
  105MPD2    C2 1600   0.350   3.829  17.546  0.3878 -0.5577  0.0624
  105MPD2    C3 1601   0.406   3.831  17.673 -0.5146 -0.3882 -0.6653
  105MPD2    C4 1602   0.491   3.730   0.010 -0.0709  0.1806  0.2862
  105MPD2    C5 1603   0.534   3.642  17.614 -0.4292 -0.5401  0.4078
  105MPD2     H 1604   0.261   3.889  17.526 -0.0817 -1.5842 -0.9578
  105MPD2    H1 1605   0.546   3.737   0.103 -1.2257  1.8611  0.8411
  105MPD2    H2 1606   0.505   3.562  17.419  0.5837 -0.2303 -0.5366
  105MPD2    H3 1607   0.595   3.556  17.639 -2.3058 -1.6640  1.1224
  105MPD2     N 1608   0.370   3.914   0.083 -0.3581 -0.3703  0.7986
  105MPD2    H5 1609   0.413   3.904   0.174  2.7096 -1.1771 -0.7649
  105MPD2    N1 1610   0.309   3.736  17.327  0.1905  0.4203 -0.0173
  105MPD2    H7 1611   0.235   3.805  17.318 -1.3406 -1.6730 -3.3800
  106TCq2    C1 1612   0.296   4.039   0.059 -0.6162  0.6232  0.2139
  106TCq2    O2 1613   0.269   4.098  17.651  0.9160 -0.2133 -0.3410
  106TCq2    C2 1614   0.233   4.090   0.182  1.0336  0.2355 -0.0757
  106TCq2    C3 1615   0.191   4.216   0.181 -0.2388  0.2368 -0.2319
  106TCq2    C4 1616   0.090   4.256   0.265  0.3226  0.9517 -1.0306
  106TCq2    C5 1617   0.038   4.165   0.350 -0.4332 -0.0125 -0.2056
  106TCq2    C6 1618   0.073   4.037   0.346 -0.2154 -0.0435 -0.7218
  106TCq2    C7 1619   0.180   3.998   0.268 -0.7876  0.2125  0.2018
  106TCq2    C8 1620   0.028   3.945   0.454  0.5188  0.6304 -0.6591
  106TCq2    O4 1621   0.102   3.844   0.477  0.3154 -0.2264 -0.3022
  106TCq2    C9 1622   0.037   4.390   0.266  0.7018 -0.3069 -0.1591
  106TCq2    O5 1623   4.657   4.412   0.328 -0.5552 -0.5714 -0.3795
  106TCq2    O6 1624   0.099   4.477   0.196 -0.3258  0.1548  0.5454
  106TCq2    H2 1625   0.214   4.291   0.106  0.8201  2.5111  2.3818
  106TCq2    H3 1626   4.681   4.200   0.413 -1.4973 -1.7961 -0.5877
  106TCq2    H4 1627   0.208   3.895   0.250 -2.8524 -0.2737 -0.1298
  107TMC2    C1 1628   1.375   2.709  11.625  0.2697 -0.4435 -0.8056
  107TMC2    C2 1629   1.354   2.811  11.532  0.2514  0.3549 -0.1123
  107TMC2    C3 1630   1.465   2.828  11.444 -0.0737  0.0533 -0.1916
  107TMC2    C4 1631   1.488   2.635  11.620  0.7580 -0.4394 -0.0078
  107TMC2    C5 1632   1.571   2.644  11.512 -0.2625  0.3477  0.8990
  107TMC2    C6 1633   1.567   2.745  11.425 -0.1817  0.2880 -0.1142
  107TMC2     C 1634   1.274   2.691  11.732 -0.1043 -0.3750  0.5314
  107TMC2     O 1635   1.192   2.778  11.740 -0.0432  0.2471  0.4093
  107TMC2     H 1636   1.271   2.881  11.526  1.9843  2.5162  1.1254
  107TMC2    H1 1637   1.515   2.564  11.697  1.4603 -1.2254 -0.9828
  107TMC2    H2 1638   1.638   2.770  11.347  0.9606  0.5892  1.0277
  107TMC2    C7 1639   1.671   2.543  11.498  0.1041  0.1652  0.4454
  107TMC2    C8 1640   1.483   2.956  11.383  0.8498 -0.4046 -0.3319
  107TMC2    O1 1641   1.688   2.471  11.597  0.1498 -0.2670  0.8014
  107TMC2    O2 1642   1.436   3.053  11.438 -0.1431  0.3367  0.0291
  107TMC2    O5 1643   1.498   2.942  11.247 -0.1859  0.3311  0.1597
  107TMC2    H5 1644   1.507   2.853  11.207 -0.3493 -0.1334  1.1558
  108MPD2     C 1645   1.223   2.400  11.951 -0.0589 -0.8163  0.2892
  108MPD2    C1 1646   1.202   2.528  11.909  0.0231  0.6855 -0.0893
  108MPD2    C2 1647   1.126   2.608  11.983  1.0900 -0.4537  0.5628
  108MPD2    C3 1648   1.068   2.564  12.108  0.1640  0.0905 -0.0639
  108MPD2    C4 1649   1.083   2.434  12.144 -0.0922  0.5315 -0.4729
  108MPD2    C5 1650   1.168   2.354  12.069  0.1470  0.3749 -0.1815
  108MPD2     H 1651   1.115   2.713  11.958 -0.7460 -1.4243 -2.7924
  108MPD2    H1 1652   1.050   2.398  12.241  0.5383  0.6209 -0.2197
  108MPD2    H2 1653   1.285   2.333  11.893  0.1498  1.4416 -2.0929
  108MPD2    H3 1654   1.188   2.253  12.102  0.2214  0.1083 -1.0474
  108MPD2     N 1655   0.992   2.647  12.192  0.0620 -0.4104  0.5630
  108MPD2    H5 1656   0.963   2.603  12.279 -0.6416  1.8847  1.4864
  108MPD2    N1 1657   1.276   2.569  11.792 -0.4888 -0.0328 -0.0078
  108MPD2    H7 1658   1.333   2.496  11.751  0.4470 -0.3097  1.8110
  109MPD2     C 1659   0.106   0.435   1.996  0.0467 -0.4005  0.5570
  109MPD2    C1 1660   0.202   0.507   1.930 -0.4034  0.1094 -0.5260
  109MPD2    C2 1661   0.326   0.528   1.978 -0.0492 -0.4269 -0.0161
  109MPD2    C3 1662   0.365   0.467   2.092  0.6433 -0.2109  1.2816
  109MPD2    C4 1663   0.272   0.390   2.162  0.1972  0.0046 -0.1013
  109MPD2    C5 1664   0.146   0.378   2.112 -0.5042 -0.5421 -0.4945
  109MPD2     H 1665   0.398   0.581   1.916  0.0487 -0.6685 -0.1095
  109MPD2    H1 1666   0.293   0.332   2.251 -0.8836 -2.3224 -1.3550
  109MPD2    H2 1667   0.007   0.425   1.955  0.2804 -0.1437 -0.0671
  109MPD2    H3 1668   0.070   0.316   2.158  1.5157 -1.4773  1.5431
  109MPD2     N 1669   0.505   0.487   2.139 -0.0194 -0.2688  0.7119
  109MPD2    H5 1670   0.573   0.531   2.078 -0.7137 -0.9676 -0.5524
  109MPD2    N1 1671   0.157   0.571   1.807 -0.1414 -0.7996 -0.4878
  109MPD2    H7 1672   0.061   0.558   1.776 -0.2989 -0.6730 -0.0563
  110TCq2    C1 1673   0.559   0.429   2.257 -0.0002  0.2054  0.4864
  110TCq2    O2 1674   0.500   0.378   2.353 -0.1721  0.2687 -0.4418
  110TCq2    C2 1675   0.704   0.422   2.249 -1.1412 -0.0279 -0.5667
  110TCq2    C3 1676   0.768   0.351   2.348 -0.0739 -0.3578 -0.5546
  110TCq2    C4 1677   0.905   0.347   2.335 -0.2251 -0.8476  0.0451
  110TCq2    C5 1678   0.978   0.395   2.234 -0.0141 -0.1406 -0.4423
  110TCq2    C6 1679   0.916   0.477   2.142  0.2948 -0.2449 -0.2013
  110TCq2    C7 1680   0.773   0.477   2.138  0.2905  0.2949 -0.2059
  110TCq2    C8 1681   1.002   0.502   2.025  0.1712  0.3827 -0.3953
  110TCq2    O4 1682   1.121   0.485   2.051 -0.0522 -0.1247  0.2218
  110TCq2    C9 1683   0.971   0.285   2.447  0.5092 -0.1081 -0.7689
  110TCq2    O5 1684   0.906   0.221   2.537 -0.1983  0.0394  0.5105
  110TCq2    O6 1685   1.096   0.283   2.442 -0.0296 -0.0999  0.1252
  110TCq2    H2 1686   0.725   0.297   2.431  0.9540 -1.2460 -0.5997
  110TCq2    H3 1687   1.083   0.369   2.231 -0.3932 -1.4828 -2.1867
  110TCq2    H4 1688   0.734   0.546   2.064  1.6985 -0.5102 -1.7232
  111TMC2    C1 1689   0.938   0.020  11.637 -0.0335  0.1977 -0.1750
  111TMC2    C2 1690   0.858   0.017  11.741 -0.0472 -0.1501  0.7211
  111TMC2    C3 1691   0.892   4.679  11.861 -0.7152  1.1406  0.1789
  111TMC2    C4 1692   1.051   4.670  11.640  0.4306 -0.0213 -0.1807
  111TMC2    C5 1693   1.079   4.601  11.753 -0.2963  0.0050 -0.6530
  111TMC2    C6 1694   1.007   4.602  11.871  0.3909  0.0789 -0.3363
  111TMC2     C 1695   0.891   0.087  11.519  0.2198  0.0050 -0.0173
  111TMC2     O 1696   0.969   0.086  11.424  0.2041 -0.3832 -0.0223
  111TMC2     H 1697   0.775   0.085  11.753  1.7446  2.1190  0.2240
  111TMC2    H1 1698   1.120   4.672  11.556  1.6130 -2.7756  0.7140
  111TMC2    H2 1699   1.020   4.537  11.957  0.9325  0.6012 -0.0209
  111TMC2    C7 1700   1.215   4.559  11.788 -0.1462 -0.1936 -0.0713
  111TMC2    C8 1701   0.842   0.011  11.980 -0.0619  0.7065 -0.4850
  111TMC2    O1 1702   1.223   4.472  11.873 -0.5559 -0.7851  0.6121
  111TMC2    O2 1703   0.734   0.070  11.977 -0.0208 -0.5925 -0.1418
  111TMC2    O5 1704   0.930   0.010  12.088 -0.2158  0.0043  0.7099
  111TMC2    H5 1705   1.011   4.683  12.065 -0.0488  1.4699 -1.9739
  112MPD2     C 1706   0.534   0.323  11.231 -0.2150 -0.2990 -0.2245
  112MPD2    C1 1707   0.672   0.314  11.214 -0.3487  0.0803  0.2353
  112MPD2    C2 1708   0.748   0.247  11.307  0.3388 -0.1766 -0.7380
  112MPD2    C3 1709   0.694   0.191  11.422 -0.2110 -0.0260  0.4283
  112MPD2    C4 1710   0.554   0.203  11.436 -0.4198  0.1521  0.0607
  112MPD2    C5 1711   0.476   0.265  11.340  0.1313  0.0898 -0.1861
  112MPD2     H 1712   0.856   0.240  11.298  0.3980  0.5620 -0.6416
  112MPD2    H1 1713   0.501   0.161  11.521  1.0666  3.0985  2.4337
  112MPD2    H2 1714   0.474   0.384  11.164 -1.5717 -0.5392  0.7817
  112MPD2    H3 1715   0.369   0.272  11.353 -0.2045 -0.0779 -2.9664
  112MPD2     N 1716   0.760   0.127  11.523  0.3132 -0.5099  0.1403
  112MPD2    H5 1717   0.697   0.109  11.600 -0.6981 -2.8759 -1.2355
  112MPD2    N1 1718   0.738   0.384  11.113  0.0067  0.7666 -0.3579
  112MPD2    H7 1719   0.832   0.353  11.089 -0.4503 -2.5053  2.0102
  113MPD2     C 1720   3.393   2.808   1.089 -0.2797 -0.0234  0.0097
  113MPD2    C1 1721   3.421   2.909   1.002 -0.7036  0.2426  0.8499
  113MPD2    C2 1722   3.365   2.908   0.873  0.1003 -0.1274 -0.4069
  113MPD2    C3 1723   3.291   2.796   0.833 -0.1069  0.1267 -0.5900
  113MPD2    C4 1724   3.267   2.703   0.926  0.2493 -0.0196 -0.6202
  113MPD2    C5 1725   3.320   2.702   1.049 -0.4745  0.5252  0.0007
  113MPD2     H 1726   3.384   2.995   0.811  1.6832  1.2760  2.0451
  113MPD2    H1 1727   3.209   2.616   0.897 -1.4844  0.9195  0.0874
  113MPD2    H2 1728   3.429   2.817   1.191  0.1717 -1.0106 -0.0528
  113MPD2    H3 1729   3.285   2.627   1.119 -1.5916  2.5039  1.5496
  113MPD2     N 1730   3.222   2.789   0.708  0.6556  0.2369 -0.4986
  113MPD2    H5 1731   3.153   2.715   0.695  1.3873 -0.8660  1.8474
  113MPD2    N1 1732   3.481   3.031   1.046  0.4946  0.1454  0.5485
  113MPD2    H7 1733   3.483   3.103   0.975  0.4465 -0.2402  0.1577
  114TCq2    C1 1734   3.211   2.893   0.623 -0.0299 -0.2459 -0.2735
  114TCq2    O2 1735   3.247   3.011   0.630 -0.1660 -0.3987 -0.1865
  114TCq2    C2 1736   3.126   2.861   0.507 -0.3933 -0.0118  0.7207
  114TCq2    C3 1737   3.102   2.956   0.408 -0.2053 -0.5733  0.2703
  114TCq2    C4 1738   3.036   2.909   0.300 -0.2254 -0.6109 -0.4059
  114TCq2    C5 1739   2.994   2.783   0.280 -0.0243  0.0271  0.0179
  114TCq2    C6 1740   3.016   2.692   0.374 -0.4714  0.3064 -0.0747
  114TCq2    C7 1741   3.089   2.727   0.486  0.4526 -0.9941 -0.6233
  114TCq2    C8 1742   2.971   2.553   0.354 -0.4975  0.7634 -0.6949
  114TCq2    O4 1743   2.928   2.514   0.247  0.1351 -0.0602 -0.2625
  114TCq2    C9 1744   3.001   2.993   0.187  0.0431 -0.3990 -0.3010
  114TCq2    O5 1745   2.925   2.947   0.099  0.0391  0.2187  0.5799
  114TCq2    O6 1746   3.046   3.109   0.193  0.1427  0.1132  0.0376
  114TCq2    H2 1747   3.134   3.058   0.425  2.0415 -1.5769  2.1438
  114TCq2    H3 1748   2.930   2.763   0.195  0.7365 -2.4371  0.0309
  114TCq2    H4 1749   3.099   2.648   0.560 -0.4089 -0.3394  0.1831
  115TMC2    C1 1750   4.423   0.846   0.201  0.2446 -0.2289  0.3319
  115TMC2    C2 1751   4.404   0.854   0.334  0.0271  0.1293  0.2414
  115TMC2    C3 1752   4.456   0.965   0.395 -0.1305 -0.5686  0.1661
  115TMC2    C4 1753   4.463   0.949   0.122 -0.8334  0.9935 -0.6675
  115TMC2    C5 1754   4.500   1.060   0.186  0.0850 -0.2422  0.2444
  115TMC2    C6 1755   4.499   1.073   0.322 -0.8472 -0.2816  0.1370
  115TMC2     C 1756   4.396   0.716   0.140  1.1232  0.2160 -0.8556
  115TMC2     O 1757   4.402   0.707   0.018 -0.3451  0.1724 -0.1185
  115TMC2     H 1758   4.350   0.783   0.396 -0.2381  0.5384  0.4751
  115TMC2    H1 1759   4.489   0.933   0.018 -1.9435 -0.0701 -0.7779
  115TMC2    H2 1760   4.516   1.171   0.365  1.0780 -0.2153 -0.7453
  115TMC2    C7 1761   4.544   1.171   0.104  0.4505  0.2600 -0.2067
  115TMC2    C8 1762   4.410   0.987   0.529  0.1662  0.0845 -0.0034
  115TMC2    O1 1763   4.628   1.243   0.154 -0.1041  0.6032 -0.4889
  115TMC2    O2 1764   4.473   1.039   0.619 -0.5247  0.1401 -0.9041
  115TMC2    O5 1765   4.282   1.002   0.505 -0.5505 -0.3601  0.5364
  115TMC2    H5 1766   4.261   0.992   0.410  2.0370  0.6938 -0.1258
  116MPD2     C 1767   4.331   0.210   0.178  0.5170 -0.0880 -0.7911
  116MPD2    C1 1768   4.298   0.294   0.076  0.7755  0.0842  0.1885
  116MPD2    C2 1769   4.324   0.433   0.096  0.0421  0.2348  0.1504
  116MPD2    C3 1770   4.371   0.478   0.216  0.1399  0.3527 -0.4293
  116MPD2    C4 1771   4.395   0.391   0.318 -0.7809 -0.2751  0.1753
  116MPD2    C5 1772   4.368   0.256   0.302  0.0685 -0.5525 -0.1597
  116MPD2     H 1773   4.304   0.508   0.021 -0.1334  0.8916  0.8591
  116MPD2    H1 1774   4.423   0.431   0.415  2.1773 -0.4482 -0.6101
  116MPD2    H2 1775   4.318   0.105   0.154 -3.0962 -0.0531  0.9938
  116MPD2    H3 1776   4.381   0.181   0.379  0.1724  0.5541  0.8917
  116MPD2     N 1777   4.401   0.613   0.234  0.3243  0.3051 -0.8163
  116MPD2    H5 1778   4.432   0.636   0.328 -1.6521 -2.1294  0.4596
  116MPD2    N1 1779   4.239   0.245  17.651  0.0570 -0.5236  0.0562
  116MPD2    H7 1780   4.223   0.144  17.649  1.1611 -0.7148  0.5705
  117TMC2    C1 1781   3.008   2.363  14.313  0.6189  0.0560  0.1921
  117TMC2    C2 1782   3.104   2.272  14.301 -0.0089  0.2829 -0.7930
  117TMC2    C3 1783   3.240   2.304  14.282  0.5575 -0.7478  0.1324
  117TMC2    C4 1784   3.037   2.489  14.283 -0.2314 -0.3101  0.1660
  117TMC2    C5 1785   3.170   2.526  14.266  0.7542  0.8624 -0.3146
  117TMC2    C6 1786   3.268   2.436  14.264  0.3579  0.6350 -0.3373
  117TMC2     C 1787   2.872   2.311  14.311  0.1691  0.3911  0.7396
  117TMC2     O 1788   2.859   2.191  14.332 -0.5574 -0.6168  0.2206
  117TMC2     H 1789   3.080   2.171  14.332 -0.7320  0.7506  0.1477
  117TMC2    H1 1790   2.962   2.562  14.311 -0.0620  0.3252 -1.0196
  117TMC2    H2 1791   3.372   2.464  14.260  0.2046  0.9783 -1.9950
  117TMC2    C7 1792   3.198   2.659  14.209 -0.7692  0.1639  0.0729
  117TMC2    C8 1793   3.346   2.204  14.258  0.7902 -0.2186 -0.3310
  117TMC2    O1 1794   3.301   2.710  14.240  0.5200  0.0529  0.3562
  117TMC2    O2 1795   3.462   2.224  14.218 -0.3197  0.5175 -0.0316
  117TMC2    O5 1796   3.282   2.089  14.219 -0.0326 -0.0548  0.1302
  117TMC2    H5 1797   3.185   2.099  14.231 -0.3144 -3.4704  0.5331
  118MPD2     C 1798   2.943   2.912  14.161  0.5677 -0.3111 -0.1284
  118MPD2    C1 1799   3.069   2.863  14.163 -0.1717  0.6611 -0.5695
  118MPD2    C2 1800   3.170   2.961  14.170 -0.2558 -0.3988  0.4517
  118MPD2    C3 1801   3.149   3.094  14.181 -0.2048 -1.2440 -0.4865
  118MPD2    C4 1802   3.017   3.137  14.176 -0.2872  0.4591 -0.0654
  118MPD2    C5 1803   2.917   3.046  14.168 -0.3594 -0.6127  0.1312
  118MPD2     H 1804   3.271   2.923  14.157 -1.0027 -2.1466 -0.3338
  118MPD2    H1 1805   2.996   3.243  14.182 -0.0699  0.6130 -1.7473
  118MPD2    H2 1806   2.860   2.843  14.156 -0.3415  0.5895  2.7249
  118MPD2    H3 1807   2.814   3.080  14.178  0.2821  0.9205  1.5412
  118MPD2     N 1808   3.243   3.204  14.173 -0.3518  0.3680 -0.2202
  118MPD2    H5 1809   3.218   3.302  14.181 -0.9282  0.3723 -2.2619
  118MPD2    N1 1810   3.088   2.723  14.166  0.4586  0.4362 -0.3060
  118MPD2    H7 1811   3.005   2.667  14.146  1.8068 -1.7420  0.1988
  119MPD2     C 1812   1.784   4.175  13.707 -0.5507 -0.4681  0.1274
  119MPD2    C1 1813   1.660   4.147  13.762 -0.6059 -0.3969 -0.6151
  119MPD2    C2 1814   1.566   4.077  13.688 -0.4462 -0.1316  0.6406
  119MPD2    C3 1815   1.602   4.016  13.569 -0.1623 -0.3353 -0.4122
  119MPD2    C4 1816   1.736   4.032  13.527  0.0347 -0.3695  0.1684
  119MPD2    C5 1817   1.819   4.119  13.585 -0.6326 -0.4137 -0.4299
  119MPD2     H 1818   1.462   4.084  13.720 -0.4779 -0.6226  0.6329
  119MPD2    H1 1819   1.767   3.986  13.434  1.0132 -1.6061  1.1120
  119MPD2    H2 1820   1.862   4.233  13.755 -0.2069 -0.6143 -0.2473
  119MPD2    H3 1821   1.922   4.130  13.552 -0.8055  1.2517 -0.4171
  119MPD2     N 1822   1.519   3.937  13.484 -0.4653  0.1749  0.3276
  119MPD2    H5 1823   1.562   3.896  13.402 -0.1139 -1.4459  1.3432
  119MPD2    N1 1824   1.626   4.211  13.880  0.1309 -0.0258  0.9041
  119MPD2    H7 1825   1.688   4.286  13.906  1.5918 -1.0265  0.3452
  120TCq2    C1 1826   1.390   3.904  13.512  0.1906  0.5362  0.5318
  120TCq2    O2 1827   1.328   3.913  13.621  0.0616  0.8556 -0.1308
  120TCq2    C2 1828   1.319   3.831  13.407  0.5836 -0.4995  0.2950
  120TCq2    C3 1829   1.380   3.796  13.289  0.6850  0.3648  0.4230
  120TCq2    C4 1830   1.315   3.713  13.205  0.2712 -0.0947  0.1156
  120TCq2    C5 1831   1.191   3.665  13.236  0.5037  0.1392 -0.3321
  120TCq2    C6 1832   1.136   3.696  13.357  0.5825  0.4190 -0.3139
  120TCq2    C7 1833   1.203   3.769  13.452 -0.1358  0.1880  0.5644
  120TCq2    C8 1834   1.011   3.630  13.391  0.1854  0.2952 -0.1357
  120TCq2    O4 1835   0.957   3.568  13.302  0.3339 -0.6947  0.4887
  120TCq2    C9 1836   1.389   3.673  13.090  0.3290 -0.4459  1.2439
  120TCq2    O5 1837   1.326   3.621  12.997  0.5355  0.4215  0.0753
  120TCq2    O6 1838   1.517   3.676  13.100 -0.5108  0.4409  0.8049
  120TCq2    H2 1839   1.472   3.843  13.257  0.9844  1.3000  2.7221
  120TCq2    H3 1840   1.154   3.590  13.167 -1.4012  0.9526 -0.2002
  120TCq2    H4 1841   1.157   3.790  13.548  0.5499  1.6983  0.5666
  121TMC2    C1 1842   3.245   0.578  14.004 -0.1270  0.6928 -0.1589
  121TMC2    C2 1843   3.237   0.447  13.965 -0.2726  0.4508  0.4822
  121TMC2    C3 1844   3.112   0.396  13.949 -0.6167 -0.1176  0.3057
  121TMC2    C4 1845   3.132   0.658  14.026 -0.1387 -0.2984 -0.0365
  121TMC2    C5 1846   3.012   0.600  14.002 -0.5560 -0.3541 -0.7052
  121TMC2    C6 1847   3.004   0.468  13.967  0.2751 -0.0367  1.0197
  121TMC2     C 1848   3.373   0.643  13.986 -0.3854  0.8022  0.3155
  121TMC2     O 1849   3.470   0.575  14.014  0.4386 -0.4194 -0.1920
  121TMC2     H 1850   3.326   0.387  13.956 -1.7692 -1.4359 -1.7050
  121TMC2    H1 1851   3.145   0.766  14.032  2.7936 -0.7095  1.2543
  121TMC2    H2 1852   2.909   0.439  13.923 -0.1759 -1.7769  3.1845
  121TMC2    C7 1853   2.909   0.692  13.951 -0.4415 -0.2967 -0.2088
  121TMC2    C8 1854   3.099   0.256  13.917 -0.1363 -0.3156  0.2953
  121TMC2    O1 1855   2.943   0.792  13.890 -0.0227 -0.8115  0.5477
  121TMC2    O2 1856   3.154   0.206  13.821  0.1241  0.2707 -0.3767
  121TMC2    O5 1857   2.985   0.210  13.971  0.4583 -0.5637  0.0664
  121TMC2    H5 1858   2.946   0.264  14.044 -1.5734 -0.7203 -0.8861
  122MPD2     C 1859   3.605   0.823  13.898  0.7982  0.1448 -0.5322
  122MPD2    C1 1860   3.468   0.841  13.866  0.5107  0.1343 -0.1937
  122MPD2    C2 1861   3.438   0.936  13.765 -0.3624 -0.4899  0.1203
  122MPD2    C3 1862   3.539   1.011  13.705 -0.2119  0.4463 -0.4162
  122MPD2    C4 1863   3.666   1.000  13.753 -0.5349 -0.7235 -0.3175
  122MPD2    C5 1864   3.706   0.899  13.839 -0.1025  0.3560  0.0174
  122MPD2     H 1865   3.334   0.945  13.736  0.1781  0.5732 -1.4835
  122MPD2    H1 1866   3.743   1.064  13.710  0.1569 -0.9995  0.5146
  122MPD2    H2 1867   3.639   0.746  13.966  1.2472  1.9946  1.3465
  122MPD2    H3 1868   3.813   0.892  13.859  0.0873 -0.8850 -1.4415
  122MPD2     N 1869   3.513   1.101  13.601  0.3286  0.8028  0.0927
  122MPD2    H5 1870   3.584   1.170  13.579  1.0156  1.3649  4.2389
  122MPD2    N1 1871   3.364   0.755  13.916  0.0934  0.6677  0.6308
  122MPD2    H7 1872   3.272   0.772  13.877  0.9027  0.2873 -1.4322
  123MPD2     C 1873   0.558   2.361   9.232 -0.0235  0.7727 -0.1751
  123MPD2    C1 1874   0.633   2.476   9.237  0.2197  0.2777  0.7774
  123MPD2    C2 1875   0.756   2.465   9.171 -0.3272  0.4957 -0.6189
  123MPD2    C3 1876   0.804   2.346   9.122  0.0605  0.2841  0.5617
  123MPD2    C4 1877   0.726   2.230   9.131 -0.2280 -0.3801  0.4872
  123MPD2    C5 1878   0.599   2.238   9.182 -0.1456 -0.4630 -0.2732
  123MPD2     H 1879   0.817   2.554   9.159 -0.0531  0.5756  1.2365
  123MPD2    H1 1880   0.769   2.132   9.111  2.5204  0.3167  2.9441
  123MPD2    H2 1881   0.451   2.364   9.252 -0.0626 -2.0880  0.1052
  123MPD2    H3 1882   0.531   2.153   9.175  0.5828 -1.1770  1.2972
  123MPD2     N 1883   0.936   2.346   9.076  0.0099  0.0307  0.0039
  123MPD2    H5 1884   0.986   2.434   9.081 -0.4945  0.3419 -0.3770
  123MPD2    N1 1885   0.581   2.597   9.293 -0.1467  0.4164  0.2282
  123MPD2    H7 1886   0.486   2.592   9.329 -0.1839 -0.9657 -0.0740
  124TCq2    C1 1887   0.986   2.244   8.990  0.5267  0.0425  0.3761
  124TCq2    O2 1888   0.940   2.134   8.960 -0.4114 -0.2187  0.2632
  124TCq2    C2 1889   1.126   2.264   8.950  0.4723  0.1101  0.0792
  124TCq2    C3 1890   1.169   2.195   8.840 -0.5118  0.9505  0.1004
  124TCq2    C4 1891   1.293   2.218   8.793 -0.0205  0.4067  0.5408
  124TCq2    C5 1892   1.382   2.300   8.862 -0.1459 -0.2528 -0.4643
  124TCq2    C6 1893   1.335   2.372   8.969  0.0466  0.4945 -0.4532
  124TCq2    C7 1894   1.207   2.354   9.019 -0.0144  0.0275  0.9222
  124TCq2    C8 1895   1.402   2.492   9.021  0.6567 -0.0954 -0.0724
  124TCq2    O4 1896   1.350   2.559   9.112 -0.4564 -0.6917  0.3647
  124TCq2    C9 1897   1.341   2.149   8.679 -0.6289 -0.2045  0.4732
  124TCq2    O5 1898   1.462   2.159   8.644 -0.6675  0.1751  0.1349
  124TCq2    O6 1899   1.249   2.103   8.606  0.3817 -0.2066  0.4490
  124TCq2    H2 1900   1.099   2.161   8.765 -0.4240 -0.9561  0.8766
  124TCq2    H3 1901   1.486   2.301   8.829  0.0826  3.7569  0.3481
  124TCq2    H4 1902   1.175   2.418   9.100  0.6892  0.7148  0.6697
  125TMC2    C1 1903   1.198   4.716   9.283 -0.2325 -0.1892  0.5597
  125TMC2    C2 1904   1.214   4.584   9.281 -0.5296  0.3623  0.2362
  125TMC2    C3 1905   1.340   4.532   9.288 -0.1064  0.9550  0.0489
  125TMC2    C4 1906   1.299   0.086   9.299  0.0078  0.0753  1.0467
  125TMC2    C5 1907   1.424   0.030   9.309  0.3142 -0.0091  0.8405
  125TMC2    C6 1908   1.447   4.615   9.319 -0.1291  0.0708 -0.5014
  125TMC2     C 1909   1.057   0.036   9.288  0.3970  0.6625 -0.8994
  125TMC2     O 1910   0.974   4.685   9.239 -0.0436 -0.1622 -0.1473
  125TMC2     H 1911   1.131   4.515   9.287 -1.7629  1.7012 -1.2166
  125TMC2    H1 1912   1.277   0.192   9.293 -0.4330 -0.0724  0.0125
  125TMC2    H2 1913   1.547   4.578   9.340 -0.9278 -0.9818  1.4584
  125TMC2    C7 1914   1.536   0.123   9.317 -0.0976  0.2116  0.4172
  125TMC2    C8 1915   1.351   4.388   9.322 -0.0829 -0.2739 -0.2335
  125TMC2    O1 1916   1.502   0.236   9.325 -0.0055 -0.1928  0.2738
  125TMC2    O2 1917   1.265   4.330   9.382  0.0203 -0.2599  0.2036
  125TMC2    O5 1918   1.471   4.334   9.293  0.2655 -0.1508  0.2445
  125TMC2    H5 1919   1.529   4.394   9.241 -0.7482  0.2248 -0.4371
  126MPD1     C 1920   0.692   0.390   9.423 -0.8552  0.1269 -0.2435
  126MPD1    C1 1921   0.813   0.438   9.466  0.3891 -0.1334  0.3692
  126MPD1    C2 1922   0.928   0.364   9.435 -0.4983  0.6579 -0.3128
  126MPD1    C3 1923   0.927   0.238   9.372  0.6152  0.5825  0.5397
  126MPD1    C4 1924   0.805   0.193   9.325  0.0711 -0.6393  0.4517
  126MPD1    C5 1925   0.691   0.270   9.353  0.5404  0.1651 -0.6970
  126MPD1     H 1926   1.026   0.406   9.454  0.9428 -1.7912 -2.4277
  126MPD1    H1 1927   0.792   0.100   9.270 -0.0514 -0.3790  0.0431
  126MPD1    H2 1928   0.604   0.441   9.460 -1.4940 -2.6141  2.0540
  126MPD1    H3 1929   0.596   0.227   9.323 -0.1417  1.5479 -0.5267
  126MPD1     N 1930   1.044   0.151   9.363  0.0377  0.2076 -0.4468
  126MPD1    H5 1931   1.118   0.196   9.415 -1.4363  1.8521  0.2386
  126MPD1    N1 1932   0.810   0.570   9.513  0.7728  0.0491 -0.4560
  126MPD1    H6 1933   0.722   0.596   9.557  0.3811 -1.8725 -0.1205
  126MPD1    H7 1934   0.888   0.588   9.575 -0.7676 -1.0689  1.8310
  127MPD2     C 1935   3.866   4.115   9.064 -0.6538 -0.3275  0.2154
  127MPD2    C1 1936   3.822   4.108   9.198  0.2922  0.1397  0.1741
  127MPD2    C2 1937   3.770   4.226   9.260  0.3506 -0.6359 -0.3878
  127MPD2    C3 1938   3.744   4.334   9.183 -0.4779  0.3269  0.6532
  127MPD2    C4 1939   3.776   4.332   9.047  0.4916  0.0716 -0.5148
  127MPD2    C5 1940   3.836   4.221   8.986 -0.1017  0.0170 -0.3502
  127MPD2     H 1941   3.728   4.227   9.360 -1.4587 -2.6022 -1.1363
  127MPD2    H1 1942   3.751   4.416   8.983 -1.8790  0.8170  1.4126
  127MPD2    H2 1943   3.907   4.028   9.015  1.4807 -0.7664  2.7884
  127MPD2    H3 1944   3.860   4.220   8.880 -1.0992  1.0812 -0.5801
  127MPD2     N 1945   3.693   4.444   9.254  0.0555  0.1163 -0.1222
  127MPD2    H5 1946   3.692   4.434   9.355  1.1320  0.1622 -0.1116
  127MPD2    N1 1947   3.837   3.981   9.273 -0.0024  0.3590  0.4720
  127MPD2    H7 1948   3.860   3.894   9.226  0.7197 -0.1543  1.7860
  128TCq2    C1 1949   3.790   3.961   9.400 -0.0193 -0.6672  0.3496
  128TCq2    O2 1950   3.776   4.044   9.489 -0.0039  0.1641 -0.9376
  128TCq2    C2 1951   3.786   3.821   9.432  0.5049 -0.1699 -0.0445
  128TCq2    C3 1952   3.751   3.794   9.561 -0.0026 -0.2861  0.0228
  128TCq2    C4 1953   3.707   3.668   9.594 -0.3935 -0.0637  0.1025
  128TCq2    C5 1954   3.729   3.565   9.508 -0.0331 -0.4124 -0.2524
  128TCq2    C6 1955   3.770   3.592   9.380  0.3900 -0.3884 -0.1125
  128TCq2    C7 1956   3.789   3.723   9.339 -1.0043 -0.5917 -0.0248
  128TCq2    C8 1957   3.753   3.493   9.278  0.0431  0.2027  0.5731
  128TCq2    O4 1958   3.805   3.519   9.166 -0.5144 -0.4094 -0.5003
  128TCq2    C9 1959   3.669   3.646   9.730 -0.3853 -0.3538  0.4201
  128TCq2    O5 1960   3.667   3.527   9.771 -0.1844 -0.1098  0.0198
  128TCq2    O6 1961   3.633   3.746   9.798 -0.1786  1.0279 -0.2030
  128TCq2    H2 1962   3.744   3.864   9.644 -2.3171  0.6067 -0.9305
  128TCq2    H3 1963   3.716   3.460   9.531  0.3139 -1.3376 -4.2807
  128TCq2    H4 1964   3.804   3.745   9.234  0.3627  3.3243  0.9878
  129MPD2     C 1965   1.424   4.574   1.339 -0.0810  0.4680 -0.0757
  129MPD2    C1 1966   1.380   4.697   1.292 -0.1046  0.2647  0.0740
  129MPD2    C2 1967   1.356   4.709   1.150 -0.7953  0.0907  0.0860
  129MPD2    C3 1968   1.355   4.597   1.059 -0.4475  0.6566 -0.6975
  129MPD2    C4 1969   1.386   4.474   1.111 -0.6627  0.1778  0.4828
  129MPD2    C5 1970   1.432   4.473   1.240 -0.1191  0.1017 -0.6159
  129MPD2     H 1971   1.311   0.080   1.121  1.6906  0.9169 -1.0362
  129MPD2    H1 1972   1.379   4.388   1.046  1.0682  0.0779  0.4312
  129MPD2    H2 1973   1.444   4.545   1.442 -2.0992  1.3361  0.5696
  129MPD2    H3 1974   1.472   4.376   1.267  0.5235  0.3340 -0.7526
  129MPD2     N 1975   1.330   4.634   0.928 -0.7994  0.1317  0.3656
  129MPD2    H5 1976   1.304   0.008   0.920 -0.8892 -0.0317 -1.5102
  129MPD2    N1 1977   1.337   0.078   1.377  0.6003 -0.1051  0.5694
  129MPD2    H7 1978   1.289   0.155   1.331 -0.7711 -1.6180 -0.5010
  130TCq2    C1 1979   1.326   0.067   1.513 -0.9160  0.4260  0.0636
  130TCq2    O2 1980   1.335   4.698   1.594  0.0409 -0.4027  0.1514
  130TCq2    C2 1981   1.266   0.195   1.564 -0.2226  0.0745 -0.7459
  130TCq2    C3 1982   1.286   0.297   1.476 -0.5113  0.5165  0.4199
  130TCq2    C4 1983   1.191   0.385   1.448 -0.2584  0.4303 -0.1835
  130TCq2    C5 1984   1.083   0.385   1.530 -0.6713  0.5138 -0.1137
  130TCq2    C6 1985   1.069   0.289   1.624  0.4041 -0.3263  0.1895
  130TCq2    C7 1986   1.149   0.179   1.630  0.2477  0.3347  0.2363
  130TCq2    C8 1987   0.940   0.287   1.683  0.5425 -0.3569 -0.5383
  130TCq2    O4 1988   0.852   0.346   1.622 -0.1933  0.7348  0.8692
  130TCq2    C9 1989   1.207   0.502   1.366 -0.6226 -0.2793 -0.1419
  130TCq2    O5 1990   1.317   0.540   1.322  0.0578  0.2663  0.3953
  130TCq2    O6 1991   1.100   0.542   1.309 -0.2161  0.4451 -0.0793
  130TCq2    H2 1992   1.385   0.307   1.434  0.4805 -0.3129  2.5317
  130TCq2    H3 1993   1.020   0.473   1.531 -0.7468  0.4668 -0.9041
  130TCq2    H4 1994   1.143   0.087   1.687 -0.1438  0.4152  0.3207
  131MPD2     C 1995   0.889   3.573   9.338  0.4996 -0.5191  0.4135
  131MPD2    C1 1996   0.913   3.465   9.420 -0.1324 -0.2519  0.2572
  131MPD2    C2 1997   0.829   3.350   9.415 -0.0352 -0.3747  0.4791
  131MPD2    C3 1998   0.725   3.341   9.329  0.0874 -0.5998 -0.1842
  131MPD2    C4 1999   0.696   3.453   9.250  0.4588  0.4336 -0.8690
  131MPD2    C5 2000   0.787   3.560   9.248  0.8130 -0.3984  1.0267
  131MPD2     H 2001   0.847   3.273   9.489 -0.9946 -1.8060 -0.7673
  131MPD2    H1 2002   0.627   3.450   9.167  0.4720  0.4496 -0.8806
  131MPD2    H2 2003   0.962   3.653   9.335  0.5169 -0.4934  1.5377
  131MPD2    H3 2004   0.784   3.637   9.172 -0.0771 -3.6236 -2.1964
  131MPD2     N 2005   0.651   3.217   9.326 -0.5977 -0.0245 -0.4219
  131MPD2    H5 2006   0.682   3.140   9.384  1.8954  0.7646 -0.7483
  131MPD2    N1 2007   1.025   3.480   9.504  0.0289 -0.3635  0.4280
  131MPD2    H7 2008   1.069   3.572   9.504  0.7882 -0.7300 -0.1699
  132TCq2    C1 2009   1.467   3.634   9.625 -0.1907  0.6953  0.1525
  132TCq2    O2 2010   1.481   3.606   9.507 -0.5015 -0.4518 -0.4064
  132TCq2    C2 2011   1.350   3.587   9.692 -0.6610  0.0618  0.5685
  132TCq2    C3 2012   1.354   3.576   9.829  0.5315 -0.4132  0.3023
  132TCq2    C4 2013   1.262   3.492   9.884  0.6989 -0.4338 -0.0998
  132TCq2    C5 2014   1.174   3.423   9.806  0.7556  0.0687 -0.1756
  132TCq2    C6 2015   1.179   3.437   9.670  0.4245  0.4005  0.5085
  132TCq2    C7 2016   1.266   3.523   9.611 -0.2289 -0.1777  0.2381
  132TCq2    C8 2017   1.073   3.383   9.587  0.6571  0.3037  0.2170
  132TCq2    O4 2018   1.042   3.267   9.616 -0.7636  0.3072 -0.4230
  132TCq2    C9 2019   1.253   3.473  10.032 -0.6129  0.0834  0.3528
  132TCq2    O5 2020   1.343   3.534  10.097 -0.7201  0.0118  0.1367
  132TCq2    O6 2021   1.154   3.407  10.069  0.2331  0.8144  0.0240
  132TCq2    H2 2022   1.429   3.612   9.899 -1.0935  1.8875  0.9006
  132TCq2    H3 2023   1.106   3.353   9.853  0.5448  1.6534  1.9221
  132TCq2    H4 2024   1.268   3.530   9.503 -1.0550 -0.6539  0.1886
  133MPD2     C 2025   1.255   0.384   9.068  0.6556  0.2106  1.2129
  133MPD2    C1 2026   1.286   0.271   9.001 -0.5513 -0.1127 -0.0141
  133MPD2    C2 2027   1.187   0.187   8.957 -0.1695 -0.9356  0.0998
  133MPD2    C3 2028   1.056   0.208   8.990 -1.7893  0.0986 -0.4638
  133MPD2    C4 2029   1.022   0.323   9.066 -0.2135 -0.1457  0.3088
  133MPD2    C5 2030   1.125   0.410   9.101 -0.3808  0.0880  0.5487
  133MPD2     H 2031   1.215   0.107   8.890 -0.3456 -0.5737 -0.4056
  133MPD2    H1 2032   0.919   0.340   9.093 -0.4400 -0.4421 -0.4030
  133MPD2    H2 2033   1.333   0.451   9.102 -0.0853  1.7145 -0.0492
  133MPD2    H3 2034   1.094   0.497   9.157  1.1211  0.4201  0.8546
  133MPD2     N 2035   0.951   0.115   8.978 -0.5051  0.1507  0.1263
  133MPD2    H5 2036   0.863   0.146   9.018 -0.3682  0.5494  0.1162
  133MPD2    N1 2037   1.421   0.255   8.966  0.0660  0.2523 -0.8875
  133MPD2    H7 2038   1.484   0.327   9.000  0.8642 -0.0654 -1.6889
  134TCq2    C1 2039   1.477   0.133   8.929 -0.1865 -0.0279 -0.5665
  134TCq2    O2 2040   1.422   0.023   8.923  0.3827  0.0048  0.5384
  134TCq2    C2 2041   1.624   0.130   8.918  0.4837 -0.7555 -1.0616
  134TCq2    C3 2042   1.684   0.004   8.923 -0.3533 -0.0097  0.1709
  134TCq2    C4 2043   1.817   4.721   8.920  0.3868  0.1037  0.3631
  134TCq2    C5 2044   1.899   0.105   8.908  0.7692  0.2570 -0.0124
  134TCq2    C6 2045   1.832   0.225   8.912 -0.6686 -0.6342  0.8045
  134TCq2    C7 2046   1.698   0.240   8.904  0.1381  0.3186 -0.4846
  134TCq2    C8 2047   1.905   0.345   8.943  0.0428 -0.8591  0.0655
  134TCq2    O4 2048   1.853   0.459   8.933 -0.2395  0.5767  0.0146
  134TCq2    C9 2049   1.885   4.588   8.933 -0.0057 -0.0419  0.0515
  134TCq2    O5 2050   1.999   4.582   8.884 -0.0296  0.5517 -0.0854
  134TCq2    O6 2051   1.813   4.491   8.958 -0.2969 -0.0619  0.1082
  134TCq2    H2 2052   1.635   4.633   8.946 -0.1703 -0.8045 -2.6746
  134TCq2    H3 2053   2.005   0.085   8.908  1.0942  1.9148 -1.0459
  134TCq2    H4 2054   1.655   0.339   8.895 -1.0980  0.1197  3.2120
  135MPD2     C 2055   3.202   0.891   9.903  0.2490  0.6221  0.6642
  135MPD2    C1 2056   3.166   0.781   9.829 -0.3268  0.5246  0.1136
  135MPD2    C2 2057   3.248   0.744   9.725  0.2046  0.7508 -0.1663
  135MPD2    C3 2058   3.373   0.809   9.694  0.9116  0.7471  0.2765
  135MPD2    C4 2059   3.396   0.925   9.765  0.0933  0.7637  0.6804
  135MPD2    C5 2060   3.316   0.961   9.874  0.8883  0.2008 -0.6206
  135MPD2     H 2061   3.221   0.660   9.661 -0.3990  1.2941 -0.6187
  135MPD2    H1 2062   3.483   0.986   9.743  0.7042 -0.4782 -0.3421
  135MPD2    H2 2063   3.143   0.937   9.981 -0.0163  2.1498 -0.4358
  135MPD2    H3 2064   3.342   1.046   9.935 -1.3962  1.4498 -1.4015
  135MPD2     N 2065   3.467   0.755   9.598 -0.6538  0.2154  0.3925
  135MPD2    H5 2066   3.546   0.814   9.575 -1.4973  1.5316  0.8894
  135MPD2    N1 2067   3.051   0.708   9.864 -0.0698  0.1904 -0.1905
  135MPD2    H7 2068   3.030   0.635   9.796 -1.6408  0.1351  0.3316
  136TCq2    C1 2069   2.969   0.736   9.969  0.7703  0.4797  0.7921
  136TCq2    O2 2070   2.990   0.806  10.068  0.0497  0.5953  0.1125
  136TCq2    C2 2071   2.851   0.646   9.980 -0.6004  0.6522 -0.4109
  136TCq2    C3 2072   2.786   0.597   9.869 -0.0296 -0.1816 -0.3874
  136TCq2    C4 2073   2.675   0.518   9.897  0.3913  0.2761 -0.4494
  136TCq2    C5 2074   2.639   0.489  10.028 -0.3726 -0.0175 -0.1761
  136TCq2    C6 2075   2.706   0.545  10.133 -0.8032  0.1045  0.1878
  136TCq2    C7 2076   2.805   0.633  10.109  0.2676  1.2712 -0.3278
  136TCq2    C8 2077   2.742   0.451  10.239 -0.5032  0.3753  0.3746
  136TCq2    O4 2078   2.862   0.426  10.250  0.1069 -0.2964 -0.0100
  136TCq2    C9 2079   2.616   0.441   9.795  0.0725  0.3465  0.5484
  136TCq2    O5 2080   2.666   0.443   9.684  0.0724  0.1586  0.3549
  136TCq2    O6 2081   2.506   0.396   9.832  0.1242  0.2232  0.4331
  136TCq2    H2 2082   2.810   0.621   9.767 -0.7988 -1.7280 -0.9371
  136TCq2    H3 2083   2.579   0.400  10.048  3.2908 -1.9646  2.0970
  136TCq2    H4 2084   2.860   0.670  10.194  0.1286 -0.2619  0.4343
  137MPD2     C 2085   2.661   3.619   9.523  0.5933 -0.6873  0.5145
  137MPD2    C1 2086   2.703   3.725   9.598 -0.5853  1.3078  0.0839
  137MPD2    C2 2087   2.681   3.711   9.735 -0.3797  0.3527 -0.5701
  137MPD2    C3 2088   2.612   3.604   9.789  0.2672  0.5960  1.4195
  137MPD2    C4 2089   2.578   3.490   9.712 -0.2313 -0.1089 -0.4374
  137MPD2    C5 2090   2.617   3.503   9.582 -0.5583 -0.0030  0.0523
  137MPD2     H 2091   2.705   3.797   9.797  2.5815 -0.7569 -0.1855
  137MPD2    H1 2092   2.528   3.404   9.755 -3.4436  1.0133 -2.0141
  137MPD2    H2 2093   2.681   3.613   9.417 -1.4527 -1.8911  0.2016
  137MPD2    H3 2094   2.576   3.423   9.521 -0.8563  1.3697 -1.5550
  137MPD2     N 2095   2.592   3.613   9.931 -0.3345  0.2697  0.3650
  137MPD2    H5 2096   2.620   3.702   9.970 -2.4184  1.0676  0.0476
  137MPD2    N1 2097   2.747   3.846   9.539  0.3995 -0.6414  0.2633
  137MPD2    H7 2098   2.749   3.848   9.438  0.8789 -2.1553  0.2326
  138TCq2    C1 2099   2.801   3.955   9.602 -0.1077  0.0882  0.0561
  138TCq2    O2 2100   2.790   4.001   9.716 -0.0029 -0.1630  0.0297
  138TCq2    C2 2101   2.864   4.053   9.509  0.3158  0.7154  0.9121
  138TCq2    C3 2102   2.927   4.002   9.398 -0.9206 -0.2534  0.3823
  138TCq2    C4 2103   2.949   4.085   9.291 -0.1336  0.3615 -0.0576
  138TCq2    C5 2104   2.912   4.215   9.295 -0.1880 -0.2582  0.3247
  138TCq2    C6 2105   2.839   4.259   9.403 -0.0063  0.4571 -0.6305
  138TCq2    C7 2106   2.800   4.175   9.509 -0.4446 -0.2352 -0.4794
  138TCq2    C8 2107   2.764   4.379   9.387 -0.4199 -0.2128 -0.2091
  138TCq2    O4 2108   2.799   4.464   9.308 -0.3947 -0.3044 -0.0939
  138TCq2    C9 2109   3.005   4.041   9.171  1.0084  0.3164 -0.2259
  138TCq2    O5 2110   2.989   4.115   9.073  0.1822  0.2965 -0.4334
  138TCq2    O6 2111   3.043   3.919   9.163 -0.3867 -0.6103 -0.0455
  138TCq2    H2 2112   2.958   3.899   9.383  2.7076  0.7970  0.5262
  138TCq2    H3 2113   2.925   4.284   9.213  1.5252  0.1993  0.9797
  138TCq2    H4 2114   2.738   4.201   9.594 -0.6315  1.0789 -1.0114
  139TMC2    C1 2115   2.494   3.680  13.740  0.3927  0.3799 -0.3683
  139TMC2    C2 2116   2.405   3.627  13.651 -0.2766 -0.3403  0.7108
  139TMC2    C3 2117   2.270   3.614  13.692  0.5374  0.1814 -0.6133
  139TMC2    C4 2118   2.450   3.708  13.871  0.3706  0.1672 -0.1879
  139TMC2    C5 2119   2.319   3.683  13.905  0.3556  0.8597  0.2717
  139TMC2    C6 2120   2.227   3.638  13.823  0.5236  0.3292 -0.0157
  139TMC2     C 2121   2.633   3.647  13.717 -0.2412 -0.8992  0.2493
  139TMC2     O 2122   2.642   3.546  13.649 -0.0544  0.5396  0.3897
  139TMC2     H 2123   2.432   3.621  13.547  0.8138  0.6797  0.9445
  139TMC2    H1 2124   2.521   3.719  13.952 -0.3729  1.6577  0.2641
  139TMC2    H2 2125   2.125   3.616  13.854  0.4912  0.7235  0.1667
  139TMC2    C7 2126   2.277   3.749  14.028 -0.0826  0.4076  0.4198
  139TMC2    C8 2127   2.181   3.563  13.588 -0.5020 -0.4336  0.4927
  139TMC2    O1 2128   2.158   3.775  14.042 -0.0548  0.0595 -0.2615
  139TMC2    O2 2129   2.219   3.482  13.502 -0.6189 -0.0773  0.1671
  139TMC2    O5 2130   2.059   3.617  13.607 -0.1143  0.1550 -0.1735
  139TMC2    H5 2131   2.063   3.687  13.676 -3.6830  2.1748 -2.0062
  140MPD2     C 2132   2.941   3.741  13.890 -0.0546  0.1534  1.0174
  140MPD2    C1 2133   2.869   3.664  13.809  0.6402 -0.3588  0.3348
  140MPD2    C2 2134   2.921   3.543  13.756  0.6526  0.1121  0.6025
  140MPD2    C3 2135   3.048   3.503  13.783 -0.1354  0.6143 -0.2449
  140MPD2    C4 2136   3.120   3.578  13.868 -0.5276  0.0910 -0.0205
  140MPD2    C5 2137   3.073   3.706  13.913 -0.4726  1.1269 -0.5084
  140MPD2     H 2138   2.858   3.481  13.693  1.8107 -0.5810  0.1391
  140MPD2    H1 2139   3.222   3.553  13.897 -0.6102  0.8240  0.9229
  140MPD2    H2 2140   2.903   3.831  13.937  1.7461  1.5225 -0.1632
  140MPD2    H3 2141   3.151   3.751  13.973 -1.0981  0.1461  1.0513
  140MPD2     N 2142   3.075   3.369  13.752  0.2106  0.6374 -0.5004
  140MPD2    H5 2143   3.005   3.336  13.686 -0.2597 -0.2915  0.4652
  140MPD2    N1 2144   2.731   3.702  13.796 -0.0662 -0.2954  0.4355
  140MPD2    H7 2145   2.688   3.767  13.862 -0.8477 -0.5144  0.1439
  141TCq2    C1 2146   3.568   0.017  15.083  0.1260 -0.6316 -0.0652
  141TCq2    O2 2147   3.595   0.044  14.965  0.6176 -0.0748  0.5472
  141TCq2    C2 2148   3.524   0.130  15.165  0.1909 -0.0026  0.4295
  141TCq2    C3 2149   3.450   0.103  15.280  0.0540 -0.2348 -0.2936
  141TCq2    C4 2150   3.390   0.214  15.329  0.1359 -0.0084  0.0481
  141TCq2    C5 2151   3.382   0.338  15.262 -0.0947 -0.2737 -0.3035
  141TCq2    C6 2152   3.461   0.355  15.157 -0.3534  0.1390  0.1204
  141TCq2    C7 2153   3.524   0.253  15.105  0.2972 -0.8258  0.0117
  141TCq2    C8 2154   3.463   0.493  15.092  0.4637  0.3939  0.1778
  141TCq2    O4 2155   3.380   0.574  15.116 -0.1884  0.4534 -0.4124
  141TCq2    C9 2156   3.323   0.222  15.450 -1.0312  0.1856 -0.2906
  141TCq2    O5 2157   3.302   0.335  15.504 -0.4087  0.5058  0.1968
  141TCq2    O6 2158   3.302   0.114  15.511 -0.2154 -0.5105 -0.1045
  141TCq2    H2 2159   3.454   0.016  15.344  0.7062  0.1571  0.2011
  141TCq2    H3 2160   3.342   0.427  15.308 -2.2720 -1.4593  0.0937
  141TCq2    H4 2161   3.592   0.262  15.022  2.5518 -0.8547  1.8603
  142MPD2     C 2162   1.559   2.315  10.207 -0.0425  0.1478  0.3956
  142MPD2    C1 2163   1.471   2.303  10.105  0.6783  0.6212  0.3370
  142MPD2    C2 2164   1.472   2.394  10.004 -0.3592  0.2594  0.2054
  142MPD2    C3 2165   1.567   2.497  10.008  0.2918  0.0138  0.2083
  142MPD2    C4 2166   1.654   2.509  10.110 -0.1497  0.4418 -0.3152
  142MPD2    C5 2167   1.645   2.420  10.210  0.2266 -0.0184  0.1965
  142MPD2     H 2168   1.406   2.378   9.920  0.9198  0.0859 -0.7670
  142MPD2    H1 2169   1.725   2.589  10.126  0.5578 -0.5143  1.3658
  142MPD2    H2 2170   1.563   2.249  10.294 -0.3071  1.2016  1.2050
  142MPD2    H3 2171   1.720   2.430  10.288 -0.2213 -0.3229  0.6661
  142MPD2     N 2172   1.597   2.601   9.912 -0.7443 -0.6446 -0.4899
  142MPD2    H5 2173   1.669   2.669   9.936 -0.4963 -0.9266 -0.4324
  142MPD2    N1 2174   1.362   2.215  10.124  0.1007 -0.6339  0.0136
  142MPD2    H7 2175   1.361   2.158  10.208  1.3522  0.6447  0.9160
  143TCq2    C1 2176   1.522   2.630   9.795 -0.2514  0.2916  0.3577
  143TCq2    O2 2177   1.419   2.577   9.757 -0.6486 -0.2527 -0.5669
  143TCq2    C2 2178   1.562   2.755   9.739  0.1463  0.1252 -0.5473
  143TCq2    C3 2179   1.662   2.837   9.788  0.6833  0.0937 -1.2265
  143TCq2    C4 2180   1.717   2.935   9.709  0.3123 -0.2059  0.2954
  143TCq2    C5 2181   1.673   2.954   9.585  0.2587  0.7264  0.2679
  143TCq2    C6 2182   1.559   2.889   9.543  0.3937 -0.2567  0.0293
  143TCq2    C7 2183   1.520   2.783   9.615  0.4026  0.5385  0.7761
  143TCq2    C8 2184   1.531   2.874   9.398  0.4664 -0.3481 -0.2741
  143TCq2    O4 2185   1.418   2.835   9.362 -0.5828 -0.2495 -0.6958
  143TCq2    C9 2186   1.833   3.014   9.757 -0.3292 -0.2390  0.1951
  143TCq2    O5 2187   1.873   3.008   9.879  0.8319 -0.0121 -0.2423
  143TCq2    O6 2188   1.886   3.086   9.673  0.1078 -0.5097  0.4774
  143TCq2    H2 2189   1.702   2.816   9.887 -0.3478  1.1298 -0.5916
  143TCq2    H3 2190   1.714   3.028   9.517  1.3005  0.7114  0.8870
  143TCq2    H4 2191   1.441   2.722   9.572  0.9552  0.9760 -0.8600
  144MPD2     C 2192   3.284   2.342   0.537  0.6321  0.1607 -0.1724
  144MPD2    C1 2193   3.327   2.213   0.555  0.2226  0.7205 -0.9232
  144MPD2    C2 2194   3.389   2.169   0.668 -0.3792  0.2971 -0.0778
  144MPD2    C3 2195   3.425   2.253   0.769 -0.1803  0.2162 -0.6155
  144MPD2    C4 2196   3.383   2.385   0.755 -0.8943  0.5253 -0.0204
  144MPD2    C5 2197   3.314   2.426   0.637  0.7340  0.0214  0.7342
  144MPD2     H 2198   3.424   2.066   0.670 -0.2774  0.3389  0.4782
  144MPD2    H1 2199   3.412   2.459   0.829 -1.0790  0.8728 -0.2967
  144MPD2    H2 2200   3.243   2.384   0.446  1.5766 -1.6625 -1.4456
  144MPD2    H3 2201   3.293   2.531   0.618 -0.9901 -0.4734 -0.0431
  144MPD2     N 2202   3.505   2.213   0.883  0.3637 -0.2953 -0.3962
  144MPD2    H5 2203   3.525   2.276   0.960  1.9242 -0.4499 -0.6859
  144MPD2    N1 2204   3.299   2.106   0.470  0.1564  0.1577 -0.0295
  144MPD2    H7 2205   3.333   2.014   0.497  0.9704 -0.0621 -1.8067
  145TCq2    C1 2206   3.556   2.087   0.907 -0.2608  0.4417  0.5495
  145TCq2    O2 2207   3.561   1.992   0.835  0.1692 -0.7309  0.0937
  145TCq2    C2 2208   3.634   2.073   1.026 -0.4245  0.6257  0.2740
  145TCq2    C3 2209   3.736   1.983   1.021 -0.3581  0.7940 -0.3813
  145TCq2    C4 2210   3.790   1.938   1.140 -0.1181 -0.0585 -0.0864
  145TCq2    C5 2211   3.743   1.985   1.260  0.3341 -0.2366 -0.0552
  145TCq2    C6 2212   3.656   2.089   1.267 -0.5028 -0.2355  0.6875
  145TCq2    C7 2213   3.585   2.124   1.150 -0.0513  1.1482  0.1760
  145TCq2    C8 2214   3.643   2.159   1.397 -0.2115 -0.2217 -0.6355
  145TCq2    O4 2215   3.705   2.107   1.485  0.0321  0.9596  0.2641
  145TCq2    C9 2216   3.885   1.825   1.140  0.4975 -0.4368 -0.0263
  145TCq2    O5 2217   3.927   1.784   1.248 -0.0730 -0.3934 -0.0934
  145TCq2    O6 2218   3.903   1.769   1.029  0.7692  0.1420  0.3631
  145TCq2    H2 2219   3.765   1.940   0.926  2.3485  1.3714  0.1836
  145TCq2    H3 2220   3.784   1.938   1.349 -1.0762  0.7325  1.1220
  145TCq2    H4 2221   3.511   2.203   1.153 -0.6526  0.5121  1.9727
  146TMC2    C1 2222   0.629   0.567  11.934 -0.7805 -0.0042 -0.1496
  146TMC2    C2 2223   0.548   0.581  11.822  0.7775  0.7016 -1.0166
  146TMC2    C3 2224   0.589   0.532  11.701  0.0141  0.3363 -0.0834
  146TMC2    C4 2225   0.751   0.499  11.931  0.2192  0.2198  0.0109
  146TMC2    C5 2226   0.784   0.447  11.811  0.8330  0.4075 -0.5530
  146TMC2    C6 2227   0.708   0.459  11.696  0.0200 -0.1973 -1.0226
  146TMC2     C 2228   0.582   0.629  12.055  0.8520 -0.6940 -0.3896
  146TMC2     O 2229   0.533   0.738  12.034 -0.2219  0.2666 -0.4468
  146TMC2     H 2230   0.452   0.630  11.830  0.6678  0.0189  1.8005
  146TMC2    H1 2231   0.818   0.519  12.013 -0.2700  0.0818  0.4438
  146TMC2    H2 2232   0.748   0.395  11.618  1.0011 -1.3759  0.4449
  146TMC2    C7 2233   0.901   0.373  11.796 -0.1140  0.0066 -0.4147
  146TMC2    C8 2234   0.490   0.494  11.606 -0.0800 -0.2037 -0.2431
  146TMC2    O1 2235   0.955   0.376  11.686 -0.5928  0.3894 -0.3718
  146TMC2    O2 2236   0.366   0.509  11.623  0.2062  0.0442 -0.2067
  146TMC2    O5 2237   0.556   0.517  11.492 -0.1708  0.6830 -0.1480
  146TMC2    H5 2238   0.646   0.553  11.505  0.5016 -1.0755  0.0314
  147MPD2     C 2239   1.319   0.200  12.018  0.6887 -0.9636 -0.0131
  147MPD2    C1 2240   1.229   0.222  12.116 -0.8958  0.5859 -0.1797
  147MPD2    C2 2241   1.100   0.255  12.085  1.1583 -0.2752  0.1210
  147MPD2    C3 2242   1.067   0.276  11.949 -0.5280  0.4072 -0.3303
  147MPD2    C4 2243   1.159   0.246  11.850  0.4152  0.3822  0.5026
  147MPD2    C5 2244   1.284   0.205  11.886  0.1819 -0.0482  0.1315
  147MPD2     H 2245   1.031   0.281  12.163  2.3846 -1.3866  1.5884
  147MPD2    H1 2246   1.130   0.267  11.748 -0.6909 -1.8979  0.3412
  147MPD2    H2 2247   1.422   0.190  12.049  0.1446 -2.0480  1.4151
  147MPD2    H3 2248   1.354   0.205  11.802 -0.5899  0.2463 -0.5106
  147MPD2     N 2249   0.935   0.316  11.915 -0.1659  0.8740  1.0019
  147MPD2    H5 2250   0.862   0.316  11.986 -0.1983  3.0105  0.9591
  147MPD2    N1 2251   1.270   0.202  12.252 -0.0044 -0.3914 -0.5630
  147MPD2    H7 2252   1.365   0.168  12.255  1.3590  3.4919 -0.2128
  148MPD2     C 2253   1.337   3.984  10.222 -0.3484 -0.5929  0.9119
  148MPD2    C1 2254   1.322   3.845  10.227  0.2238 -0.1745  1.0065
  148MPD2    C2 2255   1.199   3.801  10.190 -0.8771 -0.4990  0.1391
  148MPD2    C3 2256   1.077   3.875  10.183  0.1662  0.3628 -0.2083
  148MPD2    C4 2257   1.093   4.013  10.201 -0.4865 -0.4051 -0.2552
  148MPD2    C5 2258   1.225   4.061  10.206  0.2791  0.4806 -0.0999
  148MPD2     H 2259   1.190   3.698  10.160 -1.4760  0.2165 -2.1100
  148MPD2    H1 2260   1.020   4.093  10.211  1.9732  1.9602 -1.3024
  148MPD2    H2 2261   1.428   4.041  10.232 -0.4274 -0.5572  1.4539
  148MPD2    H3 2262   1.238   4.168  10.204 -1.1545  0.6759  1.1866
  148MPD2     N 2263   0.940   3.826  10.180 -0.0971  0.5896  0.3579
  148MPD2    H5 2264   0.863   3.890  10.160  0.2967  0.8758 -0.2348
  148MPD2    N1 2265   1.429   3.754  10.225  0.0841 -0.3422 -0.3442
  148MPD2    H7 2266   1.406   3.659  10.200  2.0712 -0.4848 -1.6415
  149TCq2    C1 2267   1.543   3.777  10.288  0.3943  0.2758  0.0745
  149TCq2    O2 2268   1.564   3.863  10.373  0.0748 -0.3561  0.1236
  149TCq2    C2 2269   1.630   3.656  10.301 -0.3905 -0.1186  0.6614
  149TCq2    C3 2270   1.679   3.634  10.423 -0.0281 -0.1416 -0.4157
  149TCq2    C4 2271   1.732   3.516  10.464 -0.2178  0.1404  0.3123
  149TCq2    C5 2272   1.707   3.412  10.374 -0.1925  0.0042 -0.5386
  149TCq2    C6 2273   1.650   3.442  10.256  0.9987  0.4314  0.2934
  149TCq2    C7 2274   1.624   3.562  10.203  0.3442  0.4720  0.1495
  149TCq2    C8 2275   1.644   3.326  10.167  0.4012  0.6036  0.1488
  149TCq2    O4 2276   1.642   3.211  10.215  0.0942  0.2078 -0.4172
  149TCq2    C9 2277   1.732   3.490  10.604  0.2103 -0.0980 -0.0696
  149TCq2    O5 2278   1.766   3.578  10.684  0.1875 -0.1667 -0.3635
  149TCq2    O6 2279   1.661   3.389  10.632  0.1270 -0.2210 -0.0200
  149TCq2    H2 2280   1.665   3.708  10.501 -0.1277 -0.9544  0.3350
  149TCq2    H3 2281   1.711   3.310  10.411 -0.2699  0.0689 -0.3491
  149TCq2    H4 2282   1.564   3.570  10.113  0.0640 -0.3337  0.2594
  150MPD2     C 2283   2.755   3.142  12.255 -0.1647  0.1119  0.3308
  150MPD2    C1 2284   2.714   3.253  12.180 -1.0504 -0.0833  0.0384
  150MPD2    C2 2285   2.730   3.380  12.231  0.1565  0.5705  0.0204
  150MPD2    C3 2286   2.798   3.396  12.351 -0.4903 -0.2187  0.1904
  150MPD2    C4 2287   2.832   3.289  12.425 -0.8118 -0.8268  0.0452
  150MPD2    C5 2288   2.810   3.162  12.378  0.4249  0.3978 -0.0120
  150MPD2     H 2289   2.712   3.470  12.173  0.1351  1.5305  1.5309
  150MPD2    H1 2290   2.854   3.300  12.531 -2.7299  0.8347  0.2653
  150MPD2    H2 2291   2.753   3.041  12.216 -2.4705  0.1238  0.4158
  150MPD2    H3 2292   2.828   3.077  12.442 -2.0769 -0.0316  0.1264
  150MPD2     N 2293   2.848   3.524  12.386 -0.6559  0.2283 -0.5598
  150MPD2    H5 2294   2.813   3.598  12.326  1.0718  0.6151 -1.0856
  150MPD2    N1 2295   2.665   3.221  12.048  0.7706  0.4879 -0.0147
  150MPD2    H7 2296   2.664   3.126  12.014 -0.9408  0.3742  0.4033
  151TCq2    C1 2297   2.958   3.549  12.464  0.7404 -0.4597 -0.0603
  151TCq2    O2 2298   3.029   3.468  12.523  0.1552 -0.4839 -0.1238
  151TCq2    C2 2299   3.005   3.684  12.453 -0.0118  0.2889  0.5798
  151TCq2    C3 2300   2.918   3.781  12.398  0.4964  0.5210 -0.0939
  151TCq2    C4 2301   2.975   3.897  12.361  0.2480 -0.0150 -0.3611
  151TCq2    C5 2302   3.113   3.917  12.371  0.3376  0.2210  0.9341
  151TCq2    C6 2303   3.196   3.823  12.429 -0.3620 -0.6863 -0.1392
  151TCq2    C7 2304   3.142   3.703  12.471  0.1704 -0.2638  0.1547
  151TCq2    C8 2305   3.337   3.857  12.433 -0.7254  0.7436  0.5822
  151TCq2    O4 2306   3.365   3.977  12.427 -0.1309 -0.3829  0.5738
  151TCq2    C9 2307   2.893   4.003  12.304  0.1685  0.2170  0.1400
  151TCq2    O5 2308   2.952   4.103  12.253  0.8029  0.1812 -0.6525
  151TCq2    O6 2309   2.776   3.978  12.268  0.0438 -0.1609  0.5745
  151TCq2    H2 2310   2.810   3.774  12.390  0.5898 -0.8359 -0.0449
  151TCq2    H3 2311   3.149   4.008  12.324  0.6898  0.9540  2.6510
  151TCq2    H4 2312   3.195   3.636  12.538 -0.6013 -0.6981  0.3261
  152MPD2     C 2313   2.163   2.918  12.800 -0.3076  0.0740 -1.0547
  152MPD2    C1 2314   2.181   3.037  12.738  0.3500 -0.0092 -0.2907
  152MPD2    C2 2315   2.078   3.088  12.664  0.9285 -0.6206 -0.1528
  152MPD2    C3 2316   1.959   3.020  12.645  0.1291  0.3571 -0.3657
  152MPD2    C4 2317   1.935   2.906  12.717  0.4803  0.3584  0.2962
  152MPD2    C5 2318   2.042   2.859  12.794  1.0299 -0.8054  0.2189
  152MPD2     H 2319   2.098   3.182  12.613 -2.3760  0.4018  0.4528
  152MPD2    H1 2320   1.848   2.844  12.695  0.0757  0.6793  0.9960
  152MPD2    H2 2321   2.244   2.868  12.852  0.3143  0.2804 -1.8124
  152MPD2    H3 2322   2.031   2.759  12.835  1.0893 -0.5398  0.8912
  152MPD2     N 2323   1.866   3.071  12.547  0.5375  0.1928 -0.0325
  152MPD2    H5 2324   1.896   3.148  12.487  1.5846  1.2431  1.8570
  152MPD2    N1 2325   2.306   3.099  12.744  0.1875 -0.5866 -0.4523
  152MPD2    H7 2326   2.383   3.059  12.797  0.2452 -1.2817 -1.0597
  153TCq2    C1 2327   2.338   3.232  12.707 -0.0047 -0.3716  0.3178
  153TCq2    O2 2328   2.263   3.315  12.655  0.4090  0.2679 -0.0539
  153TCq2    C2 2329   2.481   3.269  12.732 -0.2001  0.1883 -0.0047
  153TCq2    C3 2330   2.582   3.179  12.769  0.2340 -0.0292 -0.3993
  153TCq2    C4 2331   2.708   3.223  12.769  0.3373 -0.4522  0.2968
  153TCq2    C5 2332   2.740   3.352  12.756 -0.4232 -0.2880  0.4694
  153TCq2    C6 2333   2.638   3.442  12.743 -0.5184  0.2369 -0.2410
  153TCq2    C7 2334   2.504   3.405  12.727 -0.2839 -0.6052 -0.6610
  153TCq2    C8 2335   2.662   3.582  12.725 -0.0048  0.1334 -0.6740
  153TCq2    O4 2336   2.576   3.650  12.674  0.3906 -0.4645  0.6419
  153TCq2    C9 2337   2.813   3.135  12.801  0.1991  0.2121 -0.2973
  153TCq2    O5 2338   2.929   3.172  12.774 -0.4123 -0.2411  0.4724
  153TCq2    O6 2339   2.776   3.029  12.850  0.0400 -0.1729  0.0446
  153TCq2    H2 2340   2.556   3.075  12.752  2.7319 -0.7208  0.0557
  153TCq2    H3 2341   2.843   3.382  12.743 -0.0780 -0.8839  1.8470
  153TCq2    H4 2342   2.427   3.477  12.701  1.6636  1.2940 -1.2572
  154MPD2     C 2343   4.238   3.816   0.308 -0.5836  0.0826  0.3433
  154MPD2    C1 2344   4.251   3.954   0.304  0.2365 -0.2292 -0.2811
  154MPD2    C2 2345   4.142   4.034   0.349 -0.2349 -0.4890  0.5735
  154MPD2    C3 2346   4.028   3.978   0.402 -0.1491  0.5284 -0.5678
  154MPD2    C4 2347   4.018   3.839   0.404 -0.5298  0.6493  0.2715
  154MPD2    C5 2348   4.125   3.759   0.361 -0.8341 -0.4301  0.0029
  154MPD2     H 2349   4.146   4.142   0.340 -2.2640 -0.4477  0.0692
  154MPD2    H1 2350   3.939   3.775   0.443 -0.2704 -0.8325 -1.6503
  154MPD2    H2 2351   4.320   3.752   0.276 -1.4630 -0.3743 -0.9969
  154MPD2    H3 2352   4.113   3.652   0.370 -1.5158 -0.4755 -1.4844
  154MPD2     N 2353   3.924   4.069   0.446 -0.5000  0.1652  0.3223
  154MPD2    H5 2354   3.951   4.166   0.464  1.7303 -0.2150 -0.9611
  154MPD2    N1 2355   4.367   4.005   0.241  0.5165  0.0613 -0.0906
  154MPD2    H7 2356   4.438   3.936   0.217  1.0741  0.1012  1.4866
  155TCq2    C1 2357   4.389   4.138   0.206 -0.6921 -1.0097  0.3278
  155TCq2    O2 2358   4.317   4.238   0.211  0.1697  0.9487 -0.4478
  155TCq2    C2 2359   4.504   4.156   0.113  0.6400 -0.0794  0.0686
  155TCq2    C3 2360   4.524   4.282   0.067 -0.2445 -0.0793  0.1328
  155TCq2    C4 2361   4.623   4.304  17.667 -0.0522  0.3551  0.2857
  155TCq2    C5 2362   4.677   4.196  17.604 -0.1366  0.4699 -0.2566
  155TCq2    C6 2363   4.647   4.069  17.646  0.3793  0.1234  0.2443
  155TCq2    C7 2364   4.567   4.049   0.058 -0.3364 -0.1557 -0.2747
  155TCq2    C8 2365   4.694   3.961  17.570  0.2596  0.0241  0.1956
  155TCq2    O4 2366   0.001   3.981  17.453 -0.1948 -0.1626 -0.2184
  155TCq2    C9 2367   4.659   4.439  17.627  0.3497  0.8248 -0.5806
  155TCq2    O5 2368   0.043   4.459  17.560 -0.3627 -0.2625  0.2024
  155TCq2    O6 2369   4.612   4.530   0.000 -0.0587  0.5214 -0.4675
  155TCq2    H2 2370   4.485   4.365   0.125  1.0966  1.1258 -0.6815
  155TCq2    H3 2371   0.027   4.220  17.529  1.1204 -0.6028  0.6557
  155TCq2    H4 2372   4.516   3.954   0.065 -0.6935  0.0892  0.4259
  156MPD2     C 2373   3.218   0.692  11.895 -0.3443  0.1956 -0.4605
  156MPD2    C1 2374   3.133   0.779  11.830  0.4888  0.6265 -0.2023
  156MPD2    C2 2375   3.077   0.879  11.912 -0.0269 -0.6600  0.3057
  156MPD2    C3 2376   3.098   0.887  12.047  0.3428  0.6059 -0.6345
  156MPD2    C4 2377   3.189   0.797  12.106  0.7932 -0.5115  0.9963
  156MPD2    C5 2378   3.243   0.701  12.031  0.7694 -0.1448 -0.2490
  156MPD2     H 2379   3.012   0.945  11.856 -1.3798 -2.7720 -0.5920
  156MPD2    H1 2380   3.218   0.802  12.210  0.8580  1.3381  0.8913
  156MPD2    H2 2381   3.272   0.614  11.843 -0.0210  0.9008 -1.1650
  156MPD2    H3 2382   3.314   0.632  12.075 -0.5263 -0.7300  0.9128
  156MPD2     N 2383   3.022   0.983  12.114  0.0148  0.0437 -0.6268
  156MPD2    H5 2384   2.978   1.048  12.051 -2.0174 -0.9528 -0.2222
  156MPD2    N1 2385   3.101   0.758  11.691 -0.6398  0.7055 -0.2414
  156MPD2    H7 2386   3.136   0.673  11.650 -0.2565  0.6117  0.2828
  157TCq2    C1 2387   3.026   0.843  11.615 -0.1859  0.0168  0.4152
  157TCq2    O2 2388   2.982   0.955  11.640  0.4042 -0.3922 -0.0746
  157TCq2    C2 2389   2.981   0.783  11.490 -0.4684 -0.1915  0.8513
  157TCq2    C3 2390   3.077   0.733  11.407 -0.0372 -0.4672  0.1760
  157TCq2    C4 2391   3.034   0.698  11.280 -0.3089 -0.9402 -0.2927
  157TCq2    C5 2392   2.907   0.712  11.241  0.4710 -0.2407  0.1558
  157TCq2    C6 2393   2.819   0.778  11.325 -0.1554  0.1922  0.0666
  157TCq2    C7 2394   2.853   0.815  11.446  0.6292 -0.1127 -0.0562
  157TCq2    C8 2395   2.748   0.892  11.259 -0.0022 -0.3073 -0.1511
  157TCq2    O4 2396   2.771   1.011  11.289  0.2897  0.1908  0.1020
  157TCq2    C9 2397   3.133   0.671  11.188 -0.4518 -0.1296 -0.2091
  157TCq2    O5 2398   3.249   0.718  11.214  0.2475 -0.7747 -0.0936
  157TCq2    O6 2399   3.101   0.643  11.072 -0.0877 -0.2399 -0.2431
  157TCq2    H2 2400   3.181   0.720  11.437 -0.1219 -0.1485  0.6198
  157TCq2    H3 2401   2.884   0.696  11.136  2.6091  1.5810 -0.5777
  157TCq2    H4 2402   2.788   0.863  11.519 -0.5019 -1.6262 -0.0680
  158TMC2    C1 2403   2.554   0.050  13.391  0.2371 -0.6529  0.7580
  158TMC2    C2 2404   2.568   0.094  13.262 -0.2585 -0.1470  0.4157
  158TMC2    C3 2405   2.460   0.106  13.179 -0.1298 -0.0930  0.0701
  158TMC2    C4 2406   2.429   0.013  13.440 -0.2722  0.0657 -0.5580
  158TMC2    C5 2407   2.319   0.023  13.352 -0.4927  0.1867 -0.1560
  158TMC2    C6 2408   2.332   0.067  13.219  0.7921  0.2253 -0.6619
  158TMC2     C 2409   2.672   4.709  13.439 -0.5061  0.5167  0.2337
  158TMC2     O 2410   2.766   4.704  13.364  0.1205 -0.8221  0.1521
  158TMC2     H 2411   2.663   0.143  13.244 -0.0998 -0.6202  0.0004
  158TMC2    H1 2412   2.425   4.681  13.533 -0.8088  0.3872 -0.3860
  158TMC2    H2 2413   2.239   0.093  13.170  0.0700 -1.1419 -0.0208
  158TMC2    C7 2414   2.185   4.722  13.396  0.4661 -0.0450 -0.5768
  158TMC2    C8 2415   2.477   0.184  13.057  0.2230  0.0441  0.1134
  158TMC2    O1 2416   2.091   4.711  13.318  0.2492  0.2448 -0.0428
  158TMC2    O2 2417   2.562   0.270  13.044 -0.2545 -0.0893 -0.4734
  158TMC2    O5 2418   2.356   0.168  12.989 -0.0063 -0.1454 -0.2126
  158TMC2    H5 2419   2.326   0.075  12.991  1.8972 -0.7379  1.1997
  159MPD2     C 2420   2.985   4.494  13.784 -0.4068 -0.3549  0.9383
  159MPD2    C1 2421   2.885   4.568  13.853  0.5095  0.1047 -0.3775
  159MPD2    C2 2422   2.776   4.609  13.781 -0.1305 -0.8498  0.0076
  159MPD2    C3 2423   2.778   4.609  13.640  0.0599  0.4032  0.2133
  159MPD2    C4 2424   2.884   4.545  13.576 -0.2896 -0.1302 -0.1897
  159MPD2    C5 2425   2.984   4.479  13.649  0.2974  0.4520 -0.3757
  159MPD2     H 2426   2.707   4.673  13.835 -0.6406 -1.5153  0.1407
  159MPD2    H1 2427   2.897   4.551  13.469 -0.6446 -0.7752 -0.2699
  159MPD2    H2 2428   3.078   4.469  13.834 -0.1156  0.5131  0.8326
  159MPD2    H3 2429   3.067   4.430  13.600  2.6930  2.0772  2.0438
  159MPD2     N 2430   2.668   4.667  13.571  0.2411  0.2259  0.2732
  159MPD2    H5 2431   2.585   4.675  13.629  0.9849  3.3114  0.8890
  159MPD2    N1 2432   2.893   4.581  13.997  0.5850  0.4106 -0.3988
  159MPD2    H7 2433   2.975   4.536  14.035 -0.2467 -0.7536  0.0495
  160TMC2    C1 2434   1.507   2.949   0.700  0.5833  0.0205  0.1580
  160TMC2    C2 2435   1.576   2.829   0.719  0.5215  0.0338  0.0438
  160TMC2    C3 2436   1.708   2.829   0.707 -0.0120 -0.3183  0.4456
  160TMC2    C4 2437   1.564   3.065   0.670 -0.8525  0.1276 -0.8356
  160TMC2    C5 2438   1.701   3.068   0.665 -0.1218 -0.5862  0.4270
  160TMC2    C6 2439   1.772   2.952   0.690  0.1190 -0.1175 -0.3512
  160TMC2     C 2440   1.361   2.958   0.720 -0.3006 -0.3452 -0.3134
  160TMC2     O 2441   1.301   2.854   0.694  0.8227  0.6379 -0.3416
  160TMC2     H 2442   1.529   2.732   0.733 -2.2265  1.3957  0.2541
  160TMC2    H1 2443   1.498   3.147   0.645 -0.6430  0.4669 -0.2810
  160TMC2    H2 2444   1.881   2.953   0.694  0.0849  0.5706  0.4469
  160TMC2    C7 2445   1.755   3.201   0.667 -0.2543 -0.4468 -0.0056
  160TMC2    C8 2446   1.779   2.726   0.786 -0.2247 -0.5611 -0.7400
  160TMC2    O1 2447   1.679   3.290   0.633 -0.4331  0.0969  0.1550
  160TMC2    O2 2448   1.897   2.706   0.773 -0.2589  0.5262 -0.0951
  160TMC2    O5 2449   1.714   2.734   0.902  0.1409  0.0610  0.2249
  160TMC2    H5 2450   1.635   2.790   0.888  0.6904  1.0223  0.9486
  161MPD2     C 2451   1.063   3.011   0.691  0.4748 -0.4959 -0.3227
  161MPD2    C1 2452   1.158   3.100   0.743  0.0047  0.0110 -0.8464
  161MPD2    C2 2453   1.106   3.216   0.803 -0.1666  0.2055 -0.1606
  161MPD2    C3 2454   0.968   3.245   0.809 -0.2631  0.3395 -0.5753
  161MPD2    C4 2455   0.878   3.156   0.746 -0.5882 -0.4520  0.2867
  161MPD2    C5 2456   0.925   3.036   0.692  0.8514 -0.0791  0.9346
  161MPD2     H 2457   1.173   3.279   0.860 -0.1585  0.6787 -0.6947
  161MPD2    H1 2458   0.770   3.166   0.755 -0.5772 -0.3083  0.2660
  161MPD2    H2 2459   1.089   2.916   0.645  0.4981 -0.8783  0.4855
  161MPD2    H3 2460   0.856   2.962   0.652 -0.2295  0.8619  1.0674
  161MPD2     N 2461   0.912   3.354   0.876 -0.0868  0.6573  0.4045
  161MPD2    H5 2462   0.811   3.364   0.885  0.0494  0.4557  2.0628
  161MPD2    N1 2463   1.297   3.073   0.740  1.1068 -0.4025 -0.1155
  161MPD2    H7 2464   1.364   3.144   0.770 -0.7034  1.1630  0.1992
  162TMC2    C1 2465   0.335   0.789   0.762  0.0135 -0.3373 -0.0673
  162TMC2    C2 2466   0.350   0.927   0.748 -0.8924  0.1827  0.0559
  162TMC2    C3 2467   0.269   1.005   0.832  0.0595 -0.3039 -0.1052
  162TMC2    C4 2468   0.249   0.728   0.849  1.1709 -0.2153 -0.7737
  162TMC2    C5 2469   0.175   0.811   0.930 -0.0310  0.3739  0.5880
  162TMC2    C6 2470   0.176   0.945   0.917  0.4516 -0.2785 -1.0784
  162TMC2     C 2471   0.376   0.702   0.659  0.0258 -0.3072  0.6484
  162TMC2     O 2472   0.384   0.580   0.681  0.0472 -0.1492  0.2531
  162TMC2     H 2473   0.427   0.957   0.678 -3.2313  0.7956 -2.2820
  162TMC2    H1 2474   0.246   0.621   0.865 -1.6067  0.1888  1.4424
  162TMC2    H2 2475   0.113   1.003   0.983  1.0507 -1.2586  0.3605
  162TMC2    C7 2476   0.076   0.755   1.020 -0.3528 -0.0692  0.2425
  162TMC2    C8 2477   0.293   1.151   0.845  0.3442  0.4160  0.1982
  162TMC2    O1 2478   4.702   0.826   1.042 -0.4316 -0.6040  0.8493
  162TMC2    O2 2479   0.231   1.231   0.914 -0.0567  0.0421 -0.3357
  162TMC2    O5 2480   0.352   1.176   0.723 -0.2307 -0.2773 -0.7026
  162TMC2    H5 2481   0.321   1.115   0.653 -0.5489  0.4208 -1.1692
  163MPD2     C 2482   0.506   0.620   0.159 -0.3967  0.3884  0.6655
  163MPD2    C1 2483   0.501   0.530   0.268 -0.5566 -0.0756  0.3967
  163MPD2    C2 2484   0.460   0.580   0.396  0.3776  0.3505 -0.2986
  163MPD2    C3 2485   0.435   0.715   0.420 -0.8762 -0.2047 -0.0667
  163MPD2    C4 2486   0.443   0.795   0.304 -0.4081 -0.2322  0.0295
  163MPD2    C5 2487   0.468   0.748   0.184  0.3460 -0.0624 -0.3276
  163MPD2     H 2488   0.458   0.507   0.477  1.2209 -1.2056 -1.6714
  163MPD2    H1 2489   0.418   0.901   0.304  1.4770  0.2238  1.7752
  163MPD2    H2 2490   0.548   0.602   0.061  2.5520  0.8924  1.8387
  163MPD2    H3 2491   0.475   0.818   0.103 -0.5611  0.6924  0.2398
  163MPD2     N 2492   0.393   0.779   0.543 -0.2311  0.9856  0.4264
  163MPD2    H5 2493   0.382   0.879   0.538  1.6452  1.1800  0.1443
  163MPD2    N1 2494   0.533   0.396   0.232 -0.3029 -0.0814  0.2007
  163MPD2    H7 2495   0.554   0.376   0.135 -1.6415  2.3532 -0.5701
  164TCq2    C1 2496   1.489   3.907  11.336  0.5710  0.6039  0.0443
  164TCq2    O2 2497   1.420   3.870  11.432 -0.1498  0.1893 -0.1359
  164TCq2    C2 2498   1.483   4.052  11.316 -0.3895 -0.4427 -0.3694
  164TCq2    C3 2499   1.574   4.104  11.231 -0.0030 -0.4868 -0.0235
  164TCq2    C4 2500   1.541   4.217  11.166 -0.9201 -0.2903  0.1898
  164TCq2    C5 2501   1.423   4.284  11.187  0.3140 -0.3857 -0.1400
  164TCq2    C6 2502   1.334   4.228  11.272 -0.6092 -0.6013  0.3119
  164TCq2    C7 2503   1.366   4.115  11.345 -0.0766 -0.6496  0.4805
  164TCq2    C8 2504   1.202   4.292  11.283 -0.4508  0.0200  0.7194
  164TCq2    O4 2505   1.171   4.374  11.200 -0.4081  0.1435 -0.2568
  164TCq2    C9 2506   1.636   4.274  11.075  0.4078 -0.2458  0.2216
  164TCq2    O5 2507   1.609   4.390  11.036 -0.0183 -0.2143 -0.0101
  164TCq2    O6 2508   1.743   4.210  11.043 -0.4828  0.7691 -0.3517
  164TCq2    H2 2509   1.670   4.055  11.215  0.3981  0.6501 -1.1243
  164TCq2    H3 2510   1.400   4.372  11.128 -0.5833 -1.6762 -1.7187
  164TCq2    H4 2511   1.296   4.061  11.408 -2.3585  1.6760 -0.0376
  165MPD2     C 2512   1.344   1.328   0.864  0.5377 -0.5410 -0.0590
  165MPD2    C1 2513   1.471   1.321   0.907  0.4950  0.5119 -0.3681
  165MPD2    C2 2514   1.536   1.434   0.951  0.2153  0.3328 -0.4135
  165MPD2    C3 2515   1.471   1.556   0.938  0.8997 -0.6577  0.6674
  165MPD2    C4 2516   1.348   1.562   0.885  0.8588 -0.2524  0.0116
  165MPD2    C5 2517   1.286   1.445   0.854  0.3175  0.0496 -0.4254
  165MPD2     H 2518   1.634   1.428   0.997  0.3914 -1.6208 -1.0432
  165MPD2    H1 2519   1.292   1.655   0.885 -0.3483 -0.9912  0.0391
  165MPD2    H2 2520   1.286   1.245   0.824  0.2485 -0.0658 -0.6272
  165MPD2    H3 2521   1.189   1.447   0.805  0.3933 -0.7226 -0.6105
  165MPD2     N 2522   1.531   1.677   0.978 -0.1140 -0.6963  0.4519
  165MPD2    H5 2523   1.473   1.760   0.980 -0.3064 -0.8156 -0.7046
  165MPD2    N1 2524   1.509   1.190   0.936  0.0634 -0.2327 -0.0676
  165MPD2    H7 2525   1.451   1.117   0.899 -2.1147  1.9914 -1.0462
  166TCq2    C1 2526   1.665   1.704   1.002  0.8706  0.1873 -0.3112
  166TCq2    O2 2527   1.761   1.639   0.979  0.0048 -0.9032  0.4547
  166TCq2    C2 2528   1.679   1.842   1.056 -0.2431 -0.3759  0.0803
  166TCq2    C3 2529   1.581   1.919   1.111  0.5140 -0.8765 -0.0823
  166TCq2    C4 2530   1.612   2.035   1.180  0.6427 -0.7292  0.3307
  166TCq2    C5 2531   1.744   2.080   1.175 -1.0068 -0.1012  0.9050
  166TCq2    C6 2532   1.843   2.000   1.128 -0.3919  0.9593 -0.1237
  166TCq2    C7 2533   1.815   1.878   1.067  0.1921  0.5003  0.3097
  166TCq2    C8 2534   1.980   2.024   1.154  0.4246 -0.2161  0.2215
  166TCq2    O4 2535   2.062   1.964   1.083 -0.3649  0.5082 -0.1062
  166TCq2    C9 2536   1.513   2.128   1.228 -0.4029  0.1673  0.2338
  166TCq2    O5 2537   1.559   2.211   1.309  0.2027 -0.3464  0.3279
  166TCq2    O6 2538   1.397   2.102   1.204  0.1368  0.3073 -0.2175
  166TCq2    H2 2539   1.476   1.893   1.104  0.1473  0.7285 -0.7765
  166TCq2    H3 2540   1.771   2.172   1.226 -1.7682  1.0631 -0.8259
  166TCq2    H4 2541   1.898   1.822   1.026 -1.9726 -0.8261 -2.2363
  167TMC2    C1 2542   0.665   4.226  12.711  0.5269  0.0517  0.3212
  167TMC2    C2 2543   0.641   4.298  12.827 -0.4738 -0.2922  0.2041
  167TMC2    C3 2544   0.604   4.228  12.935  0.5283 -0.2830  0.2120
  167TMC2    C4 2545   0.647   4.090  12.703  0.2986  0.4761  0.4372
  167TMC2    C5 2546   0.616   4.026  12.819 -0.5413  0.1569  0.2321
  167TMC2    C6 2547   0.587   4.094  12.933 -0.0549 -0.8003  0.1861
  167TMC2     C 2548   0.723   4.301  12.602 -0.0403  0.3136 -0.4900
  167TMC2     O 2549   0.763   4.416  12.620  0.4979  0.1244  0.7777
  167TMC2     H 2550   0.656   4.405  12.837  1.9361 -0.5855 -0.3132
  167TMC2    H1 2551   0.672   4.034  12.614  1.4578  2.7076 -0.6418
  167TMC2    H2 2552   0.570   4.041  13.026 -0.4341  1.3070  1.3313
  167TMC2    C7 2553   0.579   3.884  12.814  0.1809 -0.4041 -0.0415
  167TMC2    C8 2554   0.550   4.311  13.037 -0.7115  0.5987  0.1292
  167TMC2    O1 2555   0.489   3.847  12.886  0.3310 -0.0549  0.3289
  167TMC2    O2 2556   0.599   4.421  13.054 -0.2202  0.3113 -0.3441
  167TMC2    O5 2557   0.477   4.230  13.127  0.0034 -0.5927  0.6570
  167TMC2    H5 2558   0.427   4.162  13.077  1.4109 -2.7228  2.1811
  168MPD2     C 2559   0.884   4.336  12.354 -0.1030  0.3993  0.6810
  168MPD2    C1 2560   0.770   4.254  12.356  0.1767 -0.1142  0.6119
  168MPD2    C2 2561   0.726   4.184  12.244 -0.1244  0.4357 -0.0592
  168MPD2    C3 2562   0.796   4.192  12.131 -0.4541 -0.8469  0.2346
  168MPD2    C4 2563   0.913   4.275  12.124 -0.0636 -0.1836 -0.9083
  168MPD2    C5 2564   0.948   4.346  12.232 -0.4920 -0.6365  0.3256
  168MPD2     H 2565   0.647   4.110  12.252  0.9374 -0.4961  1.8357
  168MPD2    H1 2566   0.970   4.286  12.032  0.6133  0.1120 -0.4537
  168MPD2    H2 2567   0.936   4.370  12.442  0.6201 -0.5796  0.6256
  168MPD2    H3 2568   1.038   4.405  12.220 -2.1067  1.8750  0.5590
  168MPD2     N 2569   0.764   4.104  12.027  0.3650 -0.0650  0.1613
  168MPD2    H5 2570   0.692   4.038  12.053  1.2976 -1.3403 -0.4694
  168MPD2    N1 2571   0.707   4.235  12.483 -0.3057 -0.1547 -0.3512
  168MPD2    H7 2572   0.627   4.173  12.489  0.5250 -1.2973 -1.1330
  169MPD1     C 2573   4.271   2.573  10.080 -0.0284  0.4662 -0.1270
  169MPD1    C1 2574   4.318   2.692  10.029 -0.9136 -0.1791 -0.5931
  169MPD1    C2 2575   4.266   2.731   9.905  0.3934  0.6797 -0.3660
  169MPD1    C3 2576   4.170   2.654   9.836 -0.9046  0.2263 -0.2422
  169MPD1    C4 2577   4.140   2.527   9.879 -0.1739  0.0330  0.8382
  169MPD1    C5 2578   4.188   2.493  10.002 -0.3130 -0.9354 -0.6225
  169MPD1     H 2579   4.282   2.829   9.863 -3.5880  1.3150 -0.3195
  169MPD1    H1 2580   4.080   2.456   9.822 -1.5586 -0.0637  2.4043
  169MPD1    H2 2581   4.306   2.541  10.178 -0.2019  2.0769  0.4529
  169MPD1    H3 2582   4.149   2.407  10.056 -0.9270 -1.3651 -1.7588
  169MPD1     N 2583   4.115   2.702   9.715 -0.0119  0.6543  0.0370
  169MPD1    H5 2584   4.150   2.791   9.680 -1.2652  1.2335  0.2750
  169MPD1    N1 2585   4.405   2.773  10.100 -0.2409  0.0589 -0.1599
  169MPD1    H6 2586   4.482   2.801  10.040  0.2311 -1.9147 -0.4571
  169MPD1    H7 2587   4.463   2.725  10.169  1.8596  0.6559 -1.4888
  170MPD1     C 2588   2.202   1.484  13.146 -0.0783  0.2263  0.1872
  170MPD1    C1 2589   2.222   1.544  13.268 -0.3598 -0.4493  0.2084
  170MPD1    C2 2590   2.114   1.581  13.344 -0.0798 -1.0020 -0.0294
  170MPD1    C3 2591   1.987   1.541  13.307  0.3316  0.0338 -0.6063
  170MPD1    C4 2592   1.965   1.497  13.181  0.8164  0.4741 -0.3532
  170MPD1    C5 2593   2.073   1.469  13.103  0.3062  1.0344 -0.2993
  170MPD1     H 2594   2.137   1.629  13.439  1.1295 -1.3109 -0.1582
  170MPD1    H1 2595   1.867   1.482  13.138  0.5193 -0.7048  0.7526
  170MPD1    H2 2596   2.279   1.451  13.078  0.5859 -0.4584  1.2645
  170MPD1    H3 2597   2.068   1.420  13.007 -3.4868  1.8197 -0.5114
  170MPD1     N 2598   1.884   1.568  13.404 -0.5751  1.0618  0.4081
  170MPD1    H5 2599   1.911   1.619  13.487 -0.0414  0.9868  0.2771
  170MPD1    N1 2600   2.355   1.588  13.306  0.9647  0.1579 -0.2081
  170MPD1    H6 2601   2.367   1.601  13.406 -2.4676  0.6104  0.1415
  170MPD1    H7 2602   2.426   1.518  13.282 -1.3156 -1.3248 -2.7149
  171MPD1     C 2603   0.006   3.065  15.839  1.1203  0.2697 -0.1305
  171MPD1    C1 2604   4.688   2.969  15.747 -0.2849  0.0064 -0.4369
  171MPD1    C2 2605   4.706   2.838  15.767  0.9799 -0.6611 -0.3286
  171MPD1    C3 2606   0.033   2.795  15.895 -0.3752 -1.1660 -0.3550
  171MPD1    C4 2607   0.084   2.891  15.982  0.0596 -0.2253 -0.1655
  171MPD1    C5 2608   0.077   3.022  15.946  0.2410  0.4217 -0.6292
  171MPD1     H 2609   4.666   2.763  15.700 -4.9958  0.9119  1.4531
  171MPD1    H1 2610   0.139   2.867  16.073 -0.8452 -1.7297 -0.0233
  171MPD1    H2 2611   4.715   3.169  15.812  1.5945  0.3031 -0.2623
  171MPD1    H3 2612   0.134   3.090  16.009  1.0748 -1.5002  0.7114
  171MPD1     N 2613   0.041   2.664  15.935 -0.0216  0.0031  0.7125
  171MPD1    H5 2614   0.082   2.652  16.028  1.7552  3.5024  0.3881
  171MPD1    N1 2615   4.602   3.005  15.639  0.4760 -0.3181 -0.4808
  171MPD1    H6 2616   4.582   2.949  15.557 -1.5620  2.4590 -1.8928
  171MPD1    H7 2617   4.616   3.101  15.609 -1.3928  1.3145  3.7488
  172MPD1     C 2618   3.245   1.438   0.273 -0.6008 -0.1355  0.0014
  172MPD1    C1 2619   3.215   1.553   0.336  0.3926 -0.3058  0.1072
  172MPD1    C2 2620   3.318   1.628   0.382  0.1193 -0.1114 -0.4509
  172MPD1    C3 2621   3.447   1.606   0.352  0.1129 -0.1855 -0.3005
  172MPD1    C4 2622   3.477   1.489   0.284 -0.2177  0.2082  0.3991
  172MPD1    C5 2623   3.379   1.410   0.234  0.2190 -0.4693  0.3104
  172MPD1     H 2624   3.291   1.722   0.428  0.0557  0.4702 -1.6619
  172MPD1    H1 2625   3.577   1.454   0.265 -0.2331 -0.5023  1.6214
  172MPD1    H2 2626   3.163   1.369   0.257 -0.4048 -0.7462  1.5721
  172MPD1    H3 2627   3.398   1.310   0.196  3.1704  0.8230 -1.5491
  172MPD1     N 2628   3.560   1.684   0.385 -0.6537 -0.0418  0.7132
  172MPD1    H5 2629   3.648   1.660   0.342 -0.0385  2.2581  0.7080
  172MPD1    N1 2630   3.076   1.567   0.373  0.6926 -0.4914  0.3380
  172MPD1    H6 2631   3.054   1.664   0.393  0.4784 -0.8162  1.6414
  172MPD1    H7 2632   3.019   1.529   0.297 -0.6024  1.5898  0.2767
  173MPD1     C 2633   1.361   2.636  14.281 -0.1336  0.8168 -0.0751
  173MPD1    C1 2634   1.230   2.608  14.233  0.5606  0.5894  0.5767
  173MPD1    C2 2635   1.203   2.475  14.222 -0.5058 -0.6645  0.5222
  173MPD1    C3 2636   1.288   2.375  14.269  0.1403 -0.3393  0.2861
  173MPD1    C4 2637   1.413   2.413  14.299 -0.0102  0.3744 -0.4185
  173MPD1    C5 2638   1.454   2.542  14.304  0.4678  0.5455 -0.7024
  173MPD1     H 2639   1.111   2.440  14.176 -0.5249  0.5196 -0.3502
  173MPD1    H1 2640   1.488   2.347  14.341 -0.2400  0.1574 -0.3495
  173MPD1    H2 2641   1.392   2.738  14.297  3.4722 -0.5679  1.7894
  173MPD1    H3 2642   1.548   2.574  14.347  1.3395 -2.4783 -0.3520
  173MPD1     N 2643   1.241   2.244  14.273 -0.3553 -0.2130 -0.1242
  173MPD1    H5 2644   1.141   2.227  14.262 -0.9709  3.1116  0.5520
  173MPD1    N1 2645   1.158   2.711  14.177 -0.2087 -0.0608  0.6406
  173MPD1    H6 2646   1.062   2.685  14.199  0.3477  0.2079  3.4550
  173MPD1    H7 2647   1.176   2.805  14.212  1.7936 -0.5379  0.9282
  174MPD1     C 2648   1.729   1.534  14.744 -0.0676 -0.3151  0.5850
  174MPD1    C1 2649   1.673   1.627  14.827  0.0320  0.6433 -0.0596
  174MPD1    C2 2650   1.555   1.695  14.787  0.0503 -0.0879 -0.1631
  174MPD1    C3 2651   1.516   1.685  14.656 -0.3640 -0.7973 -0.9353
  174MPD1    C4 2652   1.588   1.604  14.574 -0.3134 -0.2625 -0.4501
  174MPD1    C5 2653   1.690   1.528  14.614  0.3671 -0.3228  0.7292
  174MPD1     H 2654   1.504   1.758  14.859 -1.1164 -0.3937 -0.7163
  174MPD1    H1 2655   1.564   1.593  14.469 -0.0753  3.5119 -0.9283
  174MPD1    H2 2656   1.817   1.479  14.774 -1.4283 -2.1591  1.1814
  174MPD1    H3 2657   1.749   1.469  14.545  0.3702  0.0257  0.4337
  174MPD1     N 2658   1.398   1.745  14.603 -0.3494 -0.1876 -0.3972
  174MPD1    H5 2659   1.373   1.723  14.507  0.4538  3.1462 -1.3691
  174MPD1    N1 2660   1.722   1.620  14.961 -0.5551 -0.4165 -0.0739
  174MPD1    H6 2661   1.820   1.594  14.948 -0.6311 -1.2429  1.0512
  174MPD1    H7 2662   1.724   1.712  15.006  1.4836 -0.9106  0.8829
  175MPD1     C 2663   3.748   2.749  15.269 -0.9750  0.0539  0.5847
  175MPD1    C1 2664   3.632   2.713  15.334  0.1508 -0.2528  0.9052
  175MPD1    C2 2665   3.639   2.710  15.474  0.5758  1.0210  0.5120
  175MPD1    C3 2666   3.749   2.761  15.540 -0.1089  0.5407  0.5413
  175MPD1    C4 2667   3.853   2.804  15.465 -0.2900  0.8312 -0.3617
  175MPD1    C5 2668   3.850   2.804  15.337 -0.3683 -0.8897  0.0242
  175MPD1     H 2669   3.556   2.683  15.539  1.3613 -2.2861  0.1251
  175MPD1    H1 2670   3.944   2.843  15.510  0.7024 -2.1982  0.2383
  175MPD1    H2 2671   3.757   2.748  15.161  0.5019  1.5517  0.6942
  175MPD1    H3 2672   3.938   2.831  15.278 -0.6786 -1.9362 -0.9091
  175MPD1     N 2673   3.765   2.754  15.679  0.2699  0.6683 -0.1856
  175MPD1    H5 2674   3.854   2.781  15.720 -0.2217 -0.3587  1.5694
  175MPD1    N1 2675   3.534   2.640  15.266 -0.2135  0.4485  0.4260
  175MPD1    H6 2676   3.441   2.660  15.304 -1.5781 -3.3115 -0.9490
  175MPD1    H7 2677   3.532   2.660  15.166 -1.9403  0.0647  0.3679
  176MPD1     C 2678   0.521   4.165  16.880  0.0062 -0.2144  0.4427
  176MPD1    C1 2679   0.457   4.178  17.002 -0.2051 -0.1724 -0.3391
  176MPD1    C2 2680   0.466   4.295  17.074 -0.3559  0.2745  0.7071
  176MPD1    C3 2681   0.556   4.390  17.027 -0.2492 -0.1062 -0.3679
  176MPD1    C4 2682   0.631   4.370  16.916 -0.2428 -0.1180 -0.7146
  176MPD1    C5 2683   0.611   4.261  16.846  0.5903 -0.5206  0.7081
  176MPD1     H 2684   0.398   4.321  17.155  0.2769  0.1706  1.2755
  176MPD1    H1 2685   0.702   4.439  16.872  0.6376  0.2090  1.2040
  176MPD1    H2 2686   0.514   4.072  16.825 -2.4478  0.6066 -0.6717
  176MPD1    H3 2687   0.676   4.254  16.759 -0.0855 -0.8533  0.2345
  176MPD1     N 2688   0.545   4.516  17.094  0.5702 -0.2270  0.1656
  176MPD1    H5 2689   0.479   4.516  17.171  0.0904 -1.4664 -0.2673
  176MPD1    N1 2690   0.361   4.087  17.044  0.9109 -0.2695 -0.3165
  176MPD1    H6 2691   0.347   4.085  17.145 -1.2810  0.7513 -0.5926
  176MPD1    H7 2692   0.377   3.990  17.018  0.5116 -0.5703  0.5597
  177MPD1     C 2693   4.153   0.270   9.679  0.6082  0.2183  0.2725
  177MPD1    C1 2694   4.154   0.142   9.627 -0.3039  0.4215 -0.3315
  177MPD1    C2 2695   4.035   0.095   9.570 -0.2457 -0.2089  0.3626
  177MPD1    C3 2696   3.924   0.177   9.577 -0.3033  0.3586  0.5411
  177MPD1    C4 2697   3.924   0.301   9.635 -0.6251 -0.2699  0.7744
  177MPD1    C5 2698   4.044   0.344   9.686  0.0070  0.0628  0.7163
  177MPD1     H 2699   4.031   0.001   9.517 -1.4102  0.4334 -0.7006
  177MPD1    H1 2700   3.835   0.362   9.643  0.8291  1.7359  1.9237
  177MPD1    H2 2701   4.249   0.312   9.708  1.0267  0.6715 -1.7268
  177MPD1    H3 2702   4.041   0.445   9.726 -1.1338  0.2099  0.2583
  177MPD1     N 2703   3.802   0.119   9.526  0.3003  0.7121 -0.4817
  177MPD1    H5 2704   3.812   0.020   9.509  3.1837  0.7800  0.8546
  177MPD1    N1 2705   4.272   0.072   9.612 -0.1726 -0.3639 -0.1141
  177MPD1    H6 2706   4.343   0.081   9.685  0.7388 -2.4368 -0.7449
  177MPD1    H7 2707   4.256   4.696   9.599 -0.3257 -0.2100 -1.0670
  178MPD1     C 2708   1.502   0.243   0.261 -0.1127 -0.1109 -0.1317
  178MPD1    C1 2709   1.639   0.217   0.226 -0.0897  0.1349 -0.7831
  178MPD1    C2 2710   1.687   0.281   0.106  0.1194  0.0326 -0.2383
  178MPD1    C3 2711   1.613   0.386   0.044  0.0123  0.4169 -0.6345
  178MPD1    C4 2712   1.482   0.400   0.084 -0.2501  0.4192  0.1683
  178MPD1    C5 2713   1.427   0.330   0.189 -0.1428  0.4641 -0.3937
  178MPD1     H 2714   1.786   0.250   0.073  0.5068  1.8826 -0.8039
  178MPD1    H1 2715   1.421   0.480   0.045  0.2055  1.6412  1.9530
  178MPD1    H2 2716   1.465   0.192   0.349  1.2497 -0.1443  0.4168
  178MPD1    H3 2717   1.325   0.361   0.210 -0.1936  1.0758 -1.5302
  178MPD1     N 2718   1.665   0.454  17.635  0.5550  0.1417  0.0456
  178MPD1    H5 2719   1.605   0.527  17.598 -1.5934 -2.4578 -1.6149
  178MPD1    N1 2720   1.713   0.111   0.282 -0.2046  0.4258  0.3697
  178MPD1    H6 2721   1.814   0.120   0.276 -0.1146  0.6148  2.4086
  178MPD1    H7 2722   1.679   0.105   0.377  0.6923 -0.3538  0.6436
  179MPD1     C 2723   0.649   4.375  15.716 -1.1598  0.1890  0.2044
  179MPD1    C1 2724   0.768   4.341  15.771 -0.1220  0.0691  0.0893
  179MPD1    C2 2725   0.801   4.211  15.773 -0.5510  0.2823 -0.6592
  179MPD1    C3 2726   0.721   4.109  15.719  0.2080  0.2174  0.0308
  179MPD1    C4 2727   0.596   4.149  15.665  0.0718 -0.3196  0.6541
  179MPD1    C5 2728   0.560   4.286  15.672 -0.3731  0.5342 -1.0144
  179MPD1     H 2729   0.894   4.189  15.824 -1.4741 -2.7626 -0.2578
  179MPD1    H1 2730   0.527   4.076  15.625  1.6923 -1.4385 -0.1172
  179MPD1    H2 2731   0.614   4.478  15.715  0.5115  0.7563  0.0791
  179MPD1    H3 2732   0.465   4.316  15.630 -0.3658  0.1142 -1.3283
  179MPD1     N 2733   0.746   3.971  15.730 -0.0165  0.1378 -0.9414
  179MPD1    H5 2734   0.690   3.906  15.676  0.0835 -0.5959 -0.1655
  179MPD1    N1 2735   0.850   4.442  15.832 -0.3957 -0.0174 -0.0509
  179MPD1    H6 2736   0.818   4.537  15.813 -0.9785 -0.1464  0.2724
  179MPD1    H7 2737   0.857   4.429  15.932  4.6904 -0.5462 -0.4761
  180MPD1     C 2738   1.218   0.723  15.381  0.6970 -0.4099  0.8198
  180MPD1    C1 2739   1.338   0.724  15.306 -0.2505  0.3712 -0.4075
  180MPD1    C2 2740   1.339   0.679  15.173  0.2597  0.2919 -0.2498
  180MPD1    C3 2741   1.219   0.642  15.114  0.1552  0.0717 -0.1513
  180MPD1    C4 2742   1.100   0.653  15.185  0.3813  0.0792 -0.3326
  180MPD1    C5 2743   1.103   0.687  15.317  0.3488  0.1182  0.1640
  180MPD1     H 2744   1.436   0.681  15.126  0.2068  3.3201 -0.2150
  180MPD1    H1 2745   1.006   0.619  15.144  0.5071 -1.3718  0.5755
  180MPD1    H2 2746   1.209   0.757  15.483 -0.9839 -1.8748  1.1636
  180MPD1    H3 2747   1.008   0.698  15.368  0.2120 -1.7468  0.3047
  180MPD1     N 2748   1.226   0.595  14.983  0.6865  0.1366 -0.0088
  180MPD1    H5 2749   1.317   0.595  14.939  0.6920 -1.1986  0.0118
  180MPD1    N1 2750   1.458   0.722  15.375  0.1555  0.0846  0.8020
  180MPD1    H6 2751   1.531   0.741  15.306  0.6457 -1.3406  0.9268
  180MPD1    H7 2752   1.468   0.778  15.460  0.6463  0.9478  0.1737
  181MPD1     C 2753   2.470   1.374   9.426 -0.1838  0.1525 -0.1586
  181MPD1    C1 2754   2.435   1.346   9.559 -1.4084  0.2233  0.0431
  181MPD1    C2 2755   2.516   1.383   9.659  0.3055 -0.5817 -0.0048
  181MPD1    C3 2756   2.624   1.460   9.640 -0.4959 -0.1012 -0.2190
  181MPD1    C4 2757   2.655   1.497   9.514  0.2718 -0.3658  0.7848
  181MPD1    C5 2758   2.576   1.463   9.405  0.3033  0.5420 -0.0821
  181MPD1     H 2759   2.481   1.365   9.760  0.6555 -0.3716  0.1534
  181MPD1    H1 2760   2.737   1.567   9.498 -0.9442  0.8491 -0.1680
  181MPD1    H2 2761   2.415   1.343   9.338 -2.2693 -1.8226  1.8568
  181MPD1    H3 2762   2.600   1.503   9.307  0.3628 -1.5058 -0.9107
  181MPD1     N 2763   2.699   1.508   9.747  0.3781 -0.5380 -0.0546
  181MPD1    H5 2764   2.772   1.574   9.722 -0.1867  0.6488  1.4317
  181MPD1    N1 2765   2.333   1.250   9.578  0.1872  0.3784 -0.1619
  181MPD1    H6 2766   2.285   1.284   9.661  1.3767 -0.0464  0.7129
  181MPD1    H7 2767   2.262   1.253   9.506  1.0265  1.1359 -0.9525
  182MPD1     C 2768   3.456   0.602   1.078  0.7343  0.0859 -0.0960
  182MPD1    C1 2769   3.436   0.726   1.135 -0.5430  0.6995 -0.2922
  182MPD1    C2 2770   3.342   0.815   1.083 -0.3899  0.3294  0.9320
  182MPD1    C3 2771   3.274   0.774   0.968  0.0161  0.0045  0.1617
  182MPD1    C4 2772   3.304   0.650   0.912 -0.1753 -0.1407  0.1537
  182MPD1    C5 2773   3.400   0.564   0.960 -0.2842  0.2583  0.1421
  182MPD1     H 2774   3.319   0.915   1.119  2.6123  0.6776  1.8644
  182MPD1    H1 2775   3.254   0.627   0.819  1.6684  1.4444 -1.2301
  182MPD1    H2 2776   3.526   0.533   1.124  1.0358 -0.5444 -1.4878
  182MPD1    H3 2777   3.420   0.467   0.915  1.4299  0.7054 -0.0695
  182MPD1     N 2778   3.187   0.858   0.893  0.1439  0.3398 -0.1600
  182MPD1    H5 2779   3.154   0.818   0.805 -0.1549  1.3351 -0.5042
  182MPD1    N1 2780   3.521   0.755   1.239 -1.3123  0.4642  0.0962
  182MPD1    H6 2781   3.545   0.674   1.296  3.7390  1.2915 -0.8484
  182MPD1    H7 2782   3.493   0.828   1.303 -0.4827  0.3265  0.6216
  183MPD1     C 2783   4.198   2.224   9.535 -0.3346 -0.4726 -1.0569
  183MPD1    C1 2784   4.152   2.099   9.568 -0.0223 -0.7302 -0.5455
  183MPD1    C2 2785   4.227   2.027   9.664  0.5906 -0.3008 -0.2837
  183MPD1    C3 2786   4.336   2.086   9.722  1.0565  0.2038  0.7326
  183MPD1    C4 2787   4.364   2.221   9.700 -0.5231 -0.0172  0.3968
  183MPD1    C5 2788   4.294   2.288   9.598 -0.5260  0.3866 -0.0799
  183MPD1     H 2789   4.205   1.924   9.687 -1.2409  0.5962  2.0267
  183MPD1    H1 2790   4.438   2.280   9.753 -1.3436  1.1357  0.2665
  183MPD1    H2 2791   4.149   2.278   9.456  0.2160 -0.8092 -1.6308
  183MPD1    H3 2792   4.335   2.385   9.572  0.9881  0.1525  1.4111
  183MPD1     N 2793   4.412   2.010   9.813  0.2677  0.5623 -0.3391
  183MPD1    H5 2794   4.376   1.918   9.837 -0.2367  1.1369  1.0762
  183MPD1    N1 2795   4.042   2.046   9.491 -0.2009 -0.5845  0.2189
  183MPD1    H6 2796   3.985   1.976   9.538  0.0770 -1.3144 -0.5148
  183MPD1    H7 2797   3.980   2.124   9.471  0.9841  0.1277 -0.6877
  184MPD1     C 2798   2.659   4.358   9.961  0.0176 -0.0507  0.0215
  184MPD1    C1 2799   2.762   4.266   9.987 -0.8122 -0.0804  0.5665
  184MPD1    C2 2800   2.872   4.266   9.898  0.7894 -0.1071  0.3549
  184MPD1    C3 2801   2.888   4.359   9.800  0.2859  0.0346  0.4014
  184MPD1    C4 2802   2.784   4.446   9.776 -0.0019  0.4697 -0.4835
  184MPD1    C5 2803   2.671   4.440   9.853  0.2327  0.2000 -0.0857
  184MPD1     H 2804   2.945   4.187   9.912 -0.5717 -1.1595  1.4400
  184MPD1    H1 2805   2.799   4.512   9.692  0.3976  0.4244 -0.4515
  184MPD1    H2 2806   2.570   4.355  10.023  0.9149 -1.9602  1.2172
  184MPD1    H3 2807   2.590   4.511   9.837  1.9263  2.2653  0.4514
  184MPD1     N 2808   2.993   4.368   9.703 -0.3113  0.2752 -0.2910
  184MPD1    H5 2809   2.996   4.447   9.639 -0.2558 -0.4613 -1.1930
  184MPD1    N1 2810   2.756   4.161  10.081  0.1519 -0.3145  0.0767
  184MPD1    H6 2811   2.850   4.145  10.117  0.3820  0.7149 -0.0894
  184MPD1    H7 2812   2.699   4.198  10.158 -1.4047  0.1375 -1.2937
  185MPD1     C 2813   3.234   4.409   8.763 -0.3954  0.1255 -0.2794
  185MPD1    C1 2814   3.170   4.490   8.850 -0.3962  0.4676 -0.0291
  185MPD1    C2 2815   3.191   4.469   8.985  0.1460 -1.1289 -0.6133
  185MPD1    C3 2816   3.266   4.364   9.035 -0.2327  0.0054 -0.3398
  185MPD1    C4 2817   3.326   4.281   8.940  0.7572  0.2362 -0.6840
  185MPD1    C5 2818   3.319   4.311   8.808  0.1344  0.2755 -0.0286
  185MPD1     H 2819   3.130   4.531   9.050  1.4240  0.5364 -1.0098
  185MPD1    H1 2820   3.397   4.204   8.969 -0.7981 -0.7274  0.5315
  185MPD1    H2 2821   3.228   4.421   8.655  0.1109 -1.9816 -0.5337
  185MPD1    H3 2822   3.375   4.256   8.734  1.3756  0.3987  0.8247
  185MPD1     N 2823   3.294   4.339   9.176  0.2423 -0.4020 -0.0828
  185MPD1    H5 2824   3.345   4.255   9.199 -0.7140 -0.9616  0.0125
  185MPD1    N1 2825   3.074   4.580   8.808 -0.6695  0.5128  0.1916
  185MPD1    H6 2826   3.066   4.668   8.860  0.1446 -0.1281  1.3983
  185MPD1    H7 2827   3.073   4.595   8.707 -4.1502  1.6453  0.3981
  186MPD1     C 2828   1.460   3.735  15.360 -0.0281  0.4046  0.5178
  186MPD1    C1 2829   1.567   3.705  15.445  0.0587 -0.4457  0.4076
  186MPD1    C2 2830   1.573   3.767  15.565 -0.3194  0.0309  0.3258
  186MPD1    C3 2831   1.475   3.863  15.607  0.2668  0.2241 -0.7401
  186MPD1    C4 2832   1.363   3.880  15.526 -0.5185 -0.6799  0.2851
  186MPD1    C5 2833   1.355   3.819  15.398 -0.0071 -0.8619  1.1177
  186MPD1     H 2834   1.650   3.760  15.641 -0.0853 -2.2796 -0.1221
  186MPD1    H1 2835   1.277   3.941  15.553  0.6852  1.1407 -0.0362
  186MPD1    H2 2836   1.460   3.694  15.260 -1.1569  2.4235 -0.3220
  186MPD1    H3 2837   1.261   3.826  15.345  1.2015 -0.4430 -0.9742
  186MPD1     N 2838   1.477   3.929  15.731 -0.8900 -0.4803  0.5427
  186MPD1    H5 2839   1.398   3.989  15.751  2.5169  3.4900  1.9393
  186MPD1    N1 2840   1.651   3.599  15.405  0.2555  0.0887 -0.4257
  186MPD1    H6 2841   1.746   3.609  15.438  0.4719 -3.6072  0.1526
  186MPD1    H7 2842   1.660   3.588  15.304 -1.3841  0.3997 -0.6148
  187MPD1     C 2843   0.610   1.185   0.527  0.1483  0.2987 -0.0483
  187MPD1    C1 2844   0.634   1.314   0.482  0.2574 -0.5209 -0.3794
  187MPD1    C2 2845   0.646   1.333   0.345 -0.4971  0.2761  0.0738
  187MPD1    C3 2846   0.635   1.223   0.266 -0.2777  0.1587  0.3247
  187MPD1    C4 2847   0.625   1.095   0.318 -0.6133 -0.3403 -0.1364
  187MPD1    C5 2848   0.629   1.080   0.451 -0.3087 -0.0117  0.1191
  187MPD1     H 2849   0.654   1.429   0.297  1.9076 -0.0724 -0.1867
  187MPD1    H1 2850   0.628   1.004   0.259 -0.1630 -0.3798 -0.0526
  187MPD1    H2 2851   0.587   1.171   0.632  1.0200  0.5140  0.1755
  187MPD1    H3 2852   0.613   0.983   0.496 -0.1371 -0.1289 -0.0683
  187MPD1     N 2853   0.634   1.241   0.128 -0.5035  0.2280  0.5014
  187MPD1    H5 2854   0.669   1.330   0.093 -0.9840  0.1520 -0.1788
  187MPD1    N1 2855   0.612   1.420   0.572 -0.0584  0.3716 -0.2242
  187MPD1    H6 2856   0.639   1.414   0.670 -0.9120  0.1772  0.0020
  187MPD1    H7 2857   0.665   1.498   0.533 -0.2473  0.2179 -0.7900
  188MPD1     C 2858   0.932   0.524   9.945 -0.7960 -0.0322  1.1045
  188MPD1    C1 2859   0.813   0.487   9.888 -1.0918  0.2216 -0.0466
  188MPD1    C2 2860   0.801   0.357   9.828 -0.4744 -0.5648 -0.6065
  188MPD1    C3 2861   0.913   0.279   9.813  0.4469 -0.4978  0.2468
  188MPD1    C4 2862   1.032   0.328   9.862 -0.0509  0.1022  0.3882
  188MPD1    C5 2863   1.042   0.441   9.932 -0.0456 -0.4406 -0.2477
  188MPD1     H 2864   0.708   0.342   9.774 -0.4376 -1.2631 -0.4712
  188MPD1    H1 2865   1.126   0.278   9.843  0.0652  0.6780 -0.5324
  188MPD1    H2 2866   0.939   0.611  10.010  0.8286  2.0439 -1.8620
  188MPD1    H3 2867   1.134   0.463   9.985  0.2131 -2.2116  0.0164
  188MPD1     N 2868   0.908   0.154   9.747 -0.0900  0.2062  0.0008
  188MPD1    H5 2869   1.001   0.120   9.722 -0.7531 -1.1379 -0.5916
  188MPD1    N1 2870   0.705   0.570   9.919 -0.2280 -0.3465 -0.1567
  188MPD1    H6 2871   0.625   0.536   9.866  0.1096 -0.2518 -0.7336
  188MPD1    H7 2872   0.724   0.670   9.910  1.4779 -0.6973 -0.4647
  189MPD1     C 2873   2.103   1.860   0.771  0.2873  0.1682 -0.1528
  189MPD1    C1 2874   2.033   1.772   0.693 -0.2209  0.0046  0.2335
  189MPD1    C2 2875   1.970   1.827   0.588  0.9196  0.2262 -0.6949
  189MPD1    C3 2876   1.973   1.965   0.563 -0.0214  0.0801  0.3208
  189MPD1    C4 2877   2.052   2.046   0.642  0.4043  0.0150 -0.2240
  189MPD1    C5 2878   2.116   1.991   0.749  0.3182  0.8559 -0.1749
  189MPD1     H 2879   1.893   1.766   0.541  0.3474  0.6004 -0.2443
  189MPD1    H1 2880   2.061   2.153   0.635  1.2872 -0.2036 -2.2819
  189MPD1    H2 2881   2.157   1.808   0.848 -0.4201  0.3182  0.4478
  189MPD1    H3 2882   2.176   2.055   0.812 -0.5489  0.2723  1.2500
  189MPD1     N 2883   1.888   2.019   0.461  0.2837 -0.0838 -0.5437
  189MPD1    H5 2884   1.842   1.949   0.404  0.8389 -1.3803  0.5931
  189MPD1    N1 2885   2.039   1.638   0.722  0.3639  0.1831  0.2016
  189MPD1    H6 2886   2.073   1.628   0.817  0.1982 -3.5361 -0.1129
  189MPD1    H7 2887   1.960   1.577   0.704  1.2108 -0.6966 -0.5422
  190MPD1     C 2888   0.989   0.980  15.723  0.5969 -0.4966  0.6413
  190MPD1    C1 2889   0.996   0.892  15.827 -0.0822 -0.5917 -0.3252
  190MPD1    C2 2890   1.122   0.842  15.860  0.1160  0.3843  0.1894
  190MPD1    C3 2891   1.227   0.863  15.776 -0.2337  0.5514  0.1156
  190MPD1    C4 2892   1.210   0.945  15.661 -0.5335 -0.2107 -0.1657
  190MPD1    C5 2893   1.091   1.007  15.640  0.2643 -0.0339 -1.0854
  190MPD1     H 2894   1.142   0.774  15.942  3.7627  0.0116 -1.0112
  190MPD1    H1 2895   1.283   0.944  15.581  0.0486 -1.1527  0.3908
  190MPD1    H2 2896   0.898   1.037  15.705  0.4205 -1.8711 -2.9290
  190MPD1    H3 2897   1.072   1.085  15.568  0.1272 -0.2358 -1.2646
  190MPD1     N 2898   1.343   0.789  15.792 -0.2804 -0.7426  0.1193
  190MPD1    H5 2899   1.344   0.722  15.868 -2.7019  1.3803  1.9985
  190MPD1    N1 2900   0.884   0.890  15.917  0.2813 -0.6916  0.0491
  190MPD1    H6 2901   0.886   0.814  15.984 -0.7767 -0.0851  0.7739
  190MPD1    H7 2902   0.790   0.893  15.877 -1.3922  0.0457  4.0080
  191MPD1     C 2903   0.073   1.644  13.109  0.1773 -0.7488 -1.0282
  191MPD1    C1 2904   0.191   1.708  13.067 -0.3558  0.5859 -0.1431
  191MPD1    C2 2905   0.191   1.845  13.043  0.0879  0.1266  0.4672
  191MPD1    C3 2906   0.082   1.918  13.085  0.5053  0.3042  0.1848
  191MPD1    C4 2907   4.693   1.855  13.132  0.6314 -0.5660  0.5127
  191MPD1    C5 2908   4.689   1.723  13.145  0.0930  0.3964 -0.4208
  191MPD1     H 2909   0.278   1.891  12.998  0.2140 -1.0228 -0.4865
  191MPD1    H1 2910   4.608   1.916  13.163 -0.4924 -0.5151 -2.6647
  191MPD1    H2 2911   0.050   1.538  13.111 -2.5796 -0.1330 -0.2750
  191MPD1    H3 2912   4.603   1.675  13.189  0.6217 -1.3715 -1.3450
  191MPD1     N 2913   0.097   2.059  13.070  0.7435 -0.5105 -0.4601
  191MPD1    H5 2914   0.179   2.090  13.019  0.1388  1.8944  0.0159
  191MPD1    N1 2915   0.296   1.626  13.027  0.3236  0.0894 -0.0283
  191MPD1    H6 2916   0.304   1.537  13.076  0.1239  0.0182 -0.1228
  191MPD1    H7 2917   0.384   1.674  13.040  0.8245 -1.2394  1.4476
  192MPD1     C 2918   4.334   3.030  13.264  0.0395  0.2132 -0.6270
  192MPD1    C1 2919   4.328   2.916  13.344 -0.1196 -0.0927 -0.3717
  192MPD1    C2 2920   4.419   2.810  13.319  0.2366  0.5522  0.0239
  192MPD1    C3 2921   4.495   2.810  13.203  1.4391 -0.0226 -0.3236
  192MPD1    C4 2922   4.490   2.920  13.120 -0.0035 -0.0452 -0.4416
  192MPD1    C5 2923   4.418   3.026  13.156 -0.3195 -0.6407  0.1476
  192MPD1     H 2924   4.420   2.723  13.385  2.3501 -0.7621 -1.7389
  192MPD1    H1 2925   4.553   2.936  13.033  0.5304 -0.7890 -0.1929
  192MPD1    H2 2926   4.267   3.114  13.279  1.2511  1.5816 -2.8015
  192MPD1    H3 2927   4.425   3.115  13.095  1.4020 -1.2825 -0.6005
  192MPD1     N 2928   4.583   2.705  13.169 -0.3060 -0.0441 -0.6892
  192MPD1    H5 2929   4.629   2.716  13.079 -2.4027  0.6771 -1.6936
  192MPD1    N1 2930   4.237   2.900  13.450 -0.9077 -0.3865 -0.0316
  192MPD1    H6 2931   4.255   2.824  13.515  0.9118  0.6201  0.6508
  192MPD1    H7 2932   4.223   2.986  13.503  0.7422 -0.0656 -0.1308
  193MPD1     C 2933   0.380   2.030  17.592  0.7043  0.6797 -0.0607
  193MPD1    C1 2934   0.303   2.130  17.643  0.0055 -0.4937  0.3683
  193MPD1    C2 2935   0.323   2.255  17.587 -0.4025  0.0550 -0.7132
  193MPD1    C3 2936   0.425   2.287  17.487  0.0150  0.0674 -0.9016
  193MPD1    C4 2937   0.499   2.171  17.440  0.4369  0.1761  0.2526
  193MPD1    C5 2938   0.478   2.053  17.500 -0.4425  0.7267 -0.4287
  193MPD1     H 2939   0.265   2.339  17.622 -1.0537  0.1524 -1.9986
  193MPD1    H1 2940   0.579   2.182  17.368  0.9282 -1.0525  0.6237
  193MPD1    H2 2941   0.376   1.927  17.625 -0.8314  1.2592  1.5589
  193MPD1    H3 2942   0.541   1.970  17.471 -1.5910 -1.2495  2.6116
  193MPD1     N 2943   0.455   2.412  17.432 -0.0296 -0.7424  0.3132
  193MPD1    H5 2944   0.525   2.419  17.359 -2.1867  2.2342 -1.4637
  193MPD1    N1 2945   0.201   2.105   0.042  0.2190 -0.1792 -0.0299
  193MPD1    H6 2946   0.205   2.175   0.116  1.6468  0.0084 -0.2707
  193MPD1    H7 2947   0.204   2.013   0.086  2.9167  0.3917  1.0287
  194MPD1     C 2948   2.741   0.377  16.406  0.1135 -0.4583  0.0730
  194MPD1    C1 2949   2.795   0.280  16.323 -0.0481 -0.0853  0.0502
  194MPD1    C2 2950   2.849   0.166  16.388 -0.1054  0.7973  0.1775
  194MPD1    C3 2951   2.874   0.156  16.523 -0.0831  0.0713  0.1651
  194MPD1    C4 2952   2.825   0.262  16.596 -0.0000  0.5641 -0.6385
  194MPD1    C5 2953   2.754   0.365  16.542  0.1532 -1.2448 -0.1589
  194MPD1     H 2954   2.880   0.086  16.321  2.5799  1.7372  0.3011
  194MPD1    H1 2955   2.835   0.258  16.704 -1.7511  0.9575 -0.4596
  194MPD1    H2 2956   2.685   0.466  16.380  1.5939  0.6160  0.5352
  194MPD1    H3 2957   2.709   0.436  16.611  0.8983 -0.2472 -0.6971
  194MPD1     N 2958   2.927   0.043  16.591  0.3603 -0.3591 -0.4303
  194MPD1    H5 2959   2.944   0.055  16.691  2.2067  1.3854 -0.9445
  194MPD1    N1 2960   2.757   0.282  16.185 -0.0274 -0.8018 -0.0107
  194MPD1    H6 2961   2.746   0.372  16.139  1.3268 -0.2012  0.8402
  194MPD1    H7 2962   2.824   0.229  16.130 -0.2837  0.6281 -1.6774
  195MPD1     C 2963   0.517   1.632   0.029  0.3108  0.2426 -0.8829
  195MPD1    C1 2964   0.480   1.583  17.600 -0.5175  0.1421  0.4731
  195MPD1    C2 2965   0.384   1.485  17.595  0.1757  0.4607  0.1279
  195MPD1    C3 2966   0.338   1.426   0.017  0.4529  0.7046  0.1213
  195MPD1    C4 2967   0.372   1.471   0.134  0.2111 -0.6878  0.1801
  195MPD1    C5 2968   0.452   1.585   0.138 -0.4224  0.3792  0.0180
  195MPD1     H 2969   0.358   1.445  17.498  0.6229  1.9149 -0.5784
  195MPD1    H1 2970   0.344   1.419   0.225 -1.3742 -1.3334 -0.6833
  195MPD1    H2 2971   0.588   1.713   0.042 -0.2031  0.7060 -0.9670
  195MPD1    H3 2972   0.492   1.615   0.235 -2.1560  0.1037  0.8244
  195MPD1     N 2973   0.259   1.306   0.015 -0.4019  0.3603 -0.5135
  195MPD1    H5 2974   0.238   1.265   0.106 -2.6897 -1.3642 -1.8256
  195MPD1    N1 2975   0.500   1.661  17.488  0.0901  0.3133  0.3608
  195MPD1    H6 2976   0.491   1.608  17.402 -2.1494 -0.2371  0.9402
  195MPD1    H7 2977   0.591   1.707  17.482 -0.7141  1.9822  1.1690
  196MPD1     C 2978   4.015   0.361   0.202 -0.1980 -0.0307  0.0207
  196MPD1    C1 2979   4.031   0.497   0.189 -0.3512 -0.9796  0.2898
  196MPD1    C2 2980   4.024   0.581   0.300 -0.4598  0.1303  0.1501
  196MPD1    C3 2981   4.020   0.531   0.426  0.9298  0.2635 -0.3668
  196MPD1    C4 2982   4.005   0.399   0.439 -0.1120  0.4300 -0.1080
  196MPD1    C5 2983   4.006   0.312   0.327 -0.6007 -0.3606 -0.1390
  196MPD1     H 2984   4.052   0.685   0.282 -1.0149  0.2048 -0.2951
  196MPD1    H1 2985   3.997   0.353   0.537 -1.1839  2.3767  0.7418
  196MPD1    H2 2986   3.997   0.298   0.116 -0.1956 -1.4238  1.0351
  196MPD1    H3 2987   3.992   0.207   0.347 -0.4712 -0.3506  0.0049
  196MPD1     N 2988   4.046   0.607   0.546 -0.4146 -0.2403 -0.2757
  196MPD1    H5 2989   4.059   0.551   0.630 -1.8938  0.6603  0.5464
  196MPD1    N1 2990   4.030   0.556   0.062 -0.9190 -0.2315  0.2831
  196MPD1    H6 2991   4.079   0.646   0.060  1.1227 -1.3304  0.3681
  196MPD1    H7 2992   4.078   0.504  17.686  0.8834  0.8421  0.6976
  197MPD1     C 2993   3.671   2.869   0.116 -0.2633  0.1241  0.3542
  197MPD1    C1 2994   3.705   3.004   0.121  0.2819 -0.9119 -0.3184
  197MPD1    C2 2995   3.702   3.083   0.009  0.4274  0.6552 -0.2794
  197MPD1    C3 2996   3.671   3.026  17.576 -0.2725  0.5132  0.9913
  197MPD1    C4 2997   3.634   2.889  17.566 -0.1939  0.3622 -0.0539
  197MPD1    C5 2998   3.631   2.820  17.689  0.2475 -0.1541 -0.3464
  197MPD1     H 2999   3.731   3.187   0.011 -0.2230  0.8277 -0.0252
  197MPD1    H1 3000   3.603   2.837  17.476  1.5355 -1.4299  0.3967
  197MPD1    H2 3001   3.659   2.804   0.202  1.1683 -0.3421  0.2075
  197MPD1    H3 3002   3.579   2.725  17.686  0.6180 -0.3602 -0.1684
  197MPD1     N 3003   3.683   3.100  17.455  0.2074  0.0139 -0.0555
  197MPD1    H5 3004   3.664   3.062  17.363 -0.6449 -0.7502  0.4331
  197MPD1    N1 3005   3.718   3.068   0.249  0.2116 -0.4677  0.1821
  197MPD1    H6 3006   3.764   3.005   0.314 -0.4525 -0.7432  0.3843
  197MPD1    H7 3007   3.777   3.151   0.249 -1.3592  0.6511  0.3378
  198MPD1     C 3008   0.380   1.755  16.132  0.1209  0.2561  0.1504
  198MPD1    C1 3009   0.434   1.630  16.165 -0.0812 -0.6500  0.1512
  198MPD1    C2 3010   0.553   1.595  16.092  0.0901  0.4168  0.8266
  198MPD1    C3 3011   0.609   1.665  15.986  0.3607 -0.5078 -0.0634
  198MPD1    C4 3012   0.547   1.781  15.950 -0.1166 -1.0654  0.3041
  198MPD1    C5 3013   0.432   1.827  16.025 -0.3388  0.1163  0.2715
  198MPD1     H 3014   0.611   1.510  16.126  0.5001  0.7734  1.0129
  198MPD1    H1 3015   0.592   1.837  15.869 -1.4007 -0.8882 -0.2945
  198MPD1    H2 3016   0.287   1.797  16.168 -0.3322  0.2320 -0.9821
  198MPD1    H3 3017   0.381   1.913  15.983 -1.1934 -0.8837 -0.7506
  198MPD1     N 3018   0.740   1.625  15.937 -0.1089  0.7670 -0.1043
  198MPD1    H5 3019   0.797   1.561  15.992  1.9121  2.8966  0.2505
  198MPD1    N1 3020   0.390   1.555  16.272  0.2426  0.0095  0.0445
  198MPD1    H6 3021   0.414   1.458  16.250  1.8333  0.8178 -1.6777
  198MPD1    H7 3022   0.290   1.554  16.289 -0.0630  1.1183 -1.7404
  199MPD1     C 3023   3.586   1.693  10.093 -0.2858  1.1717 -0.0053
  199MPD1    C1 3024   3.462   1.655  10.064 -0.1835 -0.5469  0.0486
  199MPD1    C2 3025   3.389   1.712   9.959 -0.6566 -0.2254  0.7876
  199MPD1    C3 3026   3.451   1.807   9.885  0.2700  0.2536  0.4135
  199MPD1    C4 3027   3.581   1.840   9.912  0.0732  0.3519  0.1884
  199MPD1    C5 3028   3.652   1.774  10.003 -0.2915  0.1801 -0.0411
  199MPD1     H 3029   3.285   1.685   9.943 -0.3173  0.2115 -2.1881
  199MPD1    H1 3030   3.629   1.932   9.879  3.3315 -1.4413 -0.0194
  199MPD1    H2 3031   3.639   1.647  10.176 -1.9535  0.0139  0.4084
  199MPD1    H3 3032   3.755   1.803  10.022  0.0218 -1.1860  0.3775
  199MPD1     N 3033   3.396   1.878   9.774 -0.6721 -0.3401  0.6660
  199MPD1    H5 3034   3.462   1.939   9.726  0.0149 -1.0155  0.7625
  199MPD1    N1 3035   3.405   1.546  10.140  0.9203 -0.2362  0.3255
  199MPD1    H6 3036   3.303   1.546  10.141  0.8922  0.7190 -1.6425
  199MPD1    H7 3037   3.419   1.564  10.239 -0.9701 -0.7025  0.6832
  200MPD1     C 3038   1.421   2.290  15.265 -0.4542 -0.1282  0.3275
  200MPD1    C1 3039   1.550   2.286  15.326  0.0791 -0.2861  0.1548
  200MPD1    C2 3040   1.662   2.323  15.255  0.3695  0.2232 -0.1852
  200MPD1    C3 3041   1.657   2.330  15.112  0.7429  0.2061  0.3706
  200MPD1    C4 3042   1.533   2.316  15.059  0.7322  0.0553 -0.7117
  200MPD1    C5 3043   1.426   2.291  15.127  0.8116  0.5744 -0.5290
  200MPD1     H 3044   1.750   2.350  15.312 -0.8249  0.5291  1.5037
  200MPD1    H1 3045   1.517   2.337  14.954 -1.1530 -0.2107 -0.4727
  200MPD1    H2 3046   1.333   2.266  15.324 -0.4971 -1.3466 -0.2306
  200MPD1    H3 3047   1.334   2.275  15.071 -1.1882 -2.6307  3.6103
  200MPD1     N 3048   1.766   2.379  15.042  0.2272 -0.4129 -0.3378
  200MPD1    H5 3049   1.845   2.422  15.090 -0.3806 -0.0869  0.3611
  200MPD1    N1 3050   1.559   2.277  15.464 -0.1913 -0.3393  0.2424
  200MPD1    H6 3051   1.642   2.232  15.502 -1.2552 -2.3722  0.1642
  200MPD1    H7 3052   1.477   2.224  15.494 -0.5799  1.5725  2.5751
  201MPD1     C 3053   0.965   1.210  13.062 -0.3021  0.6371  0.0628
  201MPD1    C1 3054   0.891   1.106  13.010  0.2743  0.3792  0.0667
  201MPD1    C2 3055   0.756   1.115  13.037  0.0369  0.5272  0.3757
  201MPD1    C3 3056   0.699   1.206  13.122 -0.3861  1.3475  0.7812
  201MPD1    C4 3057   0.776   1.307  13.175 -0.1959  0.0370  0.7432
  201MPD1    C5 3058   0.909   1.299  13.146  0.4270  0.4207 -0.5166
  201MPD1     H 3059   0.696   1.035  12.997  0.8880  0.1580 -0.1643
  201MPD1    H1 3060   0.748   1.395  13.231  0.2155  0.7779 -0.2277
  201MPD1    H2 3061   1.068   1.224  13.033 -0.9586  4.1540 -0.5476
  201MPD1    H3 3062   0.980   1.370  13.187  1.3670 -1.0130  0.2864
  201MPD1     N 3063   0.556   1.204  13.137 -0.2405  0.7967 -1.2060
  201MPD1    H5 3064   0.502   1.132  13.089 -2.1378  1.5455 -0.1865
  201MPD1    N1 3065   0.953   1.009  12.936  0.0217  0.2274  0.2641
  201MPD1    H6 3066   0.890   0.941  12.894 -1.6147  2.3187 -0.6512
  201MPD1    H7 3067   1.023   0.973  13.001  0.5910  0.8105 -0.0181
  202MPD1     C 3068   0.812   0.781  10.221 -0.9769 -0.4164 -0.0450
  202MPD1    C1 3069   0.744   0.902  10.229  0.0554  0.2601  0.0390
  202MPD1    C2 3070   0.617   0.886  10.293 -0.2349  0.5921 -0.1390
  202MPD1    C3 3071   0.545   0.766  10.289 -0.6991 -0.1261  1.0167
  202MPD1    C4 3072   0.611   0.646  10.252  1.0924  0.1533 -0.2246
  202MPD1    C5 3073   0.748   0.657  10.230 -0.0563 -0.2172  0.2950
  202MPD1     H 3074   0.566   0.965  10.347  0.7866  1.1809 -0.0300
  202MPD1    H1 3075   0.560   0.551  10.256 -0.5567  0.8499 -4.0441
  202MPD1    H2 3076   0.919   0.773  10.209 -0.7268 -0.2357  2.0086
  202MPD1    H3 3077   0.808   0.567  10.221  1.5312  0.7492  1.3975
  202MPD1     N 3078   0.412   0.763  10.325  0.0759  0.5027  0.2951
  202MPD1    H5 3079   0.378   0.673  10.357  1.7318 -0.0635  0.4785
  202MPD1    N1 3080   0.826   1.009  10.258 -0.2202 -0.4115 -0.0118
  202MPD1    H6 3081   0.903   1.007  10.190  0.4739 -2.4709  0.8541
  202MPD1    H7 3082   0.771   1.092  10.237  0.5803  0.1970  0.3138
  203MPD1     C 3083   3.014   2.423  12.414 -0.6156 -0.3366  0.8926
  203MPD1    C1 3084   3.140   2.434  12.363  0.7280  0.1258 -0.5586
  203MPD1    C2 3085   3.244   2.342  12.392  0.2203 -0.2514 -0.3610
  203MPD1    C3 3086   3.214   2.236  12.473  1.1979 -0.0230 -0.3014
  203MPD1    C4 3087   3.086   2.215  12.506 -0.0714 -0.4223  0.1145
  203MPD1    C5 3088   2.984   2.304  12.481  0.1415 -0.3640  0.7450
  203MPD1     H 3089   3.344   2.359  12.355 -0.1225  0.7783 -0.8335
  203MPD1    H1 3090   3.056   2.129  12.565  0.1817 -1.5581 -1.4150
  203MPD1    H2 3091   2.931   2.491  12.401 -1.4606 -1.7824 -1.2275
  203MPD1    H3 3092   2.882   2.284  12.513 -0.6367 -2.3908 -3.0611
  203MPD1     N 3093   3.319   2.142  12.497  0.0671 -0.0526 -0.0149
  203MPD1    H5 3094   3.411   2.172  12.469  0.1861 -1.8415 -1.4978
  203MPD1    N1 3095   3.169   2.548  12.281 -0.0529  0.3134 -0.4393
  203MPD1    H6 3096   3.088   2.579  12.228  0.2002  1.3293 -0.2318
  203MPD1    H7 3097   3.252   2.542  12.223  0.3994  2.6738 -0.0162
  204MPD1     C 3098   2.868   3.437  17.474 -0.4733  0.2886 -0.3451
  204MPD1    C1 3099   2.735   3.392  17.477  0.1997 -0.6928  0.4454
  204MPD1    C2 3100   2.700   3.318  17.369 -0.4852  0.1476 -0.0625
  204MPD1    C3 3101   2.776   3.308  17.252 -0.1927  0.0647  0.2725
  204MPD1    C4 3102   2.907   3.354  17.253 -0.0845  0.2480 -0.2059
  204MPD1    C5 3103   2.950   3.413  17.373  0.0589 -0.2122  0.0163
  204MPD1     H 3104   2.603   3.270  17.371 -1.4136  1.8405 -3.0395
  204MPD1    H1 3105   2.973   3.342  17.168 -0.3551 -1.4020 -0.1713
  204MPD1    H2 3106   2.908   3.491  17.560  2.4556 -0.0920 -1.4765
  204MPD1    H3 3107   3.054   3.439  17.385  0.0104  1.0430 -2.2731
  204MPD1     N 3108   2.721   3.234  17.149 -0.2251  0.2664  1.1265
  204MPD1    H5 3109   2.627   3.201  17.166 -0.7948  0.9571 -0.6712
  204MPD1    N1 3110   2.648   3.405  17.582 -0.0665 -0.0569 -0.1691
  204MPD1    H6 3111   2.551   3.420  17.556  0.6378  1.9868 -1.6259
  204MPD1    H7 3112   2.665   3.489  17.638 -0.1062 -1.8271  2.4963
  205MPD1     C 3113   3.024   2.556  16.759 -0.0203  0.1321  0.4026
  205MPD1    C1 3114   3.046   2.422  16.768 -0.1114 -0.7619  0.3688
  205MPD1    C2 3115   2.932   2.338  16.777 -1.0645  0.0796 -0.2354
  205MPD1    C3 3116   2.801   2.389  16.761 -0.9072 -0.2795 -0.2666
  205MPD1    C4 3117   2.785   2.520  16.738  0.3400 -1.0251 -0.3570
  205MPD1    C5 3118   2.897   2.603  16.746 -0.0850  0.0283  0.1148
  205MPD1     H 3119   2.954   2.233  16.795 -0.0257  0.6064  1.6005
  205MPD1    H1 3120   2.689   2.570  16.734  1.3475  0.7876 -1.3544
  205MPD1    H2 3121   3.107   2.624  16.748 -0.4431  0.4952 -0.5564
  205MPD1    H3 3122   2.874   2.707  16.724 -1.0119  0.0756  1.2923
  205MPD1     N 3123   2.679   2.316  16.764 -0.1647 -0.4796 -0.8313
  205MPD1    H5 3124   2.596   2.372  16.750  0.2291  0.9977  2.6302
  205MPD1    N1 3125   3.174   2.388  16.803 -0.1765  0.8237 -0.2150
  205MPD1    H6 3126   3.255   2.442  16.770  0.1986  0.5664  0.2878
  205MPD1    H7 3127   3.201   2.291  16.787  0.3523  0.9410 -0.0381
  206MPD1     C 3128   3.368   4.210  16.429  0.1756  0.9174  0.3927
  206MPD1    C1 3129   3.286   4.119  16.368 -0.2619 -0.4181 -0.0279
  206MPD1    C2 3130   3.202   4.168  16.264  0.4405 -0.0499  0.1431
  206MPD1    C3 3131   3.192   4.304  16.238  0.1707  0.1641  0.5049
  206MPD1    C4 3132   3.266   4.392  16.312  0.0385 -0.3402 -0.1694
  206MPD1    C5 3133   3.352   4.345  16.403 -0.3588  0.4558 -0.3898
  206MPD1     H 3134   3.132   4.100  16.219 -1.2486  1.7257  0.0785
  206MPD1    H1 3135   3.259   4.499  16.294 -0.0235 -0.1866  0.7666
  206MPD1    H2 3136   3.436   4.182  16.509  0.3992  1.6263  0.4528
  206MPD1    H3 3137   3.416   4.418  16.451 -0.9859  0.4555  0.4403
  206MPD1     N 3138   3.136   4.357  16.120 -0.4324 -0.2984 -0.4519
  206MPD1    H5 3139   3.154   4.456  16.106 -0.4303 -0.3088 -0.5241
  206MPD1    N1 3140   3.285   3.983  16.400 -0.2920 -0.0456  0.3527
  206MPD1    H6 3141   3.327   3.955  16.489  1.4004 -2.0077 -1.0670
  206MPD1    H7 3142   3.191   3.944  16.403  0.2739 -1.4356  0.1867
  207MPD1     C 3143   0.437   2.385   9.840 -0.0045 -0.3007 -0.0788
  207MPD1    C1 3144   0.425   2.258   9.889  0.6310 -0.4981 -0.0549
  207MPD1    C2 3145   0.538   2.203   9.947  0.0321 -0.1590 -0.1159
  207MPD1    C3 3146   0.648   2.275   9.966 -0.4318  0.2985 -0.5070
  207MPD1    C4 3147   0.655   2.406   9.931  0.1884  0.8046  0.8942
  207MPD1    C5 3148   0.546   2.464   9.873 -0.4383 -0.4129 -0.5623
  207MPD1     H 3149   0.542   2.096   9.967  0.3548 -0.3249 -1.0652
  207MPD1    H1 3150   0.747   2.463   9.921 -0.0691  1.1471  0.4563
  207MPD1    H2 3151   0.358   2.430   9.781  2.3327  0.6418 -2.5027
  207MPD1    H3 3152   0.550   2.571   9.854  2.8346 -0.5810 -0.8619
  207MPD1     N 3153   0.775   2.216   9.999  0.3471  0.4188 -0.2418
  207MPD1    H5 3154   0.857   2.276  10.004  1.9794 -1.6565 -2.3488
  207MPD1    N1 3155   0.326   2.180   9.827  0.1359  0.0952  0.4841
  207MPD1    H6 3156   0.306   2.094   9.877 -1.8946 -0.4926 -1.3448
  207MPD1    H7 3157   0.238   2.229   9.811 -1.0172 -3.1029 -2.9192
  208MPD1     C 3158   3.310   1.539  16.798 -1.4954  0.7154  0.3446
  208MPD1    C1 3159   3.200   1.609  16.836  0.0559  0.0042 -0.4458
  208MPD1    C2 3160   3.133   1.569  16.955  0.3938 -0.1462  0.3801
  208MPD1    C3 3161   3.165   1.452  17.014 -0.3297 -0.3588  0.5422
  208MPD1    C4 3162   3.269   1.374  16.965  0.8102 -0.2130  0.6020
  208MPD1    C5 3163   3.339   1.416  16.858  0.3195 -0.2905  0.4088
  208MPD1     H 3164   3.050   1.628  16.989 -0.2594 -0.3536 -0.8808
  208MPD1    H1 3165   3.292   1.272  16.994  2.4640  0.1749  0.6469
  208MPD1    H2 3166   3.369   1.561  16.710 -0.7509 -2.2596  0.1012
  208MPD1    H3 3167   3.419   1.357  16.815  0.0872  0.1381 -0.6180
  208MPD1     N 3168   3.090   1.419  17.124  0.1753  0.1522 -0.0946
  208MPD1    H5 3169   3.009   1.475  17.148  0.4180 -0.0436  1.1521
  208MPD1    N1 3170   3.171   1.741  16.780 -0.0840 -0.2566 -0.5017
  208MPD1    H6 3171   3.191   1.762  16.683  0.5978 -1.6663 -0.6696
  208MPD1    H7 3172   3.085   1.783  16.813 -0.3070 -1.1468  0.0769
  209MPD1     C 3173   0.961   0.734  11.034 -0.8407 -0.0626  0.2435
  209MPD1    C1 3174   1.015   0.781  10.915 -0.0553  0.9006 -0.1345
  209MPD1    C2 3175   1.052   0.913  10.917 -0.5283  0.5689  0.2606
  209MPD1    C3 3176   1.052   0.998  11.029 -0.0644 -0.0314 -0.7594
  209MPD1    C4 3177   1.015   0.938  11.148 -0.1865 -0.6371 -0.0053
  209MPD1    C5 3178   0.967   0.808  11.148 -0.2906 -0.3640  0.6588
  209MPD1     H 3179   1.092   0.948  10.823  0.5284 -1.8173 -0.1795
  209MPD1    H1 3180   1.011   0.999  11.238  0.3312  1.3164 -1.3155
  209MPD1    H2 3181   0.920   0.634  11.040  0.8627 -0.6694  1.6983
  209MPD1    H3 3182   0.942   0.763  11.243  0.9506 -0.3976  0.9667
  209MPD1     N 3183   1.112   1.126  11.021  0.3466 -0.3181  0.2140
  209MPD1    H5 3184   1.147   1.152  10.929  3.4058  1.2262  1.8216
  209MPD1    N1 3185   0.994   0.717  10.797 -0.4232 -0.2876 -0.5383
  209MPD1    H6 3186   1.052   0.745  10.718 -1.0967  1.6626 -0.3586
  209MPD1    H7 3187   1.031   0.625  10.817  1.4717  0.6160  0.1873
  210MPD1     C 3188   1.907   1.782  11.299 -0.1518 -1.1029 -0.2879
  210MPD1    C1 3189   1.785   1.791  11.364 -1.0267  0.0837  0.4478
  210MPD1    C2 3190   1.682   1.729  11.302  0.0576  0.2934 -0.3965
  210MPD1    C3 3191   1.694   1.655  11.182 -0.2121 -0.1351 -0.1580
  210MPD1    C4 3192   1.815   1.661  11.115  0.8117 -0.0510 -0.0295
  210MPD1    C5 3193   1.927   1.717  11.182 -0.4494  0.2014 -0.4468
  210MPD1     H 3194   1.584   1.727  11.348  0.3869 -2.1204  0.2028
  210MPD1    H1 3195   1.830   1.603  11.025  1.3036  0.3646 -0.2160
  210MPD1    H2 3196   1.993   1.827  11.347  0.0146 -1.1088 -0.5835
  210MPD1    H3 3197   2.027   1.710  11.140  0.2625 -0.8658  1.3850
  210MPD1     N 3198   1.589   1.580  11.127 -0.3247  0.5260 -0.1288
  210MPD1    H5 3199   1.592   1.552  11.030  2.0025 -0.8702  0.3547
  210MPD1    N1 3200   1.785   1.844  11.490  0.1385 -0.2822 -0.0984
  210MPD1    H6 3201   1.692   1.880  11.511  0.6691  1.3035 -0.5223
  210MPD1    H7 3202   1.857   1.913  11.513 -1.5113  1.5971 -0.6406
  211MPD1     C 3203   3.495   1.514  16.460 -0.6073  0.1676 -0.6008
  211MPD1    C1 3204   3.378   1.453  16.423  0.2555  0.0167 -0.0352
  211MPD1    C2 3205   3.260   1.528  16.428  0.0366 -0.5794 -0.1494
  211MPD1    C3 3206   3.266   1.668  16.451  0.2387  0.8094  0.0987
  211MPD1    C4 3207   3.380   1.720  16.498  0.0968  0.2332  0.5527
  211MPD1    C5 3208   3.497   1.649  16.498 -0.4279 -0.2578 -0.5434
  211MPD1     H 3209   3.165   1.480  16.408  1.6202 -3.6727 -0.1539
  211MPD1    H1 3210   3.388   1.823  16.529  3.5702  0.2292 -0.2653
  211MPD1    H2 3211   3.585   1.462  16.488 -0.9336 -0.8341 -1.4345
  211MPD1    H3 3212   3.591   1.684  16.537 -1.0677 -0.9885  1.6640
  211MPD1     N 3213   3.145   1.741  16.459  0.4813 -0.3220  0.3940
  211MPD1    H5 3214   3.063   1.682  16.447 -0.0960  0.4835  0.3941
  211MPD1    N1 3215   3.364   1.313  16.424 -0.5819  0.0384 -0.1847
  211MPD1    H6 3216   3.289   1.299  16.356  0.4895  1.9641 -1.7763
  211MPD1    H7 3217   3.456   1.280  16.396  0.0414  1.0320  0.6934
  212MPD1     C 3218   2.547   4.663  16.496  0.4237  0.1694 -0.4732
  212MPD1    C1 3219   2.501   0.002  16.614 -0.0555  0.1026  0.2076
  212MPD1    C2 3220   2.402   4.658  16.685 -0.2842  0.7348 -1.0475
  212MPD1    C3 3221   2.335   4.550  16.632 -0.2298 -0.3662 -0.5907
  212MPD1    C4 3222   2.384   4.501  16.519 -0.2323  1.2804 -0.3872
  212MPD1    C5 3223   2.493   4.550  16.449  0.4919 -0.0738 -0.0226
  212MPD1     H 3224   2.371   4.704  16.778 -0.6108 -1.4279 -0.0763
  212MPD1    H1 3225   2.350   4.406  16.479  2.7845 -0.4535  1.1317
  212MPD1    H2 3226   2.635   4.695  16.442  0.6399 -0.4761 -0.5111
  212MPD1    H3 3227   2.529   4.490  16.366 -2.2505  0.7800 -1.8358
  212MPD1     N 3228   2.228   4.482  16.679  0.4169 -0.2012 -0.7330
  212MPD1    H5 3229   2.206   4.390  16.643  1.3966 -0.7705  0.1252
  212MPD1    N1 3230   2.576   0.109  16.662 -0.9782  0.1721  0.6405
  212MPD1    H6 3231   2.626   0.167  16.595  0.1320 -0.5677  0.8220
  212MPD1    H7 3232   2.543   0.167  16.739 -2.2468  0.8518 -0.4346
  213MPD1     C 3233   0.010   0.267  14.703 -0.0289 -0.2701  0.3553
  213MPD1    C1 3234   4.646   0.273  14.807  0.6073  0.5960 -0.3710
  213MPD1    C2 3235   4.696   0.351  14.912  0.0745  0.5686 -0.4363
  213MPD1    C3 3236   0.075   0.442  14.906  0.1142  0.0563  0.3182
  213MPD1    C4 3237   0.141   0.453  14.785  0.2675 -0.5324  0.9903
  213MPD1    C5 3238   0.101   0.367  14.683  0.0866 -0.8405  0.4397
  213MPD1     H 3239   4.636   0.342  15.002 -1.8758  1.0515 -1.6819
  213MPD1    H1 3240   0.211   0.532  14.760 -0.5022  0.5707  2.3071
  213MPD1    H2 3241   4.711   0.207  14.615  1.9388  1.4338 -1.3034
  213MPD1    H3 3242   0.148   0.375  14.585 -0.9636 -2.3213 -0.1803
  213MPD1     N 3243   0.085   0.541  15.004  0.7036 -0.3926  0.3084
  213MPD1    H5 3244   0.018   0.544  15.080 -1.4174  1.5783 -1.6523
  213MPD1    N1 3245   4.558   0.168  14.831  0.0642  0.5197  0.0550
  213MPD1    H6 3246   4.509   0.134  14.749  0.5435 -0.9288  0.3663
  213MPD1    H7 3247   4.481   0.201  14.889 -0.4417  1.4156 -1.1432
  214MPD1     C 3248   4.067   0.881  15.150 -0.3307  0.1832  0.0351
  214MPD1    C1 3249   4.145   0.986  15.124 -0.1714  0.4245  0.0066
  214MPD1    C2 3250   4.284   0.963  15.124  0.1272  0.6817 -0.1059
  214MPD1    C3 3251   4.342   0.850  15.172  0.2860  0.0727  0.4311
  214MPD1    C4 3252   4.262   0.742  15.196  0.9154  0.5970 -0.1238
  214MPD1    C5 3253   4.124   0.762  15.187 -0.1021 -0.4777 -0.2715
  214MPD1     H 3254   4.350   1.043  15.092 -1.2673  1.1740 -1.7328
  214MPD1    H1 3255   4.305   0.644  15.213 -1.1464  0.0042  1.6814
  214MPD1    H2 3256   3.959   0.890  15.148 -0.3922 -1.0417 -2.4111
  214MPD1    H3 3257   4.054   0.680  15.195 -1.3216  0.4679 -1.1958
  214MPD1     N 3258   4.480   0.835  15.179  0.1815  0.3380 -0.1790
  214MPD1    H5 3259   4.505   0.737  15.194  0.8778  0.9107  2.4451
  214MPD1    N1 3260   4.104   1.115  15.073 -0.2852 -0.0401  0.1658
  214MPD1    H6 3261   4.167   1.191  15.097  0.7610 -0.9089  0.1758
  214MPD1    H7 3262   4.014   1.135  15.117 -1.0056 -0.2704 -1.1943
  215MPD1     C 3263   0.502   1.188  10.491 -0.9705 -0.1846 -0.6395
  215MPD1    C1 3264   0.496   1.322  10.469  0.1516 -0.0910  0.3799
  215MPD1    C2 3265   0.558   1.403  10.569 -0.7557  0.1524 -0.3438
  215MPD1    C3 3266   0.642   1.357  10.662  0.0394  0.0841  1.3867
  215MPD1    C4 3267   0.663   1.221  10.664 -0.1179  0.0339 -0.1529
  215MPD1    C5 3268   0.592   1.139  10.578 -0.1023  0.3567  0.6443
  215MPD1     H 3269   0.550   1.510  10.561  2.0638  0.2841 -1.2597
  215MPD1    H1 3270   0.725   1.169  10.736  0.5921  0.1796 -0.6551
  215MPD1    H2 3271   0.439   1.122  10.432  1.7470 -0.9674 -2.6922
  215MPD1    H3 3272   0.608   1.031  10.572  0.9006  0.6734 -2.3033
  215MPD1     N 3273   0.705   1.446  10.750  0.1474 -0.1835  0.1061
  215MPD1    H5 3274   0.698   1.547  10.737 -0.5218 -0.6219 -2.9595
  215MPD1    N1 3275   0.404   1.384  10.385  0.3568  0.0416  0.8155
  215MPD1    H6 3276   0.447   1.468  10.347 -0.2635 -0.2052 -0.4313
  215MPD1    H7 3277   0.362   1.337  10.305  0.2285 -0.9108  1.4481
  216MPD1     C 3278   2.581   3.897  16.714  0.2932  1.1482  0.3117
  216MPD1    C1 3279   2.635   3.957  16.830  0.1220  0.1365 -0.1082
  216MPD1    C2 3280   2.558   3.943  16.949 -0.3028 -0.1338 -0.1875
  216MPD1    C3 3281   2.445   3.865  16.948  0.1773 -0.0551 -0.8092
  216MPD1    C4 3282   2.410   3.798  16.838 -0.0098  0.2509 -1.2090
  216MPD1    C5 3283   2.478   3.812  16.722  0.0486  0.6501 -0.4061
  216MPD1     H 3284   2.590   4.001  17.035 -3.1819 -1.3947  1.7380
  216MPD1    H1 3285   2.330   3.725  16.828  2.2944 -2.6933  2.0374
  216MPD1    H2 3286   2.630   3.905  16.618  2.8392 -1.3421  1.4004
  216MPD1    H3 3287   2.452   3.754  16.634 -1.0727  0.3018  0.1677
  216MPD1     N 3288   2.377   3.851  17.069 -0.0248 -0.7396 -0.1320
  216MPD1    H5 3289   2.428   3.894  17.146 -1.9221 -1.2381  1.4210
  216MPD1    N1 3290   2.736   4.052  16.827  0.3581  0.4967  0.8763
  216MPD1    H6 3291   2.782   4.075  16.915 -0.6052 -0.0597  1.5230
  216MPD1    H7 3292   2.805   4.035  16.754 -0.3481  0.1925  0.2793
  217MPD1     C 3293   3.312   0.128   8.800  0.1771 -0.2138  1.2336
  217MPD1    C1 3294   3.419   0.070   8.876  0.1951 -0.5247 -0.5066
  217MPD1    C2 3295   3.484   0.155   8.970  0.4343 -0.0044  0.0290
  217MPD1    C3 3296   3.447   0.290   8.988 -0.2348  0.2179 -0.3693
  217MPD1    C4 3297   3.345   0.337   8.907 -0.0925 -0.2407  0.0145
  217MPD1    C5 3298   3.278   0.260   8.818  0.7021 -0.0121 -0.4425
  217MPD1     H 3299   3.571   0.119   9.023 -1.8899 -0.5538  3.5067
  217MPD1    H1 3300   3.313   0.438   8.933 -2.5120 -1.1653  0.6324
  217MPD1    H2 3301   3.269   0.071   8.718 -0.0340  0.0153  1.1819
  217MPD1    H3 3302   3.201   0.304   8.757 -1.6129 -1.6198  1.3176
  217MPD1     N 3303   3.510   0.378   9.078 -0.5546  0.1996  0.3339
  217MPD1    H5 3304   3.473   0.473   9.078 -0.9033  0.0525 -1.2880
  217MPD1    N1 3305   3.458   4.662   8.860  0.0916 -0.3853  0.1273
  217MPD1    H6 3306   3.382   4.599   8.838 -0.3120 -0.2052  1.0161
  217MPD1    H7 3307   3.507   4.625   8.942 -2.1917 -2.2574  0.6326
  218MPD1     C 3308   4.107   1.361  13.286 -0.1526 -0.3625  0.1196
  218MPD1    C1 3309   4.127   1.503  13.257 -0.4545  0.8151  0.6437
  218MPD1    C2 3310   4.214   1.537  13.153 -0.2639  0.7151 -0.6231
  218MPD1    C3 3311   4.269   1.440  13.070  0.2888  0.3010 -0.4867
  218MPD1    C4 3312   4.242   1.306  13.097  1.0893  0.9722  0.0153
  218MPD1    C5 3313   4.164   1.271  13.202  0.0654  0.6473 -0.2034
  218MPD1     H 3314   4.251   1.637  13.139  0.8720  0.3437 -0.2734
  218MPD1    H1 3315   4.285   1.234  13.029  2.1389  1.5127  0.1074
  218MPD1    H2 3316   4.037   1.322  13.358 -1.2846 -1.7909 -1.7749
  218MPD1    H3 3317   4.158   1.165  13.222  2.3443  0.3670 -1.0736
  218MPD1     N 3318   4.352   1.470  12.957 -0.1395 -0.1970 -0.0242
  218MPD1    H5 3319   4.380   1.388  12.904  1.6641  1.1399 -1.1518
  218MPD1    N1 3320   4.083   1.597  13.343 -0.2821  0.1885  0.0126
  218MPD1    H6 3321   3.990   1.568  13.372  0.1538 -0.0215  1.2059
  218MPD1    H7 3322   4.073   1.685  13.293  2.4234 -0.5793 -1.8843
  219MPD1     C 3323   4.574   2.444  12.827  0.1783  0.3994 -0.6776
  219MPD1    C1 3324   4.672   2.382  12.754 -0.8141 -0.3198 -0.0195
  219MPD1    C2 3325   4.676   2.242  12.750  0.4332 -0.1436  0.7995
  219MPD1    C3 3326   4.590   2.164  12.822 -0.1810 -0.5637  0.4002
  219MPD1    C4 3327   4.501   2.230  12.903  0.3143 -0.2342 -0.0201
  219MPD1    C5 3328   4.494   2.369  12.911  0.0722 -0.0209  0.3451
  219MPD1     H 3329   0.029   2.193  12.692 -0.5162  1.2029 -1.5795
  219MPD1    H1 3330   4.440   2.171  12.970  1.3838  0.1034  1.2533
  219MPD1    H2 3331   4.558   2.552  12.831  1.0686  0.4657  1.1025
  219MPD1    H3 3332   4.429   2.424  12.978  1.1361  0.7055  0.7701
  219MPD1     N 3333   4.592   2.023  12.814  0.5287 -0.6779  0.9212
  219MPD1    H5 3334   4.509   1.982  12.856 -0.0080 -0.4837  0.0458
  219MPD1    N1 3335   0.017   2.466  12.664 -0.0084 -0.3619 -0.4552
  219MPD1    H6 3336   0.037   2.558  12.704 -0.6588 -0.5484  0.2909
  219MPD1    H7 3337   0.104   2.420  12.638  0.1680 -0.5706  0.5008
  220MPD1     C 3338   0.321   3.039  10.105  0.1437  0.1420  0.6498
  220MPD1    C1 3339   0.351   3.003  10.231 -0.0281  0.1524 -0.1226
  220MPD1    C2 3340   0.363   2.867  10.258 -0.0415  0.5325 -0.5283
  220MPD1    C3 3341   0.334   2.771  10.164 -0.0555 -0.2578 -0.2812
  220MPD1    C4 3342   0.293   2.810  10.036  0.1417  0.8167 -0.1098
  220MPD1    C5 3343   0.294   2.949  10.018  0.8154 -0.7431 -0.7838
  220MPD1     H 3344   0.380   2.820  10.354  3.1685 -0.1131 -1.4022
  220MPD1    H1 3345   0.265   2.741   9.957 -1.4899  1.6845 -0.2851
  220MPD1    H2 3346   0.314   3.142  10.072  0.0205  0.7793  2.6718
  220MPD1    H3 3347   0.272   2.991   9.921 -0.2869  2.1317  0.6845
  220MPD1     N 3348   0.324   2.638  10.220  0.1608  0.2557  0.1910
  220MPD1    H5 3349   0.363   2.616  10.312 -1.2722  1.9029  1.1954
  220MPD1    N1 3350   0.341   3.093  10.341  0.3293 -0.1755  0.2332
  220MPD1    H6 3351   0.367   3.187  10.313 -0.3033 -0.6675 -2.0561
  220MPD1    H7 3352   0.401   3.069  10.419  0.2120 -1.2413 -0.0018
  221MPD1     C 3353   2.325   1.273  17.081  1.1481 -0.2556  0.7367
  221MPD1    C1 3354   2.436   1.251  17.156 -0.1926 -0.4854 -0.3149
  221MPD1    C2 3355   2.559   1.271  17.097 -0.0805  0.0574 -0.0379
  221MPD1    C3 3356   2.580   1.317  16.970 -0.2413 -0.2924  0.1790
  221MPD1    C4 3357   2.467   1.349  16.899  0.1921  0.0477 -0.1745
  221MPD1    C5 3358   2.341   1.330  16.959  0.2274  0.3974 -0.1460
  221MPD1     H 3359   2.644   1.248  17.160 -1.2207 -0.3547  1.3408
  221MPD1    H1 3360   2.471   1.374  16.793 -1.1719 -0.9234 -0.4679
  221MPD1    H2 3361   2.226   1.259  17.123  1.9155 -0.4331  2.4822
  221MPD1    H3 3362   2.254   1.350  16.898 -0.0550  2.2880  0.8469
  221MPD1     N 3363   2.702   1.328  16.893 -0.8960  0.1159  0.3458
  221MPD1    H5 3364   2.691   1.365  16.799 -0.8920  1.6931  0.9713
  221MPD1    N1 3365   2.427   1.181  17.277  0.2202  0.2693 -0.2392
  221MPD1    H6 3366   2.337   1.200  17.320  0.3784 -1.7026  0.9815
  221MPD1    H7 3367   2.493   1.205  17.351 -0.6192 -2.0542  1.2626
  222MPD1     C 3368   2.446   3.577  15.996 -0.2081  0.0696  0.8169
  222MPD1    C1 3369   2.481   3.692  16.062  0.5773 -0.1392 -0.3561
  222MPD1    C2 3370   2.408   3.725  16.175  0.1032  0.6861 -0.1838
  222MPD1    C3 3371   2.299   3.647  16.217  0.1388  0.4932  0.1743
  222MPD1    C4 3372   2.256   3.544  16.134  0.3442 -0.1448  0.5010
  222MPD1    C5 3373   2.334   3.511  16.030  0.1048 -0.2139  0.2136
  222MPD1     H 3374   2.460   3.789  16.245  1.0352  1.3661 -1.5217
  222MPD1    H1 3375   2.168   3.490  16.170  0.2803  0.3263  1.0587
  222MPD1    H2 3376   2.501   3.534  15.914  1.0386 -0.6872  2.0413
  222MPD1    H3 3377   2.301   3.433  15.962  2.8003 -0.7776 -0.4459
  222MPD1     N 3378   2.230   3.671  16.333  0.3831 -0.0187 -0.1688
  222MPD1    H5 3379   2.148   3.614  16.352 -0.2457  0.7755 -0.4683
  222MPD1    N1 3380   2.610   3.748  16.038  0.1264 -0.2937  0.3261
  222MPD1    H6 3381   2.608   3.849  16.052  0.1207 -0.4335  1.3488
  222MPD1    H7 3382   2.634   3.748  15.939 -0.5486  0.2354  0.1610
  223MPD1     C 3383   1.869   3.216  17.110 -0.3941  0.0301 -0.1513
  223MPD1    C1 3384   1.954   3.310  17.162  0.1981 -0.2474  0.5460
  223MPD1    C2 3385   1.987   3.416  17.073  0.0166 -0.2450 -0.3225
  223MPD1    C3 3386   1.932   3.425  16.945 -0.0834 -0.1567 -0.3111
  223MPD1    C4 3387   1.841   3.332  16.904 -0.0223 -0.6690  0.2615
  223MPD1    C5 3388   1.804   3.234  16.994  0.0542  0.3692 -0.4056
  223MPD1     H 3389   2.067   3.489  17.085  0.4675 -0.8651  0.4689
  223MPD1    H1 3390   1.796   3.350  16.807 -1.0905 -0.0039  0.8907
  223MPD1    H2 3391   1.845   3.123  17.159 -2.4275 -0.4166 -2.0115
  223MPD1    H3 3392   1.737   3.154  16.968 -0.5225  0.9544 -0.7202
  223MPD1     N 3393   1.984   3.529  16.867 -0.2928 -0.4138  0.0140
  223MPD1    H5 3394   2.047   3.595  16.911 -1.0893  0.4519 -0.1618
  223MPD1    N1 3395   2.027   3.281  17.280 -0.4077  0.7604  0.7656
  223MPD1    H6 3396   1.973   3.226  17.346 -0.4049 -2.3456 -1.7799
  223MPD1    H7 3397   2.059   3.367  17.324 -1.2956  0.9047  1.1263
  224MPD1     C 3398   4.062   2.103  10.130  0.4689  0.2696  0.5275
  224MPD1    C1 3399   4.008   2.105  10.254 -1.3923  0.7331  0.0631
  224MPD1    C2 3400   3.969   1.979  10.299 -0.0632  0.8338 -0.4140
  224MPD1    C3 3401   3.959   1.864  10.216 -0.3234  0.3188 -1.1688
  224MPD1    C4 3402   4.008   1.871  10.085 -0.8606 -0.0439 -0.1582
  224MPD1    C5 3403   4.065   1.994  10.052 -0.7738 -0.1162 -0.1307
  224MPD1     H 3404   3.941   1.976  10.404  2.5340 -0.4350  0.2475
  224MPD1    H1 3405   4.018   1.788  10.016 -2.2272 -0.1953 -0.1736
  224MPD1    H2 3406   4.102   2.193  10.083  2.5253 -1.3040 -0.7426
  224MPD1    H3 3407   4.104   2.009   9.951  0.8821  2.1739  0.8494
  224MPD1     N 3408   3.898   1.743  10.264 -0.2204 -0.5945  1.2172
  224MPD1    H5 3409   3.925   1.662  10.210  3.2823  1.5929 -0.3205
  224MPD1    N1 3410   4.036   2.217  10.328  0.1281  0.4897 -0.6115
  224MPD1    H6 3411   3.982   2.225  10.414  0.6270 -3.7840  0.1406
  224MPD1    H7 3412   4.018   2.305  10.280 -2.8040  0.1168 -0.1690
  225MPD1     C 3413   0.339   3.150  12.692  0.2799  0.4561  0.3038
  225MPD1    C1 3414   0.328   3.014  12.687 -0.1202 -0.1502 -0.4049
  225MPD1    C2 3415   0.284   2.943  12.579  0.3848 -0.3672 -0.4387
  225MPD1    C3 3416   0.253   3.019  12.468 -0.5413  0.4328 -0.5481
  225MPD1    C4 3417   0.275   3.156  12.469  0.1954 -0.0816 -0.2266
  225MPD1    C5 3418   0.301   3.223  12.583 -0.4561 -0.1127 -0.3576
  225MPD1     H 3419   0.284   2.835  12.575  1.6168 -0.4019  0.6283
  225MPD1    H1 3420   0.259   3.216  12.380  0.7212 -1.2805 -1.1282
  225MPD1    H2 3421   0.373   3.197  12.783  0.2134  0.1079  0.5061
  225MPD1    H3 3422   0.311   3.331  12.581 -2.7013  0.0912 -0.6985
  225MPD1     N 3423   0.197   2.968  12.349  0.3639 -0.1888  0.0871
  225MPD1    H5 3424   0.158   3.036  12.285  0.0732  0.9246  1.4537
  225MPD1    N1 3425   0.364   2.939  12.798 -0.0728  0.1539  0.8514
  225MPD1    H6 3426   0.347   2.993  12.882 -1.0272 -0.3355  0.9811
  225MPD1    H7 3427   0.308   2.854  12.810 -0.5054  0.4949  1.2655
  226MPD1     C 3428   1.091   2.646   9.475  0.0133  0.5411  0.1911
  226MPD1    C1 3429   1.173   2.550   9.416  0.2865  0.5342  0.3744
  226MPD1    C2 3430   1.117   2.424   9.405 -0.0835  0.0655  1.2096
  226MPD1    C3 3431   0.983   2.393   9.433  0.7977  0.1329  1.3121
  226MPD1    C4 3432   0.902   2.502   9.475 -0.5201  0.0853 -0.2206
  226MPD1    C5 3433   0.955   2.627   9.494 -0.1811  0.1547 -0.8551
  226MPD1     H 3434   1.180   2.344   9.367 -0.7001 -0.3176  0.9934
  226MPD1    H1 3435   0.799   2.490   9.505 -0.5665 -0.1918 -0.4866
  226MPD1    H2 3436   1.136   2.742   9.494 -0.2632  0.3319  1.9327
  226MPD1    H3 3437   0.896   2.700   9.548  0.8746  1.6005 -1.6761
  226MPD1     N 3438   0.950   2.255   9.430 -0.0198  0.4576 -0.4989
  226MPD1    H5 3439   1.028   2.194   9.404  0.1327  0.7222 -0.6564
  226MPD1    N1 3440   1.314   2.572   9.399 -0.1323  0.0364 -0.5742
  226MPD1    H6 3441   1.339   2.539   9.307 -0.8413  0.2112 -0.8293
  226MPD1    H7 3442   1.344   2.670   9.393  1.2659 -0.4864 -1.9710
  227MPD1     C 3443   1.311   1.799   8.845 -0.6264  0.9193  0.2577
  227MPD1    C1 3444   1.354   1.900   8.931  0.9942 -0.4261  1.2361
  227MPD1    C2 3445   1.286   1.916   9.049 -0.3590 -0.6736 -0.2574
  227MPD1    C3 3446   1.174   1.847   9.078 -0.9747 -0.0348  0.0309
  227MPD1    C4 3447   1.131   1.740   8.995  0.1115 -0.4091 -0.0925
  227MPD1    C5 3448   1.202   1.717   8.879 -0.2769  0.1452 -0.0527
  227MPD1     H 3449   1.302   2.001   9.114  0.0021 -0.3042 -0.8220
  227MPD1    H1 3450   1.058   1.663   9.019 -1.0239  0.6723 -0.0758
  227MPD1    H2 3451   1.359   1.771   8.752 -0.7158  0.5026  0.3351
  227MPD1    H3 3452   1.181   1.635   8.811 -2.6346 -0.0101  0.8685
  227MPD1     N 3453   1.101   1.883   9.189 -0.1545 -0.0959 -0.0794
  227MPD1    H5 3454   1.124   1.972   9.230  1.9000  0.2303 -1.9407
  227MPD1    N1 3455   1.475   1.960   8.903 -0.8217  0.7678 -0.0492
  227MPD1    H6 3456   1.488   1.972   8.803  1.4736  1.9537  0.3923
  227MPD1    H7 3457   1.481   2.049   8.953 -0.5350  0.8851 -0.2956
  228MPD1     C 3458   1.805   0.778  12.873  0.3583  0.2453  0.2116
  228MPD1    C1 3459   1.701   0.748  12.958  0.1389  0.2531 -0.2979
  228MPD1    C2 3460   1.599   0.660  12.914 -0.0548  0.7650  0.1187
  228MPD1    C3 3461   1.587   0.622  12.782 -0.0759 -0.3071  0.1308
  228MPD1    C4 3462   1.675   0.680  12.690  0.7342 -0.5825 -0.4996
  228MPD1    C5 3463   1.788   0.743  12.739 -0.7937 -0.0252  0.0530
  228MPD1     H 3464   1.529   0.624  12.988  0.1300 -1.2410 -0.6744
  228MPD1    H1 3465   1.685   0.657  12.584 -2.5772  3.1624 -1.5927
  228MPD1    H2 3466   1.891   0.837  12.903  0.9731 -0.1148 -0.8579
  228MPD1    H3 3467   1.867   0.770  12.670  0.2425  2.8417  2.3554
  228MPD1     N 3468   1.472   0.535  12.745  0.5391  0.1363 -0.0041
  228MPD1    H5 3469   1.401   0.510  12.812 -1.2962  0.0348 -1.9594
  228MPD1    N1 3470   1.719   0.783  13.096 -0.5620  0.5745 -0.0552
  228MPD1    H6 3471   1.631   0.791  13.147 -0.7686 -0.1225 -0.3014
  228MPD1    H7 3472   1.776   0.867  13.093  0.2355 -0.1755 -5.3743
  229MPD1     C 3473   0.771   4.309  14.107 -0.2716 -0.3813  0.2503
  229MPD1    C1 3474   0.816   4.182  14.075 -0.3038 -0.3265 -0.2097
  229MPD1    C2 3475   0.937   4.142  14.125 -0.4856  0.0031  0.7956
  229MPD1    C3 3476   1.000   4.218  14.226  0.2781  0.3947  0.2379
  229MPD1    C4 3477   0.946   4.339  14.265 -0.1926  0.3211  0.2614
  229MPD1    C5 3478   0.833   4.384  14.203  0.2206  0.1256 -0.1565
  229MPD1     H 3479   0.982   4.046  14.101  2.3764  2.0809 -2.1037
  229MPD1    H1 3480   0.993   4.409  14.333  0.8500 -1.4790  1.3844
  229MPD1    H2 3481   0.691   4.357  14.052  1.0137  0.4459 -0.8740
  229MPD1    H3 3482   0.797   4.486  14.216 -0.8661 -0.3335  0.4100
  229MPD1     N 3483   1.105   4.161  14.307  0.3857  0.5142 -0.1453
  229MPD1    H5 3484   1.140   4.221  14.381  1.4346 -1.0799  0.6658
  229MPD1    N1 3485   0.758   4.107  13.973 -0.8223  0.2677  0.2833
  229MPD1    H6 3486   0.656   4.112  13.966 -0.9238 -0.4577  1.2325
  229MPD1    H7 3487   0.783   4.009  13.969  2.3583  1.0069  2.0832
  230MPD1     C 3488   1.122   4.304  15.169  0.0775 -0.6353  0.3752
  230MPD1    C1 3489   1.112   4.382  15.052 -0.1174 -0.1466 -0.0133
  230MPD1    C2 3490   1.134   4.319  14.928 -0.3284 -0.1675 -0.7948
  230MPD1    C3 3491   1.183   4.190  14.917  0.1882  0.0979 -0.3862
  230MPD1    C4 3492   1.203   4.120  15.035 -0.2710  0.1374  0.3467
  230MPD1    C5 3493   1.175   4.176  15.158 -0.3499 -0.3127  0.2124
  230MPD1     H 3494   1.111   4.375  14.838 -0.4210  1.6869  0.3873
  230MPD1    H1 3495   1.251   4.023  15.039 -0.0593  0.2377  0.2302
  230MPD1    H2 3496   1.084   4.336  15.266 -0.8962  2.4576 -1.0238
  230MPD1    H3 3497   1.186   4.110  15.244  0.6762  1.8755  1.7477
  230MPD1     N 3498   1.235   4.141  14.793  0.2607  0.2172  0.0245
  230MPD1    H5 3499   1.208   4.193  14.711 -1.4577  0.8980  1.0282
  230MPD1    N1 3500   1.044   4.505  15.060  0.0685 -0.2145 -0.1109
  230MPD1    H6 3501   1.040   4.556  15.147 -0.8773  1.2356 -1.0146
  230MPD1    H7 3502   1.070   4.570  14.986  1.6509  0.9094  1.4376
  231MPD1     C 3503   4.620   1.333  15.692  0.2029  0.0608  0.2720
  231MPD1    C1 3504   4.584   1.245  15.590 -0.0675  0.2033 -0.3488
  231MPD1    C2 3505   4.665   1.255  15.473 -0.7961  0.1983 -0.3850
  231MPD1    C3 3506   0.008   1.373  15.447 -0.4409 -0.3155  0.2345
  231MPD1    C4 3507   0.038   1.457  15.550  1.2091 -0.3446  0.6934
  231MPD1    C5 3508   4.709   1.430  15.674 -0.0826  0.1384 -0.3494
  231MPD1     H 3509   4.647   1.182  15.394 -0.5571  1.5853 -1.7208
  231MPD1    H1 3510   0.100   1.546  15.542 -0.8749  0.6936 -4.1179
  231MPD1    H2 3511   4.580   1.331  15.793  1.2563  2.9248  0.7226
  231MPD1    H3 3512   0.013   1.499  15.753  0.0054 -1.1302  0.7254
  231MPD1     N 3513   0.046   1.403  15.312 -0.0136 -0.2027  0.0388
  231MPD1    H5 3514   0.023   1.333  15.242 -0.4422  1.0327 -1.0445
  231MPD1    N1 3515   4.520   1.123  15.621 -0.7532  0.5006  0.1455
  231MPD1    H6 3516   4.457   1.150  15.695 -1.4754  0.1532 -0.3463
  231MPD1    H7 3517   4.469   1.090  15.539 -2.1193 -1.2416  1.6842
  232MPD1     C 3518   2.083   3.115   0.353 -0.4683  0.5023  0.1403
  232MPD1    C1 3519   2.012   3.000   0.331  0.5279 -0.5585 -0.6619
  232MPD1    C2 3520   1.875   3.005   0.335 -0.5640 -0.7607 -0.0076
  232MPD1    C3 3521   1.818   3.131   0.344  0.3221  0.3260  0.0756
  232MPD1    C4 3522   1.899   3.245   0.349 -0.9480  1.0054  0.2634
  232MPD1    C5 3523   2.031   3.238   0.356  0.3708 -0.4538  0.1320
  232MPD1     H 3524   1.809   2.921   0.318 -1.7343 -0.5547  3.4705
  232MPD1    H1 3525   1.850   3.342   0.358 -0.5702  1.2322 -0.1093
  232MPD1    H2 3526   2.191   3.115   0.363 -0.3000 -1.8344 -1.5939
  232MPD1    H3 3527   2.084   3.332   0.368  0.3930 -0.7434  2.1881
  232MPD1     N 3528   1.673   3.132   0.331  0.0071 -0.1380 -0.1752
  232MPD1    H5 3529   1.621   3.045   0.331 -0.8367  0.3695  1.8513
  232MPD1    N1 3530   2.078   2.882   0.350  0.4741 -0.2040  0.0887
  232MPD1    H6 3531   2.177   2.895   0.329 -0.2243  0.8024 -2.5305
  232MPD1    H7 3532   2.036   2.797   0.314 -0.0383 -0.4201  1.1794
  233MPD1     C 3533   1.382   1.264   0.487  0.4315  0.2829 -0.4589
  233MPD1    C1 3534   1.400   1.135   0.450  0.2729  0.0606 -0.6629
  233MPD1    C2 3535   1.506   1.061   0.509 -0.0973  0.1632 -0.6851
  233MPD1    C3 3536   1.606   1.127   0.575 -0.1921  0.2853 -0.1087
  233MPD1    C4 3537   1.591   1.260   0.598 -0.0984  0.1375 -0.1095
  233MPD1    C5 3538   1.476   1.322   0.570 -0.4300  0.0303  0.8621
  233MPD1     H 3539   1.512   0.954   0.495 -1.3067  0.0679 -0.4287
  233MPD1    H1 3540   1.670   1.317   0.645 -1.7043  3.2722 -1.2142
  233MPD1    H2 3541   1.290   1.315   0.464  1.0749  1.3493 -0.6478
  233MPD1    H3 3542   1.469   1.424   0.608  0.3422  1.2334 -2.2011
  233MPD1     N 3543   1.721   1.068   0.625 -0.2026  0.4033  0.2414
  233MPD1    H5 3544   1.790   1.124   0.673 -2.0155  0.5779  2.6754
  233MPD1    N1 3545   1.291   1.068   0.397  0.0192 -0.1209 -0.3077
  233MPD1    H6 3546   1.235   1.129   0.336  1.8445  2.3605  0.5098
  233MPD1    H7 3547   1.311   0.983   0.345 -3.6932  0.0273 -2.0600
  234MPD1     C 3548   0.453   0.337   9.916  0.1186  0.9054  0.2853
  234MPD1    C1 3549   0.394   0.355   9.791  0.3827 -0.3422 -0.0815
  234MPD1    C2 3550   0.275   0.433   9.788  0.4806 -0.0595 -0.2723
  234MPD1    C3 3551   0.224   0.495   9.899 -0.0234 -0.7732  0.2879
  234MPD1    C4 3552   0.292   0.474  10.018  0.0046 -0.1389  0.3545
  234MPD1    C5 3553   0.407   0.400  10.024  0.5365 -0.1610  0.3722
  234MPD1     H 3554   0.234   0.466   9.693 -0.0681 -0.5545 -0.2095
  234MPD1    H1 3555   0.265   0.528  10.108 -0.1972  0.0095  0.2047
  234MPD1    H2 3556   0.543   0.278   9.930 -0.8856 -0.6751  0.1196
  234MPD1    H3 3557   0.459   0.402  10.119 -0.3883 -3.2223  0.9440
  234MPD1     N 3558   0.096   0.557   9.891  0.1157  0.0429 -1.0193
  234MPD1    H5 3559   0.051   0.558   9.800 -0.4349  0.7543 -0.7334
  234MPD1    N1 3560   0.461   0.316   9.674  0.3394  0.2982 -0.1640
  234MPD1    H6 3561   0.396   0.283   9.604 -1.5866  1.9537  0.8388
  234MPD1    H7 3562   0.530   0.241   9.678  0.4615  0.5504  2.5324
  235MPD1     C 3563   4.414   3.013   9.331  1.0868 -0.3465 -0.0437
  235MPD1    C1 3564   4.487   3.115   9.382 -0.6402 -0.3588  0.9140
  235MPD1    C2 3565   4.624   3.116   9.360 -1.0207 -0.4466  0.1361
  235MPD1    C3 3566   4.684   2.997   9.317  0.3896 -0.3423 -0.4505
  235MPD1    C4 3567   4.610   2.894   9.262 -0.3985 -0.2318 -0.3049
  235MPD1    C5 3568   4.474   2.901   9.270  0.0563 -0.2899  0.1064
  235MPD1     H 3569   4.678   3.203   9.396 -2.1610  1.3907 -2.6016
  235MPD1    H1 3570   4.659   2.810   9.214 -0.9629 -1.4271  1.2248
  235MPD1    H2 3571   4.306   3.018   9.343  1.0886 -3.6063  1.3252
  235MPD1    H3 3572   4.425   2.805   9.258  1.0300 -0.6577 -0.9112
  235MPD1     N 3573   0.098   2.988   9.309  0.4806 -0.7790 -0.3044
  235MPD1    H5 3574   0.150   3.065   9.350 -2.2849  1.4689 -1.0185
  235MPD1    N1 3575   4.430   3.232   9.430 -0.0330  0.2071  0.5309
  235MPD1    H6 3576   4.341   3.218   9.477  0.2515 -0.4338  0.8794
  235MPD1    H7 3577   4.487   3.281   9.499  2.1592 -2.1759  0.4434
  236MPD1     C 3578   0.115   3.720   9.625 -0.5323  0.3372 -0.7976
  236MPD1    C1 3579   0.197   3.823   9.666  0.1854 -0.5749  0.8424
  236MPD1    C2 3580   0.286   3.807   9.775  0.3201  0.0582 -0.7783
  236MPD1    C3 3581   0.299   3.678   9.827  0.4125  0.1243 -0.1559
  236MPD1    C4 3582   0.226   3.572   9.772 -0.4721  0.8414 -0.0731
  236MPD1    C5 3583   0.128   3.600   9.680  0.1148  0.0214 -0.5794
  236MPD1     H 3584   0.348   3.887   9.813  1.0599 -2.4043  3.2272
  236MPD1    H1 3585   0.241   3.468   9.799  0.2689  0.6164 -1.3899
  236MPD1    H2 3586   0.026   3.740   9.566 -1.8836 -0.7764  0.8698
  236MPD1    H3 3587   0.063   3.518   9.650 -1.1291  0.7235  0.1821
  236MPD1     N 3588   0.395   3.634   9.923 -1.2270  0.6352  0.3940
  236MPD1    H5 3589   0.399   3.538   9.956  1.6489  1.9345  3.7914
  236MPD1    N1 3590   0.166   3.953   9.632  0.0757  0.0292 -0.0888
  236MPD1    H6 3591   0.237   4.024   9.649  1.3232 -1.0865 -0.5805
  236MPD1    H7 3592   0.132   3.949   9.536 -2.7470  3.5994  0.7574
  237MPD1     C 3593   0.246   2.379  15.381 -0.3335 -0.4875 -0.2372
  237MPD1    C1 3594   0.190   2.346  15.260  0.2787 -0.1464 -0.8058
  237MPD1    C2 3595   0.052   2.324  15.258  0.1634  0.6417 -0.0020
  237MPD1    C3 3596   4.697   2.344  15.364  0.6949 -0.2923 -0.4507
  237MPD1    C4 3597   0.035   2.377  15.480  0.9045  0.6099  0.3695
  237MPD1    C5 3598   0.168   2.401  15.491  0.2038  0.1036  0.3661
  237MPD1     H 3599   0.011   2.282  15.166 -3.9651  0.2057  2.0498
  237MPD1    H1 3600   4.696   2.393  15.567 -0.1150 -1.8506  0.1137
  237MPD1    H2 3601   0.354   2.385  15.395 -0.1552 -0.1557 -1.7587
  237MPD1    H3 3602   0.212   2.434  15.584  2.3679 -0.2260 -0.5271
  237MPD1     N 3603   4.562   2.326  15.359 -0.3701 -0.5337 -0.2403
  237MPD1    H5 3604   4.528   2.329  15.454  0.2594 -0.7765 -0.0069
  237MPD1    N1 3605   0.272   2.299  15.158  0.4720  0.4376  0.1324
  237MPD1    H6 3606   0.363   2.343  15.148  1.4007 -2.1764 -2.7586
  237MPD1    H7 3607   0.222   2.295  15.069 -0.6608  1.3774  0.7185
  238MPD1     C 3608   1.815   0.933  15.305  0.2207  1.0691 -0.4624
  238MPD1    C1 3609   1.834   0.936  15.167 -0.4748  0.2754  0.2100
  238MPD1    C2 3610   1.723   0.936  15.084  0.3249  0.0607  0.0780
  238MPD1    C3 3611   1.598   0.967  15.141 -0.0118 -0.0986  0.0079
  238MPD1    C4 3612   1.584   0.979  15.280  0.4103  0.2242 -0.2609
  238MPD1    C5 3613   1.690   0.952  15.357 -0.4777 -0.7459 -0.1600
  238MPD1     H 3614   1.739   0.935  14.977  0.8926 -1.0397  0.1732
  238MPD1    H1 3615   1.492   1.004  15.332 -1.0081 -1.0011 -2.1946
  238MPD1    H2 3616   1.896   0.911  15.373  1.3811  0.6274 -1.9769
  238MPD1    H3 3617   1.681   0.957  15.465  0.9938  1.4296 -0.1236
  238MPD1     N 3618   1.486   0.979  15.066 -0.2649 -0.5080 -0.4687
  238MPD1    H5 3619   1.410   1.022  15.117 -0.4292  0.6890 -1.7203
  238MPD1    N1 3620   1.954   0.897  15.115 -0.8132  0.3326  0.3548
  238MPD1    H6 3621   2.029   0.929  15.176 -0.8242  0.6105  0.2240
  238MPD1    H7 3622   1.974   0.943  15.027  0.5170 -0.2014  0.3773
  239MPD1     C 3623   1.974   1.738  15.331  0.1149 -0.5141 -0.0078
  239MPD1    C1 3624   1.854   1.805  15.350  0.1954 -0.3097  0.0172
  239MPD1    C2 3625   1.802   1.873  15.241  0.4474  0.2386 -0.3831
  239MPD1    C3 3626   1.868   1.865  15.118 -0.3495 -0.0125 -0.1413
  239MPD1    C4 3627   1.998   1.814  15.098  0.2057  0.0401 -0.8515
  239MPD1    C5 3628   2.042   1.752  15.213 -0.3341 -0.2628 -0.1258
  239MPD1     H 3629   1.713   1.932  15.261  1.0584  1.4852 -1.3129
  239MPD1    H1 3630   2.051   1.814  15.003  0.5065 -0.0766 -0.6831
  239MPD1    H2 3631   2.025   1.690  15.414  0.2361  1.5494  1.1045
  239MPD1    H3 3632   2.139   1.703  15.207  1.4810  3.5691 -1.7170
  239MPD1     N 3633   1.815   1.919  14.999 -0.4657  0.2068  0.4447
  239MPD1    H5 3634   1.875   1.950  14.924 -2.1337 -2.1755 -1.8971
  239MPD1    N1 3635   1.803   1.822  15.486 -0.0837  0.8888  0.1641
  239MPD1    H6 3636   1.808   1.730  15.529 -1.5343  0.5364 -0.4373
  239MPD1    H7 3637   1.702   1.833  15.476 -0.0903  2.1096  1.5327
  240MPD1     C 3638   1.164   1.988  13.992 -0.3172  0.0119 -1.3114
  240MPD1    C1 3639   1.040   1.937  13.997 -0.7382 -1.0781 -0.1686
  240MPD1    C2 3640   1.021   1.831  14.088 -0.1659  0.1466 -0.3502
  240MPD1    C3 3641   1.116   1.771  14.168  0.2285 -0.2631 -0.2003
  240MPD1    C4 3642   1.247   1.811  14.147  0.1588  0.3925 -0.5115
  240MPD1    C5 3643   1.263   1.914  14.049 -0.1846 -0.3537 -0.0795
  240MPD1     H 3644   0.917   1.809  14.109  0.2549 -1.7632 -0.2895
  240MPD1    H1 3645   1.340   1.773  14.188 -0.2109 -1.2258 -1.1937
  240MPD1    H2 3646   1.187   2.079  13.936  0.9961  0.9304  0.7011
  240MPD1    H3 3647   1.362   1.958  14.047  0.6237 -2.1304  0.4859
  240MPD1     N 3648   1.078   1.671  14.261  0.5750 -0.0425  0.5402
  240MPD1    H5 3649   0.980   1.648  14.271  0.3776 -0.4701 -2.3723
  240MPD1    N1 3650   0.931   2.010  13.950 -0.0097  0.0724 -0.5416
  240MPD1    H6 3651   0.957   2.047  13.859 -3.7031 -0.3801 -1.7824
  240MPD1    H7 3652   0.848   1.952  13.955 -1.1058  1.7441  0.7177
  241MPD1     C 3653   1.471   1.284  15.099 -0.2841  0.4693 -0.5953
  241MPD1    C1 3654   1.341   1.251  15.109 -0.3510 -0.1357 -0.1887
  241MPD1    C2 3655   1.262   1.285  15.002  0.0036  0.1946 -0.0528
  241MPD1    C3 3656   1.313   1.352  14.891  0.3602 -0.2175 -0.4535
  241MPD1    C4 3657   1.447   1.382  14.883  0.5084 -0.3397  0.8418
  241MPD1    C5 3658   1.514   1.345  14.992 -0.4288  0.3360 -0.4010
  241MPD1     H 3659   1.155   1.272  15.010  0.1783  1.2655  4.0485
  241MPD1    H1 3660   1.484   1.442  14.801  0.5391 -0.6021  0.6650
  241MPD1    H2 3661   1.532   1.260  15.186 -0.1745 -2.2709 -1.4164
  241MPD1    H3 3662   1.619   1.369  14.984 -0.7587  1.4721 -1.4499
  241MPD1     N 3663   1.239   1.390  14.779 -0.2468 -0.1812  0.5525
  241MPD1    H5 3664   1.292   1.437  14.706  0.9811 -2.9714 -0.3550
  241MPD1    N1 3665   1.288   1.171  15.209  0.0637  0.2940  0.7114
  241MPD1    H6 3666   1.191   1.195  15.227  0.6881  2.5829  1.0202
  241MPD1    H7 3667   1.342   1.194  15.292 -0.5008  2.5539  0.4269
  242MPD1     C 3668   0.750   0.054  15.790 -0.5060 -0.1829 -0.0721
  242MPD1    C1 3669   0.643   0.013  15.713  0.1445  0.3274 -0.4547
  242MPD1    C2 3670   0.646   4.711  15.583  0.4410  0.2101  0.0870
  242MPD1    C3 3671   0.756   0.028  15.510  0.1260 -0.5345 -0.6875
  242MPD1    C4 3672   0.866   0.064  15.581 -0.0017  0.4267 -0.2638
  242MPD1    C5 3673   0.868   0.062  15.720 -0.2877  0.2881 -0.6228
  242MPD1     H 3674   0.551   4.685  15.539  0.3300 -0.9637  1.0315
  242MPD1    H1 3675   0.964   0.083  15.540 -0.3992  0.8769 -0.9984
  242MPD1    H2 3676   0.742   0.067  15.897  0.9538 -1.5706  0.2124
  242MPD1    H3 3677   0.966   0.065  15.767 -0.6041  1.5760 -0.0420
  242MPD1     N 3678   0.755   0.027  15.368 -0.5548  0.1249  0.5471
  242MPD1    H5 3679   0.840   0.054  15.321 -1.1778 -1.6502 -1.5624
  242MPD1    N1 3680   0.519   0.022  15.779  0.1355  0.2789 -0.7378
  242MPD1    H6 3681   0.516   4.696  15.868  1.7624  1.5581  0.0259
  242MPD1    H7 3682   0.436   4.711  15.733  0.2135 -1.2719  0.3023
  243MPD1     C 3683   3.115   3.894  17.545 -0.5818 -0.2739  0.3412
  243MPD1    C1 3684   2.980   3.937  17.552 -0.2686  0.7645 -0.0793
  243MPD1    C2 3685   2.893   3.901  17.451 -0.0268  0.2726 -0.2848
  243MPD1    C3 3686   2.936   3.829  17.343 -1.1932  0.2726  0.0159
  243MPD1    C4 3687   3.071   3.810  17.328  0.1414 -0.5271 -0.0089
  243MPD1    C5 3688   3.154   3.845  17.426 -0.2281  0.6321 -0.5065
  243MPD1     H 3689   2.787   3.922  17.458  0.3834  1.6096  1.9545
  243MPD1    H1 3690   3.111   3.752  17.245  0.2473  1.0129 -1.0238
  243MPD1    H2 3691   3.192   3.921  17.616 -0.4035 -1.4694  0.6154
  243MPD1    H3 3692   3.258   3.823  17.404 -0.9752 -2.3743 -1.0541
  243MPD1     N 3693   2.840   3.793  17.247 -0.0096  0.1408  0.0972
  243MPD1    H5 3694   2.742   3.800  17.274  0.3652 -0.0442  1.4933
  243MPD1    N1 3695   2.935   3.985  17.674  0.6151 -0.1802 -0.5526
  243MPD1    H6 3696   3.003   4.055   0.007  0.7141 -0.5165  0.0014
  243MPD1    H7 3697   2.845   4.032  17.674  0.3982 -0.5863 -2.2503
  244MPD1     C 3698   2.253   3.421  17.652 -0.4988  0.2877 -0.2920
  244MPD1    C1 3699   2.297   3.549  17.647  0.7174 -1.1216  0.1820
  244MPD1    C2 3700   2.355   3.597  17.529  0.2824 -0.0396  0.1971
  244MPD1    C3 3701   2.355   3.515  17.414  0.2474  0.3733  0.4605
  244MPD1    C4 3702   2.282   3.399  17.415  0.2732 -0.7763  0.4946
  244MPD1    C5 3703   2.221   3.358  17.535 -0.1946 -0.6499 -0.3386
  244MPD1     H 3704   2.418   3.685  17.532  0.1088  0.1165 -0.6407
  244MPD1    H1 3705   2.281   3.326  17.334 -0.6533  1.1287 -1.2144
  244MPD1    H2 3706   2.212   3.371   0.042 -2.2626 -1.5465 -2.1901
  244MPD1    H3 3707   2.174   3.261  17.541  2.2991 -1.9115 -0.8920
  244MPD1     N 3708   2.438   3.553  17.304 -0.1056 -0.1774  0.2974
  244MPD1    H5 3709   2.499   3.632  17.322  0.5322 -0.6534  0.2464
  244MPD1    N1 3710   2.326   3.611   0.069  0.0614  0.2239  0.0924
  244MPD1    H6 3711   2.341   3.711   0.056 -0.9712  0.1898 -1.4303
  244MPD1    H7 3712   2.251   3.600   0.137  0.2789 -1.1375  0.1054
  245MPD1     C 3713   0.362   4.410  12.613  0.5338  0.1314 -0.5730
  245MPD1    C1 3714   0.414   4.488  12.707  0.1895  0.4934  0.0046
  245MPD1    C2 3715   0.337   4.505  12.818 -0.1293 -0.3594 -0.4199
  245MPD1    C3 3716   0.226   4.427  12.843  1.0804  0.0894 -0.1856
  245MPD1    C4 3717   0.180   4.341  12.751 -0.3303  0.0417  0.0158
  245MPD1    C5 3718   0.253   4.334  12.638 -0.5037  0.3010 -0.1817
  245MPD1     H 3719   0.372   4.575  12.893 -0.1834  0.3523 -1.0650
  245MPD1    H1 3720   0.094   4.278  12.767 -1.1049  0.6019 -1.8631
  245MPD1    H2 3721   0.404   4.411  12.513 -0.1232 -1.7290 -0.8769
  245MPD1    H3 3722   0.216   4.272  12.557  1.1598  1.0932 -1.5295
  245MPD1     N 3723   0.175   4.449  12.967  0.0008 -0.3026 -0.6198
  245MPD1    H5 3724   0.213   4.526  13.021  0.1102 -0.5564 -0.3354
  245MPD1    N1 3725   0.505   4.581  12.668 -0.1556 -0.0250  0.5569
  245MPD1    H6 3726   0.573   4.539  12.605  0.2208  2.0446 -0.4161
  245MPD1    H7 3727   0.560   4.625  12.742  0.1123 -1.7179  1.3574
  246MPD1     C 3728   2.343   0.543   9.094  0.0844  0.5728  0.3161
  246MPD1    C1 3729   2.369   0.411   9.058  0.3299  0.5482  0.6097
  246MPD1    C2 3730   2.267   0.339   9.003 -0.1799 -0.0210 -0.1010
  246MPD1    C3 3731   2.139   0.388   9.003  0.5611  0.1525  0.7341
  246MPD1    C4 3732   2.110   0.515   9.050 -0.2161 -0.0897  0.1572
  246MPD1    C5 3733   2.215   0.593   9.093  0.5009 -0.1650 -0.6465
  246MPD1     H 3734   2.283   0.239   8.965  0.4849  0.2478 -0.5227
  246MPD1    H1 3735   2.016   0.567   9.035 -0.7993 -0.4781  2.5298
  246MPD1    H2 3736   2.414   0.611   9.138 -0.5438  0.8070  0.9598
  246MPD1    H3 3737   2.199   0.693   9.132 -2.2729 -0.0027 -2.2128
  246MPD1     N 3738   2.038   0.307   8.957  0.8243  0.1410 -0.6896
  246MPD1    H5 3739   2.064   0.215   8.923 -0.3145 -0.5521  0.3218
  246MPD1    N1 3740   2.505   0.369   9.052  0.5725  0.2230 -0.0995
  246MPD1    H6 3741   2.557   0.414   9.128 -0.4541 -0.3419  0.9224
  246MPD1    H7 3742   2.520   0.269   9.053  0.8026  0.2676  1.8503
  247MPD1     C 3743   2.690   3.179  15.861  0.6675 -0.2077  0.0738
  247MPD1    C1 3744   2.805   3.114  15.827  0.3567 -0.0221 -0.2553
  247MPD1    C2 3745   2.925   3.153  15.895 -0.4166  0.5176  0.7580
  247MPD1    C3 3746   2.925   3.272  15.967 -0.9617  0.3824 -0.2134
  247MPD1    C4 3747   2.803   3.342  15.986  0.1016 -0.4114  0.5810
  247MPD1    C5 3748   2.686   3.286  15.945 -0.3166 -0.3229  0.1372
  247MPD1     H 3749   3.018   3.101  15.873 -1.0202  0.1676 -1.0134
  247MPD1    H1 3750   2.799   3.437  16.038 -2.0810  0.1812 -0.6550
  247MPD1    H2 3751   2.592   3.149  15.826 -0.8756  3.0168  1.6059
  247MPD1    H3 3752   2.599   3.343  15.976  0.1009  0.3272  0.0938
  247MPD1     N 3753   3.037   3.328  16.026  0.2333  0.2480  0.0842
  247MPD1    H5 3754   3.020   3.397  16.098 -0.5048  2.2686 -2.0123
  247MPD1    N1 3755   2.801   3.005  15.736  0.2682 -0.3145  0.3378
  247MPD1    H6 3756   2.835   2.923  15.786 -2.8285 -1.0176  1.2731
  247MPD1    H7 3757   2.705   2.984  15.712 -0.6359  3.5976  0.5002
  248MPD1     C 3758   0.096   3.466  17.513 -0.0290 -0.1229 -0.0652
  248MPD1    C1 3759   0.107   3.493  17.648  0.3962 -0.9666  0.0466
  248MPD1    C2 3760   0.072   3.621  17.694 -0.3171  0.1252 -0.2967
  248MPD1    C3 3761   0.032   3.718  17.598 -0.3865  0.2909  0.1148
  248MPD1    C4 3762   0.015   3.685  17.468  0.0126  0.2309 -0.0855
  248MPD1    C5 3763   0.046   3.558  17.426  0.1667  0.4773 -0.1806
  248MPD1     H 3764   0.091   3.658   0.097  0.4865  1.5028 -0.9765
  248MPD1    H1 3765   4.698   3.757  17.398 -0.3188 -0.0324 -0.1630
  248MPD1    H2 3766   0.100   3.364  17.476  1.2411 -0.4778  1.0452
  248MPD1    H3 3767   0.028   3.536  17.321 -1.3705  0.2981  0.1101
  248MPD1     N 3768   4.716   3.847  17.642  0.1053  0.8685  0.3310
  248MPD1    H5 3769   4.713   3.860   0.045 -1.9744  1.1772  0.2238
  248MPD1    N1 3770   0.137   3.391   0.041 -0.0485 -0.1593 -0.1747
  248MPD1    H6 3771   0.206   3.322   0.013 -1.9347 -1.8393 -0.6688
  248MPD1    H7 3772   0.179   3.424   0.128 -1.1082  1.2497 -0.2081
  249MPD1     C 3773   1.833   1.464  10.258  0.4046  0.4627 -0.5146
  249MPD1    C1 3774   1.914   1.500  10.157 -0.2107  0.1222  0.1864
  249MPD1    C2 3775   1.881   1.620  10.089 -0.5761 -0.1718 -0.2683
  249MPD1    C3 3776   1.756   1.673  10.103 -0.4773 -0.0178 -0.0528
  249MPD1    C4 3777   1.673   1.628  10.202  0.9056  0.1661 -0.2271
  249MPD1    C5 3778   1.710   1.522  10.270 -0.0042 -0.0617  0.5010
  249MPD1     H 3779   1.950   1.660  10.016 -0.4473  1.0206  0.5060
  249MPD1    H1 3780   1.577   1.674  10.222  0.4209 -0.4642 -1.1148
  249MPD1    H2 3781   1.864   1.380  10.320  3.6611  1.3083 -0.9714
  249MPD1    H3 3782   1.658   1.486  10.358  2.6826  0.8651  2.4650
  249MPD1     N 3783   1.718   1.777  10.012  0.2139 -0.0126  0.1387
  249MPD1    H5 3784   1.790   1.807   9.947  0.4407  0.7159  0.7215
  249MPD1    N1 3785   2.039   1.442  10.150 -0.4570  0.0150  0.2397
  249MPD1    H6 3786   2.100   1.475  10.224  0.7342  0.6132 -1.0234
  249MPD1    H7 3787   2.086   1.469  10.064  0.6890  0.4354  0.9981
  250MPD2     C 3788   2.418   2.148  13.435  0.2278 -0.0788  0.1840
  250MPD2    C1 3789   2.313   2.190  13.355  0.3490  0.8508  0.7626
  250MPD2    C2 3790   2.275   2.103  13.254  0.5153 -0.4355 -0.1185
  250MPD2    C3 3791   2.327   1.978  13.233  0.2746  0.0920 -0.0807
  250MPD2    C4 3792   2.415   1.930  13.327 -0.1913  0.5574  0.4772
  250MPD2    C5 3793   2.460   2.015  13.424 -0.5060 -0.2671  0.4909
  250MPD2     H 3794   2.191   2.133  13.192  0.1253 -2.1355 -0.4092
  250MPD2    H1 3795   2.463   1.834  13.338 -0.2675  0.6434  1.5601
  250MPD2    H2 3796   2.458   2.222  13.503 -0.2256  0.3628 -0.0313
  250MPD2    H3 3797   2.528   1.986  13.504 -0.6393 -0.6794  0.4489
  250MPD2     N 3798   2.274   1.881  13.148  0.1704 -0.2105 -0.1455
  250MPD2    H5 3799   2.318   1.790  13.146  2.9719  1.1769 -0.9462
  250MPD2    N1 3800   2.265   2.325  13.371  0.2719 -0.2645 -0.1052
  250MPD2    H7 3801   2.301   2.377  13.450  1.4801  0.7249 -1.3098
  251TMC3    C1 3802   2.139   2.521  13.357  0.4281 -0.3864 -0.0691
  251TMC3    C2 3803   2.038   2.590  13.302  0.0274 -0.3612  0.4707
  251TMC3    C3 3804   2.018   2.720  13.331 -0.4990  0.0630  0.3313
  251TMC3    C4 3805   2.229   2.584  13.436 -0.3011 -0.7031 -0.1385
  251TMC3    C5 3806   2.216   2.721  13.459  0.3058  0.4723 -0.8467
  251TMC3    C6 3807   2.106   2.787  13.408  0.6504 -0.6069 -0.1422
  251TMC3     C 3808   2.160   2.386  13.306 -0.1918 -0.2147 -1.0116
  251TMC3     O 3809   2.099   2.333  13.216 -0.4819  0.4875 -0.1013
  251TMC3     H 3810   1.975   2.537  13.232 -1.0872  1.5088  0.0735
  251TMC3    H1 3811   2.313   2.532  13.479 -1.7028 -1.4175  1.7647
  251TMC3    H2 3812   2.084   2.893  13.412  1.0006 -0.5571  0.5258
  251TMC3    C7 3813   2.318   2.793  13.533 -0.0935  1.2275 -0.2082
  251TMC3    C8 3814   1.905   2.797  13.270  0.1298 -0.1583  0.2710
  251TMC3    O1 3815   2.419   2.725  13.566  0.0528  0.2496 -0.7213
  251TMC3    O2 3816   1.888   2.913  13.315 -0.2164  0.0465  0.5708
  252TMC3    C1 3817   3.954   2.723   9.539 -0.2705  0.7165 -0.3546
  252TMC3    C2 3818   3.994   2.859   9.532 -0.1069 -0.9431  1.0084
  252TMC3    C3 3819   3.953   2.927   9.417 -1.2317 -0.0607  0.3149
  252TMC3    C4 3820   3.886   2.665   9.441  0.2571  0.6676 -0.0005
  252TMC3    C5 3821   3.856   2.738   9.334 -0.6743  0.1663 -0.6093
  252TMC3    C6 3822   3.890   2.868   9.313 -0.0757 -0.0493 -0.4420
  252TMC3     C 3823   4.019   2.637   9.638 -0.5184  1.1360 -0.5218
  252TMC3     O 3824   3.958   2.531   9.657  0.4244  0.5048 -1.0335
  252TMC3     H 3825   4.043   2.922   9.606  0.8750 -0.3391 -0.1577
  252TMC3    H1 3826   3.856   2.561   9.442 -0.7612  0.9501 -1.8392
  252TMC3    H2 3827   3.862   2.921   9.223 -2.3032 -2.1322 -0.9671
  252TMC3    C7 3828   3.750   2.694   9.242 -0.1695 -0.3396 -0.7196
  252TMC3    C8 3829   4.004   3.066   9.400 -0.2458  0.1386  0.0717
  252TMC3    O1 3830   3.754   2.740   9.131 -0.1714  0.0170  0.1853
  252TMC3    O2 3831   4.060   3.092   9.294  0.2469 -0.3229 -0.1281
  253MPD2     C 3832   4.253   2.695  14.958 -0.5242 -0.7172 -0.1058
  253MPD2    C1 3833   4.127   2.647  14.974  0.1571  0.1496 -0.7301
  253MPD2    C2 3834   4.089   2.597  15.098  0.4151 -0.4288  0.1936
  253MPD2    C3 3835   4.172   2.594  15.209  0.5008 -0.2893  0.0238
  253MPD2    C4 3836   4.288   2.659  15.192 -1.1350  0.0618  0.4582
  253MPD2    C5 3837   4.330   2.705  15.072  0.2781  0.0025 -0.4398
  253MPD2     H 3838   3.984   2.570  15.101 -0.2259  1.8989 -1.3196
  253MPD2    H1 3839   4.361   2.668  15.272 -1.8244 -0.4827  1.1549
  253MPD2    H2 3840   4.291   2.717  14.859  0.5977 -4.3593 -0.4746
  253MPD2    H3 3841   4.424   2.759  15.065 -0.7304  1.5405 -2.2986
  253MPD2     N 3842   4.148   2.531  15.332  0.5317  0.2377 -0.3410
  253MPD2    H5 3843   4.205   2.557  15.411  0.2920 -1.5905  0.4430
  253MPD2    N1 3844   4.022   2.652  14.884  0.1466  0.1087 -0.3059
  253MPD2    H7 3845   3.939   2.598  14.904  0.5813 -0.6156 -0.4399
  254TMC3    C1 3846   4.006   2.445  15.499 -0.1696 -0.0009 -0.5391
  254TMC3    C2 3847   3.877   2.424  15.535  0.1577 -0.0880  0.9604
  254TMC3    C3 3848   3.853   2.398  15.666  0.7167  0.1307 -0.0549
  254TMC3    C4 3849   4.107   2.449  15.593 -0.3850 -0.3693 -0.8953
  254TMC3    C5 3850   4.071   2.419  15.728 -0.7482 -0.1080  0.5480
  254TMC3    C6 3851   3.941   2.404  15.766 -0.2057 -0.1696  0.6149
  254TMC3     C 3852   4.030   2.467  15.357 -0.7017 -0.1840  0.6207
  254TMC3     O 3853   3.949   2.431  15.278  0.2694  0.5938  0.1869
  254TMC3     H 3854   3.801   2.430  15.457  2.1230  1.6312 -0.8267
  254TMC3    H1 3855   4.211   2.466  15.569 -0.1832  0.5203  0.6075
  254TMC3    H2 3856   3.925   2.362  15.865  1.2215  1.6551  1.6175
  254TMC3    C7 3857   4.173   2.437  15.832  0.1178  0.6236  0.0257
  254TMC3    C8 3858   3.719   2.375  15.711 -0.4627 -0.4122  0.3102
  254TMC3    O1 3859   4.273   2.499  15.794  0.0132 -0.0955  0.7189
  254TMC3    O2 3860   3.697   2.401  15.831 -0.0001 -0.2234 -0.2562
  255MPD2     C 3861   1.960   3.991  10.653  0.6450  0.6351  0.1373
  255MPD2    C1 3862   2.080   4.051  10.646  0.6877 -0.1093  0.4013
  255MPD2    C2 3863   2.177   3.976  10.581 -0.2936  0.3614  0.5771
  255MPD2    C3 3864   2.152   3.843  10.534 -0.2909  0.4500  0.4920
  255MPD2    C4 3865   2.025   3.786  10.545  0.0456  0.4336  0.1830
  255MPD2    C5 3866   1.932   3.867  10.605 -0.3920 -0.1769 -0.1694
  255MPD2     H 3867   2.277   4.014  10.563  0.0805 -0.7148  0.3833
  255MPD2    H1 3868   2.007   3.685  10.509  0.3413  0.0190  1.1804
  255MPD2    H2 3869   1.877   4.046  10.696 -0.2214  0.3451 -1.1570
  255MPD2    H3 3870   1.835   3.819  10.607  0.1563 -1.1922  2.4726
  255MPD2     N 3871   2.261   3.776  10.466  0.0239 -0.2662  1.3902
  255MPD2    H5 3872   2.352   3.817  10.482 -1.1244  3.2025 -1.0135
  255MPD2    N1 3873   2.094   4.188  10.685 -0.6564  0.1290 -0.1961
  255MPD2    H7 3874   2.018   4.233  10.734  1.3362  2.2552  0.9804
  256TMC3    C1 3875   2.192   4.404  10.708 -0.5455 -0.5420  0.0579
  256TMC3    C2 3876   2.309   4.466  10.716  0.0920  0.3684  0.1050
  256TMC3    C3 3877   2.307   4.604  10.690 -0.2096 -0.1445 -0.6646
  256TMC3    C4 3878   2.072   4.469  10.680 -0.6038 -0.2764  0.0851
  256TMC3    C5 3879   2.077   4.601  10.647 -0.2825  0.0759  0.1791
  256TMC3    C6 3880   2.192   4.672  10.654 -0.2765 -0.1293  0.2212
  256TMC3     C 3881   2.206   4.265  10.660 -0.6132 -0.4458  0.0612
  256TMC3     O 3882   2.316   4.229  10.622 -0.2025  0.1193  0.0678
  256TMC3     H 3883   2.399   4.411  10.740 -0.3822 -0.0770  0.8680
  256TMC3    H1 3884   1.982   4.410  10.670 -0.6647  0.2500 -2.5828
  256TMC3    H2 3885   2.184   0.055  10.639 -0.4418 -0.5070 -2.4883
  256TMC3    C7 3886   1.997   4.639  10.525  0.2326  0.0417 -0.4142
  256TMC3    C8 3887   2.434   4.658  10.663  0.4677  0.1719 -0.2166
  256TMC3    O1 3888   1.951   4.544  10.467 -0.0828  0.1060 -0.3818
  256TMC3    O2 3889   2.523   4.588  10.712  0.0181 -0.1567 -0.4380
  257MPD2     C 3890   1.140   2.112  13.522  0.4713  0.1096 -0.4715
  257MPD2    C1 3891   1.189   2.075  13.403  0.2888 -0.2933 -0.6291
  257MPD2    C2 3892   1.236   1.948  13.385  0.0140 -0.0667 -0.2189
  257MPD2    C3 3893   1.239   1.857  13.493 -0.3404  0.7781 -0.2775
  257MPD2    C4 3894   1.187   1.896  13.613 -0.0143 -0.4636 -0.5287
  257MPD2    C5 3895   1.135   2.025  13.629 -0.4015 -0.1020  0.5561
  257MPD2     H 3896   1.277   1.911  13.292  0.3748  0.5300 -0.2984
  257MPD2    H1 3897   1.200   1.842  13.707 -1.0741  1.2771  0.6204
  257MPD2    H2 3898   1.103   2.212  13.540  0.7157 -0.2243  1.9896
  257MPD2    H3 3899   1.099   2.043  13.730 -0.5047  0.1829  0.4683
  257MPD2     N 3900   1.308   1.735  13.477  0.0154  0.0981  0.4702
  257MPD2    H5 3901   1.340   1.712  13.384  0.5612  1.0015  0.4393
  257MPD2    N1 3902   1.182   2.167  13.300 -0.2743 -0.5015  1.2424
  257MPD2    H7 3903   1.115   2.243  13.312 -0.6117 -0.4286 -1.1376
  258TMC3    C1 3904   1.434   1.551  13.554 -0.0774 -0.6775 -0.8394
  258TMC3    C2 3905   1.539   1.603  13.484  0.2501  0.1046  1.5197
  258TMC3    C3 3906   1.665   1.558  13.512 -0.3210  0.0633  0.6093
  258TMC3    C4 3907   1.465   1.468  13.659  0.4992 -0.4784 -0.4359
  258TMC3    C5 3908   1.596   1.446  13.702 -0.3787  0.2437  0.1874
  258TMC3    C6 3909   1.701   1.488  13.624 -0.3973  0.3038  0.3906
  258TMC3     C 3910   1.316   1.630  13.573  0.7039 -0.5034 -0.0981
  258TMC3     O 3911   1.261   1.610  13.681  0.5571  0.2604 -0.3932
  258TMC3     H 3912   1.515   1.647  13.388 -0.6530  0.2159  1.7973
  258TMC3    H1 3913   1.384   1.443  13.727  0.6593  0.5659  0.1497
  258TMC3    H2 3914   1.805   1.458  13.632 -0.1237  0.9507 -0.6671
  258TMC3    C7 3915   1.609   1.353  13.813 -0.8581 -0.2977 -0.3178
  258TMC3    C8 3916   1.749   1.528  13.391 -0.0175  0.1345 -0.0532
  258TMC3    O1 3917   1.518   1.275  13.837  0.2660  0.2609 -0.5713
  258TMC3    O2 3918   1.699   1.509  13.281  0.9701 -0.5927  0.6192
  259MPD2     C 3919   4.664   4.414   0.767  0.0352  0.3177  0.4043
  259MPD2    C1 3920   4.634   4.287   0.814 -0.5231  0.7028  0.3443
  259MPD2    C2 3921   0.001   4.191   0.809  0.7556 -0.1526  0.4201
  259MPD2    C3 3922   0.117   4.205   0.729 -0.3238  0.1771 -0.4879
  259MPD2    C4 3923   0.133   4.327   0.665 -0.6558  0.1780 -0.3860
  259MPD2    C5 3924   0.051   4.432   0.686 -0.2233  0.2352  0.7308
  259MPD2     H 3925   4.705   4.096   0.857  0.3169  0.6476  1.8053
  259MPD2    H1 3926   0.222   4.345   0.607 -0.9153  1.2262 -0.4458
  259MPD2    H2 3927   4.598   4.499   0.782  1.9333  1.5157  2.1152
  259MPD2    H3 3928   0.071   4.530   0.644  2.1541 -1.6454 -2.5546
  259MPD2     N 3929   0.205   4.095   0.735 -0.3922  0.3314 -0.5649
  259MPD2    H5 3930   0.173   4.010   0.781  0.3475  0.1950 -0.2981
  259MPD2    N1 3931   4.516   4.270   0.888  0.1305  0.4623 -0.2179
  259MPD2    H7 3932   4.456   4.352   0.890  1.2920  1.2995  0.8287
  260TMC3    C1 3933   0.406   3.981   0.701 -0.7799  0.0908 -0.2921
  260TMC3    C2 3934   0.541   4.001   0.679 -0.3694  0.4271  0.2023
  260TMC3    C3 3935   0.622   3.891   0.677 -0.4964 -0.0305 -0.4492
  260TMC3    C4 3936   0.349   3.859   0.731 -0.8542 -0.5907 -0.4696
  260TMC3    C5 3937   0.437   3.753   0.724  0.1123  0.1143  0.0769
  260TMC3    C6 3938   0.569   3.767   0.702 -1.0212 -0.9656 -0.1688
  260TMC3     C 3939   0.329   4.102   0.674  0.0785 -0.0591  0.0038
  260TMC3     O 3940   0.381   4.195   0.609  0.5980  0.4213 -0.2668
  260TMC3     H 3941   0.583   4.096   0.650  1.1320  0.5640  2.8062
  260TMC3    H1 3942   0.243   3.844   0.715 -0.5535 -1.6942 -1.4435
  260TMC3    H2 3943   0.631   3.678   0.708  0.6853  0.5192  3.7975
  260TMC3    C7 3944   0.376   3.626   0.694  0.3286  0.2348  0.7436
  260TMC3    C8 3945   0.771   3.903   0.704 -0.1613  0.0080  0.3936
  260TMC3    O1 3946   0.436   3.551   0.621 -0.3404  0.7368  0.0363
  260TMC3    O2 3947   0.813   4.011   0.739 -0.4480  0.6320 -0.1316
  261MPD2     C 3948   1.833   2.137  12.539 -0.1760 -0.5998  0.4266
  261MPD2    C1 3949   1.957   2.090  12.516  0.0889 -0.2654 -0.7133
  261MPD2    C2 3950   2.034   2.123  12.403  0.7357  0.1139 -0.2274
  261MPD2    C3 3951   1.978   2.206  12.312  0.1720  0.1565 -0.7001
  261MPD2    C4 3952   1.847   2.248  12.329  0.0987  0.0158 -0.7483
  261MPD2    C5 3953   1.775   2.221  12.444  0.0700  0.3086 -0.8995
  261MPD2     H 3954   2.135   2.086  12.390  1.0351  0.5549  0.8776
  261MPD2    H1 3955   1.792   2.298  12.250 -1.3161  1.6371  1.2615
  261MPD2    H2 3956   1.783   2.122  12.634  0.6581 -1.2113  0.7598
  261MPD2    H3 3957   1.674   2.259  12.459  0.2101 -0.7286  2.6333
  261MPD2     N 3958   2.051   2.251  12.195  0.0310 -0.6033 -0.3236
  261MPD2    H5 3959   2.139   2.202  12.183  1.0412  0.9430  0.7498
  261MPD2    N1 3960   2.021   2.020  12.622 -0.1039 -0.7258 -0.2370
  261MPD2    H7 3961   1.972   2.022  12.711 -0.6394  1.3969 -0.5667
  262TMC3    C1 3962   2.096   2.347  11.986  0.6246 -1.4155 -0.4844
  262TMC3    C2 3963   2.074   2.455  11.909 -0.4212 -0.7962  0.1117
  262TMC3    C3 3964   2.107   2.460  11.779  0.2664  0.6378 -0.1302
  262TMC3    C4 3965   2.168   2.240  11.938  0.3124  0.2074  0.5138
  262TMC3    C5 3966   2.225   2.257  11.811  0.1196 -0.0148 -0.2629
  262TMC3    C6 3967   2.191   2.363  11.734 -0.2261  0.2904 -0.1579
  262TMC3     C 3968   2.014   2.343  12.109 -0.1272 -0.4095 -0.6268
  262TMC3     O 3969   1.925   2.425  12.121 -0.3136  0.3805  1.1059
  262TMC3     H 3970   2.025   2.540  11.956  1.7928  0.6200 -0.1197
  262TMC3    H1 3971   2.167   2.142  11.984  1.7896 -0.9584 -1.9245
  262TMC3    H2 3972   2.217   2.367  11.629  1.4380 -0.1403  0.2354
  262TMC3    C7 3973   2.268   2.133  11.749  0.2354 -0.2227 -0.2504
  262TMC3    C8 3974   2.115   2.589  11.714  0.0780 -0.1253 -0.8955
  262TMC3    O1 3975   2.208   2.037  11.794  0.2416  0.2064 -0.3530
  262TMC3    O2 3976   2.183   2.599  11.613  0.4798  0.2687 -0.0974
  263MPD2     C 3977   3.071   1.515  11.359 -0.1324 -0.1895  1.0464
  263MPD2    C1 3978   3.192   1.581  11.349  0.1051 -0.3772  0.1062
  263MPD2    C2 3979   3.208   1.688  11.263  0.3040 -0.1024  0.2955
  263MPD2    C3 3980   3.103   1.729  11.179 -0.2824 -0.2521  0.0827
  263MPD2    C4 3981   2.981   1.666  11.198 -0.1483 -0.1513 -0.0662
  263MPD2    C5 3982   2.965   1.563  11.290 -0.0632 -0.8525  0.6843
  263MPD2     H 3983   3.302   1.743  11.257  1.2566 -1.5892  1.3907
  263MPD2    H1 3984   2.891   1.702  11.148 -0.7369 -1.2241  0.2289
  263MPD2    H2 3985   3.053   1.436  11.431 -0.0084 -2.0809 -1.0095
  263MPD2    H3 3986   2.864   1.523  11.300 -0.8132  0.9285  0.1706
  263MPD2     N 3987   3.137   1.830  11.080 -0.4754  0.4884 -0.7519
  263MPD2    H5 3988   3.234   1.861  11.073  0.2037 -1.3212  0.5262
  263MPD2    N1 3989   3.294   1.542  11.448 -0.5808  0.6886 -0.2649
  263MPD2    H7 3990   3.270   1.458  11.500 -2.6873  2.3681  1.4917
  264TMC3    C1 3991   3.106   1.969  10.896  0.1116  0.0948  0.4652
  264TMC3    C2 3992   3.043   2.088  10.875 -0.2339  0.4247 -0.1599
  264TMC3    C3 3993   3.101   2.177  10.793 -0.1596 -0.2603 -0.9413
  264TMC3    C4 3994   3.220   1.932  10.837  0.7132  0.3397 -0.8043
  264TMC3    C5 3995   3.270   2.011  10.734  0.0821 -0.4087  0.3252
  264TMC3    C6 3996   3.218   2.140  10.726  0.1886  0.1546 -0.4427
  264TMC3     C 3997   3.046   1.876  10.990 -0.0970 -0.0442 -0.9559
  264TMC3     O 3998   2.944   1.825  10.952  0.5658 -0.2332 -0.1455
  264TMC3     H 3999   2.951   2.103  10.931 -0.4268  0.0408 -0.3759
  264TMC3    H1 4000   3.271   1.837  10.847 -1.5442 -1.0025 -2.0923
  264TMC3    H2 4001   3.260   2.213  10.657  1.5513  2.2343  2.6041
  264TMC3    C7 4002   3.413   2.012  10.745  0.2892 -0.7250 -0.0228
  264TMC3    C8 4003   3.126   2.305  10.854 -0.2651 -0.5534 -0.0350
  264TMC3    O1 4004   3.465   1.900  10.726 -0.1025  0.1509 -0.2879
  264TMC3    O2 4005   3.233   2.353  10.828  0.1656 -0.1463  0.2651
  265MPD2     C 4006   0.244   1.826  15.750 -0.0999  0.4166  0.1971
  265MPD2    C1 4007   0.248   1.948  15.679 -0.7936  0.4343  0.0241
  265MPD2    C2 4008   0.317   1.952  15.559  0.2230  0.4945 -0.5017
  265MPD2    C3 4009   0.390   1.840  15.515  0.7942 -0.2189  0.0629
  265MPD2    C4 4010   0.397   1.728  15.593 -0.3948  0.7003  0.2948
  265MPD2    C5 4011   0.319   1.718  15.707 -0.2701  0.5613  0.2450
  265MPD2     H 4012   0.343   2.046  15.513  1.3381 -0.8968 -2.6863
  265MPD2    H1 4013   0.456   1.639  15.571  0.5117  1.8915 -2.0914
  265MPD2    H2 4014   0.185   1.810  15.839 -0.0861  1.4470  0.3935
  265MPD2    H3 4015   0.305   1.625  15.762 -1.4207 -0.3063 -1.4987
  265MPD2     N 4016   0.473   1.842  15.402 -0.4576  0.4186 -0.4193
  265MPD2    H5 4017   0.533   1.762  15.383 -0.5588 -0.0392  1.1796
  265MPD2    N1 4018   0.200   2.069  15.737 -0.8647  0.5279 -0.2197
  265MPD2    H7 4019   0.229   2.151  15.685 -0.6877 -0.4155 -1.6288
  266TMC3    C1 4020   0.129   2.206  15.920  0.0304  0.0473 -0.1368
  266TMC3    C2 4021   0.148   2.209  16.056  0.0437 -0.3892 -0.0435
  266TMC3    C3 4022   0.117   2.323  16.128 -0.3006  0.2866  0.0723
  266TMC3    C4 4023   0.087   2.313  15.851 -0.8529 -0.1302 -0.5226
  266TMC3    C5 4024   0.062   2.427  15.929  0.2048 -0.4879 -0.2116
  266TMC3    C6 4025   0.066   2.433  16.069  0.1148 -0.6460 -0.3746
  266TMC3     C 4026   0.140   2.071  15.859 -0.4401 -0.3904 -0.0571
  266TMC3     O 4027   0.074   1.991  15.926  0.0641 -0.3549  0.2383
  266TMC3     H 4028   0.184   2.117  16.101 -0.2351 -0.0647  0.8428
  266TMC3    H1 4029   0.072   2.310  15.744  0.0844  1.9895 -0.7219
  266TMC3    H2 4030   0.053   2.528  16.120 -1.1868 -2.0529  1.9002
  266TMC3    C7 4031   0.009   2.547  15.863  0.3971 -0.2932 -0.8806
  266TMC3    C8 4032   0.158   2.334  16.264  0.6177  0.3995  0.3824
  266TMC3    O1 4033   4.679   2.526  15.752  0.1375 -0.1374 -0.6835
  266TMC3    O2 4034   0.237   2.244  16.286  0.1306 -0.0344  0.2447
  267MPD2     C 4035   2.239   4.439   0.142  0.0561  0.2014 -0.2167
  267MPD2    C1 4036   2.342   4.383   0.064  0.2289  0.3802  0.5945
  267MPD2    C2 4037   2.321   4.276  17.676  0.1696 -0.1119  0.7107
  267MPD2    C3 4038   2.194   4.229  17.659  0.4631  0.5073 -0.3100
  267MPD2    C4 4039   2.089   4.282   0.042 -0.6863  0.0124 -0.4786
  267MPD2    C5 4040   2.113   4.383   0.132  0.1651 -0.1484 -0.5623
  267MPD2     H 4041   2.402   4.226  17.625 -0.2000 -2.5615  2.5394
  267MPD2    H1 4042   1.992   4.239   0.021 -0.0455 -1.1174 -1.1348
  267MPD2    H2 4043   2.250   4.530   0.201  3.1304  0.4098 -1.1035
  267MPD2    H3 4044   2.044   4.420   0.206 -1.3687  0.1574 -2.1479
  267MPD2     N 4045   2.166   4.118  17.571  0.5145  0.0108 -0.1456
  267MPD2    H5 4046   2.074   4.076  17.584  1.7201 -1.8801  2.1105
  267MPD2    N1 4047   2.470   4.436   0.083  0.1781 -0.3668  0.4943
  267MPD2    H7 4048   2.488   4.495   0.164 -0.4407  2.4676 -1.4244
  268TMC3    C1 4049   2.694   4.432   0.072 -0.1973  0.0573  1.3834
  268TMC3    C2 4050   2.799   4.449  17.682  0.1805  0.4907 -0.0818
  268TMC3    C3 4051   2.923   4.403   0.031 -0.5523  0.0448 -0.0378
  268TMC3    C4 4052   2.707   4.364   0.188  0.3430  0.1344 -0.4235
  268TMC3    C5 4053   2.828   4.323   0.235  0.3173  0.4184  0.5628
  268TMC3    C6 4054   2.938   4.351   0.157  0.1648  0.1470 -0.7945
  268TMC3     C 4055   2.576   4.413  17.695 -0.1397 -0.7173 -0.4318
  268TMC3     O 4056   2.580   4.369  17.581 -0.0874 -0.0815 -0.5442
  268TMC3     H 4057   2.787   4.498  17.587 -0.9156  1.9444  0.8038
  268TMC3    H1 4058   2.617   4.320   0.229 -0.0738  2.1168  0.7878
  268TMC3    H2 4059   3.037   4.324   0.191 -1.0036  0.4507  2.8553
  268TMC3    C7 4060   2.830   4.208   0.319  0.2886 -0.2125 -0.2428
  268TMC3    C8 4061   3.038   4.468  17.662  0.1441 -0.4447  0.1439
  268TMC3    O1 4062   2.720   4.162   0.347  0.4318 -0.5170  0.8542
  268TMC3    O2 4063   3.117   4.516   0.045 -0.1491 -0.0511  0.1542
  269MPD2     C 4064   3.130   2.595  15.576  0.3205 -0.1207  0.0334
  269MPD2    C1 4065   2.998   2.634  15.596 -0.1847  0.4194 -0.7893
  269MPD2    C2 4066   2.956   2.762  15.550  0.9107  0.0127  0.3082
  269MPD2    C3 4067   3.035   2.839  15.477  0.0803  0.2567 -0.0254
  269MPD2    C4 4068   3.159   2.792  15.445 -0.4466 -0.1651 -0.0795
  269MPD2    C5 4069   3.208   2.676  15.495  0.5116 -0.1150 -0.5490
  269MPD2     H 4070   2.853   2.790  15.571  0.3593 -0.0365 -2.2643
  269MPD2    H1 4071   3.232   2.846  15.385  0.2493 -0.7602  0.2190
  269MPD2    H2 4072   3.168   2.501  15.612 -0.6273 -0.6063 -0.2172
  269MPD2    H3 4073   3.312   2.655  15.472  1.2145  2.2920  0.4974
  269MPD2     N 4074   2.977   2.962  15.444  0.4336  0.5492 -0.2191
  269MPD2    H5 4075   2.887   2.987  15.483  1.3349  1.1649  1.5040
  269MPD2    N1 4076   2.914   2.547  15.675 -0.1718 -0.9374 -0.1781
  269MPD2    H7 4077   2.960   2.470  15.723  0.6822 -0.5585 -0.3763
  270TMC3    C1 4078   2.718   2.463  15.787  0.3563  1.2823  0.0663
  270TMC3    C2 4079   2.594   2.422  15.755  0.0426 -0.8211  0.2663
  270TMC3    C3 4080   2.548   2.315  15.819 -0.1675  0.0116  0.2344
  270TMC3    C4 4081   2.799   2.398  15.868 -0.0711 -0.4084  0.5312
  270TMC3    C5 4082   2.751   2.277  15.911 -0.9514  0.0909  0.2808
  270TMC3    C6 4083   2.630   2.230  15.889 -0.2719  0.1038 -0.5350
  270TMC3     C 4084   2.776   2.563  15.704 -0.0596  0.1198 -0.6290
  270TMC3     O 4085   2.703   2.651  15.658  0.3713  0.7735 -0.0904
  270TMC3     H 4086   2.530   2.475  15.686  0.9926 -0.5264 -0.3921
  270TMC3    H1 4087   2.897   2.422  15.905 -1.5614  0.8568  3.5990
  270TMC3    H2 4088   2.585   2.146  15.940  0.7901 -0.9165 -1.3027
  270TMC3    C7 4089   2.847   2.191  15.980  0.0746  0.4606 -0.7705
  270TMC3    C8 4090   2.456   2.233  15.734 -0.6281  0.1152 -0.3436
  270TMC3    O1 4091   2.963   2.208  15.947 -0.6473  0.0323  0.5287
  270TMC3    O2 4092   2.334   2.260  15.744 -0.4313  0.0044 -0.1602
  271MPD2     C 4093   1.980   2.012  14.076 -0.2801 -0.4180  0.3292
  271MPD2    C1 4094   1.972   2.110  14.173  0.0382 -0.5633  0.4921
  271MPD2    C2 4095   1.905   2.224  14.147 -0.0048 -0.4821  0.3252
  271MPD2    C3 4096   1.853   2.245  14.025  1.1589  0.1453  0.3770
  271MPD2    C4 4097   1.878   2.159  13.926 -0.2821  0.3873  0.8359
  271MPD2    C5 4098   1.934   2.039  13.960 -0.9545 -0.5063  0.4891
  271MPD2     H 4099   1.900   2.303  14.220 -2.9883 -1.2513  0.9851
  271MPD2    H1 4100   1.851   2.175  13.822 -0.4808 -0.8740  0.6922
  271MPD2    H2 4101   2.018   1.914  14.104  1.0263  0.2129  0.7950
  271MPD2    H3 4102   1.938   1.969  13.877 -0.2432  0.9255 -0.6726
  271MPD2     N 4103   1.765   2.352  13.992 -0.1147  0.0964  0.0050
  271MPD2    H5 4104   1.754   2.371  13.892 -1.3500 -2.3847 -0.3132
  271MPD2    N1 4105   2.041   2.096  14.296  0.1171  0.1365  0.1664
  271MPD2    H7 4106   2.022   2.173  14.360 -0.0480  1.6910 -1.7630
  272TMC3    C1 4107   2.212   2.007  14.452  0.5309 -0.2533 -0.0563
  272TMC3    C2 4108   2.343   1.973  14.452  0.7662 -0.1548 -0.0667
  272TMC3    C3 4109   2.414   1.955  14.570 -0.1305  0.3469 -0.2191
  272TMC3    C4 4110   2.141   2.021  14.569 -0.2026 -0.1019 -0.1121
  272TMC3    C5 4111   2.212   2.017  14.689  0.0997  0.8078 -1.3661
  272TMC3    C6 4112   2.346   1.983  14.688  0.4662 -0.1700 -0.2464
  272TMC3     C 4113   2.151   2.017  14.320 -0.3493 -0.6083 -0.1268
  272TMC3     O 4114   2.208   1.946  14.235  0.0952  0.0805  0.0551
  272TMC3     H 4115   2.389   1.967  14.355  2.3672  1.3965  0.5847
  272TMC3    H1 4116   2.040   2.059  14.564 -0.1820 -0.3109 -1.9310
  272TMC3    H2 4117   2.385   1.968  14.788 -0.7671  2.1010  0.5672
  272TMC3    C7 4118   2.145   2.057  14.813 -0.3128  0.3954  0.0936
  272TMC3    C8 4119   2.550   1.906  14.575  0.1224 -0.2648  0.1590
  272TMC3    O1 4120   2.027   2.042  14.820 -0.2174 -0.1755 -0.0648
  272TMC3    O2 4121   2.600   1.931  14.467  0.4839 -0.2326  0.3200
  273MPD2     C 4122   3.670   0.073  11.964  0.0908  0.6634  0.2281
  273MPD2    C1 4123   3.763   0.169  11.947  0.3111 -0.2492 -0.5822
  273MPD2    C2 4124   3.767   0.233  11.822  0.0502 -0.2204  0.1473
  273MPD2    C3 4125   3.676   0.204  11.724 -0.3278  0.0451  0.3226
  273MPD2    C4 4126   3.574   0.108  11.745  0.6280  0.0501 -0.8083
  273MPD2    C5 4127   3.575   0.049  11.868  0.2224  0.6464  0.5187
  273MPD2     H 4128   3.850   0.300  11.804 -0.4602  0.0207 -1.2814
  273MPD2    H1 4129   3.499   0.077  11.673  1.3568  0.0933 -1.5887
  273MPD2    H2 4130   3.659   0.033  12.064 -0.2934 -0.7911 -0.3968
  273MPD2    H3 4131   3.499   4.701  11.895 -1.4522  1.2112 -2.7350
  273MPD2     N 4132   3.683   0.263  11.594 -0.1305 -0.2229  0.0188
  273MPD2    H5 4133   3.609   0.232  11.532  1.1561 -1.0962 -1.0897
  273MPD2    N1 4134   3.838   0.203  12.062 -0.0787  0.5660  0.3023
  273MPD2    H7 4135   3.797   0.174  12.150 -1.8083  1.2159 -0.2843
  274TMC3    C1 4136   3.758   0.404  11.420  1.0166  0.4760 -0.2337
  274TMC3    C2 4137   3.660   0.356  11.332  0.9687 -0.4896 -0.3360
  274TMC3    C3 4138   3.596   0.445  11.251 -0.3974 -0.4842 -0.0452
  274TMC3    C4 4139   3.779   0.539  11.426  0.5519 -0.0939  0.5504
  274TMC3    C5 4140   3.719   0.624  11.339  0.4978  0.5476  0.0973
  274TMC3    C6 4141   3.626   0.581  11.256  0.4059 -0.2673 -0.5096
  274TMC3     C 4142   3.789   0.334  11.544 -1.2711 -0.5020 -0.4866
  274TMC3     O 4143   3.877   0.381  11.612  0.1831 -0.6046  0.5291
  274TMC3     H 4144   3.644   0.249  11.322 -4.1485  0.1440  1.0872
  274TMC3    H1 4145   3.851   0.582  11.494  0.9609 -0.8161  0.5742
  274TMC3    H2 4146   3.567   0.647  11.193 -2.3462 -0.1068  2.2413
  274TMC3    C7 4147   3.723   0.763  11.369 -0.5814  0.0175  0.0545
  274TMC3    C8 4148   3.474   0.405  11.176 -0.9431  0.4564 -0.2928
  274TMC3    O1 4149   3.622   0.826  11.342 -0.3423  0.6925 -0.2624
  274TMC3    O2 4150   3.436   0.499  11.111  0.6022 -0.1011 -0.0147
  275MPD2     C 4151   3.755   3.165  14.524 -0.4644  0.2794 -0.1449
  275MPD2    C1 4152   3.663   3.266  14.519  0.4942  0.2490 -0.3075
  275MPD2    C2 4153   3.531   3.227  14.502 -0.6600  0.4329 -0.2022
  275MPD2    C3 4154   3.483   3.099  14.491 -0.9367  0.4016  1.4820
  275MPD2    C4 4155   3.581   3.000  14.504 -0.1994  0.8335 -0.0859
  275MPD2    C5 4156   3.719   3.031  14.512  0.5684  0.4870 -0.1204
  275MPD2     H 4157   3.464   3.312  14.493  1.7736  2.3244 -0.3643
  275MPD2    H1 4158   3.562   2.893  14.510 -1.3779  1.0707  0.3338
  275MPD2    H2 4159   3.858   3.200  14.527 -0.1413 -0.6765 -0.1031
  275MPD2    H3 4160   3.793   2.952  14.514  0.8429  0.7528  0.3023
  275MPD2     N 4161   3.349   3.064  14.492  1.0227 -0.1286 -0.1897
  275MPD2    H5 4162   3.324   2.966  14.485 -1.8512  0.5015  1.3262
  275MPD2    N1 4163   3.690   3.406  14.515 -0.2699  0.2038  0.7006
  275MPD2    H7 4164   3.610   3.466  14.502 -0.0738  0.0673 -1.0188
  276TMC3    C1 4165   3.814   3.605  14.552  0.2480  0.1183 -0.1626
  276TMC3    C2 4166   3.705   3.647  14.623  0.0685  0.8584  0.0004
  276TMC3    C3 4167   3.727   3.754  14.708  0.2730 -0.2370 -0.3417
  276TMC3    C4 4168   3.935   3.666  14.565 -0.0809 -0.4138  0.6685
  276TMC3    C5 4169   3.953   3.771  14.649 -0.5025 -0.2669 -0.0073
  276TMC3    C6 4170   3.847   3.821  14.710 -0.5113 -0.4200  0.5060
  276TMC3     C 4171   3.816   3.464  14.530  0.2946  0.4131  0.2697
  276TMC3     O 4172   3.921   3.408  14.549  0.4328 -0.1058  0.3041
  276TMC3     H 4173   3.603   3.614  14.605  1.1745 -1.8417 -1.2747
  276TMC3    H1 4174   4.020   3.635  14.505 -0.6396 -0.0100 -0.3354
  276TMC3    H2 4175   3.837   3.911  14.768 -0.8345 -0.7578  0.9757
  276TMC3    C7 4176   4.059   3.757  14.736  0.4119  0.1470 -0.5479
  276TMC3    C8 4177   3.686   3.720  14.843 -0.0965  0.9605 -0.0985
  276TMC3    O1 4178   4.068   3.843  14.824  0.3718 -0.3328  0.3055
  276TMC3    O2 4179   3.727   3.795  14.934 -0.0423  0.5623  0.3359
  277MPD2     C 4180   0.751   2.161  13.471 -0.3121  0.3531 -0.3094
  277MPD2    C1 4181   0.632   2.222  13.499  0.6145  0.9454 -1.1343
  277MPD2    C2 4182   0.553   2.179  13.607  0.0692 -0.3634 -0.7953
  277MPD2    C3 4183   0.607   2.072  13.679  0.7101  0.0746 -0.6299
  277MPD2    C4 4184   0.727   2.010  13.653 -0.0055  0.3363 -0.3733
  277MPD2    C5 4185   0.801   2.054  13.546  0.3789 -0.1044  0.5923
  277MPD2     H 4186   0.463   2.231  13.638  0.2265 -0.7766  0.3607
  277MPD2    H1 4187   0.755   1.919  13.705  0.2179  1.7778  2.0176
  277MPD2    H2 4188   0.796   2.177  13.373 -0.2081 -1.0358 -0.5027
  277MPD2    H3 4189   0.894   2.010  13.513  1.3264  0.5439  2.4109
  277MPD2     N 4190   0.533   2.031  13.795 -0.7383 -0.1460 -0.2956
  277MPD2    H5 4191   0.434   2.053  13.799 -0.4293  0.9707  1.0890
  277MPD2    N1 4192   0.591   2.327  13.411 -0.6804 -0.3799  0.3194
  277MPD2    H7 4193   0.663   2.353  13.345 -0.3866 -2.0943 -0.0416
  278TMC3    C1 4194   0.464   1.912  13.989  1.2042  0.3386  0.0529
  278TMC3    C2 4195   0.439   1.777  14.006 -0.1067  0.2635  0.8145
  278TMC3    C3 4196   0.329   1.742  14.079 -0.1937 -0.3869  0.1069
  278TMC3    C4 4197   0.376   2.005  14.023 -0.0898 -0.5342  0.2078
  278TMC3    C5 4198   0.263   1.956  14.088  0.3141 -0.3003  0.1664
  278TMC3    C6 4199   0.237   1.825  14.124 -0.6277 -0.1654  0.1387
  278TMC3     C 4200   0.568   1.936  13.890 -0.1219 -0.1991 -0.5949
  278TMC3     O 4201   0.671   1.879  13.911 -0.0050  0.5865  0.1553
  278TMC3     H 4202   0.500   1.705  13.952 -1.7839 -0.6633  0.1617
  278TMC3    H1 4203   0.393   2.111  14.003  0.6688 -0.7680 -0.3642
  278TMC3    H2 4204   0.144   1.789  14.167 -1.1630  0.7030 -0.2906
  278TMC3    C7 4205   0.156   2.060  14.085  0.6376  0.4733 -0.0623
  278TMC3    C8 4206   0.280   1.610  14.058 -0.2159 -0.6137  0.3018
  278TMC3    O1 4207   0.202   2.175  14.097 -0.2050 -0.0689 -0.0137
  278TMC3    O2 4208   0.234   1.548  14.159  0.6525 -0.5367  0.4472
  279MPD2     C 4209   4.120   1.639   0.214 -0.1540 -0.3133  0.0669
  279MPD2    C1 4210   4.112   1.760   0.278  0.1950  0.2920 -0.6058
  279MPD2    C2 4211   4.176   1.873   0.224  0.1232 -0.0292 -0.9324
  279MPD2    C3 4212   4.241   1.855   0.101  0.2744 -1.0217 -0.7455
  279MPD2    C4 4213   4.247   1.733   0.033 -0.2795 -0.0807  0.1653
  279MPD2    C5 4214   4.180   1.629   0.093  0.4929  0.0789  0.9738
  279MPD2     H 4215   4.163   1.975   0.259  0.7904 -0.2726  0.0150
  279MPD2    H1 4216   4.311   1.726  17.643 -2.2614  1.3870 -1.4086
  279MPD2    H2 4217   4.071   1.552   0.256  0.2847 -0.9822 -0.8178
  279MPD2    H3 4218   4.170   1.533   0.043 -2.9656  0.5036  0.8278
  279MPD2     N 4219   4.298   1.960   0.034  0.1474 -0.3152 -0.1002
  279MPD2    H5 4220   4.315   1.933  17.634  1.5403  0.5373 -0.0954
  279MPD2    N1 4221   4.037   1.771   0.400  0.2069 -0.8386 -0.0357
  279MPD2    H7 4222   3.989   1.686   0.428 -0.2150 -0.6753 -0.2653
  280TMC3    C1 4223   3.898   1.886   0.551 -0.2040  0.6036  0.3906
  280TMC3    C2 4224   3.796   1.818   0.480  0.3986 -0.2483  0.2482
  280TMC3    C3 4225   3.674   1.880   0.462  0.6870 -0.2723 -1.0481
  280TMC3    C4 4226   3.872   2.007   0.605 -0.3408  0.0906  0.3790
  280TMC3    C5 4227   3.760   2.073   0.573 -0.3505 -0.4461 -0.0373
  280TMC3    C6 4228   3.660   2.013   0.501  0.0225  0.1302  0.5813
  280TMC3     C 4229   4.021   1.885   0.473  0.7864 -0.1444  0.3712
  280TMC3     O 4230   4.094   1.981   0.472  0.4075  0.7733  0.3322
  280TMC3     H 4231   3.808   1.714   0.451 -2.8495 -0.5551  0.0212
  280TMC3    H1 4232   3.955   2.060   0.650  0.0674 -1.9425  2.0548
  280TMC3    H2 4233   3.565   2.060   0.478  0.0381  0.7590  1.8044
  280TMC3    C7 4234   3.759   2.218   0.598 -0.5089  0.2859  0.4298
  280TMC3    C8 4235   3.553   1.809   0.445 -0.2629  0.2927  0.3062
  280TMC3    O1 4236   3.814   2.259   0.698  0.3554  0.1313  0.5396
  280TMC3    O2 4237   3.455   1.864   0.500  0.3933  0.3785  0.3133
  281TMC3    C1 4238   3.105   3.153  13.816 -0.3713  0.1391 -0.2099
  281TMC3    C2 4239   2.975   3.132  13.785  0.2014 -0.0863 -0.0242
  281TMC3    C3 4240   2.923   3.006  13.790 -0.3596  0.2411 -0.5217
  281TMC3    C4 4241   3.192   3.046  13.836  0.3816 -0.8192  0.7222
  281TMC3    C5 4242   3.139   2.919  13.841  0.2699  0.4398 -0.5620
  281TMC3    C6 4243   3.002   2.891  13.810 -0.2693  1.0591 -0.7423
  281TMC3     C 4244   3.161   3.289  13.822  0.6779 -0.7807 -0.2221
  281TMC3     O 4245   3.258   3.315  13.895 -0.0749 -0.2564  0.1965
  281TMC3     H 4246   2.898   3.207  13.768 -1.6104 -2.1620 -1.0295
  281TMC3    H1 4247   3.294   3.067  13.865 -0.0571  2.1506  0.1481
  281TMC3    H2 4248   2.960   2.791  13.818 -2.8198  2.2377  0.4743
  281TMC3    C7 4249   3.231   2.807  13.859 -0.0571 -0.2794 -0.3411
  281TMC3    C8 4250   2.785   2.980  13.747  0.4341  0.1765  0.3539
  281TMC3    O1 4251   3.348   2.842  13.856 -0.3550 -0.4472 -0.0341
  281TMC3    O2 4252   2.765   2.874  13.686  0.3685  0.1763  0.4332
  282MPD2     C 4253   0.369   3.906  15.057 -0.1514 -0.1720 -1.0545
  282MPD2    C1 4254   0.266   3.984  15.093 -0.5651 -0.3000  0.4036
  282MPD2    C2 4255   0.192   4.052  14.993  0.2412 -0.1558  0.0595
  282MPD2    C3 4256   0.218   4.027  14.855 -0.3951 -0.4963 -0.7088
  282MPD2    C4 4257   0.327   3.937  14.828 -1.0512 -0.0390 -0.1084
  282MPD2    C5 4258   0.397   3.873  14.926 -0.2780 -0.3353 -0.6109
  282MPD2     H 4259   0.111   4.112  15.032  0.9253  0.7754  0.0329
  282MPD2    H1 4260   0.354   3.905  14.728 -0.6878 -1.1921  0.3526
  282MPD2    H2 4261   0.433   3.852  15.126 -0.6730 -0.1788 -0.5786
  282MPD2    H3 4262   0.460   3.788  14.905 -1.3386 -1.2659  0.0323
  282MPD2     N 4263   0.124   4.074  14.764 -0.1704  1.0209 -0.3296
  282MPD2    H5 4264   0.048   4.121  14.812 -0.5147  0.6276 -0.4790
  282MPD2    N1 4265   0.234   4.004  15.225 -0.2784 -0.0121  0.2531
  282MPD2    H7 4266   0.170   4.080  15.245  0.8479  1.3330 -1.2485
  283TMC3    C1 4267   0.243   3.973  15.459  0.2923 -0.2135 -0.1857
  283TMC3    C2 4268   0.237   4.107  15.482  0.1212  0.3110 -0.8781
  283TMC3    C3 4269   0.161   4.145  15.592 -0.2937 -0.5522 -0.4096
  283TMC3    C4 4270   0.154   3.888  15.522  1.2671 -0.7957 -0.6382
  283TMC3    C5 4271   0.075   3.938  15.617  0.1101  0.5947  0.0371
  283TMC3    C6 4272   0.081   4.065  15.661 -0.0703 -0.3054  0.4009
  283TMC3     C 4273   0.287   3.927  15.330 -0.4860 -0.0073  0.1702
  283TMC3     O 4274   0.347   3.822  15.326 -0.3317  0.3396  0.0634
  283TMC3     H 4275   0.295   4.177  15.422  4.5462 -1.4138  1.3101
  283TMC3    H1 4276   0.159   3.781  15.509  0.1266 -0.7846 -1.1211
  283TMC3    H2 4277   0.027   4.099  15.749  1.3499 -0.2335  1.2484
  283TMC3    C7 4278   0.016   3.844  15.703  0.6436 -0.6238  0.7263
  283TMC3    C8 4279   0.201   4.264  15.662  0.0403  0.0651  0.3675
  283TMC3    O1 4280   0.004   3.860  15.822 -0.4659 -0.8421  0.0324
  283TMC3    O2 4281   0.220   4.260  15.786  0.0278  0.1351 -0.2384
  284MPD2     C 4282   3.172   3.534  11.829  0.5824 -0.1107 -0.0969
  284MPD2    C1 4283   3.275   3.447  11.807  0.9557 -0.2620  0.3737
  284MPD2    C2 4284   3.283   3.342  11.896 -0.3427  0.5820  1.0813
  284MPD2    C3 4285   3.201   3.339  12.010  0.4287 -0.1813  0.5458
  284MPD2    C4 4286   3.120   3.448  12.036  0.0524  0.1127  0.0984
  284MPD2    C5 4287   3.093   3.542  11.942 -0.4775 -0.0567  0.5176
  284MPD2     H 4288   3.363   3.269  11.888 -1.0393 -0.0976  0.2226
  284MPD2    H1 4289   3.057   3.458  12.124  0.5807  2.7726  0.1804
  284MPD2    H2 4290   3.154   3.615  11.759  1.0670  0.3179  0.2739
  284MPD2    H3 4291   3.017   3.616  11.961 -1.2899 -0.7478 -0.0548
  284MPD2     N 4292   3.203   3.231  12.107 -0.6179  0.4229 -0.1119
  284MPD2    H5 4293   3.171   3.246  12.202  0.6131  0.3353  0.3175
  284MPD2    N1 4294   3.368   3.446  11.702  0.3474 -0.3375  0.7766
  284MPD2    H7 4295   3.424   3.362  11.692  0.9464  0.2896 -1.2658
  285TMC3    C1 4296   3.499   3.538  11.527  0.2268 -0.5389  0.0499
  285TMC3    C2 4297   3.517   3.414  11.475  0.0245 -0.3321  0.4477
  285TMC3    C3 4298   3.628   3.394  11.399 -0.1556  0.0875  1.1726
  285TMC3    C4 4299   3.578   3.646  11.501 -1.2021  0.2710  0.0458
  285TMC3    C5 4300   3.684   3.619  11.418  0.5635 -0.8767  0.6951
  285TMC3    C6 4301   3.712   3.499  11.368 -0.1112  0.1437  0.0181
  285TMC3     C 4302   3.396   3.556  11.629  0.5192  0.1651 -0.0354
  285TMC3     O 4303   3.347   3.670  11.641 -0.5698 -0.0512 -0.3954
  285TMC3     H 4304   3.461   3.326  11.502 -1.3784  0.4203  0.0022
  285TMC3    H1 4305   3.563   3.745  11.543 -1.9057 -0.9118  2.5765
  285TMC3    H2 4306   3.802   3.485  11.309 -0.7391 -1.1497 -0.6473
  285TMC3    C7 4307   3.774   3.718  11.382  0.6189 -0.3005  0.8257
  285TMC3    C8 4308   3.679   3.262  11.388 -0.3736  0.8996 -0.9383
  285TMC3    O1 4309   3.798   3.806  11.457 -0.4378  0.0232 -0.2224
  285TMC3    O2 4310   3.601   3.171  11.371  0.3327 -0.4199 -0.1199
  286MPD2     C 4311   3.076   1.705   1.453  0.0717  0.7706  0.8036
  286MPD2    C1 4312   3.054   1.688   1.318  0.0649 -0.2691  0.0652
  286MPD2    C2 4313   3.123   1.585   1.251 -0.6181 -1.4442 -0.1372
  286MPD2    C3 4314   3.184   1.487   1.331 -1.5176 -0.0563  0.7150
  286MPD2    C4 4315   3.193   1.504   1.468  0.2429 -0.2110  0.7566
  286MPD2    C5 4316   3.148   1.616   1.534 -0.3576  0.1693  0.5773
  286MPD2     H 4317   3.120   1.561   1.145 -2.6552 -0.4829 -0.2987
  286MPD2    H1 4318   3.240   1.433   1.536  1.4377 -0.6309 -0.4997
  286MPD2    H2 4319   3.029   1.790   1.502 -2.0929  0.8428 -1.3837
  286MPD2    H3 4320   3.163   1.643   1.638 -1.2632  0.8947  0.5242
  286MPD2     N 4321   3.258   1.373   1.291 -0.3305 -0.3940  0.3648
  286MPD2    H5 4322   3.274   1.299   1.359 -3.2139  0.9031  2.4528
  286MPD2    N1 4323   2.999   1.791   1.240  0.1709  0.6926  0.3734
  286MPD2    H7 4324   3.006   1.775   1.140 -0.2037 -0.6403  0.5599
  287TMC3    C1 4325   3.388   1.244   1.146 -0.7656  0.1612  0.0156
  287TMC3    C2 4326   3.419   1.196   1.021 -0.9290 -0.5341 -0.2167
  287TMC3    C3 4327   3.527   1.117   1.003 -0.2706 -0.3870  0.0777
  287TMC3    C4 4328   3.466   1.213   1.257 -0.6968 -0.7482 -0.2431
  287TMC3    C5 4329   3.574   1.132   1.233  0.1835 -0.3146 -0.3894
  287TMC3    C6 4330   3.607   1.085   1.106 -0.3248 -0.6741 -0.3944
  287TMC3     C 4331   3.289   1.344   1.159  0.5976 -0.0454  0.4507
  287TMC3     O 4332   3.248   1.401   1.058 -0.0576 -0.0697  0.1924
  287TMC3     H 4333   3.341   1.206   0.945 -1.4731 -1.7074  0.1829
  287TMC3    H1 4334   3.451   1.260   1.354 -1.5871 -0.6821 -0.4054
  287TMC3    H2 4335   3.696   1.024   1.100  0.0244 -0.0624 -1.3701
  287TMC3    C7 4336   3.680   1.171   1.318 -0.0774 -0.2728  0.2688
  287TMC3    C8 4337   3.540   1.030   0.881  0.2151  0.0967  0.1758
  287TMC3    O1 4338   3.653   1.201   1.435  0.0226 -0.1908 -0.0762
  287TMC3    O2 4339   3.605   0.925   0.900 -0.0720  0.0343  0.0819
  288TMC3    C1 4340   1.222   1.883  14.562  0.3244  0.2362 -0.1973
  288TMC3    C2 4341   1.102   1.915  14.610 -0.0173 -0.2396 -0.1619
  288TMC3    C3 4342   1.041   2.015  14.533  0.0438 -0.4593 -0.4078
  288TMC3    C4 4343   1.288   1.951  14.467  0.2949 -0.1684 -0.8181
  288TMC3    C5 4344   1.224   2.048  14.398 -0.4870  0.3823 -0.2688
  288TMC3    C6 4345   1.098   2.087  14.434 -1.3466 -0.4225  0.1038
  288TMC3     C 4346   1.310   1.835  14.663  0.0010 -0.1783 -1.1707
  288TMC3     O 4347   1.308   1.887  14.774  0.0449  0.5077 -0.1089
  288TMC3     H 4348   1.056   1.860  14.691 -1.2894  1.7160  0.4509
  288TMC3    H1 4349   1.392   1.936  14.441  1.0343  0.8330  1.5966
  288TMC3    H2 4350   1.041   2.159  14.377  0.1011  1.1059  0.5759
  288TMC3    C7 4351   1.309   2.140  14.332  0.2536 -0.3811  0.9878
  288TMC3    C8 4352   0.914   2.061  14.581 -0.1414 -0.1639  0.0612
  288TMC3    O1 4353   1.432   2.119  14.333 -0.0485  0.0875  0.0947
  288TMC3    O2 4354   0.908   2.184  14.582  0.2307  0.5029 -0.3161
  289MPD2     C 4355   0.756   0.929  14.458 -0.0361 -0.4861 -0.1892
  289MPD2    C1 4356   0.716   1.055  14.428 -0.0471  0.0557  1.2411
  289MPD2    C2 4357   0.585   1.091  14.388  0.1187 -0.6539 -0.1683
  289MPD2    C3 4358   0.488   0.995  14.388  0.2164 -0.3784 -0.6097
  289MPD2    C4 4359   0.533   0.869  14.423  0.1786 -0.2937 -0.2807
  289MPD2    C5 4360   0.660   0.836  14.454  0.0402  0.0180 -0.5239
  289MPD2     H 4361   0.568   1.195  14.366  0.1246 -0.5895  0.1225
  289MPD2    H1 4362   0.468   0.782  14.429 -1.1623  0.8747  1.9760
  289MPD2    H2 4363   0.854   0.893  14.486  2.0865  3.4379 -2.5436
  289MPD2    H3 4364   0.680   0.732  14.477 -0.6234  0.0335  0.1270
  289MPD2     N 4365   0.352   1.013  14.371  0.0447  0.1432 -0.1962
  289MPD2    H5 4366   0.289   0.934  14.358 -0.8540  0.9802 -0.9273
  289MPD2    N1 4367   0.818   1.145  14.444  0.2009  0.1236  0.1848
  289MPD2    H7 4368   0.903   1.118  14.493  0.8238 -1.5672 -1.8462
  290TMC3    C1 4369   0.147   1.131  14.345 -0.4854  0.1261 -0.3931
  290TMC3    C2 4370   0.092   1.248  14.293  0.4693 -0.0420  0.6536
  290TMC3    C3 4371   4.679   1.240  14.272 -0.1359 -0.4469 -0.0201
  290TMC3    C4 4372   0.074   1.016  14.379  0.9231 -0.4440 -0.6750
  290TMC3    C5 4373   4.661   1.025  14.359  0.1152 -0.0912  0.3098
  290TMC3    C6 4374   4.597   1.134  14.306  0.1177 -0.2941  0.0028
  290TMC3     C 4375   0.291   1.139  14.360  0.0414 -1.1502 -0.1514
  290TMC3     O 4376   0.340   1.251  14.357  0.4391 -0.4611 -0.0999
  290TMC3     H 4377   0.154   1.329  14.257 -2.1459  0.4824 -2.6932
  290TMC3    H1 4378   0.122   0.936  14.434  3.1111  1.6210  0.4443
  290TMC3    H2 4379   4.494   1.127  14.273 -0.9401 -0.4576  3.4080
  290TMC3    C7 4380   4.575   0.922  14.416 -0.0832 -0.2559 -0.0831
  290TMC3    C8 4381   4.600   1.355  14.228  0.5182  0.8863  0.7546
  290TMC3    O1 4382   4.478   0.962  14.480 -0.5030  0.4941  0.5909
  290TMC3    O2 4383   4.498   1.327  14.162 -0.4559  0.2777  0.4367
  291MPD2     C 4384   4.699   0.657   0.667  0.2978  0.1154  0.5314
  291MPD2    C1 4385   0.014   0.565   0.573  0.0944 -0.1143  0.1782
  291MPD2    C2 4386   0.056   0.608   0.444  0.3988 -0.3073  0.0486
  291MPD2    C3 4387   0.044   0.742   0.413  1.0159 -0.1751 -0.2287
  291MPD2    C4 4388   0.016   0.837   0.510 -0.7765 -0.4727 -0.6555
  291MPD2    C5 4389   4.704   0.795   0.635 -0.3924  0.9214 -0.0324
  291MPD2     H 4390   0.085   0.529   0.376  2.0959  0.1999  0.1977
  291MPD2    H1 4391   0.016   0.945   0.502 -0.5563 -0.5462 -1.6703
  291MPD2    H2 4392   4.672   0.635   0.770 -0.4130 -1.6354 -0.0311
  291MPD2    H3 4393   4.668   0.856   0.717  1.4387  0.4088  1.1622
  291MPD2     N 4394   0.065   0.774   0.276 -0.1864 -0.5513  0.0240
  291MPD2    H5 4395   0.092   0.704   0.208  1.1720 -1.4163  1.4780
  291MPD2    N1 4396   0.002   0.427   0.613 -0.5051  0.3474  0.3593
  291MPD2    H7 4397   4.677   0.411   0.700 -3.3358  2.0086 -0.8874
  292TMC3    C1 4398   4.721   0.191   0.610  0.1800 -0.3135 -1.4744
  292TMC3    C2 4399   4.722   0.186   0.747  0.0715  0.5020  0.0147
  292TMC3    C3 4400   4.635   0.096   0.803  0.1014 -0.1035  0.1804
  292TMC3    C4 4401   4.653   0.099   0.535 -0.2091  0.5361  0.8773
  292TMC3    C5 4402   4.561   0.028   0.597  0.3302 -0.0778 -0.2418
  292TMC3    C6 4403   4.548   0.020   0.733 -0.2898 -0.4724  0.2300
  292TMC3     C 4404   0.028   0.315   0.536  0.1932 -0.1179 -0.2675
  292TMC3     O 4405   0.056   0.305   0.417 -0.8478 -0.5965 -0.2661
  292TMC3     H 4406   0.049   0.266   0.799 -0.2101  1.0838 -0.6120
  292TMC3    H1 4407   4.644   0.111   0.428 -1.4334 -0.9670  0.8115
  292TMC3    H2 4408   4.474   4.681   0.782  1.4309 -1.2800  1.8214
  292TMC3    C7 4409   4.464   4.694   0.503 -0.7585  0.8529 -0.4833
  292TMC3    C8 4410   4.624   0.120   0.950  0.6980 -0.8266 -0.0215
  292TMC3    O1 4411   4.497   4.675   0.390  0.2236 -1.0553 -0.1064
  292TMC3    O2 4412   0.003   0.154   1.009  0.2557 -0.1873 -0.0972
  293MPD2     C 4413   1.767   1.765  12.901  0.2380  0.5445 -0.4220
  293MPD2    C1 4414   1.645   1.821  12.882 -0.1117 -0.7759 -0.2255
  293MPD2    C2 4415   1.586   1.899  12.984 -0.5531 -1.1113  1.0086
  293MPD2    C3 4416   1.649   1.897  13.112 -0.0837 -0.3581 -0.1548
  293MPD2    C4 4417   1.775   1.838  13.123  0.2100 -0.7579 -0.3789
  293MPD2    C5 4418   1.830   1.777  13.017 -0.0541 -0.6000  0.8635
  293MPD2     H 4419   1.494   1.953  12.970  0.1337 -0.4510 -0.9518
  293MPD2    H1 4420   1.827   1.832  13.218  2.1445 -0.1054 -1.3726
  293MPD2    H2 4421   1.810   1.699  12.826 -2.5440 -2.8717  0.9720
  293MPD2    H3 4422   1.932   1.740  13.027  1.1387  2.9111  1.5707
  293MPD2     N 4423   1.585   1.956  13.225  0.0900  0.3768  0.1564
  293MPD2    H5 4424   1.485   1.974  13.221  0.1276  0.6396  0.4270
  293MPD2    N1 4425   1.585   1.797  12.757 -0.1340  0.4282  1.1533
  293MPD2    H7 4426   1.626   1.738  12.686  0.8491  3.1927 -0.5817
  294TMC3    C1 4427   1.422   1.792  12.589 -0.5037 -0.0368 -0.2465
  294TMC3    C2 4428   1.307   1.718  12.600 -0.8180 -0.5202 -0.4897
  294TMC3    C3 4429   1.279   1.630  12.501  0.6511  0.3344  0.1998
  294TMC3    C4 4430   1.511   1.772  12.486  0.0213  0.1537 -0.6761
  294TMC3    C5 4431   1.471   1.697  12.378 -0.6443  0.0740 -0.1364
  294TMC3    C6 4432   1.355   1.622  12.388  0.3331  0.3513  0.1821
  294TMC3     C 4433   1.458   1.836  12.726  0.2614 -0.1668  0.5613
  294TMC3     O 4434   1.378   1.889  12.800 -0.5641 -0.4069  0.0181
  294TMC3     H 4435   1.251   1.712  12.692 -1.0619 -1.2144 -0.6875
  294TMC3    H1 4436   1.599   1.835  12.492 -0.7907  1.3285 -1.0635
  294TMC3    H2 4437   1.335   1.557  12.303 -0.1939  0.2751  0.3688
  294TMC3    C7 4438   1.535   1.708  12.248 -0.3351  0.1495 -0.1699
  294TMC3    C8 4439   1.149   1.565  12.507 -0.1855 -0.2139 -0.3879
  294TMC3    O1 4440   1.642   1.767  12.230 -0.0435  0.2962  0.3269
  294TMC3    O2 4441   1.061   1.627  12.557  0.2993 -0.6812 -0.2172
  295MPD2     C 4442   1.400   4.199  17.688  0.1583  0.5044 -0.3805
  295MPD2    C1 4443   1.474   4.310   0.028  0.1860  0.2693 -0.3308
  295MPD2    C2 4444   1.426   4.382   0.138  0.2463  0.1309 -0.3224
  295MPD2    C3 4445   1.306   4.348   0.203  0.6003  0.2166  0.1949
  295MPD2    C4 4446   1.238   4.238   0.166 -0.1706 -0.8417 -0.3875
  295MPD2    C5 4447   1.290   4.165   0.063  0.2217  0.6468 -0.8137
  295MPD2     H 4448   1.478   4.471   0.171  1.2627 -0.2416 -0.9252
  295MPD2    H1 4449   1.145   4.215   0.216 -0.2161 -1.2675 -0.6623
  295MPD2    H2 4450   1.432   4.134  17.607  2.0504  0.2592  0.5511
  295MPD2    H3 4451   1.245   4.072   0.029  0.7847  1.0355 -2.5935
  295MPD2     N 4452   1.253   4.426   0.313  0.4343  0.5698 -0.3585
  295MPD2    H5 4453   1.165   4.394   0.351  0.9851  0.3631  0.7518
  295MPD2    N1 4454   1.593   4.350  17.661 -0.2624 -0.1738 -0.2280
  295MPD2    H7 4455   1.653   4.408   0.021  0.1185 -1.4546  0.6853
  296TMC3    C1 4456   1.240   4.597   0.471  0.0527  0.1983 -0.1971
  296TMC3    C2 4457   1.216   0.005   0.458 -0.0100  0.7652  0.1994
  296TMC3    C3 4458   1.237   0.086   0.567  0.4017 -0.0447  0.3873
  296TMC3    C4 4459   1.287   4.547   0.587  0.4980 -0.1907  0.1970
  296TMC3    C5 4460   1.296   4.624   0.693 -0.2203 -0.2190  1.0787
  296TMC3    C6 4461   1.275   0.038   0.687  1.1507 -0.5879  0.3442
  296TMC3     C 4462   1.309   4.544   0.359  0.6874  0.4932 -0.4495
  296TMC3     O 4463   1.406   4.613   0.322  0.3092  0.0112 -0.3386
  296TMC3     H 4464   1.182   0.041   0.361  1.6333 -0.9932 -1.0160
  296TMC3    H1 4465   1.332   4.449   0.587 -1.3214 -1.0296 -0.3691
  296TMC3    H2 4466   1.300   0.102   0.771 -0.8671 -1.0294  1.2929
  296TMC3    C7 4467   1.327   4.552   0.815 -0.9432 -0.2727 -0.4965
  296TMC3    C8 4468   1.219   0.226   0.547 -0.0438  0.0751  0.4441
  296TMC3    O1 4469   1.342   4.431   0.804  0.0619  0.2263  0.4107
  296TMC3    O2 4470   1.148   0.254   0.453 -0.0050 -0.0458  0.3274
  297MPD2     C 4471   4.190   2.722  16.334 -0.1234 -0.1449 -0.1112
  297MPD2    C1 4472   4.141   2.846  16.297 -0.5664  0.5664 -0.3218
  297MPD2    C2 4473   4.210   2.955  16.336 -0.3099  0.2829  0.6272
  297MPD2    C3 4474   4.320   2.950  16.418  0.2859 -1.1876 -0.6896
  297MPD2    C4 4475   4.365   2.824  16.463  0.4930  0.7639 -0.5920
  297MPD2    C5 4476   4.298   2.712  16.425  0.1222  0.0532 -0.5953
  297MPD2     H 4477   4.180   3.047  16.287 -2.1953 -0.5853  0.1454
  297MPD2    H1 4478   4.451   2.816  16.528 -0.4331  0.7709  0.6360
  297MPD2    H2 4479   4.152   2.627  16.299  1.7226 -1.3952  1.2770
  297MPD2    H3 4480   4.324   2.623  16.481  0.6898 -0.0919 -1.0901
  297MPD2     N 4481   4.400   3.062  16.435 -0.0439  0.1843 -0.0433
  297MPD2    H5 4482   4.364   3.144  16.388 -0.5410  0.5545  0.9930
  297MPD2    N1 4483   4.034   2.858  16.204  0.1328 -0.2613 -0.4087
  297MPD2    H7 4484   4.001   2.951  16.177  3.2909  0.7519 -0.7575
  298TMC3    C1 4485   3.863   2.805  16.070 -0.1913 -0.2118 -0.1654
  298TMC3    C2 4486   3.829   2.759  15.947 -0.0771  0.6933  0.2180
  298TMC3    C3 4487   3.697   2.774  15.904 -0.1212 -0.2049 -0.1510
  298TMC3    C4 4488   3.777   2.880  16.145  0.5596 -0.0788  0.8638
  298TMC3    C5 4489   3.658   2.900  16.085 -0.8756 -0.8206  0.2409
  298TMC3    C6 4490   3.611   2.843  15.973 -0.0096 -0.2431 -0.2087
  298TMC3     C 4491   3.982   2.752  16.131 -0.2203  0.1232  0.2569
  298TMC3     O 4492   4.038   2.649  16.103 -0.0655 -0.1707 -0.5061
  298TMC3     H 4493   3.891   2.697  15.884 -0.8087  0.5574 -0.3741
  298TMC3    H1 4494   3.800   2.937  16.234 -1.1528  1.4699  0.3068
  298TMC3    H2 4495   3.516   2.875  15.932 -1.2905  0.6331  3.4273
  298TMC3    C7 4496   3.565   2.966  16.177  0.1705 -0.1472  0.0212
  298TMC3    C8 4497   3.655   2.739  15.767  0.1936 -0.1438 -0.2543
  298TMC3    O1 4498   3.605   2.985  16.289 -0.9285  0.6174  1.0316
  298TMC3    O2 4499   3.532   2.738  15.742  0.0861  0.2876  0.1964
  299MPD2     C 4500   0.513   1.933  11.041  0.3837  0.6487 -0.3465
  299MPD2    C1 4501   0.538   2.027  10.942  0.0865  0.2783 -0.7659
  299MPD2    C2 4502   0.439   2.063  10.857  0.1863  0.5446 -0.9888
  299MPD2    C3 4503   0.315   2.003  10.859  0.1758  0.1102 -0.0345
  299MPD2    C4 4504   0.291   1.917  10.961  0.2154 -0.9920  0.7979
  299MPD2    C5 4505   0.389   1.883  11.052  0.2761 -0.1305  0.5899
  299MPD2     H 4506   0.449   2.147  10.789  1.6978  0.5369 -0.7848
  299MPD2    H1 4507   0.189   1.888  10.982 -0.0862  0.0294  0.7525
  299MPD2    H2 4508   0.594   1.904  11.107  0.6002  0.3103 -0.7620
  299MPD2    H3 4509   0.356   1.827  11.139  2.4602 -2.5545 -0.1351
  299MPD2     N 4510   0.205   2.034  10.782 -0.2016  0.5431 -0.2332
  299MPD2    H5 4511   0.115   1.992  10.803  0.7924 -0.9958  0.9492
  299MPD2    N1 4512   0.661   2.093  10.947  0.2260  0.6092 -0.5025
  299MPD2    H7 4513   0.730   2.068  11.017 -0.8239 -1.2372 -0.1091
  300TMC3    C1 4514   0.074   2.132  10.622 -0.1194 -0.0848 -0.4267
  300TMC3    C2 4515   0.051   2.255  10.567 -0.4705 -0.7564 -0.3021
  300TMC3    C3 4516   4.643   2.291  10.558 -0.5595 -0.2074  0.4852
  300TMC3    C4 4517   4.699   2.045  10.663  0.1769  0.1928  0.1123
  300TMC3    C5 4518   4.569   2.090  10.653  0.1380  0.1062 -0.9793
  300TMC3    C6 4519   4.536   2.212  10.600 -0.6123  0.4552 -0.4006
  300TMC3     C 4520   0.206   2.112  10.669  0.2150 -0.0451  0.3703
  300TMC3     O 4521   0.302   2.163  10.612 -0.1798 -0.3081  0.2520
  300TMC3     H 4522   0.128   2.319  10.526  0.4390 -0.2201  2.2481
  300TMC3    H1 4523   0.006   1.947  10.695 -0.0306  0.4623  1.1375
  300TMC3    H2 4524   4.430   2.231  10.585 -0.9580 -2.4198 -1.5711
  300TMC3    C7 4525   4.481   2.032  10.749  0.3974  0.0842 -0.3956
  300TMC3    C8 4526   4.620   2.431  10.537 -0.1921  0.2212  0.1936
  300TMC3    O1 4527   4.513   1.919  10.777 -0.1333  0.2855 -0.5831
  300TMC3    O2 4528   0.000   2.495  10.544 -0.4145  0.5665  0.2352
  301MPD2     C 4529   1.198   4.148   1.527 -0.2011  0.7232 -0.2389
  301MPD2    C1 4530   1.126   4.196   1.421 -0.6392  0.8163  0.7376
  301MPD2    C2 4531   1.082   4.106   1.320 -0.8387 -0.0152  0.3681
  301MPD2    C3 4532   1.103   3.972   1.333 -0.1984 -0.4700 -0.5293
  301MPD2    C4 4533   1.163   3.921   1.451 -0.8641  1.0842  0.4208
  301MPD2    C5 4534   1.216   4.011   1.545 -0.5147 -0.6901 -0.0513
  301MPD2     H 4535   1.020   4.136   1.237  0.7285  1.3994 -0.3037
  301MPD2    H1 4536   1.161   3.816   1.478  0.7691  1.5088  2.2256
  301MPD2    H2 4537   1.228   4.206   1.614 -0.3655  0.4249  0.0167
  301MPD2    H3 4538   1.253   3.974   1.640 -0.9595  0.2619  0.4846
  301MPD2     N 4539   1.055   3.871   1.244  0.1139  0.3355  0.7157
  301MPD2    H5 4540   1.058   3.773   1.270  0.7931  0.2525  0.3317
  301MPD2    N1 4541   1.073   4.328   1.410  0.6633 -0.8551  0.6814
  301MPD2    H7 4542   1.015   4.348   1.330  1.7728 -1.8176 -0.3739
  302TMC3    C1 4543   0.920   3.764   1.097  0.4275  1.1035 -0.2705
  302TMC3    C2 4544   0.995   3.659   1.053  0.2280  0.6567 -0.1994
  302TMC3    C3 4545   0.917   3.551   1.010  1.0114 -0.0689  0.1499
  302TMC3    C4 4546   0.786   3.775   1.071  0.7020 -0.8698 -0.2318
  302TMC3    C5 4547   0.720   3.669   1.017  0.1378 -0.0757  0.6701
  302TMC3    C6 4548   0.780   3.553   0.995  0.3147 -0.2919  0.4600
  302TMC3     C 4549   0.984   3.891   1.128  0.8734 -0.5235 -0.1573
  302TMC3     O 4550   0.955   3.993   1.064 -0.5381  0.3273  0.2790
  302TMC3     H 4551   1.101   3.652   1.075  0.2419  2.7853  0.4071
  302TMC3    H1 4552   0.748   3.870   1.106 -0.8423 -0.9452 -1.7167
  302TMC3    H2 4553   0.720   3.468   0.964  0.9004 -0.5050 -0.1007
  302TMC3    C7 4554   0.581   3.673   1.026 -0.2100  0.0998 -0.0528
  302TMC3    C8 4555   0.989   3.440   0.956  0.0153  0.4395  0.4837
  302TMC3    O1 4556   0.516   3.570   1.005 -0.1419  0.0710  0.4352
  302TMC3    O2 4557   1.108   3.442   0.980 -0.5267 -0.3252 -0.0800
  303MPD2     C 4558   2.511   1.857  10.234  0.5922  0.3426  0.1254
  303MPD2    C1 4559   2.408   1.763  10.242  0.1435 -1.0036 -0.3031
  303MPD2    C2 4560   2.354   1.721  10.122  0.3741 -0.1967  0.8321
  303MPD2    C3 4561   2.396   1.763   9.997 -0.0518 -0.5613 -0.8692
  303MPD2    C4 4562   2.498   1.856   9.997 -1.1764 -0.3645 -0.1852
  303MPD2    C5 4563   2.556   1.904  10.111 -0.6742  0.3170 -0.0158
  303MPD2     H 4564   2.262   1.663  10.119  0.3543 -0.1315  0.1820
  303MPD2    H1 4565   2.548   1.895   9.910 -0.5493  1.5344  1.0334
  303MPD2    H2 4566   2.565   1.889  10.322  0.0691  0.8513  0.2615
  303MPD2    H3 4567   2.645   1.965  10.108 -0.8100  0.6248  2.0691
  303MPD2     N 4568   2.351   1.710   9.877 -0.3599 -0.6583  0.4170
  303MPD2    H5 4569   2.369   1.770   9.797 -0.8789  0.8526  1.4508
  303MPD2    N1 4570   2.382   1.705  10.369  0.2090  0.0709 -0.4487
  303MPD2    H7 4571   2.436   1.742  10.446  0.0283  0.0691 -0.3202
  304TMC3    C1 4572   2.238   1.615  10.533  0.6316  0.8004 -0.1411
  304TMC3    C2 4573   2.215   1.734  10.588  0.5327 -0.1081  1.2189
  304TMC3    C3 4574   2.132   1.740  10.697 -0.8114  0.2437  0.0183
  304TMC3    C4 4575   2.191   1.497  10.586 -0.6351  0.5876 -0.3050
  304TMC3    C5 4576   2.121   1.502  10.701  0.1167  0.8238 -0.9815
  304TMC3    C6 4577   2.092   1.624  10.759 -0.4914  0.0266  0.6950
  304TMC3     C 4578   2.278   1.620  10.395  0.5997 -0.3812  0.3397
  304TMC3     O 4579   2.224   1.532  10.327 -0.2669 -0.0526  0.1003
  304TMC3     H 4580   2.241   1.823  10.533  0.5722 -0.6703  0.3283
  304TMC3    H1 4581   2.234   1.404  10.550 -0.8477  0.8030 -1.1284
  304TMC3    H2 4582   2.035   1.633  10.851 -2.8171  1.5554 -0.8850
  304TMC3    C7 4583   2.005   1.411  10.706 -0.0081  0.4450  0.8961
  304TMC3    C8 4584   2.024   1.834  10.672  0.4331 -0.6139 -0.2503
  304TMC3    O1 4585   1.890   1.453  10.720 -0.2527 -0.3069  0.8195
  304TMC3    O2 4586   2.048   1.952  10.654 -0.2488  0.2763 -0.4848
  305MPD2     C 4587   0.060   3.753  13.986  0.2348 -0.7905  0.2589
  305MPD2    C1 4588   0.154   3.842  13.945 -0.1315  0.2934 -0.1216
  305MPD2    C2 4589   0.218   3.825  13.821  0.4100 -0.8101 -0.9064
  305MPD2    C3 4590   0.177   3.720  13.739 -0.0147 -0.1754  0.8316
  305MPD2    C4 4591   0.081   3.637  13.785 -0.2081 -0.6761  1.3976
  305MPD2    C5 4592   0.021   3.655  13.907 -0.1882 -0.3060  0.8022
  305MPD2     H 4593   0.295   3.886  13.775 -0.0558  1.9606  1.9832
  305MPD2    H1 4594   0.041   3.565  13.714  0.6924 -0.6750  0.8953
  305MPD2    H2 4595   0.005   3.770  14.078  1.5180 -0.4045  0.9537
  305MPD2    H3 4596   4.663   3.593  13.942 -0.2601 -1.0527 -0.6536
  305MPD2     N 4597   0.233   3.694  13.615 -0.0504 -0.0345 -0.1165
  305MPD2    H5 4598   0.192   3.626  13.551 -0.1665 -0.5351  0.4939
  305MPD2    N1 4599   0.189   3.951  14.025  0.0354 -0.0745 -0.1833
  305MPD2    H7 4600   0.131   3.977  14.104  0.1588  1.4074 -0.5792
  306TMC3    C1 4601   0.341   4.102  14.128 -0.9539  0.3974 -0.3110
  306TMC3    C2 4602   0.465   4.087  14.174 -0.5244  0.1910 -0.4619
  306TMC3    C3 4603   0.497   4.128  14.297 -0.1824 -0.9065 -0.5026
  306TMC3    C4 4604   0.240   4.168  14.201 -0.3718 -0.5920 -0.2901
  306TMC3    C5 4605   0.278   4.209  14.323  0.1131 -0.2910 -0.3637
  306TMC3    C6 4606   0.406   4.185  14.374  0.5715  0.1447  0.0330
  306TMC3     C 4607   0.312   4.015  14.019 -0.0691  0.4361 -0.3048
  306TMC3     O 4608   0.403   4.011  13.938  0.0233  0.0563  0.2454
  306TMC3     H 4609   0.534   4.022  14.121 -0.3195 -0.4023  0.5414
  306TMC3    H1 4610   0.145   4.199  14.159  0.4685  0.1733 -1.6393
  306TMC3    H2 4611   0.436   4.207  14.476 -0.1240  0.0392  0.2620
  306TMC3    C7 4612   0.199   4.317  14.380 -0.4277  0.6065 -0.2870
  306TMC3    C8 4613   0.617   4.085  14.367 -0.1508 -0.1176  0.7028
  306TMC3    O1 4614   0.087   4.335  14.343  0.1451  0.2174 -0.4562
  306TMC3    O2 4615   0.637   3.965  14.370 -0.1123  0.2097 -0.1925
  307MPD2     C 4616   2.485   1.874   0.057 -0.0378 -0.6364  0.5239
  307MPD2    C1 4617   2.499   2.012   0.028  0.0772 -0.4300  0.0030
  307MPD2    C2 4618   2.485   2.101   0.132 -0.6570 -0.6776 -0.5469
  307MPD2    C3 4619   2.461   2.064   0.261  0.5642  0.0025 -0.5725
  307MPD2    C4 4620   2.456   1.930   0.288 -1.2455  0.4513 -0.7878
  307MPD2    C5 4621   2.464   1.840   0.184 -0.7493  0.1153  0.4379
  307MPD2     H 4622   2.502   2.206   0.108  1.0355 -0.0311  3.4750
  307MPD2    H1 4623   2.435   1.886   0.385  1.7944  0.8987  0.0824
  307MPD2    H2 4624   2.482   1.802  17.674 -0.4943  2.1899 -2.0206
  307MPD2    H3 4625   2.451   1.734   0.205 -2.3152  0.6995  2.4643
  307MPD2     N 4626   2.446   2.164   0.362  0.1262  0.1677  0.3550
  307MPD2    H5 4627   2.459   2.263   0.342  1.0497  0.2999  1.5784
  307MPD2    N1 4628   2.540   2.063  17.601 -0.3910 -0.1706  0.2998
  307MPD2    H7 4629   2.547   2.163  17.591 -1.7844 -0.1321 -0.3586
  308TMC3    C1 4630   2.469   2.316   0.805  0.2876  0.0609 -0.0383
  308TMC3    C2 4631   2.558   2.414   0.768  0.2191 -0.8185 -0.1428
  308TMC3    C3 4632   2.585   2.424   0.641 -0.5125  0.3964  0.3050
  308TMC3    C4 4633   2.408   2.225   0.721 -0.7817  0.0251  0.7722
  308TMC3    C5 4634   2.432   2.251   0.587  0.5019  0.3614  0.3354
  308TMC3    C6 4635   2.525   2.344   0.548 -0.1852  0.8710  0.2036
  308TMC3     C 4636   2.396   2.340   0.927  0.4201  0.0389  0.1717
  308TMC3     O 4637   2.439   2.412   1.014 -0.0208 -0.2505 -0.1275
  308TMC3     H 4638   2.595   2.485   0.840  0.5498  0.4340 -1.5524
  308TMC3    H1 4639   2.350   2.140   0.754  1.6909 -1.8044  0.4363
  308TMC3    H2 4640   2.564   2.351   0.447 -0.6149 -1.5103 -0.1234
  308TMC3    C7 4641   2.422   2.141   0.494  0.2328  0.0902 -0.4229
  308TMC3    C8 4642   2.644   2.547   0.608  0.3811  0.0614 -0.5621
  308TMC3    O1 4643   2.423   2.035   0.550  0.6275 -0.1611 -0.2813
  308TMC3    O2 4644   2.754   2.571   0.664 -0.4114  0.6469  0.6322
  309MPD2     C 4645   1.942   2.332  17.240  0.6607  0.7549  0.3489
  309MPD2    C1 4646   1.870   2.429  17.174 -1.2482 -0.4960  0.5334
  309MPD2    C2 4647   1.785   2.508  17.246  0.1616 -0.4408 -0.1058
  309MPD2    C3 4648   1.752   2.479  17.378 -0.4466  0.0039  0.0805
  309MPD2    C4 4649   1.817   2.378  17.441  0.0821 -0.1215  0.4969
  309MPD2    C5 4650   1.914   2.312  17.370  0.2916 -0.6351  0.6677
  309MPD2     H 4651   1.735   2.591  17.196 -0.2680  0.1002  1.2392
  309MPD2    H1 4652   1.795   2.352  17.544 -1.4631  4.2167  1.2570
  309MPD2    H2 4653   2.007   2.258  17.194 -1.2291  0.4463 -1.7853
  309MPD2    H3 4654   1.967   2.230  17.417  1.1294 -0.1703  0.5282
  309MPD2     N 4655   1.653   2.545  17.446 -0.6052  0.0290 -0.0346
  309MPD2    H5 4656   1.642   2.534  17.546  1.1664 -1.6673 -0.0228
  309MPD2    N1 4657   1.882   2.444  17.032  0.2451  0.1209  0.3186
  309MPD2    H7 4658   1.822   2.510  16.984  0.4680 -1.1267 -1.6511
  310TMC3    C1 4659   1.952   2.393  16.812  0.3666  0.0426  0.3177
  310TMC3    C2 4660   1.874   2.494  16.770  0.2873 -0.0512 -0.5234
  310TMC3    C3 4661   1.886   2.536  16.635 -0.1694 -0.3081  0.9331
  310TMC3    C4 4662   2.035   2.325  16.725 -0.2015 -0.0173 -0.2010
  310TMC3    C5 4663   2.040   2.372  16.596  0.2727  0.5065  0.2437
  310TMC3    C6 4664   1.973   2.479  16.547 -0.0915  0.3075 -0.1129
  310TMC3     C 4665   1.953   2.359  16.951  0.8304  0.1297 -0.4099
  310TMC3     O 4666   2.021   2.264  16.977  0.2853  0.1166  0.1783
  310TMC3     H 4667   1.801   2.538  16.837 -0.0696 -0.1463 -0.8551
  310TMC3    H1 4668   2.090   2.238  16.759  0.5940 -0.0694 -1.5929
  310TMC3    H2 4669   1.977   2.514  16.445 -0.9899 -0.7574 -0.5121
  310TMC3    C7 4670   2.160   2.333  16.532 -0.9103 -0.2155 -0.0799
  310TMC3    C8 4671   1.759   2.608  16.599  0.3622  0.1978 -1.0543
  310TMC3    O1 4672   2.202   2.219  16.561  0.3953 -0.4109 -0.2533
  310TMC3    O2 4673   1.661   2.592  16.672  0.2650 -0.0664  0.9384
  311MPD2     C 4674   4.220   3.568  12.730  0.2590  0.2383  0.1692
  311MPD2    C1 4675   4.206   3.701  12.699  0.4339 -0.0898  0.0200
  311MPD2    C2 4676   4.087   3.768  12.719  0.7400  0.0335 -0.3337
  311MPD2    C3 4677   3.974   3.704  12.766 -0.1828 -0.3281  0.8129
  311MPD2    C4 4678   3.985   3.569  12.799  0.3401  0.4172  0.6954
  311MPD2    C5 4679   4.104   3.500  12.785  0.8048 -0.3536  0.3566
  311MPD2     H 4680   4.093   3.875  12.706  0.1685 -0.0546 -1.3374
  311MPD2    H1 4681   3.899   3.512  12.832 -0.6502  1.0449 -0.7893
  311MPD2    H2 4682   4.312   3.511  12.721  0.6231  0.4607  2.5363
  311MPD2    H3 4683   4.117   3.397  12.816 -3.0217  0.0199  3.2025
  311MPD2     N 4684   3.859   3.778  12.783  0.5043 -0.6731  0.2331
  311MPD2    H5 4685   3.852   3.869  12.738  3.2350  0.7708  2.7825
  311MPD2    N1 4686   4.315   3.784  12.651 -0.2285 -0.1990  0.1126
  311MPD2    H7 4687   4.291   3.882  12.640  1.6248  0.2391  0.1074
  312TMC3    C1 4688   3.634   3.832  12.811 -0.1481  0.4677 -0.1706
  312TMC3    C2 4689   3.510   3.775  12.785 -0.6865  0.3143 -0.1160
  312TMC3    C3 4690   3.406   3.857  12.789  0.5369  0.4534 -0.3549
  312TMC3    C4 4691   3.650   3.963  12.839 -0.0192  0.3551  0.1048
  312TMC3    C5 4692   3.542   4.045  12.829 -0.1347  0.4935  0.8877
  312TMC3    C6 4693   3.414   3.989  12.806  0.2416 -0.2860 -0.5454
  312TMC3     C 4694   3.740   3.730  12.819  0.1739  0.2074  0.0544
  312TMC3     O 4695   3.700   3.620  12.857 -0.4349 -0.2560 -0.6368
  312TMC3     H 4696   3.507   3.672  12.750  0.6545 -0.6247  2.5463
  312TMC3    H1 4697   3.747   4.007  12.858  0.9771 -1.5924 -0.4881
  312TMC3    H2 4698   3.338   4.064  12.827 -0.2724 -0.3282 -2.2974
  312TMC3    C7 4699   3.553   4.179  12.891  0.1421  0.1824 -0.2819
  312TMC3    C8 4700   3.272   3.807  12.795  0.6140 -0.0384  0.0532
  312TMC3    O1 4701   3.494   4.269  12.831 -0.4016 -0.5926  0.3959
  312TMC3    O2 4702   3.256   3.683  12.793 -0.2042 -0.0767  0.2389
  313MPD2     C 4703   3.993   2.703  10.726 -0.3025 -1.0237 -0.0153
  313MPD2    C1 4704   3.857   2.728  10.725  0.0226 -0.6821  0.2381
  313MPD2    C2 4705   3.780   2.669  10.631 -0.0572 -0.3061 -0.0202
  313MPD2    C3 4706   3.839   2.590  10.529 -0.4117  0.3184 -0.5291
  313MPD2    C4 4707   3.977   2.577  10.529  0.2353 -0.2323  0.3375
  313MPD2    C5 4708   4.049   2.629  10.631 -0.1985 -0.0418  0.3567
  313MPD2     H 4709   3.674   2.692  10.628 -0.3877 -1.9938 -1.0907
  313MPD2    H1 4710   4.034   2.513  10.462 -3.0435 -1.1657 -1.6090
  313MPD2    H2 4711   4.061   2.731  10.806  1.7436 -0.1380 -2.0258
  313MPD2    H3 4712   4.150   2.590  10.632  0.2242  1.0352 -0.5453
  313MPD2     N 4713   3.756   2.524  10.436 -0.3948  0.5622 -0.4792
  313MPD2    H5 4714   3.662   2.502  10.467 -0.1672  0.1322 -0.0888
  313MPD2    N1 4715   3.797   2.815  10.814 -0.1007  0.1072 -0.8755
  313MPD2    H7 4716   3.697   2.823  10.802 -0.2819 -1.4908 -0.4479
  314TMC3    C1 4717   3.774   2.991  10.968 -0.0498 -0.1684 -0.5500
  314TMC3    C2 4718   3.846   3.066  11.055 -0.0638 -0.5800  0.5028
  314TMC3    C3 4719   3.826   3.202  11.059 -0.1416 -1.3007 -0.2193
  314TMC3    C4 4720   3.671   3.042  10.892  0.0903  0.9078 -0.1892
  314TMC3    C5 4721   3.652   3.180  10.908 -0.6012  0.6899 -0.0659
  314TMC3    C6 4722   3.722   3.262  10.988  0.4325 -0.0642  0.2504
  314TMC3     C 4723   3.856   2.878  10.921  0.2706  0.5995  0.1497
  314TMC3     O 4724   3.977   2.876  10.952  0.2251 -0.4712  0.0525
  314TMC3     H 4725   3.931   3.028  11.109  1.4745  1.3877 -0.5510
  314TMC3    H1 4726   3.604   2.986  10.828  0.3837 -0.7479  0.9273
  314TMC3    H2 4727   3.712   3.369  10.982  0.3902 -0.2586 -3.4043
  314TMC3    C7 4728   3.566   3.226  10.807 -0.0796  0.0273 -0.1185
  314TMC3    C8 4729   3.931   3.301  11.095  0.4655 -0.8055 -0.3526
  314TMC3    O1 4730   3.451   3.179  10.795  0.0602  0.3053 -0.2551
  314TMC3    O2 4731   3.903   3.421  11.094  0.2442 -0.3371  0.3093
  315MPD2     C 4732   2.937   2.213  17.560 -0.6712 -0.0583  0.5127
  315MPD2    C1 4733   2.995   2.231  17.683 -0.0392  0.4437  0.2942
  315MPD2    C2 4734   3.061   2.355   0.014  0.4062  0.0877  0.0325
  315MPD2    C3 4735   3.054   2.452  17.618  0.7133 -0.2376  0.1220
  315MPD2    C4 4736   3.006   2.431  17.492  0.6236 -0.3830 -0.0506
  315MPD2    C5 4737   2.949   2.311  17.464 -0.1139 -0.5135 -0.4846
  315MPD2     H 4738   3.115   2.363   0.108  1.0404  1.7255 -0.4846
  315MPD2    H1 4739   3.003   2.509  17.416  1.0792  0.4445  0.7935
  315MPD2    H2 4740   2.897   2.120  17.523 -1.9767  0.2837  1.0453
  315MPD2    H3 4741   2.910   2.295  17.364 -3.2901  4.2021 -0.0030
  315MPD2     N 4742   3.121   2.569  17.654  0.0982 -0.2296  0.2564
  315MPD2    H5 4743   3.167   2.550   0.045 -1.6775 -1.0494  1.0139
  315MPD2    N1 4744   3.012   2.126   0.075 -0.2804 -0.2538 -0.0273
  315MPD2    H7 4745   3.062   2.143   0.162 -0.8781  1.1899  0.0402
  316TMC3    C1 4746   3.227   2.774  17.666  0.0580  0.2569 -0.4676
  316TMC3    C2 4747   3.280   2.734   0.086  0.1615  0.3072 -0.5115
  316TMC3    C3 4748   3.327   2.833   0.176  0.4416  0.4166 -0.4911
  316TMC3    C4 4749   3.225   2.903  17.621  0.1723 -0.3338  0.1776
  316TMC3    C5 4750   3.287   2.996   0.003  0.9523  0.2646 -0.8008
  316TMC3    C6 4751   3.328   2.963   0.131  0.4106  0.2597  0.5212
  316TMC3     C 4752   3.147   2.680  17.586  0.3909 -0.0086 -0.9325
  316TMC3     O 4753   3.100   2.713  17.475 -0.7245 -0.4639  0.0978
  316TMC3     H 4754   3.293   2.631   0.116 -3.3218  0.9356  3.1460
  316TMC3    H1 4755   3.175   2.938  17.531 -2.6761 -0.2091  1.7962
  316TMC3    H2 4756   3.369   3.042   0.192 -0.4249 -0.1135  1.5684
  316TMC3    C7 4757   3.310   3.134  17.651  0.1211 -0.0160 -0.0798
  316TMC3    C8 4758   3.410   2.801   0.295  0.4506 -0.4514  0.7343
  316TMC3    O1 4759   3.359   3.210   0.037 -0.3487 -0.4299  0.8897
  316TMC3    O2 4760   3.457   2.898   0.350 -0.0488  0.5807 -0.4098
  317MPD2     C 4761   0.579   0.767  12.309 -0.4377 -0.6112 -0.1087
  317MPD2    C1 4762   0.646   0.646  12.288 -0.3411  0.3814  0.4717
  317MPD2    C2 4763   0.727   0.596  12.391  0.1967  0.2570 -0.0353
  317MPD2    C3 4764   0.755   0.674  12.508 -0.8317 -0.2663  0.0246
  317MPD2    C4 4765   0.696   0.803  12.517  0.6188  0.0319 -0.0593
  317MPD2    C5 4766   0.607   0.842  12.423 -0.1685 -0.0605  0.9346
  317MPD2     H 4767   0.787   0.507  12.384 -0.9017 -0.2977 -2.3696
  317MPD2    H1 4768   0.716   0.871  12.599  0.5231  0.4721 -0.4011
  317MPD2    H2 4769   0.511   0.814  12.238  0.2141 -1.7762 -1.5039
  317MPD2    H3 4770   0.560   0.938  12.443 -0.0430 -0.2930  2.3706
  317MPD2     N 4771   0.855   0.634  12.601  0.4500 -0.0986  0.1659
  317MPD2    H5 4772   0.887   0.538  12.589  0.2156 -0.2169  0.4781
  317MPD2    N1 4773   0.638   0.576  12.168 -0.6510  0.9990  0.0218
  317MPD2    H7 4774   0.688   0.488  12.163  1.3961  2.0058  3.1381
  318TMC3    C1 4775   0.986   0.624  12.796  0.4891 -0.7055 -0.6325
  318TMC3    C2 4776   0.913   0.530  12.852  0.2642 -0.0266 -0.5884
  318TMC3    C3 4777   0.930   0.502  12.982 -0.1134 -0.3381  0.5543
  318TMC3    C4 4778   1.095   0.687  12.863 -0.4401  0.2303 -0.2668
  318TMC3    C5 4779   1.123   0.638  12.992 -0.3056  0.3130 -0.2040
  318TMC3    C6 4780   1.038   0.548  13.057  0.0596  0.2409 -0.9197
  318TMC3     C 4781   0.907   0.705  12.704  0.5503  0.5920 -0.5841
  318TMC3     O 4782   0.881   0.820  12.740  0.4395 -0.2407  0.1336
  318TMC3     H 4783   0.834   0.479  12.798 -0.1690  0.5808 -0.5332
  318TMC3    H1 4784   1.146   0.772  12.820 -0.1732  0.7104  1.0036
  318TMC3    H2 4785   1.063   0.531  13.161  0.4551  0.6244 -0.9561
  318TMC3    C7 4786   1.218   0.724  13.071  0.3654 -0.2488  0.5412
  318TMC3    C8 4787   0.836   0.419  13.052 -0.3112  0.0317  0.0403
  318TMC3    O1 4788   1.220   0.846  13.064 -0.4124 -0.5293  0.0260
  318TMC3    O2 4789   0.874   0.374  13.163 -0.7142 -0.2277 -0.0073
  319MPD2     C 4790   1.380   1.797  17.324 -0.1897 -0.1501 -0.4571
  319MPD2    C1 4791   1.320   1.673  17.346 -0.0299  0.3334  0.0878
  319MPD2    C2 4792   1.234   1.617  17.248  0.2567 -0.0811 -0.6591
  319MPD2    C3 4793   1.207   1.698  17.139 -0.6486  0.5880  0.5419
  319MPD2    C4 4794   1.258   1.821  17.121  0.0052 -0.4979  0.5886
  319MPD2    C5 4795   1.338   1.875  17.221 -0.2920 -0.4722 -0.6496
  319MPD2     H 4796   1.185   1.523  17.269 -0.8044  0.5638 -0.2392
  319MPD2    H1 4797   1.227   1.889  17.042 -0.0785  0.7035  1.6724
  319MPD2    H2 4798   1.443   1.856  17.389  1.1246 -0.8218 -1.1306
  319MPD2    H3 4799   1.367   1.979  17.209 -1.4026  0.0700  1.2836
  319MPD2     N 4800   1.114   1.661  17.038 -0.1398 -0.4691 -0.1788
  319MPD2    H5 4801   1.093   1.729  16.966 -1.3051 -2.5798 -1.8316
  319MPD2    N1 4802   1.338   1.610  17.475 -0.6854 -0.1371 -0.4621
  319MPD2    H7 4803   1.280   1.529  17.493  1.7660 -1.5018  1.3632
  320TMC3    C1 4804   0.993   1.532  16.883  0.2407  0.1913  0.1802
  320TMC3    C2 4805   0.932   1.652  16.848  0.1572 -0.0781 -0.4267
  320TMC3    C3 4806   0.893   1.658  16.718  0.4806  0.1360  0.1215
  320TMC3    C4 4807   1.042   1.442  16.788 -0.4223  0.4979  0.3223
  320TMC3    C5 4808   1.012   1.467  16.656  0.2804 -0.3816  0.6829
  320TMC3    C6 4809   0.934   1.575  16.617 -0.3292 -0.7923  0.1706
  320TMC3     C 4810   1.067   1.536  17.003 -0.7581  0.5976  0.0323
  320TMC3     O 4811   1.102   1.432  17.051  0.0576  0.2556  0.7817
  320TMC3     H 4812   0.887   1.716  16.923 -0.1432 -0.6026 -0.1595
  320TMC3    H1 4813   1.096   1.356  16.826 -1.6768 -0.1546  0.6240
  320TMC3    H2 4814   0.920   1.590  16.511 -0.1233 -0.4372  0.1943
  320TMC3    C7 4815   1.060   1.369  16.557  0.0157  0.1844 -0.4142
  320TMC3    C8 4816   0.838   1.785  16.677  0.4320  0.1710  0.0676
  320TMC3    O1 4817   1.046   1.406  16.442 -0.5752  0.4236 -0.6072
  320TMC3    O2 4818   0.877   1.877  16.747 -0.0755 -0.4107 -0.3572
  321TMC3    C1 4819   1.438   1.550  17.675 -0.1763 -0.3368  0.5939
  321TMC3    C2 4820   1.402   1.414  17.651  0.4991  0.7964 -0.4389
  321TMC3    C3 4821   1.401   1.324   0.065 -0.3035 -0.3042  0.6110
  321TMC3    C4 4822   1.497   1.586   0.098 -0.6804  0.0996 -0.6403
  321TMC3    C5 4823   1.498   1.494   0.201 -0.1082  0.2897  0.5626
  321TMC3    C6 4824   1.446   1.369   0.184  0.2832 -0.2840 -0.0328
  321TMC3     C 4825   1.429   1.647  17.564 -0.0791 -0.4028 -0.2460
  321TMC3     O 4826   1.509   1.739  17.571  0.1616 -0.1951  0.1993
  321TMC3     H 4827   1.361   1.378  17.557  1.2866  2.3526 -1.3770
  321TMC3    H1 4828   1.522   1.690   0.113 -2.4183 -0.0232  3.0589
  321TMC3    H2 4829   1.454   1.293   0.260 -0.0939  0.2821  0.5703
  321TMC3    C7 4830   1.618   1.485   0.283 -0.3543  0.2865 -0.1267
  321TMC3    C8 4831   1.462   1.196   0.040 -0.3657 -0.1259 -0.1111
  321TMC3    O1 4832   1.664   1.588   0.330  0.2518  0.6163 -0.1000
  321TMC3    O2 4833   1.578   1.193   0.079  0.4107  0.0928  0.6145
  322MPD2     C 4834   0.383   3.258  13.647  0.0637  0.2607  0.1012
  322MPD2    C1 4835   0.330   3.284  13.771  0.2032  0.7530  1.0664
  322MPD2    C2 4836   0.306   3.173  13.856  0.4895  0.1292  0.1408
  322MPD2    C3 4837   0.306   3.049  13.805  0.4488  0.6554  0.0183
  322MPD2    C4 4838   0.345   3.028  13.679 -0.1721 -0.0701  0.4324
  322MPD2    C5 4839   0.385   3.135  13.595 -0.2898  0.0703 -0.8162
  322MPD2     H 4840   0.295   3.180  13.964  0.8406  1.4852  0.0939
  322MPD2    H1 4841   0.351   2.929  13.635  0.7158 -1.5374  3.8212
  322MPD2    H2 4842   0.428   3.335  13.586  3.7388 -0.6842  1.5684
  322MPD2    H3 4843   0.419   3.111  13.495  1.1633 -0.0329 -0.2908
  322MPD2     N 4844   0.274   2.943  13.901 -0.0166 -0.2842 -0.1541
  322MPD2    H5 4845   0.264   2.969  13.999  1.0909  0.1658 -0.1682
  322MPD2    N1 4846   0.341   3.417  13.822  0.0500 -0.0631 -0.3081
  322MPD2    H7 4847   0.384   3.488  13.763  3.1955 -1.2760  0.5196
  323TMC3    C1 4848   0.351   3.557  14.015 -0.0469 -0.5880  0.0969
  323TMC3    C2 4849   0.453   3.621  13.952 -0.3341 -0.2227  0.4090
  323TMC3    C3 4850   0.529   3.707  14.033 -0.9914  0.3380  0.2775
  323TMC3    C4 4851   0.331   3.556  14.150 -0.4506 -0.0623 -0.3655
  323TMC3    C5 4852   0.417   3.632  14.226  0.0638 -0.3722  1.1563
  323TMC3    C6 4853   0.517   3.705  14.168  0.0387  0.0265  0.2717
  323TMC3     C 4854   0.286   3.446  13.945 -0.6325  0.4823  0.2927
  323TMC3     O 4855   0.204   3.387  14.014  1.0495  0.1884  0.3369
  323TMC3     H 4856   0.482   3.606  13.849  1.9594  0.4041  0.9531
  323TMC3    H1 4857   0.251   3.502  14.200 -0.6532  0.4259 -0.1609
  323TMC3    H2 4858   0.574   3.779  14.222 -1.9543 -0.2976  2.7928
  323TMC3    C7 4859   0.407   3.614  14.373 -0.7195  0.0362 -0.1540
  323TMC3    C8 4860   0.654   3.764  13.984 -1.0347  0.4610  0.1724
  323TMC3    O1 4861   0.332   3.536  14.428 -0.1499  0.6603  0.4953
  323TMC3    O2 4862   0.730   3.789  14.077 -0.2578  0.1045  0.1821
  324MPD2     C 4863   2.388   0.333  14.759 -0.6772  0.3295 -0.1590
  324MPD2    C1 4864   2.428   0.427  14.667  0.8662  0.1306 -0.4380
  324MPD2    C2 4865   2.323   0.480  14.585 -0.3324  0.1043  0.1557
  324MPD2    C3 4866   2.193   0.437  14.591  0.2351  0.1280 -0.3213
  324MPD2    C4 4867   2.156   0.334  14.682  0.1056  0.0263 -0.1660
  324MPD2    C5 4868   2.256   0.285  14.763  0.1985 -0.2766  0.0788
  324MPD2     H 4869   2.359   0.549  14.509 -0.8975  0.5134  0.2574
  324MPD2    H1 4870   2.057   0.291  14.679 -0.1061  0.3617  2.2845
  324MPD2    H2 4871   2.453   0.288  14.834  0.2256 -0.4467 -1.3979
  324MPD2    H3 4872   2.225   0.207  14.831  2.6745 -0.1130  1.3924
  324MPD2     N 4873   2.086   0.493  14.515  0.3770  0.3996  0.2131
  324MPD2    H5 4874   1.998   0.475  14.564  0.7576  0.6031  0.9675
  324MPD2    N1 4875   2.562   0.466  14.637 -0.4787  0.2959  0.2261
  324MPD2    H7 4876   2.575   0.532  14.562 -0.4222 -0.8450 -0.7638
  325TMC3    C1 4877   1.962   0.583  14.332 -0.0090  0.3486 -0.5088
  325TMC3    C2 4878   1.857   0.500  14.367  0.6737 -0.3323  0.4868
  325TMC3    C3 4879   1.755   0.496  14.274 -0.0034 -1.1035  0.7661
  325TMC3    C4 4880   1.960   0.656  14.221  0.3436  0.2202  0.0385
  325TMC3    C5 4881   1.860   0.652  14.122  0.0583  0.0417  0.3464
  325TMC3    C6 4882   1.761   0.563  14.152 -0.2013  0.3712  0.4874
  325TMC3     C 4883   2.092   0.563  14.399 -0.0797 -0.2083  0.2249
  325TMC3     O 4884   2.185   0.593  14.322 -0.5077 -0.0319 -0.7953
  325TMC3     H 4885   1.863   0.417  14.436  2.2854 -0.9826 -0.4425
  325TMC3    H1 4886   2.039   0.729  14.206 -1.6178  2.1636 -0.9511
  325TMC3    H2 4887   1.669   0.549  14.096  0.1149 -1.7004  0.5096
  325TMC3    C7 4888   1.805   0.787  14.101  0.2124 -0.1040 -0.0905
  325TMC3    C8 4889   1.624   0.441  14.323 -0.5153 -0.5589 -0.2511
  325TMC3    O1 4890   1.810   0.823  13.984 -0.4569 -0.1508  0.0779
  325TMC3    O2 4891   1.537   0.412  14.247 -0.1642 -0.0364 -0.4519
  326MPD2     C 4892   2.910   1.076  10.949 -0.0796  0.8243 -0.6280
  326MPD2    C1 4893   2.992   0.962  10.964 -0.8082  0.4141 -0.4872
  326MPD2    C2 4894   3.119   0.973  11.013 -0.0497 -1.0029 -0.4906
  326MPD2    C3 4895   3.168   1.095  11.053  0.4868 -0.1878  0.6563
  326MPD2    C4 4896   3.086   1.206  11.050 -0.1958  1.0141  0.0696
  326MPD2    C5 4897   2.957   1.199  10.989 -0.5551 -0.7827  0.4240
  326MPD2     H 4898   3.183   0.886  11.007  2.9850  1.0484  1.9751
  326MPD2    H1 4899   3.121   1.301  11.089  0.8891  1.0242 -0.9060
  326MPD2    H2 4900   2.814   1.093  10.902  0.3701  0.6444 -1.6047
  326MPD2    H3 4901   2.911   1.296  10.975  0.4976 -0.4716 -0.9019
  326MPD2     N 4902   3.307   1.119  11.087 -0.3561 -0.0932  0.7292
  326MPD2    H5 4903   3.331   1.217  11.095  0.7969 -0.4237  1.4228
  326MPD2    N1 4904   2.938   0.837  10.929 -0.2355  0.1116  0.4412
  326MPD2    H7 4905   2.985   0.757  10.969  2.5884  1.9845  0.8349
  327TMC3    C1 4906   2.771   0.683  10.844 -0.6369 -0.3435  0.4001
  327TMC3    C2 4907   2.637   0.656  10.795 -0.3596  0.0647 -0.2520
  327TMC3    C3 4908   2.600   0.523  10.770 -0.0484 -0.2893  0.3342
  327TMC3    C4 4909   2.846   0.576  10.884  0.0026  0.8442 -0.0953
  327TMC3    C5 4910   2.809   0.446  10.865  0.2969 -1.0967  0.5273
  327TMC3    C6 4911   2.689   0.420  10.801  0.5587 -0.1214 -0.0952
  327TMC3     C 4912   2.815   0.820  10.859  0.0554  0.1381 -0.0850
  327TMC3     O 4913   2.748   0.901  10.790  0.3538 -0.1185  0.3345
  327TMC3     H 4914   2.583   0.741  10.755 -0.6668 -0.5158 -1.0613
  327TMC3    H1 4915   2.943   0.592  10.929 -0.5973 -1.7518  2.0958
  327TMC3    H2 4916   2.653   0.318  10.797 -2.2841  0.7409  2.8250
  327TMC3    C7 4917   2.880   0.331  10.921 -0.3840 -0.3193 -0.0909
  327TMC3    C8 4918   2.470   0.480  10.725  0.9728  0.9745  0.7139
  327TMC3    O1 4919   2.835   0.222  10.890 -0.0966 -0.3514 -0.0994
  327TMC3    O2 4920   2.429   0.381  10.785  0.1384 -0.2931  0.1503
  328MPD2     C 4921   0.915   0.574  17.272  0.4309  0.6746 -0.3081
  328MPD2    C1 4922   0.802   0.543  17.193  0.0925  0.5760 -1.0000
  328MPD2    C2 4923   0.758   0.634  17.098  0.2303  0.3824 -0.8729
  328MPD2    C3 4924   0.827   0.752  17.073  0.8123  0.1695 -0.8598
  328MPD2    C4 4925   0.943   0.778  17.139 -0.6749 -0.0027 -0.2066
  328MPD2    C5 4926   0.978   0.692  17.241 -0.4293 -0.3162 -0.1471
  328MPD2     H 4927   0.669   0.605  17.043  1.8147 -0.8387 -2.7846
  328MPD2    H1 4928   0.987   0.877  17.141 -0.7324 -0.0442  2.8929
  328MPD2    H2 4929   0.948   0.510  17.353  0.6991 -0.6332 -1.4497
  328MPD2    H3 4930   1.061   0.719  17.305  1.1303 -0.3800 -2.1483
  328MPD2     N 4931   0.784   0.843  16.970  0.1327 -0.4318  0.4681
  328MPD2    H5 4932   0.826   0.935  16.967  0.6450 -0.6542  0.6546
  328MPD2    N1 4933   0.728   0.423  17.207  0.8746  0.2037 -0.2736
  328MPD2    H7 4934   0.649   0.398  17.149  0.3314  1.2273  0.0339
  329TMC3    C1 4935   0.674   0.206  17.272 -0.2689  0.6149  0.2304
  329TMC3    C2 4936   0.544   0.250  17.282  0.1336 -0.2607  0.3857
  329TMC3    C3 4937   0.441   0.166  17.244  0.0952 -0.2440  0.6621
  329TMC3    C4 4938   0.696   0.096  17.195 -0.1646 -0.2226  0.6426
  329TMC3    C5 4939   0.592   0.019  17.154  0.0995  0.3244  0.1594
  329TMC3    C6 4940   0.465   0.048  17.182  0.1640 -0.1754  0.0804
  329TMC3     C 4941   0.776   0.308  17.272  0.5533  0.3833 -0.0136
  329TMC3     O 4942   0.891   0.282  17.295 -0.0084  0.1607  0.3620
  329TMC3     H 4943   0.529   0.354  17.312 -2.0481 -0.7827  1.1177
  329TMC3    H1 4944   0.798   0.062  17.185  0.0303  0.5129  0.1038
  329TMC3    H2 4945   0.390   4.708  17.137 -0.0360  0.6209 -0.7230
  329TMC3    C7 4946   0.623   4.628  17.072  0.0625 -0.4181  0.1683
  329TMC3    C8 4947   0.297   0.224  17.241  0.1544 -0.5675  0.0066
  329TMC3    O1 4948   0.713   4.646  16.990  0.2514 -0.1323  0.2975
  329TMC3    O2 4949   0.220   0.148  17.182 -0.1653 -0.2406 -0.5788
  330TMC3    C1 4950   3.394   0.070   9.312 -0.3774 -0.0630 -0.5019
  330TMC3    C2 4951   3.438   4.679   9.256  0.0180 -0.2655 -0.5112
  330TMC3    C3 4952   3.562   4.632   9.286  0.0178 -0.1897 -0.3789
  330TMC3    C4 4953   3.477   0.148   9.386  0.1292  0.4116  0.3046
  330TMC3    C5 4954   3.595   0.087   9.429  0.9766 -0.1392 -0.0994
  330TMC3    C6 4955   3.646   4.701   9.371 -0.0286 -0.0291  0.1390
  330TMC3     C 4956   3.280   0.138   9.258  0.4359  1.1319  0.4041
  330TMC3     O 4957   3.275   0.261   9.265 -0.3785  0.2539 -0.2427
  330TMC3     H 4958   3.376   4.635   9.178 -0.1019 -2.4821  0.8179
  330TMC3    H1 4959   3.447   0.240   9.435  0.5601  0.1428  1.0911
  330TMC3    H2 4960   3.748   4.667   9.385  0.8638  3.5243  2.1946
  330TMC3    C7 4961   3.678   0.174   9.513 -0.4421 -0.4863 -0.1738
  330TMC3    C8 4962   3.611   4.537   9.193 -0.6731 -0.6395  0.3346
  330TMC3    O1 4963   3.635   0.287   9.535 -0.1667  0.1776  0.0404
  330TMC3    O2 4964   3.572   4.541   9.076 -0.0197  0.6210  0.6838
  331MPD2     C 4965   1.063   3.664  12.409 -0.4018  0.6292  0.2416
  331MPD2    C1 4966   1.160   3.684  12.310  0.3400  0.0870  0.0627
  331MPD2    C2 4967   1.244   3.577  12.285 -0.2998 -0.5085 -0.4746
  331MPD2    C3 4968   1.243   3.462  12.354  0.3403  0.4301  0.2024
  331MPD2    C4 4969   1.147   3.447  12.452  0.4314  0.0758 -0.5775
  331MPD2    C5 4970   1.062   3.553  12.477 -0.0027  0.3583 -0.0486
  331MPD2     H 4971   1.318   3.588  12.207 -0.0686 -1.0229 -0.3220
  331MPD2    H1 4972   1.144   3.355  12.509 -0.4841 -0.1145 -0.9309
  331MPD2    H2 4973   0.997   3.738  12.451 -1.5962 -0.3158  0.0288
  331MPD2    H3 4974   0.992   3.546  12.560  1.1739  0.5466  0.9546
  331MPD2     N 4975   1.342   3.370  12.324  0.5082  0.2327 -0.1405
  331MPD2    H5 4976   1.407   3.380  12.246  0.7268  1.9618  0.2695
  331MPD2    N1 4977   1.181   3.814  12.248  0.6962  0.0476 -0.7602
  331MPD2    H7 4978   1.251   3.819  12.175  1.2955  0.5584 -0.1511
  332TMC3    C1 4979   1.467   3.174  12.333  0.4899 -0.4008  0.6405
  332TMC3    C2 4980   1.531   3.209  12.222  0.6801 -0.0537 -0.0408
  332TMC3    C3 4981   1.662   3.169  12.202  0.3818 -0.9080 -0.0336
  332TMC3    C4 4982   1.532   3.095  12.427  0.1257 -0.3966 -0.2345
  332TMC3    C5 4983   1.667   3.083  12.418  0.3772  0.2173  0.3706
  332TMC3    C6 4984   1.729   3.115  12.303 -0.4907 -0.3158  0.5381
  332TMC3     C 4985   1.361   3.252  12.391  0.1419 -0.4617  0.0626
  332TMC3     O 4986   1.317   3.215  12.499 -0.1232 -0.5163  0.0537
  332TMC3     H 4987   1.483   3.259  12.138 -1.2356  1.2635  1.8391
  332TMC3    H1 4988   1.478   3.068  12.517  1.2266  2.7715  1.3687
  332TMC3    H2 4989   1.833   3.084  12.302 -0.4078  0.0725 -1.3646
  332TMC3    C7 4990   1.736   3.030  12.539  0.1353  0.2759  0.4717
  332TMC3    C8 4991   1.730   3.224  12.093  0.4658 -0.1546  0.3957
  332TMC3    O1 4992   1.667   2.953  12.602 -0.2648  0.1689 -0.4192
  332TMC3    O2 4993   1.680   3.220  11.981  0.1896 -0.0558 -0.1890
  333MPD2     C 4994   1.963   3.837  11.359  0.2830  0.0567  1.3348
  333MPD2    C1 4995   2.060   3.748  11.309 -0.0018 -0.4868  0.2881
  333MPD2    C2 4996   2.025   3.613  11.340 -0.6482  0.1668 -0.1393
  333MPD2    C3 4997   1.921   3.568  11.418  0.7017 -0.5305 -0.0722
  333MPD2    C4 4998   1.843   3.667  11.474 -0.4813  0.2022 -0.5135
  333MPD2    C5 4999   1.853   3.798  11.435  0.2289  0.0401  0.5527
  333MPD2     H 5000   2.094   3.533  11.314 -0.4915  0.3635 -0.3367
  333MPD2    H1 5001   1.763   3.644  11.544  0.0687 -1.3400 -0.3843
  333MPD2    H2 5002   1.970   3.945  11.346  0.6746  0.0293  1.3388
  333MPD2    H3 5003   1.788   3.874  11.477  2.5413  1.6411  1.1698
  333MPD2     N 5004   1.898   3.429  11.440 -0.7619 -0.2296  0.4109
  333MPD2    H5 5005   1.975   3.372  11.407 -0.7842  0.1774 -0.3360
  333MPD2    N1 5006   2.172   3.797  11.241  0.5009 -1.0365  0.0020
  333MPD2    H7 5007   2.192   3.897  11.244 -0.7814 -0.7127 -1.8381
  334TMC3    C1 5008   2.374   3.777  11.108 -0.6259 -0.2995 -0.5897
  334TMC3    C2 5009   2.476   3.697  11.088 -0.8370  0.7090  0.1694
  334TMC3    C3 5010   2.598   3.760  11.082  0.2620  0.2468  1.5792
  334TMC3    C4 5011   2.377   3.907  11.098  0.2263 -0.7585 -0.4882
  334TMC3    C5 5012   2.499   3.971  11.075 -0.0492 -0.2573 -0.2582
  334TMC3    C6 5013   2.614   3.894  11.076 -0.5483  0.5346  0.1003
  334TMC3     C 5014   2.256   3.714  11.167 -0.6616 -0.4749 -0.5809
  334TMC3     O 5015   2.252   3.592  11.151 -0.3353  0.1222  0.2034
  334TMC3     H 5016   2.471   3.591  11.109 -0.0527  0.2863 -1.7897
  334TMC3    H1 5017   2.283   3.961  11.099  1.1827  0.8631  2.8929
  334TMC3    H2 5018   2.712   3.938  11.062  0.2692 -1.6020 -0.9396
  334TMC3    C7 5019   2.511   4.115  11.059  0.1001  0.3595 -0.3323
  334TMC3    C8 5020   2.705   3.672  11.112  0.2669 -0.7360 -0.2854
  334TMC3    O1 5021   2.624   4.160  11.068  0.0302  0.5839 -0.3179
  334TMC3    O2 5022   2.682   3.568  11.176  0.5958 -0.1031 -0.0130
  335TMC3    C1 5023   1.834   0.539  17.501  0.3684  0.3067 -0.7306
  335TMC3    C2 5024   1.763   0.522  17.384 -0.5260  0.0027  0.3267
  335TMC3    C3 5025   1.792   0.606  17.280 -0.3188 -0.0023 -0.7490
  335TMC3    C4 5026   1.928   0.632  17.520  0.6045 -0.7645  0.4494
  335TMC3    C5 5027   1.954   0.710  17.408 -0.5274 -1.0010  0.0439
  335TMC3    C6 5028   1.898   0.690  17.287 -0.0750 -0.0559  0.0263
  335TMC3     C 5029   1.805   0.445  17.606  0.5470 -0.2534  0.4696
  335TMC3     O 5030   1.909   0.415  17.670 -0.5612 -0.0261 -0.2560
  335TMC3     H 5031   1.684   0.448  17.385 -1.3163  0.8411  0.9695
  335TMC3    H1 5032   1.977   0.641  17.616 -1.6737 -2.2453  1.7567
  335TMC3    H2 5033   1.947   0.739  17.204  1.4713  2.1179  2.2340
  335TMC3    C7 5034   2.080   0.773  17.410 -0.4130  0.2978 -0.1295
  335TMC3    C8 5035   1.750   0.574  17.149 -0.1738 -0.0343  0.2212
  335TMC3    O1 5036   2.147   0.793  17.304  0.2511  0.7370  0.1226
  335TMC3    O2 5037   1.811   0.628  17.055  0.4014 -0.3304 -0.7260
  336MPD2     C 5038   1.232   3.375  16.153 -0.4783 -0.6048  0.1630
  336MPD2    C1 5039   1.129   3.320  16.084 -0.2339  0.0253 -0.5755
  336MPD2    C2 5040   1.080   3.198  16.125 -0.0877  0.4968  1.0095
  336MPD2    C3 5041   1.135   3.120  16.223 -0.5563  0.0954  0.8181
  336MPD2    C4 5042   1.245   3.179  16.289  0.0512 -0.6460  0.4723
  336MPD2    C5 5043   1.286   3.304  16.259 -0.7749  0.5692 -0.3113
  336MPD2     H 5044   0.988   3.163  16.079  0.9947 -0.8914 -0.1309
  336MPD2    H1 5045   1.285   3.128  16.376  0.0623  1.2139  1.5661
  336MPD2    H2 5046   1.282   3.462  16.111  0.1954 -0.6615  0.8494
  336MPD2    H3 5047   1.366   3.348  16.317  0.2434 -0.8945 -0.6102
  336MPD2     N 5048   1.092   3.003  16.287 -0.6697  0.3197 -0.3443
  336MPD2    H5 5049   1.152   2.972  16.363 -0.4734 -1.8656 -1.4108
  336MPD2    N1 5050   1.043   3.396  15.999  0.1077 -0.6974 -0.0891
  336MPD2    H7 5051   0.966   3.344  15.958 -1.4897  1.3655  0.3230
  337TMC3    C1 5052   0.952   3.584  15.883 -0.3512  0.1467 -0.1709
  337TMC3    C2 5053   0.839   3.514  15.860 -0.1352 -0.0867  0.5538
  337TMC3    C3 5054   0.732   3.576  15.797  0.4940 -0.2278  0.2872
  337TMC3    C4 5055   0.969   3.718  15.850  0.2437  0.1114 -0.0168
  337TMC3    C5 5056   0.859   3.771  15.790 -0.0204 -0.0483  0.4142
  337TMC3    C6 5057   0.740   3.709  15.754 -0.2275  0.3398  0.3829
  337TMC3     C 5058   1.052   3.531  15.975 -0.0795  0.3923  0.3716
  337TMC3     O 5059   1.127   3.607  16.034 -0.2603 -0.0059  0.8150
  337TMC3     H 5060   0.833   3.411  15.891 -1.8072 -0.4200 -0.9050
  337TMC3    H1 5061   1.048   3.784  15.885 -2.6554  2.8551  1.2456
  337TMC3    H2 5062   0.650   3.762  15.724  1.0113  2.2464  0.0908
  337TMC3    C7 5063   0.868   3.911  15.768  1.4860 -0.5440 -0.4518
  337TMC3    C8 5064   0.618   3.493  15.765  0.9967  0.3672 -0.4640
  337TMC3    O1 5065   0.970   3.968  15.807  0.1498  0.5004  0.0657
  337TMC3    O2 5066   0.604   3.398  15.837  0.3235 -0.3885 -0.3748
  338MPD2     C 5067   1.161   2.770   0.993  0.6268 -0.1817 -0.5033
  338MPD2    C1 5068   1.119   2.659   0.921  0.2524 -0.7000  0.3714
  338MPD2    C2 5069   0.986   2.649   0.878 -0.5118 -0.2129  0.6975
  338MPD2    C3 5070   0.886   2.745   0.898  0.1863  0.0093 -0.8201
  338MPD2    C4 5071   0.935   2.858   0.957  0.0148  0.1897  0.3120
  338MPD2    C5 5072   1.063   2.868   1.005 -0.0964 -0.4825  0.0124
  338MPD2     H 5073   0.962   2.558   0.824 -2.9761 -0.3837  2.0885
  338MPD2    H1 5074   0.875   2.947   0.969  1.3056  1.2383 -0.9713
  338MPD2    H2 5075   1.262   2.799   1.017  0.5690 -0.1886 -0.2554
  338MPD2    H3 5076   1.092   2.964   1.046  0.2508  0.8339 -3.3499
  338MPD2     N 5077   0.753   2.737   0.842 -0.2911  0.0034 -0.4223
  338MPD2    H5 5078   0.732   2.670   0.768 -0.4818 -0.6956  0.2712
  338MPD2    N1 5079   1.201   2.546   0.901  0.4856  0.0662  0.2908
  338MPD2    H7 5080   1.164   2.462   0.859 -0.9137  0.1465  1.3527
  339TMC3    C1 5081   0.541   2.796   0.772  0.2710  0.3505 -0.0312
  339TMC3    C2 5082   0.521   2.655   0.776  0.3759 -0.1042  0.0535
  339TMC3    C3 5083   0.489   2.591   0.667 -0.9135  0.2983 -0.2026
  339TMC3    C4 5084   0.517   2.852   0.653 -0.7243  0.3401  0.4042
  339TMC3    C5 5085   0.488   2.782   0.536 -0.3049  0.4580 -0.1924
  339TMC3    C6 5086   0.477   2.650   0.543 -0.5231  1.1167  0.5180
  339TMC3     C 5087   0.659   2.837   0.840  0.6017 -0.1193 -0.6169
  339TMC3     O 5088   0.655   2.951   0.874  0.2062  0.2442 -0.2382
  339TMC3     H 5089   0.537   2.607   0.872 -0.2392 -1.6090 -0.5914
  339TMC3    H1 5090   0.525   2.960   0.651 -2.9450  0.5497  3.7782
  339TMC3    H2 5091   0.443   2.584   0.464  0.3412  0.5947  0.5890
  339TMC3    C7 5092   0.570   2.838   0.427 -0.8648 -0.0836  0.5111
  339TMC3    C8 5093   0.468   2.449   0.661  0.2211  0.3433 -0.0371
  339TMC3    O1 5094   0.594   2.959   0.429 -0.0467  0.0211  0.1646
  339TMC3    O2 5095   0.445   2.395   0.552  0.1292  0.0937 -0.4309
  340MPD2     C 5096   1.979   0.165  10.080 -0.0279 -0.5376 -0.6167
  340MPD2    C1 5097   1.963   0.034  10.109 -0.2332  0.0347  0.1255
  340MPD2    C2 5098   1.953   4.715  10.241 -0.7214  0.0519  0.2080
  340MPD2    C3 5099   1.968   0.076  10.344 -0.5977  0.0810 -0.3758
  340MPD2    C4 5100   1.979   0.211  10.315  0.2810 -0.7024 -0.1028
  340MPD2    C5 5101   1.975   0.252  10.185  0.9547 -0.8714 -0.5136
  340MPD2     H 5102   1.939   4.609  10.261 -1.0205 -0.2140 -1.3959
  340MPD2    H1 5103   1.992   0.283  10.394 -1.6534 -1.1565  0.6215
  340MPD2    H2 5104   1.987   0.192   9.975  1.8753  1.2760 -0.0070
  340MPD2    H3 5105   1.992   0.355  10.159  1.5320 -0.2714  2.3119
  340MPD2     N 5106   1.992   0.042  10.480 -0.1588  0.1887  0.2242
  340MPD2    H5 5107   2.014   0.117  10.544 -1.1792  1.9185 -1.4653
  340MPD2    N1 5108   1.956   4.672   9.990  0.6359 -0.6085 -0.1547
  340MPD2    H7 5109   1.973   4.712   9.898 -1.2106  2.6030  0.8804
  341TMC3    C1 5110   1.924   4.459   9.883 -0.4903  0.2215 -0.0651
  341TMC3    C2 5111   1.866   4.337   9.884 -0.5674  0.7586 -0.1360
  341TMC3    C3 5112   1.899   4.251   9.783  0.9241  0.5816  0.6653
  341TMC3    C4 5113   2.022   4.501   9.793  0.1901  0.3577 -0.3910
  341TMC3    C5 5114   2.045   4.416   9.690 -0.0665 -0.1034  0.2065
  341TMC3    C6 5115   1.987   4.292   9.685 -0.0938 -0.3692  0.7516
  341TMC3     C 5116   1.912   4.535  10.002 -0.7467 -0.9552  0.4675
  341TMC3     O 5117   1.842   4.479  10.087  0.0188 -0.4230 -1.2861
  341TMC3     H 5118   1.789   4.313   9.957 -0.8974 -1.5306 -1.2362
  341TMC3    H1 5119   2.079   4.593   9.800 -1.1835  1.0727  1.2975
  341TMC3    H2 5120   1.991   4.246   9.587 -0.6414 -0.9238  0.9928
  341TMC3    C7 5121   2.162   4.431   9.599 -0.4449  0.6886  0.1437
  341TMC3    C8 5122   1.833   4.123   9.779 -0.7226 -0.0928 -0.1666
  341TMC3    O1 5123   2.201   4.332   9.542 -0.2636 -0.1521  0.5014
  341TMC3    O2 5124   1.734   4.112   9.849  0.5078 -0.3248  0.5218
  342MPD2     C 5125   3.845   3.525   0.224 -0.6104 -0.6455  0.1982
  342MPD2    C1 5126   3.966   3.530   0.148 -0.2315 -0.5377  0.4444
  342MPD2    C2 5127   3.999   3.641   0.075  0.4230 -0.0030  0.3002
  342MPD2    C3 5128   3.920   3.756   0.088  0.4175  0.3277  0.4195
  342MPD2    C4 5129   3.807   3.753   0.169  0.3294 -0.2754  0.0950
  342MPD2    C5 5130   3.766   3.639   0.231 -0.1492 -0.1504  0.0205
  342MPD2     H 5131   4.083   3.641   0.006  2.4039  0.1279  2.7252
  342MPD2    H1 5132   3.742   3.838   0.185 -1.3656 -0.8307 -3.6580
  342MPD2    H2 5133   3.805   3.436   0.271 -1.6484 -1.3726 -2.0549
  342MPD2    H3 5134   3.668   3.629   0.278 -0.9454 -2.4962 -2.1590
  342MPD2     N 5135   3.959   3.884   0.037  0.5108 -0.5389  0.5545
  342MPD2    H5 5136   3.887   3.955   0.045 -0.5356 -1.7375  1.8696
  342MPD2    N1 5137   4.050   3.416   0.126  0.3527 -0.2445  0.2373
  342MPD2    H7 5138   4.120   3.428   0.053 -2.1388  1.1657 -1.9111
  343TMC3    C1 5139   4.100   3.190   0.088 -0.0341 -0.7539  0.4016
  343TMC3    C2 5140   4.204   3.229   0.006  1.1195  0.0079  0.5528
  343TMC3    C3 5141   4.268   3.138  17.629  0.5108 -0.0449  0.3354
  343TMC3    C4 5142   4.073   3.054   0.091  0.6088 -0.3153  0.0229
  343TMC3    C5 5143   4.138   2.966   0.013 -0.6017  0.2161 -0.7580
  343TMC3    C6 5144   4.243   3.008  17.632  0.0449  0.8553  0.4334
  343TMC3     C 5145   4.031   3.289   0.169 -1.1955 -0.0749 -1.4124
  343TMC3     O 5146   3.954   3.249   0.257 -0.1309  0.6169  0.2107
  343TMC3     H 5147   4.231   3.334   0.005 -0.6179  0.4627  2.6289
  343TMC3    H1 5148   3.996   3.014   0.156 -0.6044  2.9071  0.5715
  343TMC3    H2 5149   4.281   2.930  17.567  1.4050  1.4774  0.4755
  343TMC3    C7 5150   4.067   2.853  17.652 -0.0302 -0.0796  0.3134
  343TMC3    C8 5151   4.367   3.187  17.539  0.1759  0.1833 -0.1572
  343TMC3    O1 5152   4.073   2.838  17.532  0.3881  0.0494 -0.1514
  343TMC3    O2 5153   4.341   3.296  17.495  0.2395  0.0307 -0.1743
  344MPD2     C 5154   1.319   2.480  10.677 -0.5595  0.3370  0.3716
  344MPD2    C1 5155   1.194   2.464  10.620  0.6320 -0.0414 -0.1091
  344MPD2    C2 5156   1.187   2.469  10.481  0.5897 -0.1781  0.3225
  344MPD2    C3 5157   1.300   2.508  10.407  0.1497  0.4010  0.5399
  344MPD2    C4 5158   1.426   2.521  10.464  0.2231 -0.0499 -0.3127
  344MPD2    C5 5159   1.426   2.514  10.603 -0.2384 -0.6076 -0.1893
  344MPD2     H 5160   1.092   2.478  10.429 -0.3458 -1.3652  1.8083
  344MPD2    H1 5161   1.515   2.554  10.413 -0.6218 -1.5714 -2.8324
  344MPD2    H2 5162   1.334   2.490  10.783 -0.0121 -0.0451  0.3305
  344MPD2    H3 5163   1.525   2.530  10.645  0.4475 -0.2425 -1.9208
  344MPD2     N 5164   1.291   2.556  10.277  0.1202 -0.5252 -0.0084
  344MPD2    H5 5165   1.382   2.584  10.242  0.3215  0.1495  1.0502
  344MPD2    N1 5166   1.076   2.448  10.701 -0.1197  0.5590 -0.2689
  344MPD2    H7 5167   0.990   2.425  10.651 -1.0174 -0.6759  1.8399
  345TMC3    C1 5168   1.200   2.610  10.066 -0.3783  0.3145 -0.2072
  345TMC3    C2 5169   1.296   2.708  10.059 -0.2278  0.2075  0.0805
  345TMC3    C3 5170   1.272   2.809   9.972  0.1853 -0.0954  0.5068
  345TMC3    C4 5171   1.092   2.606   9.979  0.1192  0.0326  0.2176
  345TMC3    C5 5172   1.073   2.713   9.897 -0.7931  0.0799  0.3210
  345TMC3    C6 5173   1.159   2.822   9.893  0.3017  0.0308  0.3090
  345TMC3     C 5174   1.185   2.541  10.191 -0.1547 -0.3168  0.1286
  345TMC3     O 5175   1.079   2.477  10.207  0.3350 -0.5844 -0.5332
  345TMC3     H 5176   1.382   2.719  10.125 -1.0468 -2.2931  1.5946
  345TMC3    H1 5177   1.023   2.524   9.988  0.4755 -0.5265 -2.1616
  345TMC3    H2 5178   1.131   2.915   9.845 -1.1740 -0.1325  0.8438
  345TMC3    C7 5179   0.933   2.731   9.843 -0.7963  0.0279  0.2901
  345TMC3    C8 5180   1.363   2.918   9.990 -0.0424  0.0889  0.1941
  345TMC3    O1 5181   0.855   2.642   9.830  0.0316  1.1623  0.3284
  345TMC3    O2 5182   1.430   2.934  10.092  0.8727 -0.0872 -0.3527
  346MPD2     C 5183   0.830   0.040  14.134 -0.4456 -0.7189  0.0949
  346MPD2    C1 5184   0.898   0.151  14.077 -0.4456 -0.0303 -0.2594
  346MPD2    C2 5185   0.958   0.242  14.161 -0.1085  0.0877  0.9084
  346MPD2    C3 5186   0.966   0.210  14.296 -0.5186 -1.0420 -0.8499
  346MPD2    C4 5187   0.908   0.091  14.346 -0.1120  0.3488  0.0428
  346MPD2    C5 5188   0.840   0.010  14.264  0.3706 -0.4604 -0.2766
  346MPD2     H 5189   1.004   0.334  14.126 -0.4603  0.1448  0.6010
  346MPD2    H1 5190   0.903   0.075  14.453 -0.1581 -3.3654 -0.5168
  346MPD2    H2 5191   0.775   4.691  14.076 -0.2576 -2.2669  1.8675
  346MPD2    H3 5192   0.782   4.654  14.308 -0.1949 -0.1986 -0.5435
  346MPD2     N 5193   1.039   0.299  14.382 -0.0808 -0.3245  0.3225
  346MPD2    H5 5194   1.071   0.385  14.339 -0.0147 -0.7251 -0.4216
  346MPD2    N1 5195   0.898   0.177  13.941 -0.7435 -0.3822  0.4149
  346MPD2    H7 5196   0.944   0.260  13.905  0.1290 -0.8438  0.4785
  347TMC3    C1 5197   1.121   0.391  14.576  0.0283 -0.4773  0.0649
  347TMC3    C2 5198   1.198   0.476  14.503  0.0656  0.0922  0.2569
  347TMC3    C3 5199   1.254   0.580  14.573 -0.2264 -0.9744  0.1920
  347TMC3    C4 5200   1.097   0.405  14.718  0.3421  0.7316 -0.5777
  347TMC3    C5 5201   1.171   0.505  14.780 -0.6276 -0.1116 -0.4290
  347TMC3    C6 5202   1.238   0.600  14.704 -0.2524 -0.2679 -0.2998
  347TMC3     C 5203   1.044   0.285  14.517 -0.4715  0.0533 -0.1958
  347TMC3     O 5204   0.989   0.215  14.601 -0.3220  0.3825  0.4524
  347TMC3     H 5205   1.232   0.460  14.401  0.0292  3.1070 -0.2198
  347TMC3    H1 5206   1.031   0.350  14.784 -0.2433  0.6855 -1.2094
  347TMC3    H2 5207   1.294   0.678  14.755 -0.0910 -0.5134 -0.1007
  347TMC3    C7 5208   1.124   0.536  14.914 -0.1964  0.1360 -0.2141
  347TMC3    C8 5209   1.343   0.672  14.512  0.0002 -0.1744  0.5150
  347TMC3    O1 5210   1.007   0.525  14.947  0.0148 -0.4640  0.1040
  347TMC3    O2 5211   1.437   0.717  14.577 -0.7062 -0.1507  0.3029
  348MPD2     C 5212   4.034   4.441  12.217 -0.2475  0.5414 -0.3986
  348MPD2    C1 5213   4.137   4.429  12.128 -0.5248 -0.0587 -0.1461
  348MPD2    C2 5214   4.121   4.458  11.997  0.4186  0.3865 -0.2066
  348MPD2    C3 5215   3.996   4.488  11.939  0.2743 -0.0708  0.4576
  348MPD2    C4 5216   3.886   4.497  12.022 -0.9786 -0.4467  0.0965
  348MPD2    C5 5217   3.910   4.487  12.158  0.2863  0.1415  0.1103
  348MPD2     H 5218   4.209   4.455  11.935 -0.0726  0.1374 -0.8928
  348MPD2    H1 5219   3.786   4.524  11.990 -1.5730 -0.7679  1.7006
  348MPD2    H2 5220   4.033   4.407  12.320  1.3885 -2.4705 -1.3764
  348MPD2    H3 5221   3.830   4.509  12.228  0.6621 -1.0300  0.9086
  348MPD2     N 5222   3.990   4.517  11.798  0.5817  0.0937 -0.3832
  348MPD2    H5 5223   4.078   4.544  11.754  1.0190 -0.7064 -0.0112
  348MPD2    N1 5224   4.264   4.379  12.164  0.1824 -0.3642  0.1724
  348MPD2    H7 5225   4.331   4.372  12.087 -0.2555 -0.5328 -0.1952
  349TMC3    C1 5226   4.431   4.265  12.267  0.2170 -0.5054 -0.7266
  349TMC3    C2 5227   4.451   4.127  12.278 -0.2852 -0.1856  0.2008
  349TMC3    C3 5228   4.538   4.064  12.186  0.5269 -0.3639 -0.1586
  349TMC3    C4 5229   4.510   4.339  12.187  0.5295  0.1877  0.3319
  349TMC3    C5 5230   4.597   4.275  12.104 -0.0636  0.3994 -0.0600
  349TMC3    C6 5231   4.612   4.137  12.090  0.3844 -0.0079  0.0511
  349TMC3     C 5232   4.298   4.318  12.284 -0.3206 -0.6862  0.0209
  349TMC3     O 5233   4.228   4.271  12.374  0.7008 -0.6415  0.0726
  349TMC3     H 5234   4.379   4.061  12.326 -0.2320 -0.7246 -0.4640
  349TMC3    H1 5235   4.499   4.446  12.179 -0.6745  0.2954  3.5002
  349TMC3    H2 5236   4.684   4.095  12.022  1.9761 -2.1459  3.0722
  349TMC3    C7 5237   4.600   4.346  11.976  0.2598 -0.1307  0.1551
  349TMC3    C8 5238   4.563   3.929  12.212  0.9128 -0.2321  0.7380
  349TMC3    O1 5239   4.575   4.279  11.876 -0.2673  0.4798  0.3229
  349TMC3    O2 5240   4.484   3.877  12.285 -0.2464 -0.1447 -0.5008
  350MPD2     C 5241   3.050   2.127   9.907  0.2678 -0.1547 -0.6311
  350MPD2    C1 5242   3.094   2.027   9.987 -0.5263 -0.1717 -0.1728
  350MPD2    C2 5243   3.221   2.025  10.037 -0.1336 -0.1904 -0.3941
  350MPD2    C3 5244   3.315   2.114   9.993  0.2389  0.1411 -0.2273
  350MPD2    C4 5245   3.274   2.208   9.893  0.0632 -0.5928 -0.2512
  350MPD2    C5 5246   3.143   2.211   9.856  0.1894 -0.3573 -0.0378
  350MPD2     H 5247   3.239   1.949  10.112 -0.5839  0.5891  0.5021
  350MPD2    H1 5248   3.340   2.286   9.858  0.8269 -0.0195  2.4136
  350MPD2    H2 5249   2.950   2.128   9.866  1.0661  0.2103 -2.6113
  350MPD2    H3 5250   3.098   2.285   9.790 -0.0196 -0.1752  0.3102
  350MPD2     N 5251   3.441   2.115  10.056 -0.1811 -0.0497 -0.1235
  350MPD2    H5 5252   3.456   2.050  10.133  2.0401  1.2226  0.5017
  350MPD2    N1 5253   3.015   1.917  10.030  0.0888  0.4631 -0.0891
  350MPD2    H7 5254   3.050   1.860  10.106 -0.2753  2.4860  1.6104
  351TMC3    C1 5255   2.859   1.748  10.025  0.2832 -0.9254 -0.2783
  351TMC3    C2 5256   2.940   1.685  10.123 -0.2101 -0.4338  1.0264
  351TMC3    C3 5257   2.921   1.558  10.153  0.0766  0.5390 -0.6600
  351TMC3    C4 5258   2.778   1.676   9.948  0.3967  0.3780  0.5629
  351TMC3    C5 5259   2.776   1.538   9.968 -0.0845  1.0547 -0.3833
  351TMC3    C6 5260   2.840   1.478  10.072  0.3355 -0.4373  0.0788
  351TMC3     C 5261   2.894   1.876   9.974  0.1313  0.2320 -0.4378
  351TMC3     O 5262   2.840   1.924   9.872  0.3785 -0.0588 -0.6300
  351TMC3     H 5263   2.992   1.739  10.201  1.3262  0.5533 -0.6715
  351TMC3    H1 5264   2.723   1.723   9.867 -0.4035  2.1790  2.1240
  351TMC3    H2 5265   2.857   1.371  10.075 -2.1406 -0.8176  0.4610
  351TMC3    C7 5266   2.694   1.458   9.880 -0.3656  0.2215  0.1053
  351TMC3    C8 5267   3.033   1.494  10.221  0.6689  0.1817  0.1822
  351TMC3    O1 5268   2.638   1.361   9.926  0.5571 -0.0762  0.1379
  351TMC3    O2 5269   3.139   1.559  10.238  0.4883 -0.2621  0.0680
  352MPD2     C 5270   0.912   0.018   0.691  0.4962  0.1995  0.1730
  352MPD2    C1 5271   0.928   0.132   0.770 -0.1433  0.9647  0.0485
  352MPD2    C2 5272   0.954   0.113   0.902  0.0144 -0.0022  0.4564
  352MPD2    C3 5273   0.967   4.711   0.960 -1.0613 -0.4225 -0.3134
  352MPD2    C4 5274   0.953   4.604   0.875 -0.4203 -0.0654  0.8707
  352MPD2    C5 5275   0.932   4.619   0.740  0.6997  0.1562  0.1857
  352MPD2     H 5276   0.959   0.197   0.970 -0.6374  0.4204 -0.0130
  352MPD2    H1 5277   0.972   4.503   0.910  0.5188 -0.4271 -0.6635
  352MPD2    H2 5278   0.892   0.034   0.586  0.1892  1.5556  0.4265
  352MPD2    H3 5279   0.932   4.527   0.681  1.2383 -0.2731  0.8517
  352MPD2     N 5280   0.986   4.683   1.095  0.1301  0.8533  0.2926
  352MPD2    H5 5281   0.966   4.588   1.125  0.2574  1.2359  1.6020
  352MPD2    N1 5282   0.903   0.261   0.713  0.2808 -0.0113 -0.4889
  352MPD2    H7 5283   0.884   0.264   0.614  0.8448 -1.7433 -0.6622
  353TMC3    C1 5284   1.001   4.711   1.320  0.1072  0.6405 -0.4484
  353TMC3    C2 5285   1.037   4.583   1.350 -0.1161 -0.7027 -0.1913
  353TMC3    C3 5286   0.993   4.539   1.467 -0.3983 -0.3162 -0.6294
  353TMC3    C4 5287   0.919   0.059   1.395 -0.0722 -0.3589 -0.5723
  353TMC3    C5 5288   0.862   0.005   1.505 -0.7878 -0.4835  1.0265
  353TMC3    C6 5289   0.904   4.603   1.542 -0.3274 -0.4352  0.4884
  353TMC3     C 5290   1.017   0.049   1.193  0.2968  0.6455 -0.2730
  353TMC3     O 5291   1.036   0.170   1.182 -0.1400  0.4154  0.1720
  353TMC3     H 5292   1.107   4.531   1.286 -0.0822 -0.0564 -0.6712
  353TMC3    H1 5293   0.871   0.142   1.345 -2.5574 -1.7834 -0.5776
  353TMC3    H2 5294   0.882   4.561   1.640  0.5830  1.3710  1.4848
  353TMC3    C7 5295   0.721   4.719   1.479  0.4601 -0.1320 -0.6680
  353TMC3    C8 5296   1.058   4.419   1.513  0.1114 -0.7820  0.0193
  353TMC3    O1 5297   0.666   0.075   1.400  1.1542  0.1097 -0.0088
  353TMC3    O2 5298   1.081   4.405   1.632  0.6275  0.3563 -0.7545
  354TMC3    C1 5299   3.381   1.212  13.449  1.1702 -0.1918  0.5985
  354TMC3    C2 5300   3.442   1.329  13.474 -0.4760  0.1015 -0.3767
  354TMC3    C3 5301   3.391   1.441  13.413 -0.3281 -0.0931 -0.4806
  354TMC3    C4 5302   3.266   1.210  13.375  0.4579 -0.4923  0.9206
  354TMC3    C5 5303   3.222   1.316  13.314  0.1155 -0.4948 -0.4776
  354TMC3    C6 5304   3.274   1.437  13.348  0.1897  0.1168 -0.0853
  354TMC3     C 5305   3.400   1.093  13.524  0.1081  0.5846 -0.3640
  354TMC3     O 5306   3.326   0.997  13.511 -0.0564  0.4803  0.2579
  354TMC3     H 5307   3.535   1.345  13.527 -0.6476  0.8402 -0.3026
  354TMC3    H1 5308   3.234   1.110  13.348  0.5177 -0.2679  0.0417
  354TMC3    H2 5309   3.259   1.530  13.294 -0.1843 -0.2738 -0.6417
  354TMC3    C7 5310   3.225   1.301  13.168 -0.1115  0.3381  0.2507
  354TMC3    C8 5311   3.488   1.518  13.338  0.6247 -1.3673 -0.3445
  354TMC3    O1 5312   3.278   1.202  13.124 -0.0637 -0.7057 -0.2791
  354TMC3    O2 5313   3.469   1.638  13.320  0.4302 -0.0463  0.1163
  355MPD2     C 5314   3.356   2.006  11.957  0.3152  0.0304  0.3297
  355MPD2    C1 5315   3.392   2.007  11.821 -0.4111 -0.1495 -0.2679
  355MPD2    C2 5316   3.526   1.975  11.792 -0.1300  0.4223  0.3531
  355MPD2    C3 5317   3.623   1.956  11.887 -0.1433 -0.0620  0.3482
  355MPD2    C4 5318   3.584   1.978  12.018  0.1384  0.0851  0.4048
  355MPD2    C5 5319   3.452   2.009  12.048 -0.1227 -0.0437  0.6228
  355MPD2     H 5320   3.561   1.971  11.689 -0.7084  2.3222  0.0879
  355MPD2    H1 5321   3.656   1.980  12.099  0.4711 -0.3111  0.1200
  355MPD2    H2 5322   3.254   2.028  11.989  0.0700 -0.3434 -0.2013
  355MPD2    H3 5323   3.438   2.019  12.155  0.2023  1.7680  0.4826
  355MPD2     N 5324   3.764   1.944  11.858  0.0485 -0.0387 -0.0060
  355MPD2    H5 5325   3.826   1.941  11.938  2.9206  4.0592 -2.1415
  355MPD2    N1 5326   3.287   2.014  11.731 -1.0252 -0.3918 -0.3643
  355MPD2    H7 5327   3.193   2.008  11.768 -1.1563  0.8481 -0.5196
  356TMC3    C1 5328   3.972   1.958  11.729 -0.1247 -0.6392 -0.2108
  356TMC3    C2 5329   4.026   2.023  11.620  0.2360  0.0757 -0.3003
  356TMC3    C3 5330   4.144   2.085  11.632  0.2237  0.1838 -0.1864
  356TMC3    C4 5331   4.043   1.951  11.844  0.3330  0.4615  0.4232
  356TMC3    C5 5332   4.172   2.007  11.848 -0.0112 -0.5565 -0.3780
  356TMC3    C6 5333   4.220   2.081  11.741  0.8892  0.4289  0.5238
  356TMC3     C 5334   3.822   1.931  11.734  0.1295 -0.4179  0.6781
  356TMC3     O 5335   3.765   1.901  11.627 -0.2596 -0.6722  0.2871
  356TMC3     H 5336   3.972   2.011  11.527  0.9995  3.6529 -1.2069
  356TMC3    H1 5337   4.004   1.886  11.921  0.0213  0.2898  0.1185
  356TMC3    H2 5338   4.320   2.122  11.750  0.7785  1.4824 -2.9262
  356TMC3    C7 5339   4.217   2.040  11.982 -0.7550  0.2446  0.5478
  356TMC3    C8 5340   4.200   2.135  11.502 -0.0845 -0.1210 -0.2716
  356TMC3    O1 5341   4.169   1.973  12.072 -0.2143  0.1541 -0.7289
  356TMC3    O2 5342   4.126   2.120  11.406 -0.3898 -0.4989  0.0393
  357MPD2     C 5343   2.475   1.459   0.797  0.0802 -0.5157  0.7108
  357MPD2    C1 5344   2.525   1.322   0.799  0.2077 -0.3126 -0.0653
  357MPD2    C2 5345   2.432   1.212   0.787  0.2033 -0.4616  0.5393
  357MPD2    C3 5346   2.293   1.237   0.788 -0.5693 -0.8299 -0.8666
  357MPD2    C4 5347   2.244   1.364   0.801 -0.3658 -0.0393 -0.9846
  357MPD2    C5 5348   2.333   1.469   0.797  0.9311  0.5447  0.3918
  357MPD2     H 5349   2.469   1.110   0.789  1.5860  0.0267  0.1568
  357MPD2    H1 5350   2.139   1.390   0.811 -0.2860 -0.4002  0.7483
  357MPD2    H2 5351   2.539   1.546   0.785 -1.6673  1.0784  2.8143
  357MPD2    H3 5352   2.299   1.571   0.799 -1.8685 -0.4222  1.6824
  357MPD2     N 5353   2.189   1.139   0.772 -0.0456  0.2401  0.6184
  357MPD2    H5 5354   2.092   1.169   0.774  0.2699  1.1453  2.1498
  357MPD2    N1 5355   2.664   1.289   0.799 -0.6946 -0.5078  0.9597
  357MPD2    H7 5356   2.728   1.365   0.777 -0.8402 -0.7328 -0.2749
  358TMC3    C1 5357   2.868   1.166   0.801 -0.1138  0.4070 -0.7672
  358TMC3    C2 5358   2.893   1.165   0.667  0.4054  0.4797 -0.1722
  358TMC3    C3 5359   3.007   1.099   0.632 -0.5119 -0.4242 -0.3765
  358TMC3    C4 5360   2.951   1.108   0.891  0.0060 -0.4990  0.0576
  358TMC3    C5 5361   3.042   1.018   0.841  0.6648  0.3537  0.4666
  358TMC3    C6 5362   3.081   1.020   0.712  0.6754  0.8510  0.0120
  358TMC3     C 5363   2.722   1.169   0.830 -0.8746  0.0856 -0.4094
  358TMC3     O 5364   2.681   1.071   0.888  0.0357  0.1922  0.0222
  358TMC3     H 5365   2.829   1.215   0.594  2.1356  0.4761 -1.6955
  358TMC3    H1 5366   2.923   1.114   0.996  2.1311  0.8441  0.5387
  358TMC3    H2 5367   3.187   1.016   0.690  0.6679  0.7057  0.0046
  358TMC3    C7 5368   3.126   0.972   0.940 -0.7460  0.5590  0.2007
  358TMC3    C8 5369   3.048   1.103   0.489  0.2851 -0.1972  0.3259
  358TMC3    O1 5370   3.115   1.023   1.049 -0.1252  0.2727 -0.1185
  358TMC3    O2 5371   3.003   1.200   0.427 -0.1546  0.1102 -0.3571
  359MPD2     C 5372   3.452   0.567  12.389  0.3186  0.0902 -0.4281
  359MPD2    C1 5373   3.535   0.481  12.463 -0.4146  0.3201 -0.0948
  359MPD2    C2 5374   3.481   0.413  12.573  0.0652  0.0053  0.4340
  359MPD2    C3 5375   3.348   0.430  12.601 -0.7698  1.0419  0.2022
  359MPD2    C4 5376   3.267   0.510  12.523  0.0507 -0.4714 -0.4074
  359MPD2    C5 5377   3.322   0.578  12.421 -0.7377  0.9369  0.2689
  359MPD2     H 5378   3.547   0.344  12.625  0.4450  0.4005  0.4755
  359MPD2    H1 5379   3.168   0.544  12.550  0.2594 -0.5222  0.4143
  359MPD2    H2 5380   3.480   0.638  12.312  0.4232 -3.0890 -3.2741
  359MPD2    H3 5381   3.252   0.626  12.353 -0.7638  0.2898 -0.1611
  359MPD2     N 5382   3.287   0.385  12.722  0.3294  0.9352  0.1327
  359MPD2    H5 5383   3.186   0.400  12.725 -0.1782 -1.6405 -4.3255
  359MPD2    N1 5384   3.668   0.463  12.435 -0.3167  0.1385  1.1321
  359MPD2    H7 5385   3.710   0.378  12.471  0.4581  0.8046  1.7910
  360TMC3    C1 5386   3.877   0.507  12.327 -0.0171 -0.3807  0.2311
  360TMC3    C2 5387   3.981   0.590  12.308  0.0824  0.1383 -0.1842
  360TMC3    C3 5388   4.095   0.533  12.247 -0.2269  0.3663 -0.2755
  360TMC3    C4 5389   3.867   0.390  12.258  0.0768 -0.5472  0.0676
  360TMC3    C5 5390   3.975   0.331  12.203 -0.2931 -0.1054 -0.7900
  360TMC3    C6 5391   4.098   0.399  12.203 -0.5820 -0.0707  0.5811
  360TMC3     C 5392   3.755   0.564  12.382  0.5139  0.0802 -0.3904
  360TMC3     O 5393   3.753   0.686  12.401  0.1036  0.3677  0.1044
  360TMC3     H 5394   3.987   0.694  12.336 -1.6243 -0.2579  1.7475
  360TMC3    H1 5395   3.769   0.347  12.241 -1.4713  2.2305  1.9438
  360TMC3    H2 5396   4.181   0.359  12.146  1.2236  2.3944  1.4720
  360TMC3    C7 5397   3.946   0.293  12.065 -0.1302  0.1068 -0.5705
  360TMC3    C8 5398   4.179   0.624  12.167  0.2802 -0.4112  0.0102
  360TMC3    O1 5399   4.012   0.353  11.978  0.2683 -0.5558 -0.8277
  360TMC3    O2 5400   4.127   0.728  12.146 -0.8598  0.5022  0.2336
  361MPD2     C 5401   0.379   3.925  16.524  0.1436  0.3430 -0.6325
  361MPD2    C1 5402   0.322   3.931  16.644  0.2022  0.9466  0.5560
  361MPD2    C2 5403   0.376   3.861  16.750  0.2740  0.2463  0.0110
  361MPD2    C3 5404   0.507   3.799  16.731 -0.0144 -0.5415 -0.0458
  361MPD2    C4 5405   0.554   3.783  16.607  0.1419 -0.6427 -0.0794
  361MPD2    C5 5406   0.487   3.847  16.506  0.1832  0.7666  0.4134
  361MPD2     H 5407   0.329   3.870  16.847  1.6558 -0.3372  0.7316
  361MPD2    H1 5408   0.639   3.720  16.584 -1.4056 -1.7914 -2.6194
  361MPD2    H2 5409   0.339   3.975  16.436 -2.1260 -0.7354 -0.2159
  361MPD2    H3 5410   0.536   3.848  16.409 -1.3471  2.3023 -0.3514
  361MPD2     N 5411   0.576   3.731  16.840  0.0507  0.2929  0.1481
  361MPD2    H5 5412   0.650   3.668  16.810  1.2298  1.8081 -0.1017
  361MPD2    N1 5413   0.216   4.021  16.651 -0.1960  0.2902 -0.2301
  361MPD2    H7 5414   0.200   4.068  16.563 -0.3827 -0.1959 -0.4554
  362TMC3    C1 5415   0.012   4.111  16.726  0.2772  0.3362 -0.4133
  362TMC3    C2 5416   4.622   4.090  16.796 -0.3021 -0.0066  0.1854
  362TMC3    C3 5417   4.522   4.188  16.797  0.3448 -0.0544 -0.0437
  362TMC3    C4 5418   0.030   4.226  16.661 -0.1434 -0.1487  0.3867
  362TMC3    C5 5419   4.654   4.317  16.661  0.3792  0.6283 -0.1759
  362TMC3    C6 5420   4.535   4.299  16.717 -0.1491 -0.5895  0.5180
  362TMC3     C 5421   0.119   4.020  16.751 -0.1967 -0.1784 -0.1276
  362TMC3     O 5422   0.109   3.942  16.846 -0.7323  0.1640  0.3555
  362TMC3     H 5423   4.597   3.998  16.849 -1.1208  1.0781  1.6801
  362TMC3    H1 5424   0.121   4.250  16.607 -0.9326  0.8907 -0.4728
  362TMC3    H2 5425   4.460   4.377  16.716 -0.7532 -1.1759  0.1022
  362TMC3    C7 5426   4.656   4.414  16.565 -0.1877  0.0023  0.6215
  362TMC3    C8 5427   4.410   4.167  16.888  0.5224 -0.0861  0.1879
  362TMC3    O1 5428   0.036   4.468  16.537  0.1169 -0.0405  0.1303
  362TMC3    O2 5429   4.362   4.056  16.887  0.2057  0.1822  0.3419
  363TMC3    C1 5430   4.585   1.939   9.949 -0.3585  0.2756  0.2695
  363TMC3    C2 5431   4.512   1.830   9.981 -0.0759  0.6432  1.1501
  363TMC3    C3 5432   4.574   1.723  10.036 -0.5204 -0.1336 -0.1894
  363TMC3    C4 5433   4.721   1.937   9.962 -0.4679 -0.7466  0.0057
  363TMC3    C5 5434   0.054   1.828  10.004 -0.3414 -0.2336 -0.7461
  363TMC3    C6 5435   4.711   1.712  10.039  0.1073  0.3648  0.0252
  363TMC3     C 5436   4.522   2.051   9.884  0.2248 -0.4335  0.2342
  363TMC3     O 5437   4.588   2.156   9.877 -0.7554  0.1120 -0.0314
  363TMC3     H 5438   4.404   1.821   9.971 -0.0690  0.5503  1.1633
  363TMC3    H1 5439   0.057   2.017   9.919 -3.0274  0.5132 -1.1906
  363TMC3    H2 5440   0.038   1.623  10.074  0.7966  0.7807  0.0934
  363TMC3    C7 5441   0.192   1.827   9.963  0.4964  0.4597 -0.1303
  363TMC3    C8 5442   4.482   1.622  10.098  0.0529  1.2545 -0.1037
  363TMC3    O1 5443   0.261   1.929   9.952 -0.3660  0.2213  0.0222
  363TMC3    O2 5444   4.365   1.647  10.112  0.6897 -0.4043  0.1274
  364MPD2     C 5445   2.560   0.831  10.341  0.0334 -1.0511 -0.7869
  364MPD2    C1 5446   2.652   0.765  10.423  0.2600  0.1746  0.1330
  364MPD2    C2 5447   2.609   0.659  10.504  0.3251  0.1806  0.1438
  364MPD2    C3 5448   2.473   0.639  10.522  0.6486  0.5916 -0.0431
  364MPD2    C4 5449   2.388   0.699  10.436  0.0057 -0.3513 -0.0471
  364MPD2    C5 5450   2.425   0.795  10.343 -0.0360  0.7353 -0.0196
  364MPD2     H 5451   2.675   0.596  10.561  2.0669 -1.7596 -3.9839
  364MPD2    H1 5452   2.283   0.680  10.453 -0.8845  0.4702 -4.7825
  364MPD2    H2 5453   2.602   0.917  10.291 -0.3592 -0.4072 -0.0015
  364MPD2    H3 5454   2.343   0.837  10.285 -0.2841  0.0968 -0.1265
  364MPD2     N 5455   2.416   0.537  10.605  0.0832  0.1704 -0.3340
  364MPD2    H5 5456   2.315   0.529  10.596 -0.0362  1.1301  0.0942
  364MPD2    N1 5457   2.789   0.809  10.425 -0.4412  0.0110  0.0688
  364MPD2    H7 5458   2.814   0.892  10.372  0.3784 -0.4753 -0.2942
  365TMC3    C1 5459   3.014   0.840  10.512 -0.2271  0.4857 -0.6682
  365TMC3    C2 5460   3.121   0.750  10.522  0.0916 -0.0686 -0.2689
  365TMC3    C3 5461   3.215   0.769  10.620  0.8053  0.2966  0.3319
  365TMC3    C4 5462   3.017   0.955  10.581  0.0997  0.3319  0.0279
  365TMC3    C5 5463   3.124   0.979  10.658  0.6411  0.0397  0.0208
  365TMC3    C6 5464   3.220   0.889  10.687  0.9048 -0.3753  0.1943
  365TMC3     C 5465   2.892   0.765  10.504  0.0932  0.3109  0.1569
  365TMC3     O 5466   2.899   0.670  10.578 -0.0913 -0.2515  0.7821
  365TMC3     H 5467   3.104   0.656  10.471 -1.2113  0.6718 -1.2001
  365TMC3    H1 5468   2.926   1.012  10.592 -0.4693 -0.9140  1.8602
  365TMC3    H2 5469   3.290   0.904  10.768  0.0764  0.8539  0.6800
  365TMC3    C7 5470   3.173   1.116  10.676 -0.1236 -0.4701  0.1147
  365TMC3    C8 5471   3.270   0.657  10.689 -0.6179 -1.0657  0.5737
  365TMC3    O1 5472   3.287   1.138  10.716  0.0207  0.0140  0.7673
  365TMC3    O2 5473   3.308   0.673  10.804 -0.1624  0.0968 -0.3503
  366MPD2     C 5474   0.416   2.654  15.805  0.3507  0.4804 -0.0917
  366MPD2    C1 5475   0.480   2.660  15.684 -0.4383  0.4845  0.2960
  366MPD2    C2 5476   0.511   2.542  15.617  0.4903  0.0563  0.3258
  366MPD2    C3 5477   0.494   2.418  15.675 -0.1049 -0.0752  0.0249
  366MPD2    C4 5478   0.456   2.414  15.807 -0.5122  0.5662  0.0815
  366MPD2    C5 5479   0.409   2.528  15.864 -0.1146  0.4123 -0.1053
  366MPD2     H 5480   0.560   2.558  15.521 -0.7609  0.1264 -0.3047
  366MPD2    H1 5481   0.434   2.323  15.862  0.5834 -0.4124 -1.0897
  366MPD2    H2 5482   0.379   2.739  15.861 -0.8868 -0.6031  0.7557
  366MPD2    H3 5483   0.377   2.523  15.968  0.6679 -0.3145  0.1013
  366MPD2     N 5484   0.547   2.303  15.612  0.4133  0.6374  0.5437
  366MPD2    H5 5485   0.591   2.314  15.522  1.6996 -0.9858  0.9792
  366MPD2    N1 5486   0.519   2.785  15.623 -0.3582  0.0946  0.5757
  366MPD2    H7 5487   0.562   2.778  15.532  0.1908 -0.4617  0.8783
  367TMC3    C1 5488   0.585   3.004  15.606  0.4553 -0.1778  0.7020
  367TMC3    C2 5489   0.676   3.080  15.670 -0.3286 -0.5393  0.7761
  367TMC3    C3 5490   0.725   3.185  15.609  0.3545  0.3592  0.0711
  367TMC3    C4 5491   0.532   3.032  15.485  0.6043 -0.6512  0.1903
  367TMC3    C5 5492   0.576   3.148  15.421  0.3946 -0.2113  0.0645
  367TMC3    C6 5493   0.676   3.219  15.484  0.1113  0.9919  0.0265
  367TMC3     C 5494   0.513   2.907  15.686  0.1459 -0.3933  0.3218
  367TMC3     O 5495   0.509   2.924  15.809  0.4852 -0.1274  0.5371
  367TMC3     H 5496   0.708   3.070  15.773 -0.5350  0.4560  0.9434
  367TMC3    H1 5497   0.455   2.967  15.443  1.5268 -0.8750 -1.1588
  367TMC3    H2 5498   0.718   3.293  15.418 -1.8064  1.3604 -0.7639
  367TMC3    C7 5499   0.543   3.184  15.285  0.1874 -0.4934  0.3047
  367TMC3    C8 5500   0.851   3.236  15.662  0.0047 -0.3595 -1.0757
  367TMC3    O1 5501   0.580   3.290  15.233  0.2346  0.3621 -0.1850
  367TMC3    O2 5502   0.896   3.184  15.766 -0.2801  0.6943  0.2567
  368MPD2     C 5503   2.148   4.361  13.519 -0.6037  0.1727 -0.0556
  368MPD2    C1 5504   2.114   4.299  13.401  1.1177 -0.3992 -0.5101
  368MPD2    C2 5505   2.220   4.224  13.344  0.0176  0.2200 -0.2837
  368MPD2    C3 5506   2.346   4.210  13.387 -0.0891  0.6674 -0.0178
  368MPD2    C4 5507   2.372   4.259  13.516 -0.4882 -0.5043 -0.1863
  368MPD2    C5 5508   2.271   4.341  13.570  0.5039  0.3623  0.2324
  368MPD2     H 5509   2.199   4.184  13.245  0.6329  0.7108 -0.6184
  368MPD2    H1 5510   2.462   4.252  13.575  1.7737 -0.6941 -3.6804
  368MPD2    H2 5511   2.070   4.418  13.570 -0.1307 -0.5349  1.4689
  368MPD2    H3 5512   2.287   4.391  13.665 -0.0724 -0.8322  0.9464
  368MPD2     N 5513   2.452   4.154  13.313 -0.4943  0.1657  0.3959
  368MPD2    H5 5514   2.547   4.167  13.347 -0.5450  0.5703  0.3856
  368MPD2    N1 5515   1.987   4.327  13.343  0.1593 -0.1567  0.1428
  368MPD2    H7 5516   1.934   4.393  13.399 -2.0560  0.7736 -3.0527
  369TMC3    C1 5517   1.824   4.366  13.188 -0.3025 -0.5708  0.0321
  369TMC3    C2 5518   1.848   4.478  13.112  0.0084 -0.1499  0.4501
  369TMC3    C3 5519   1.778   4.592  13.127  0.7397  0.3950  0.3138
  369TMC3    C4 5520   1.725   4.376  13.283  0.2989 -0.0342  0.2814
  369TMC3    C5 5521   1.649   4.489  13.288  0.6572  0.2326 -0.1438
  369TMC3    C6 5522   1.670   4.597  13.207 -0.4395  0.5162 -0.4587
  369TMC3     C 5523   1.943   4.292  13.219  0.3185 -0.4089  0.2233
  369TMC3     O 5524   1.999   4.233  13.128  0.6720 -0.2765  0.1302
  369TMC3     H 5525   1.936   4.488  13.049 -1.0520 -0.4390 -1.0658
  369TMC3    H1 5526   1.694   4.293  13.346  0.2304 -2.4004 -2.8784
  369TMC3    H2 5527   1.626   4.695  13.225  0.1688  0.8326 -0.6932
  369TMC3    C7 5528   1.563   4.502  13.398 -0.2249  0.6614  0.7941
  369TMC3    C8 5529   1.822   4.702  13.039 -0.0983  0.6297 -0.9729
  369TMC3    O1 5530   1.555   4.616  13.437  0.0763  0.2835  0.3431
  369TMC3    O2 5531   1.827   4.674  12.920 -0.1218  0.4255  0.3873
  370TMC3    C1 5532   1.806   0.300  16.318  0.2501  0.3334 -0.0216
  370TMC3    C2 5533   1.741   0.201  16.386  0.2208 -0.9232  0.0670
  370TMC3    C3 5534   1.686   0.100  16.316 -1.1696  0.0708  0.2693
  370TMC3    C4 5535   1.831   0.290  16.181  0.5998  0.4507 -0.0156
  370TMC3    C5 5536   1.768   0.185  16.119  0.3087  0.5039 -0.7335
  370TMC3    C6 5537   1.692   0.086  16.182  0.7385 -0.5538  0.4954
  370TMC3     C 5538   1.890   0.385  16.405  0.2451 -0.3061 -0.1371
  370TMC3     O 5539   1.903   0.347  16.524  0.3147  0.8122 -0.0828
  370TMC3     H 5540   1.735   0.223  16.492  0.7279 -2.0913  0.3319
  370TMC3    H1 5541   1.898   0.356  16.128 -0.7312  2.5884  0.9991
  370TMC3    H2 5542   1.654   4.723  16.129  0.5920 -1.9528  2.9444
  370TMC3    C7 5543   1.824   0.160  15.982 -0.4279  0.1353  0.7343
  370TMC3    C8 5544   1.616   4.719  16.381 -0.2751 -0.2620  0.0060
  370TMC3    O1 5545   1.863   0.259  15.920 -0.1377  0.3746 -0.2000
  370TMC3    O2 5546   1.566   4.629  16.318 -0.3416  0.2329  0.3245
  371TMC3    C1 5547   2.961   3.189  15.378  0.9016  0.0321 -0.6953
  371TMC3    C2 5548   2.857   3.206  15.470 -0.3040 -0.6062 -0.4980
  371TMC3    C3 5549   2.769   3.312  15.447  0.3039  0.3652  0.1542
  371TMC3    C4 5550   2.972   3.278  15.273  0.2029 -0.0387  0.1620
  371TMC3    C5 5551   2.885   3.385  15.257 -0.5282  0.1728 -0.3393
  371TMC3    C6 5552   2.781   3.403  15.353 -0.3286  0.0447  0.0385
  371TMC3     C 5553   3.035   3.067  15.371  0.5943  0.3387 -0.3981
  371TMC3     O 5554   3.133   3.068  15.297 -0.5281  0.1984 -0.0154
  371TMC3     H 5555   2.844   3.131  15.548  4.2166  0.6562  1.5084
  371TMC3    H1 5556   3.055   3.270  15.204 -0.3226 -1.2157 -0.3349
  371TMC3    H2 5557   2.713   3.488  15.352 -0.6474 -0.2046  0.2097
  371TMC3    C7 5558   2.941   3.498  15.178  0.2178 -0.2253  0.1972
  371TMC3    C8 5559   2.635   3.297  15.512 -0.2997 -0.3772 -0.8480
  371TMC3    O1 5560   2.941   3.606  15.229  0.3365 -0.0553 -0.0848
  371TMC3    O2 5561   2.603   3.181  15.533  0.0895 -0.0471 -0.0900
  372MPD2     C 5562   1.936   4.673  13.559 -0.0517  0.7945 -0.5564
  372MPD2    C1 5563   2.063   4.682  13.611 -0.9416  0.8961 -0.6041
  372MPD2    C2 5564   2.075   4.643  13.746  0.1545  0.5505  0.7708
  372MPD2    C3 5565   1.972   4.595  13.820  0.3100  0.2946 -0.3022
  372MPD2    C4 5566   1.846   4.591  13.767 -0.9650 -0.0021  0.3914
  372MPD2    C5 5567   1.830   4.648  13.644  0.0374  0.3394 -0.6947
  372MPD2     H 5568   2.174   4.648  13.791 -0.4129  0.5703  1.9982
  372MPD2    H1 5569   1.755   4.575  13.822 -2.1311 -1.5922 -2.0231
  372MPD2    H2 5570   1.920   4.696  13.454 -1.6938 -1.4532 -0.8051
  372MPD2    H3 5571   1.728   4.662  13.608  0.6606  0.7333 -2.3058
  372MPD2     N 5572   1.999   4.558  13.953  0.0628 -0.2486 -0.4285
  372MPD2    H5 5573   2.083   4.592  13.999 -0.1114 -1.5969  0.8649
  372MPD2    N1 5574   2.180   4.712  13.535 -0.7999  0.0955 -0.0135
  372MPD2    H7 5575   2.272   4.722  13.577  0.1239 -0.5815 -1.8742
  373TMC3    C1 5576   1.961   4.452  14.166 -0.3372 -0.0561 -0.0086
  373TMC3    C2 5577   2.043   4.547  14.228  0.8504 -0.0329 -0.4308
  373TMC3    C3 5578   2.076   4.515  14.359 -0.8263  0.5267 -0.6658
  373TMC3    C4 5579   1.933   4.328  14.224 -0.6064  0.0683  0.0473
  373TMC3    C5 5580   2.010   4.285  14.329 -0.6883  1.2314 -0.0092
  373TMC3    C6 5581   2.080   4.382  14.403  0.4334 -0.5203 -0.5707
  373TMC3     C 5582   1.918   4.469  14.024 -1.0482  0.1278  0.5190
  373TMC3     O 5583   1.822   4.401  13.981  0.6207  0.2363 -0.3488
  373TMC3     H 5584   2.050   4.651  14.198  1.5452  0.2072  0.5895
  373TMC3    H1 5585   1.875   4.256  14.167 -0.6010 -0.5390  0.8064
  373TMC3    H2 5586   2.150   4.362  14.483  0.6328  0.5109 -0.4869
  373TMC3    C7 5587   2.059   4.157  14.314  0.5748  0.5508  0.5071
  373TMC3    C8 5588   2.168   4.612  14.416 -0.4234  0.2947  0.3676
  373TMC3    O1 5589   2.012   4.084  14.226 -0.0414  0.1949  0.2973
  373TMC3    O2 5590   2.219   4.693  14.341 -0.3745  0.6353 -0.0324
  374TMC3    C1 5591   3.223   4.375   9.638 -1.0877 -0.1318  0.5559
  374TMC3    C2 5592   3.355   4.352   9.673  0.2266 -0.5592  0.2048
  374TMC3    C3 5593   3.454   4.356   9.575  0.1595  0.1854  0.2184
  374TMC3    C4 5594   3.188   4.400   9.511  0.4810 -0.2940  0.4065
  374TMC3    C5 5595   3.286   4.387   9.416 -0.1869 -0.0827 -0.7871
  374TMC3    C6 5596   3.421   4.367   9.440 -0.0940 -0.0273  0.0548
  374TMC3     C 5597   3.119   4.320   9.726 -0.3428  0.0103  0.4959
  374TMC3     O 5598   3.161   4.236   9.803  0.4161  0.1822  0.4644
  374TMC3     H 5599   3.388   4.361   9.776  1.1427 -2.5420  0.0672
  374TMC3    H1 5600   3.085   4.408   9.479  0.5395  0.2030  0.3395
  374TMC3    H2 5601   3.489   4.344   9.359  0.4860 -0.5209  0.6808
  374TMC3    C7 5602   3.235   4.413   9.277  0.6353 -0.2929 -0.1747
  374TMC3    C8 5603   3.592   4.391   9.606  0.2603 -0.4902  0.8051
  374TMC3    O1 5604   3.152   4.503   9.273  0.0370  0.0753  0.6157
  374TMC3    O2 5605   3.653   4.434   9.509  0.2365 -0.4500  0.7983
  375MPD2     C 5606   3.254   0.476  17.349 -0.1665 -0.8053 -0.1395
  375MPD2    C1 5607   3.199   0.517  17.233 -0.4347  0.6409  0.2884
  375MPD2    C2 5608   3.228   0.453  17.112  1.1908  0.1485 -0.1771
  375MPD2    C3 5609   3.322   0.351  17.104  0.8989  0.4184  0.5090
  375MPD2    C4 5610   3.372   0.309  17.224  0.0559  0.3238 -0.0288
  375MPD2    C5 5611   3.342   0.371  17.340 -0.1497  0.3751  0.7441
  375MPD2     H 5612   3.182   0.508  17.031  0.9479 -1.0630 -0.8569
  375MPD2    H1 5613   3.446   0.231  17.209 -1.1237 -0.7205 -0.4468
  375MPD2    H2 5614   3.237   0.513  17.449  4.5906 -0.5493  0.5389
  375MPD2    H3 5615   3.385   0.337  17.434  0.1877  2.0171  1.1724
  375MPD2     N 5616   3.381   0.298  16.983  0.7798  0.4463  0.3981
  375MPD2    H5 5617   3.461   0.237  16.992  0.3930  0.0670  1.2935
  375MPD2    N1 5618   3.123   0.639  17.222 -0.4550 -0.1956 -0.0797
  375MPD2    H7 5619   3.106   0.672  17.127 -0.3418 -2.4281 -0.8595
  376TMC3    C1 5620   3.401   0.282  16.749  0.2141  0.0114 -0.7720
  376TMC3    C2 5621   3.533   0.319  16.757 -0.2691 -0.2391 -0.4742
  376TMC3    C3 5622   3.601   0.346  16.641  0.2401 -1.4623 -0.9994
  376TMC3    C4 5623   3.339   0.301  16.625  0.9849  0.0676  0.4372
  376TMC3    C5 5624   3.410   0.344  16.520  0.3587  0.1880  0.2328
  376TMC3    C6 5625   3.544   0.363  16.520 -0.3824  0.7053 -0.6515
  376TMC3     C 5626   3.319   0.316  16.864 -0.2185 -0.3360 -0.1496
  376TMC3     O 5627   3.212   0.363  16.842 -0.2545 -0.0700 -0.4402
  376TMC3     H 5628   3.594   0.322  16.846  1.3197  0.6757 -1.5769
  376TMC3    H1 5629   3.231   0.293  16.620  1.0778 -1.8776  1.4999
  376TMC3    H2 5630   3.620   0.382  16.445 -1.7439  0.8182 -1.9995
  376TMC3    C7 5631   3.343   0.383  16.395  1.1348  0.4527 -0.0100
  376TMC3    C8 5632   3.744   0.375  16.640  0.4082 -0.1982 -0.0414
  376TMC3    O1 5633   3.382   0.483  16.332  0.4442  0.2355  0.2838
  376TMC3    O2 5634   3.784   0.457  16.565 -0.4817  0.7416 -0.1222
  377MPD2     C 5635   1.595   0.251  12.914  0.4306 -0.7384 -0.0880
  377MPD2    C1 5636   1.554   0.134  12.851 -0.5524 -0.0198 -0.1515
  377MPD2    C2 5637   1.480   0.045  12.930  0.2758  0.7830 -0.1947
  377MPD2    C3 5638   1.437   0.087  13.061  0.4796  0.1409  0.3698
  377MPD2    C4 5639   1.491   0.191  13.126 -0.2779 -0.4491 -0.2586
  377MPD2    C5 5640   1.561   0.278  13.051 -0.3655  0.8552  0.8429
  377MPD2     H 5641   1.429   4.685  12.886 -1.2630  1.3420  0.5188
  377MPD2    H1 5642   1.471   0.217  13.229 -2.3808 -1.4906 -0.3886
  377MPD2    H2 5643   1.662   0.327  12.875  0.7213 -0.0582  1.7367
  377MPD2    H3 5644   1.604   0.368  13.095 -1.8491  1.4045  1.1830
  377MPD2     N 5645   1.350   0.012  13.148  0.4369 -0.0233  0.5514
  377MPD2    H5 5646   1.309   0.058  13.229  0.0385  0.6995 -0.0562
  377MPD2    N1 5647   1.595   0.109  12.713 -0.4703 -0.3629  0.1205
  377MPD2    H7 5648   1.676   0.159  12.678 -0.6803 -0.0500  0.0880
  378TMC3    C1 5649   1.632   4.654  12.298  0.3476  0.1134 -0.3465
  378TMC3    C2 5650   1.566   4.673  12.416 -0.0997 -0.2898 -0.4141
  378TMC3    C3 5651   1.633   4.686  12.531  0.1100 -0.1936  0.1611
  378TMC3    C4 5652   1.772   4.642  12.301 -0.6393  0.5470 -0.3568
  378TMC3    C5 5653   1.832   4.642  12.422 -0.0775  0.5867 -0.4420
  378TMC3    C6 5654   1.769   4.675  12.538  0.5264  0.2547 -1.0476
  378TMC3     C 5655   1.562   4.637  12.172  0.0680  0.8026  0.4024
  378TMC3     O 5656   1.441   4.618  12.183 -0.1362  0.1492  0.3587
  378TMC3     H 5657   1.458   4.671  12.425 -0.0643 -0.6812 -0.1334
  378TMC3    H1 5658   1.821   4.626  12.205  1.7526  1.0186  0.7995
  378TMC3    H2 5659   1.816   4.670  12.635  0.1891 -2.7291 -1.0577
  378TMC3    C7 5660   1.973   4.662  12.419  0.3724 -0.2002  0.0951
  378TMC3    C8 5661   1.549   4.720  12.647 -0.6728  0.2148  0.0076
  378TMC3    O1 5662   2.031   4.593  12.339  0.4456  0.0327  0.3643
  378TMC3    O2 5663   1.456   4.644  12.671 -0.1062  0.1813 -0.5544
  379MPD2     C 5664   1.444   2.850  16.254  0.3161  0.6214  0.2859
  379MPD2    C1 5665   1.571   2.844  16.204 -0.0603  0.1795  0.6976
  379MPD2    C2 5666   1.678   2.787  16.282 -0.4554 -0.6528  0.3494
  379MPD2    C3 5667   1.652   2.736  16.410  0.5209  0.2500 -0.5021
  379MPD2    C4 5668   1.518   2.732  16.455 -0.2803  0.3581 -0.4054
  379MPD2    C5 5669   1.419   2.801  16.383  0.0009 -0.0973  0.1749
  379MPD2     H 5670   1.777   2.769  16.242 -0.3718  1.0933 -0.2156
  379MPD2    H1 5671   1.495   2.676  16.545  0.8811 -0.9373 -0.9113
  379MPD2    H2 5672   1.360   2.879  16.192  1.9319  2.0753 -1.2389
  379MPD2    H3 5673   1.319   2.801  16.425 -0.1206  0.0054 -0.1143
  379MPD2     N 5674   1.762   2.674  16.476  0.7782 -0.6290 -0.4931
  379MPD2    H5 5675   1.850   2.675  16.425  0.4272  2.3411 -1.0114
  379MPD2    N1 5676   1.592   2.904  16.077  0.5347  0.7314  0.0401
  379MPD2    H7 5677   1.509   2.943  16.034 -1.6123 -3.1213  0.6565
  380TMC3    C1 5678   1.682   3.018  15.909  0.6738  0.6383 -0.5731
  380TMC3    C2 5679   1.771   3.030  15.803 -0.0672 -0.0035 -0.4144
  380TMC3    C3 5680   1.727   3.104  15.699  0.2044  0.0296  0.8521
  380TMC3    C4 5681   1.560   3.086  15.907  0.2008 -0.0877 -0.3265
  380TMC3    C5 5682   1.521   3.155  15.792  0.4662  0.6776 -0.0810
  380TMC3    C6 5683   1.603   3.157  15.686 -0.6615 -0.9167 -0.1167
  380TMC3     C 5684   1.703   2.926  16.012  0.5354 -0.4481 -0.3286
  380TMC3     O 5685   1.815   2.910  16.053  0.1352  0.5820  0.2531
  380TMC3     H 5686   1.865   2.976  15.802 -0.5051 -0.7908  0.6700
  380TMC3    H1 5687   1.483   3.080  15.983  0.6219  3.4764  0.3747
  380TMC3    H2 5688   1.565   3.192  15.590 -0.9408 -0.1317  0.2823
  380TMC3    C7 5689   1.385   3.203  15.780 -0.5322 -0.3666  0.3153
  380TMC3    C8 5690   1.819   3.133  15.593  1.1692  0.0553  0.0989
  380TMC3    O1 5691   1.303   3.123  15.815 -0.1443 -0.9099 -0.3102
  380TMC3    O2 5692   1.793   3.240  15.540  0.0028 -0.2366  0.0392
  381TMC3    C1 5693   1.575   4.029  15.924  0.0507 -0.1053  0.2309
  381TMC3    C2 5694   1.682   4.085  15.980 -0.0301  0.9907 -0.0341
  381TMC3    C3 5695   1.666   4.173  16.085  0.0622 -0.1696  0.3727
  381TMC3    C4 5696   1.448   4.064  15.972  0.5026  0.4188  0.5374
  381TMC3    C5 5697   1.432   4.155  16.076 -0.8951  0.2118  0.5289
  381TMC3    C6 5698   1.544   4.210  16.139 -0.7628 -0.6622 -0.3797
  381TMC3     C 5699   1.587   3.937  15.813  0.0661 -0.1599 -0.1286
  381TMC3     O 5700   1.699   3.888  15.818  0.8355 -0.4268  0.6062
  381TMC3     H 5701   1.781   4.059  15.946 -0.0411  0.4267  0.3673
  381TMC3    H1 5702   1.365   4.004  15.934  1.4036 -1.0366  0.8426
  381TMC3    H2 5703   1.539   4.290  16.212  1.6990 -0.3316 -0.5814
  381TMC3    C7 5704   1.323   4.115  16.159 -0.3602 -0.0130 -0.1171
  381TMC3    C8 5705   1.783   4.249  16.124  0.4369  0.3814 -0.4104
  381TMC3    O1 5706   1.300   3.997  16.162  0.1767  0.5371 -0.1408
  381TMC3    O2 5707   1.868   4.249  16.040 -0.2618  0.3717  0.3124
  382MPD2     C 5708   0.715   1.898  17.189  0.4579 -0.3651 -0.3379
  382MPD2    C1 5709   0.792   1.870  17.298  0.2974  0.1805 -0.4025
  382MPD2    C2 5710   0.810   1.736  17.321 -0.0593 -0.3256 -0.0103
  382MPD2    C3 5711   0.778   1.631  17.233 -0.1741  0.5851  0.4094
  382MPD2    C4 5712   0.718   1.667  17.120 -0.1245 -0.0473  0.7718
  382MPD2    C5 5713   0.689   1.797  17.097 -0.3211  0.5493 -0.1510
  382MPD2     H 5714   0.858   1.718  17.416  0.5201 -0.3056 -0.3014
  382MPD2    H1 5715   0.676   1.597  17.049 -0.4810  0.3319  0.6138
  382MPD2    H2 5716   0.689   2.000  17.160  0.6978 -0.8372 -2.1849
  382MPD2    H3 5717   0.640   1.816  17.002  1.7657  3.1865 -0.7010
  382MPD2     N 5718   0.761   1.497  17.267 -0.1069  0.5365  0.4028
  382MPD2    H5 5719   0.695   1.445  17.210 -1.3632 -0.7550  3.0595
  382MPD2    N1 5720   0.826   1.970  17.395  0.4297 -0.2428 -0.2089
  382MPD2    H7 5721   0.848   1.927  17.485  0.7125  0.4031  0.0297
  383TMC3    C1 5722   0.705   1.335  17.424 -0.0019  0.5316 -1.0558
  383TMC3    C2 5723   0.608   1.286  17.332 -0.3252 -1.1921 -0.6522
  383TMC3    C3 5724   0.520   1.195  17.375  0.0980 -0.2417  0.1852
  383TMC3    C4 5725   0.693   1.298  17.558  0.1429  0.7380 -0.1027
  383TMC3    C5 5726   0.597   1.213  17.600 -0.1623  0.3652 -0.4353
  383TMC3    C6 5727   0.523   1.149  17.505  1.2758  1.1356  0.1170
  383TMC3     C 5728   0.790   1.449  17.395  0.1761 -0.2157  0.4072
  383TMC3     O 5729   0.850   1.503  17.490 -0.1776 -0.2975 -0.5413
  383TMC3     H 5730   0.615   1.309  17.226 -2.8485  2.5813 -0.0213
  383TMC3    H1 5731   0.754   1.333  17.641 -0.8212  3.1183 -0.3990
  383TMC3    H2 5732   0.437   1.090  17.536  1.9327  0.2633  0.2723
  383TMC3    C7 5733   0.575   1.163   0.036  0.3349  0.3188  0.2219
  383TMC3    C8 5734   0.455   1.111  17.278 -0.4777 -0.0120  0.2997
  383TMC3    O1 5735   0.504   1.063   0.053 -0.0885 -0.4183 -0.2871
  383TMC3    O2 5736   0.407   1.172  17.183 -0.0897  0.8540 -0.2918
  384MPD2     C 5737   2.286   2.707  12.021 -0.0496 -0.5501  0.4556
  384MPD2    C1 5738   2.296   2.616  12.123  0.6792 -0.4541 -0.6042
  384MPD2    C2 5739   2.395   2.516  12.118 -0.0533  0.0902  0.1407
  384MPD2    C3 5740   2.460   2.487  11.998 -0.5163  0.0323 -0.2232
  384MPD2    C4 5741   2.426   2.568  11.887  0.7982  0.8492 -0.3608
  384MPD2    C5 5742   2.347   2.678  11.901  0.5100  0.1499  0.0579
  384MPD2     H 5743   2.404   2.447  12.201  0.5523  0.6974  0.5730
  384MPD2    H1 5744   2.466   2.547  11.788 -0.7519 -0.0372 -0.7996
  384MPD2    H2 5745   2.215   2.788  12.028  0.9791  0.3525  0.5753
  384MPD2    H3 5746   2.321   2.737  11.813  2.4733 -0.1344 -0.7202
  384MPD2     N 5747   2.558   2.386  11.998  0.6314  0.0409  0.5512
  384MPD2    H5 5748   2.569   2.334  12.084  0.4660  2.1143  1.8174
  384MPD2    N1 5749   2.227   2.633  12.241  0.2145 -0.4252  0.4212
  384MPD2    H7 5750   2.260   2.579  12.320  0.1478 -0.4737  0.4162
  385TMC3    C1 5751   2.686   2.210  11.935 -0.3359  0.6773 -0.3898
  385TMC3    C2 5752   2.653   2.095  11.878  0.2125  0.1764 -0.5571
  385TMC3    C3 5753   2.630   1.988  11.956 -0.7217  1.0670 -0.2367
  385TMC3    C4 5754   2.720   2.213  12.068 -0.4738 -0.2713 -0.5601
  385TMC3    C5 5755   2.679   2.112  12.157 -0.8234 -0.5161 -0.1535
  385TMC3    C6 5756   2.636   1.999  12.095 -0.0405 -0.8887  0.3118
  385TMC3     C 5757   2.625   2.331  11.887 -0.5846  0.5547  0.8324
  385TMC3     O 5758   2.600   2.357  11.774 -0.1041 -0.3590 -0.0464
  385TMC3     H 5759   2.631   2.097  11.772  0.1713 -0.2368 -0.5565
  385TMC3    H1 5760   2.756   2.311  12.098  1.4386 -0.7273 -1.3736
  385TMC3    H2 5761   2.593   1.916  12.150  0.1032  1.8375  4.5285
  385TMC3    C7 5762   2.610   2.162  12.264  0.1917  0.4138 -0.0257
  385TMC3    C8 5763   2.640   1.855  11.903 -0.0767 -0.0589 -1.0380
  385TMC3    O1 5764   2.573   2.275  12.253  0.1535 -0.6520 -0.0399
  385TMC3    O2 5765   2.642   1.767  11.988 -0.1118  0.3985 -0.5786
  386TMC3    C1 5766   3.037   0.273  12.356 -0.0758 -0.4448 -0.1411
  386TMC3    C2 5767   3.103   0.259  12.235 -0.4281  0.0893  0.2378
  386TMC3    C3 5768   3.056   0.323  12.130 -0.1025  0.0230 -0.0655
  386TMC3    C4 5769   2.917   0.337  12.366  0.9184  0.3445 -0.0388
  386TMC3    C5 5770   2.867   0.404  12.258  0.1966 -0.1606  0.7065
  386TMC3    C6 5771   2.944   0.403  12.141  0.3894 -0.3783 -0.6322
  386TMC3     C 5772   3.079   0.200  12.482 -0.4926 -0.9592  0.4570
  386TMC3     O 5773   3.042   0.248  12.589 -0.1904 -0.3144 -0.5644
  386TMC3     H 5774   3.198   0.208  12.226 -0.9684 -0.8661 -0.1092
  386TMC3    H1 5775   2.865   0.343  12.461 -0.7906 -1.4531 -0.8859
  386TMC3    H2 5776   2.920   0.479  12.067 -2.7552 -0.0156  0.7972
  386TMC3    C7 5777   2.727   0.373  12.235 -0.2833 -0.1738 -0.2288
  386TMC3    C8 5778   3.035   0.252  12.005 -0.5629  0.0570 -0.1716
  386TMC3    O1 5779   2.655   0.355  12.332 -0.1297  0.6206  0.7262
  386TMC3    O2 5780   2.927   0.281  11.949  0.3963  0.0798 -0.3030
  387MPD2     C 5781   0.452   4.250   9.314 -0.4811 -0.7174 -0.0860
  387MPD2    C1 5782   0.529   4.238   9.423  0.1609  0.2909 -0.1566
  387MPD2    C2 5783   0.536   4.112   9.480 -0.3537  0.2883 -0.0654
  387MPD2    C3 5784   0.476   4.000   9.423 -0.2659 -0.1582  0.3474
  387MPD2    C4 5785   0.395   4.024   9.317  0.0679 -0.3186 -0.3801
  387MPD2    C5 5786   0.374   4.145   9.260  0.3094 -0.0647  0.1444
  387MPD2     H 5787   0.587   4.104   9.576  0.0235 -1.8660 -0.4563
  387MPD2    H1 5788   0.341   3.946   9.265  0.7881 -0.8145 -0.3858
  387MPD2    H2 5789   0.445   4.350   9.272  2.1441 -1.4734 -2.3815
  387MPD2    H3 5790   0.306   4.152   9.177  0.9386 -1.0640 -0.4571
  387MPD2     N 5791   0.489   3.877   9.494 -0.4474 -0.5171 -0.3444
  387MPD2    H5 5792   0.540   3.885   9.581  0.0744  0.3653 -0.7288
  387MPD2    N1 5793   0.612   4.344   9.475  0.4785  0.3785 -0.0661
  387MPD2    H7 5794   0.661   4.333   9.563  3.4286  1.0812 -1.5949
  388TMC3    C1 5795   0.752   4.524   9.480  0.3886  0.1041  0.7051
  388TMC3    C2 5796   0.733   4.655   9.526  0.1141 -0.0732 -0.4831
  388TMC3    C3 5797   0.829   4.700   9.617  0.2516  1.0153  0.6993
  388TMC3    C4 5798   0.863   4.449   9.501  0.1937 -0.3398  0.4058
  388TMC3    C5 5799   0.959   4.504   9.585 -0.5553 -0.3041  0.3076
  388TMC3    C6 5800   0.941   4.628   9.642  0.3678 -0.4035 -0.7522
  388TMC3     C 5801   0.637   4.464   9.416 -0.5526 -0.7726  0.2981
  388TMC3     O 5802   0.597   4.516   9.313  0.4857  0.4214  0.0266
  388TMC3     H 5803   0.637   4.704   9.515 -0.6568 -1.0200  2.0844
  388TMC3    H1 5804   0.867   4.352   9.454 -0.4536 -0.0758 -0.1944
  388TMC3    H2 5805   1.015   4.659   9.714 -0.7496 -0.0579  0.2610
  388TMC3    C7 5806   1.049   4.405   9.660  0.9944 -0.0112  0.4209
  388TMC3    C8 5807   0.798   0.092   9.699 -0.7045 -0.1848  0.4276
  388TMC3    O1 5808   1.153   4.441   9.717 -0.2458 -0.4475  0.8569
  388TMC3    O2 5809   0.685   0.137   9.695  0.5581 -0.4875 -0.0752
  389MPD2     C 5810   0.113   3.253  11.313  0.8043 -0.6355  0.1356
  389MPD2    C1 5811   0.014   3.181  11.268 -0.2987 -0.3185  0.0351
  389MPD2    C2 5812   4.661   3.122  11.365  0.2294  0.2847 -0.1520
  389MPD2    C3 5813   4.680   3.131  11.502  0.0313 -0.1273  0.8034
  389MPD2    C4 5814   0.055   3.219  11.542  0.2038  0.2485  0.0819
  389MPD2    C5 5815   0.131   3.278  11.449  0.1933  0.5730  0.3093
  389MPD2     H 5816   4.590   3.049  11.325  0.8299  1.0627 -2.5979
  389MPD2    H1 5817   0.072   3.237  11.648 -2.3271 -0.0577  0.5413
  389MPD2    H2 5818   0.179   3.300  11.240  0.2264 -0.3835 -0.2209
  389MPD2    H3 5819   0.218   3.338  11.471 -0.4696  1.0343  1.7250
  389MPD2     N 5820   4.601   3.070  11.607  0.1251  0.1038 -0.2818
  389MPD2    H5 5821   4.608   3.098  11.704  1.5939 -1.8246  0.1686
  389MPD2    N1 5822   4.709   3.185  11.130  0.2639  0.1731  0.1874
  389MPD2    H7 5823   0.043   3.254  11.082 -1.1764 -0.0655 -1.8897
  390TMC3    C1 5824   4.437   2.911  11.685 -0.3099 -0.4287  1.1678
  390TMC3    C2 5825   4.379   2.787  11.675 -0.1730 -0.4929 -0.8621
  390TMC3    C3 5826   4.292   2.751  11.767 -0.4067 -0.2376 -1.2113
  390TMC3    C4 5827   4.399   3.000  11.784 -0.0219 -0.2558  0.0808
  390TMC3    C5 5828   4.294   2.964  11.865  0.3161 -0.0662  0.0896
  390TMC3    C6 5829   4.239   2.836  11.860 -0.5117  0.0585  0.0227
  390TMC3     C 5830   4.516   2.966  11.575 -0.2015 -0.8424 -0.2530
  390TMC3     O 5831   4.512   2.898  11.475 -0.0601  0.0218  0.4283
  390TMC3     H 5832   4.435   2.716  11.614  1.4913  1.3284 -1.4383
  390TMC3    H1 5833   4.434   3.103  11.790 -0.0209 -0.2239 -0.4932
  390TMC3    H2 5834   4.154   2.811  11.921 -0.0669 -1.1127  0.1468
  390TMC3    C7 5835   4.197   3.070  11.894  0.8642  0.3849 -0.3367
  390TMC3    C8 5836   4.237   2.614  11.754 -0.4294 -1.0032  0.6915
  390TMC3    O1 5837   4.205   3.172  11.834  0.7712 -0.4442 -0.0563
  390TMC3    O2 5838   4.242   2.562  11.643  0.4616  0.0218  0.0604
  391MPD2     C 5839   3.698   4.168  11.176  0.3944  0.1305  0.1490
  391MPD2    C1 5840   3.745   4.294  11.148 -0.8247  0.3261  0.6038
  391MPD2    C2 5841   3.788   4.318  11.017  0.3903 -0.2319 -0.5821
  391MPD2    C3 5842   3.780   4.234  10.911  1.2973  0.0076  0.0902
  391MPD2    C4 5843   3.716   4.114  10.940  0.0546 -0.1818 -0.7312
  391MPD2    C5 5844   3.679   4.083  11.070 -0.0565 -0.0327  0.3829
  391MPD2     H 5845   3.839   4.408  10.984 -0.7911  0.5498 -0.2640
  391MPD2    H1 5846   3.714   4.037  10.863  1.1974 -2.6809  1.7369
  391MPD2    H2 5847   3.665   4.140  11.274 -2.1247  0.9555 -0.4647
  391MPD2    H3 5848   3.636   3.986  11.093  0.5369 -1.0551 -2.8500
  391MPD2     N 5849   3.847   4.266  10.791  0.3086  1.0892  0.2089
  391MPD2    H5 5850   3.892   4.357  10.794  0.1275  1.1932 -0.2378
  391MPD2    N1 5851   3.761   4.377  11.261  0.0256 -0.2397 -0.9470
  391MPD2    H7 5852   3.755   4.336  11.354  1.2076 -0.7799 -1.1066
  392TMC3    C1 5853   3.928   4.265  10.576 -0.2028  0.0062 -0.7836
  392TMC3    C2 5854   3.877   4.248  10.449  0.1150 -0.3393 -1.1938
  392TMC3    C3 5855   3.930   4.326  10.353 -0.1859 -0.2529  0.1518
  392TMC3    C4 5856   4.023   4.354  10.609  0.9614 -0.3281  0.0409
  392TMC3    C5 5857   4.070   4.439  10.509  0.4414  0.3896  0.1079
  392TMC3    C6 5858   4.028   4.421  10.379  1.1228 -0.2020  0.1591
  392TMC3     C 5859   3.851   4.196  10.675  0.4259 -0.0440 -0.6190
  392TMC3     O 5860   3.826   4.073  10.660 -0.1133  0.3685  0.4162
  392TMC3     H 5861   3.796   4.181  10.422  0.4831 -1.7407  1.2486
  392TMC3    H1 5862   4.055   4.361  10.712  1.8122  0.3313 -0.2637
  392TMC3    H2 5863   4.052   4.482  10.293  0.9592  1.5985  1.4107
  392TMC3    C7 5864   4.172   4.537  10.534  0.0439  0.5441  0.1650
  392TMC3    C8 5865   3.873   4.302  10.223  0.2573  0.3034 -0.3504
  392TMC3    O1 5866   4.188   4.567  10.656 -0.0321 -0.1230 -0.2240
  392TMC3    O2 5867   3.755   4.269  10.223  0.1953  0.3950  0.1587
  393TMC3    C1 5868   2.843   2.364  10.133  0.0727  0.1067 -0.6585
  393TMC3    C2 5869   2.711   2.362  10.107  0.1803 -0.1168  0.9801
  393TMC3    C3 5870   2.629   2.287  10.189 -0.1130 -0.3285  0.6171
  393TMC3    C4 5871   2.893   2.278  10.223  0.5416 -0.5260  0.7226
  393TMC3    C5 5872   2.809   2.195  10.299  0.4798  0.0088 -0.3338
  393TMC3    C6 5873   2.678   2.199  10.277 -0.4498 -0.0032 -0.0426
  393TMC3     C 5874   2.927   2.439  10.038 -0.1940 -0.0175  0.3670
  393TMC3     O 5875   2.872   2.486   9.943  0.6005  0.7522  0.1800
  393TMC3     H 5876   2.664   2.420  10.028  1.3733 -2.4313 -1.4185
  393TMC3    H1 5877   3.000   2.257  10.217  0.7932  1.1406 -0.5534
  393TMC3    H2 5878   2.610   2.128  10.323 -0.5924  2.0565  2.8820
  393TMC3    C7 5879   2.870   2.082  10.368 -0.3506  0.5221  0.5126
  393TMC3    C8 5880   2.499   2.263  10.125  0.4556 -1.0202  0.0793
  393TMC3    O1 5881   2.800   1.984  10.388  0.4652 -0.1968 -0.5676
  393TMC3    O2 5882   2.493   2.284  10.007  0.5784  0.1612 -0.1030
  394TMC3    C1 5883   4.644   3.116  10.923  0.1524 -0.7380  0.3491
  394TMC3    C2 5884   4.532   3.105  10.847  0.0896  0.2846  0.0748
  394TMC3    C3 5885   4.546   3.157  10.719  0.1491  0.1428 -0.6319
  394TMC3    C4 5886   0.037   3.163  10.873 -0.6498 -0.0219 -0.8142
  394TMC3    C5 5887   0.047   3.209  10.740 -0.1497 -0.0188  0.2510
  394TMC3    C6 5888   4.660   3.213  10.667 -0.2442  0.0084  0.2140
  394TMC3     C 5889   4.636   3.091  11.065 -0.2790  0.4494 -0.3626
  394TMC3     O 5890   4.571   2.993  11.100 -0.2252  0.3643 -0.0604
  394TMC3     H 5891   4.444   3.062  10.892  0.2137 -0.1454 -0.0938
  394TMC3    H1 5892   0.122   3.180  10.937  0.6082 -2.7116 -1.7591
  394TMC3    H2 5893   4.671   3.213  10.559  0.8714 -1.2378  0.3266
  394TMC3    C7 5894   0.176   3.248  10.686 -0.0592 -0.2541 -0.2379
  394TMC3    C8 5895   4.469   3.087  10.615 -0.4840  0.1577 -0.4579
  394TMC3    O1 5896   0.174   3.323  10.593  0.4063 -0.3402  0.6235
  394TMC3    O2 5897   4.375   3.142  10.566  0.1671  0.1556  0.5422
  395TMC3    C1 5898   4.332   0.583  14.829  0.4206  0.2476 -0.5228
  395TMC3    C2 5899   4.202   0.630  14.816 -0.0196 -0.4043  0.0291
  395TMC3    C3 5900   4.179   0.757  14.783 -0.3693 -0.7090  0.5411
  395TMC3    C4 5901   4.441   0.668  14.813  0.6419 -0.8909 -0.2436
  395TMC3    C5 5902   4.414   0.798  14.785  0.0163  0.6159 -0.4534
  395TMC3    C6 5903   4.283   0.843  14.778 -0.2783  0.4537 -0.4247
  395TMC3     C 5904   4.348   0.483  14.931 -0.4698 -0.1903  0.1723
  395TMC3     O 5905   4.433   0.510  15.017 -0.4006 -1.2203 -0.3301
  395TMC3     H 5906   4.122   0.563  14.844 -0.7856  0.5276  0.0886
  395TMC3    H1 5907   4.539   0.623  14.818  0.5465 -1.1693 -0.8580
  395TMC3    H2 5908   4.267   0.950  14.772 -0.3718  0.5744  1.7357
  395TMC3    C7 5909   4.520   0.900  14.778 -0.2832  0.0427 -0.5291
  395TMC3    C8 5910   4.042   0.813  14.788  0.1065 -0.4664 -0.1942
  395TMC3    O1 5911   4.497   1.015  14.810 -0.4949  0.5360  0.0413
  395TMC3    O2 5912   4.032   0.933  14.784  0.2584 -0.2238  0.1589
  396MPD2     C 5913   3.789   1.283  16.808 -0.3813  0.6749  0.1198
  396MPD2    C1 5914   3.908   1.299  16.877 -0.6471 -0.0670  0.2682
  396MPD2    C2 5915   3.990   1.410  16.840 -0.2004  0.0418 -0.4616
  396MPD2    C3 5916   3.958   1.502  16.738 -0.4122  0.7092  0.0783
  396MPD2    C4 5917   3.833   1.480  16.673 -0.8986  0.5403  0.6129
  396MPD2    C5 5918   3.750   1.376  16.718 -0.0360 -0.6006  0.5514
  396MPD2     H 5919   4.090   1.418  16.881 -0.0214  1.0923 -1.0905
  396MPD2    H1 5920   3.798   1.543  16.592  0.3999  2.0755  1.2713
  396MPD2    H2 5921   3.733   1.193  16.831  2.3735 -1.2521 -0.7376
  396MPD2    H3 5922   3.652   1.357  16.676  0.0500  0.2976 -0.0716
  396MPD2     N 5923   4.034   1.614  16.709  0.9092 -0.6503  0.1691
  396MPD2    H5 5924   4.105   1.644  16.775  0.8020 -1.4596  0.6631
  396MPD2    N1 5925   3.937   1.221  16.985  0.4705  0.2296  0.3430
  396MPD2    H7 5926   3.875   1.143  17.003  0.7251  0.4132  2.1016
  397TMC3    C1 5927   4.055   1.134  17.174 -0.0883  0.7413  0.3372
  397TMC3    C2 5928   4.182   1.084  17.187  0.0373  0.2213  0.6794
  397TMC3    C3 5929   4.213   0.948  17.190  0.1695 -0.4233  0.4346
  397TMC3    C4 5930   3.960   1.034  17.159  0.8044 -0.4917 -0.0207
  397TMC3    C5 5931   3.997   0.901  17.174 -0.2651 -0.9303 -0.4614
  397TMC3    C6 5932   4.118   0.856  17.196  0.1663 -0.3524  0.3278
  397TMC3     C 5933   4.045   1.244  17.076 -0.2558  0.4882 -0.3939
  397TMC3     O 5934   4.123   1.339  17.092  0.3848 -0.1802  0.0875
  397TMC3     H 5935   4.259   1.160  17.170 -0.0204 -0.4809 -2.6142
  397TMC3    H1 5936   3.854   1.056  17.160  0.7098 -1.0238  2.0539
  397TMC3    H2 5937   4.153   0.754  17.201  0.8971 -0.2291 -2.6386
  397TMC3    C7 5938   3.884   0.801  17.183  0.4372  0.0741 -0.2888
  397TMC3    C8 5939   4.351   0.885  17.213  0.5091  0.1815 -0.0582
  397TMC3    O1 5940   3.782   0.820  17.115 -0.3157 -0.7219 -0.0057
  397TMC3    O2 5941   4.358   0.789  17.288 -0.0957 -0.4069 -0.1010
  398MPD2     C 5942   1.645   2.725   0.048 -0.4091  0.4916  0.7288
  398MPD2    C1 5943   1.747   2.633   0.044  0.4369 -0.0976  0.5993
  398MPD2    C2 5944   1.868   2.673  17.686  0.7534 -1.0399 -0.4646
  398MPD2    C3 5945   1.887   2.801  17.638 -0.1032  0.9971 -1.0949
  398MPD2    C4 5946   1.789   2.898  17.665 -0.2384 -0.7101 -0.1717
  398MPD2    C5 5947   1.677   2.861   0.027 -0.0131 -0.0450 -0.2743
  398MPD2     H 5948   1.952   2.604  17.677  2.7298  1.2302  0.6381
  398MPD2    H1 5949   1.808   3.001  17.636 -1.1414 -0.8262 -1.1701
  398MPD2    H2 5950   1.555   2.711   0.106 -1.9937 -0.5056 -1.9333
  398MPD2    H3 5951   1.601   2.934   0.051 -0.5050 -0.6516  0.0079
  398MPD2     N 5952   2.013   2.831  17.584  0.0874  0.4263  0.8619
  398MPD2    H5 5953   2.097   2.778  17.606  0.8711  0.9621 -0.8752
  398MPD2    N1 5954   1.731   2.498   0.087 -0.5580  0.4174 -0.1256
  398MPD2    H7 5955   1.812   2.437   0.075  0.1669  1.1458  1.0527
  399TMC3    C1 5956   1.655   2.312   0.190 -0.3233 -0.5149  0.2766
  399TMC3    C2 5957   1.768   2.291   0.261  0.5399  0.5862  0.4841
  399TMC3    C3 5958   1.764   2.172   0.329 -0.8004 -0.0287  0.0744
  399TMC3    C4 5959   1.562   2.222   0.161 -0.3931  0.1598  0.2563
  399TMC3    C5 5960   1.568   2.103   0.220  0.1415  0.1206 -0.6871
  399TMC3    C6 5961   1.670   2.072   0.309  0.4613 -0.1334 -0.0666
  399TMC3     C 5962   1.620   2.448   0.144  0.1283  0.2221 -1.1653
  399TMC3     O 5963   1.502   2.483   0.140  0.4223  0.1818  0.0264
  399TMC3     H 5964   1.832   2.371   0.298  1.2075  0.2821 -0.0176
  399TMC3    H1 5965   1.470   2.251   0.112 -1.1769  1.3100  2.3894
  399TMC3    H2 5966   1.672   1.981   0.368 -1.1237 -1.2485 -1.7306
  399TMC3    C7 5967   1.471   2.001   0.204 -0.4086 -0.2914 -0.0698
  399TMC3    C8 5968   1.878   2.158   0.421  0.8485  0.4877  0.1346
  399TMC3    O1 5969   1.471   1.918   0.292 -0.8089  0.2749 -0.9422
  399TMC3    O2 5970   1.946   2.254   0.451  0.0901  0.1016  0.1426
  400TMC3    C1 5971   0.631   0.923  16.813  0.0910 -0.3367 -0.6719
  400TMC3    C2 5972   0.527   0.898  16.730  0.0470  0.9621 -0.5739
  400TMC3    C3 5973   0.445   0.998  16.692 -0.8640 -0.4137  0.2635
  400TMC3    C4 5974   0.661   1.051  16.863 -0.1329 -0.1423 -0.1448
  400TMC3    C5 5975   0.578   1.150  16.821 -0.3769  0.9513  0.8413
  400TMC3    C6 5976   0.477   1.129  16.728 -0.4315  0.2335  0.5294
  400TMC3     C 5977   0.689   0.808  16.875 -0.5253 -0.7341 -0.5075
  400TMC3     O 5978   0.658   0.695  16.830 -0.5973  0.1384  0.0843
  400TMC3     H 5979   0.513   0.798  16.692  2.8161 -0.9575  3.4147
  400TMC3    H1 5980   0.748   1.077  16.922  0.6538 -1.3501 -0.7768
  400TMC3    H2 5981   0.404   1.205  16.704 -0.9927 -0.5211 -0.1189
  400TMC3    C7 5982   0.592   1.287  16.877  1.0943  0.7049 -1.0957
  400TMC3    C8 5983   0.329   0.982  16.602  0.0834  0.3497 -0.1273
  400TMC3    O1 5984   0.635   1.298  16.989 -0.0904 -0.4823  0.2655
  400TMC3    O2 5985   0.281   1.083  16.550 -0.3162 -0.1447  0.1251
  401MPD2     C 5986   3.722   0.219   0.644 -0.2403  0.4611  0.5768
  401MPD2    C1 5987   3.676   0.136   0.743 -0.9878 -0.2353 -0.5851
  401MPD2    C2 5988   3.626   0.013   0.716  0.2484  0.8577 -0.4392
  401MPD2    C3 5989   3.624   4.689   0.588 -0.4915 -0.2609  0.8573
  401MPD2    C4 5990   3.653   0.050   0.485 -0.1707 -0.3740  0.1856
  401MPD2    C5 5991   3.707   0.179   0.513 -0.2180 -0.0510 -0.3055
  401MPD2     H 5992   3.577   4.672   0.788 -2.4536  2.2139 -1.0585
  401MPD2    H1 5993   3.663   0.013   0.384  0.5444 -0.2196  0.1959
  401MPD2    H2 5994   3.779   0.309   0.665  0.5651 -0.1809  1.1155
  401MPD2    H3 5995   3.750   0.232   0.429  0.4942  0.0808  0.1424
  401MPD2     N 5996   3.593   4.548   0.574 -0.2653  0.5298  0.1461
  401MPD2    H5 5997   3.564   4.501   0.659  1.6264  1.1792  1.1541
  401MPD2    N1 5998   3.676   0.168   0.882  0.3574 -0.4534 -0.3552
  401MPD2    H7 5999   3.641   0.100   0.949 -1.2157 -0.0165 -0.7307
  402TMC3    C1 6000   3.594   4.332   0.490 -0.2692 -0.0340 -0.3906
  402TMC3    C2 6001   3.518   4.300   0.604  0.5079 -0.0907  0.5141
  402TMC3    C3 6002   3.550   4.184   0.669  0.8282  0.1775 -0.1374
  402TMC3    C4 6003   3.688   4.245   0.439 -0.5088  0.1007 -0.5128
  402TMC3    C5 6004   3.710   4.130   0.505 -0.2021  0.2741  0.5615
  402TMC3    C6 6005   3.639   4.099   0.621  0.0292  0.6491 -0.1167
  402TMC3     C 6006   3.615   4.473   0.466  0.2039 -0.1259  0.3652
  402TMC3     O 6007   3.646   4.497   0.347 -1.0172  0.1451 -0.1255
  402TMC3     H 6008   3.441   4.366   0.643  1.5277  1.4253 -0.0093
  402TMC3    H1 6009   3.745   4.268   0.349  0.8141 -0.1018  0.2694
  402TMC3    H2 6010   3.673   4.012   0.676  1.4696 -0.4354 -2.7388
  402TMC3    C7 6011   3.794   4.026   0.466 -0.4035  0.5878 -0.3938
  402TMC3    C8 6012   3.459   4.146   0.778  0.8048 -0.3543  0.1226
  402TMC3    O1 6013   3.755   3.913   0.488  0.6884  0.1126  0.0792
  402TMC3    O2 6014   3.375   4.226   0.812 -0.3375 -0.1751 -0.2566
  403MPD2     C 6015   1.573   2.670  13.470  0.1259  0.6262 -0.0605
  403MPD2    C1 6016   1.637   2.578  13.548 -0.0571  0.8769 -0.4521
  403MPD2    C2 6017   1.745   2.614  13.633 -0.3850 -0.3290 -1.2127
  403MPD2    C3 6018   1.786   2.751  13.636  0.2784 -0.6272  0.1912
  403MPD2    C4 6019   1.705   2.843  13.568 -0.2575  0.0874  0.2703
  403MPD2    C5 6020   1.601   2.806  13.485 -0.1984 -0.1100 -0.3283
  403MPD2     H 6021   1.788   2.541  13.700 -0.2124  1.2327  0.3650
  403MPD2    H1 6022   1.742   2.943  13.586  0.3549  0.3091 -2.2249
  403MPD2    H2 6023   1.488   2.647  13.407  0.4304 -2.3734  0.6235
  403MPD2    H3 6024   1.546   2.885  13.437 -0.5889 -0.9485 -1.2452
  403MPD2     N 6025   1.899   2.800  13.709 -0.1647 -0.1190 -0.6608
  403MPD2    H5 6026   1.908   2.901  13.705 -0.9121 -0.0019  0.4959
  403MPD2    N1 6027   1.588   2.443  13.538  0.6490  0.2799 -0.9949
  403MPD2    H7 6028   1.515   2.424  13.470 -0.3746  0.6947  0.0071
  404TMC3    C1 6029   1.557   2.211  13.599 -0.0983  0.1072  0.1957
  404TMC3    C2 6030   1.562   2.125  13.710  0.4624 -0.5027  0.6769
  404TMC3    C3 6031   1.575   1.993  13.679  0.7590  1.0377 -0.0832
  404TMC3    C4 6032   1.548   2.161  13.473  0.4467 -0.6410 -0.8058
  404TMC3    C5 6033   1.553   2.026  13.445 -0.0653  0.1156 -0.2844
  404TMC3    C6 6034   1.564   1.948  13.552  1.4633 -0.0390 -0.4173
  404TMC3     C 6035   1.630   2.334  13.616  0.1032  0.0718 -0.4194
  404TMC3     O 6036   1.712   2.337  13.707  0.1924 -0.5561 -0.1331
  404TMC3     H 6037   1.587   2.164  13.808  0.8897  1.0611 -0.0615
  404TMC3    H1 6038   1.551   2.226  13.386  0.6072  2.7232  1.7325
  404TMC3    H2 6039   1.591   1.844  13.538  0.3957 -0.2231 -1.1469
  404TMC3    C7 6040   1.645   1.992  13.338 -0.6718 -0.5017 -0.0304
  404TMC3    C8 6041   1.614   1.901  13.786  0.2046 -0.1675 -1.0198
  404TMC3    O1 6042   1.763   1.991  13.371 -0.3318  0.4193  0.3805
  404TMC3    O2 6043   1.666   1.792  13.752 -0.0495 -0.1350 -0.6453
  405MPD2     C 6044   1.977   2.997  15.002  0.2783  0.4647  0.5485
  405MPD2    C1 6045   2.024   2.923  14.897 -0.1909 -0.5714  0.8106
  405MPD2    C2 6046   2.059   2.993  14.780  0.1782 -0.6035 -0.2587
  405MPD2    C3 6047   2.020   3.125  14.764 -0.1160  0.1067  0.7924
  405MPD2    C4 6048   1.966   3.196  14.870  0.3335  0.2495 -0.3415
  405MPD2    C5 6049   1.953   3.131  14.991 -0.1236  0.6757  0.7860
  405MPD2     H 6050   2.118   2.945  14.703  0.2495  0.1525 -0.6705
  405MPD2    H1 6051   1.917   3.292  14.857 -2.5558 -0.6287  4.1945
  405MPD2    H2 6052   1.945   2.953  15.096  0.2043 -1.4544 -0.3835
  405MPD2    H3 6053   1.890   3.188  15.058 -0.1636 -0.7872  1.9915
  405MPD2     N 6054   2.037   3.171  14.632  0.1616 -0.2415 -0.4595
  405MPD2    H5 6055   2.093   3.116  14.567 -0.5090 -1.2920 -0.1300
  405MPD2    N1 6056   2.041   2.785  14.916 -0.0934 -0.0124  0.1977
  405MPD2    H7 6057   2.025   2.748  15.009  3.7903 -0.2586  0.7712
  406TMC3    C1 6058   1.809   3.325  14.248 -0.0633  0.1588 -0.1397
  406TMC3    C2 6059   1.844   3.218  14.180  0.0621  0.6609 -0.1827
  406TMC3    C3 6060   1.924   3.124  14.241 -0.6672 -0.3799  0.5525
  406TMC3    C4 6061   1.852   3.350  14.374  0.1940 -0.1486  0.0832
  406TMC3    C5 6062   1.935   3.256  14.431 -0.1952  0.4467  0.3402
  406TMC3    C6 6063   1.975   3.146  14.366 -0.2210  0.1387 -0.7195
  406TMC3     C 6064   1.685   3.388  14.201 -0.0098  0.3366  0.2179
  406TMC3     O 6065   1.667   3.372  14.077  0.0257 -0.5852 -0.0448
  406TMC3     H 6066   1.802   3.197  14.082  0.4221 -2.2911  0.2929
  406TMC3    H1 6067   1.817   3.440  14.424  0.1421  0.1309 -0.4550
  406TMC3    H2 6068   2.026   3.070  14.425  0.5855 -0.6919 -2.4952
  406TMC3    C7 6069   1.945   3.260  14.579  0.0006  0.1741 -0.3188
  406TMC3    C8 6070   1.942   2.989  14.187 -0.3670 -0.2547 -0.4707
  406TMC3    O1 6071   1.862   3.317  14.642  0.5002 -0.1057  0.2429
  406TMC3    O2 6072   1.880   2.963  14.082 -0.2755 -0.3229  0.3219
  407MPD2     C 6073   0.301   0.156   9.214 -0.0386 -0.2349 -0.1963
  407MPD2    C1 6074   0.379   0.048   9.263  0.2970 -0.0874 -0.0812
  407MPD2    C2 6075   0.363   0.010   9.394 -0.4827 -0.2325 -0.5436
  407MPD2    C3 6076   0.288   0.077   9.478  0.0655  0.2686  0.0654
  407MPD2    C4 6077   0.208   0.173   9.431  0.2234 -0.4910  0.1574
  407MPD2    C5 6078   0.206   0.209   9.301 -0.2398 -0.1389  0.4381
  407MPD2     H 6079   0.422   4.652   9.432  1.8476  0.2774 -3.0176
  407MPD2    H1 6080   0.136   0.228   9.491 -1.6992 -1.3615 -1.3439
  407MPD2    H2 6081   0.292   0.189   9.111 -1.7009  2.3123  0.7882
  407MPD2    H3 6082   0.137   0.286   9.270 -0.9748 -1.0732 -0.2763
  407MPD2     N 6083   0.286   0.051   9.617  0.4137 -0.4254 -0.2398
  407MPD2    H5 6084   0.218   0.110   9.664  0.1119 -0.4567 -0.6378
  407MPD2    N1 6085   0.488   4.718   9.191 -0.3319 -0.2305  0.3026
  407MPD2    H7 6086   0.532   4.635   9.231 -0.3449 -2.2220 -3.7359
  408TMC3    C1 6087   0.605   4.667   8.988 -0.7626  0.6635  0.4800
  408TMC3    C2 6088   0.608   4.532   9.030  0.5487 -0.0361  0.0800
  408TMC3    C3 6089   0.722   4.462   9.022 -0.0506 -0.2805  0.7162
  408TMC3    C4 6090   0.722   0.002   8.943 -0.1083 -0.6504  0.0871
  408TMC3    C5 6091   0.834   4.643   8.935 -0.0457  0.7811  0.6829
  408TMC3    C6 6092   0.840   4.512   8.970 -0.2582  0.3293 -0.2512
  408TMC3     C 6093   0.508   0.030   9.056  0.5598 -0.1535  0.6320
  408TMC3     O 6094   0.444   0.109   8.988  0.0641 -0.4091  0.1667
  408TMC3     H 6095   0.520   4.483   9.069 -0.0587  0.1656 -1.0287
  408TMC3    H1 6096   0.727   0.107   8.917  0.7509 -0.4036  1.2422
  408TMC3    H2 6097   0.936   4.463   8.977 -0.6184 -0.1197  1.7617
  408TMC3    C7 6098   0.958   4.710   8.925  0.0845 -0.6007 -0.1891
  408TMC3    C8 6099   0.723   4.333   9.085 -0.0618 -0.5087 -0.2888
  408TMC3    O1 6100   1.051   4.644   8.882  0.1842 -0.0844  0.2008
  408TMC3    O2 6101   0.625   4.261   9.066 -0.9408 -0.0370  0.1176
  409MPD2     C 6102   3.944   0.548  16.949 -0.1531  0.0504  0.2955
  409MPD2    C1 6103   4.066   0.509  16.998 -0.4649 -0.3884 -0.6818
  409MPD2    C2 6104   4.178   0.574  16.953  0.2185  0.9136  0.6984
  409MPD2    C3 6105   4.177   0.680  16.869  0.2298  0.2457 -0.3751
  409MPD2    C4 6106   4.052   0.716  16.816 -0.6882  0.2442 -0.0855
  409MPD2    C5 6107   3.939   0.656  16.860 -0.0286 -0.7461 -0.7960
  409MPD2     H 6108   4.271   0.525  16.980 -0.9748 -1.0139  1.2487
  409MPD2    H1 6109   4.053   0.799  16.746 -1.1005 -1.1909 -1.7816
  409MPD2    H2 6110   3.849   0.501  16.973 -0.7624  1.3414  0.3994
  409MPD2    H3 6111   3.844   0.693  16.825 -0.1490 -0.6194 -0.3345
  409MPD2     N 6112   4.288   0.738  16.814  0.4837 -0.0076 -0.1699
  409MPD2    H5 6113   4.270   0.827  16.769 -1.8844  0.7396  2.2521
  409MPD2    N1 6114   4.082   0.408  17.091 -0.0815  0.2535  0.6377
  409MPD2    H7 6115   4.172   0.397  17.136  0.3716  1.0972 -0.0625
  410TMC3    C1 6116   4.516   0.795  16.801  0.4106 -0.0162 -0.5541
  410TMC3    C2 6117   4.630   0.806  16.869 -0.3320  0.6833 -0.2330
  410TMC3    C3 6118   4.713   0.908  16.835  0.0616 -0.6751 -0.4146
  410TMC3    C4 6119   4.481   0.890  16.707 -0.4836  0.2686 -0.0186
  410TMC3    C5 6120   4.572   0.984  16.671 -0.7351 -0.4094  0.2408
  410TMC3    C6 6121   4.689   1.000  16.738  0.2383  0.5502  0.1151
  410TMC3     C 6122   4.417   0.703  16.851 -0.1390  0.2399 -0.7803
  410TMC3     O 6123   4.467   0.613  16.916  0.1237  0.4280  0.3773
  410TMC3     H 6124   4.662   0.736  16.945  2.0332 -1.2376 -2.9569
  410TMC3    H1 6125   4.400   0.876  16.637  0.2922 -0.9578 -0.6688
  410TMC3    H2 6126   0.046   1.060  16.697  0.0842  0.2695 -0.5943
  410TMC3    C7 6127   4.545   1.059  16.543  0.4451 -0.1188 -0.5664
  410TMC3    C8 6128   0.120   0.915  16.902 -0.5049  0.6859  0.0334
  410TMC3    O1 6129   4.440   1.021  16.489 -0.1340 -0.5401  0.3656
  410TMC3    O2 6130   0.184   1.021  16.889 -0.1615 -0.3088 -0.2166
  411MPD2     C 6131   4.658   1.455  14.706  0.1831 -0.0968 -0.9679
  411MPD2    C1 6132   4.540   1.520  14.664 -0.1446 -0.3747 -0.6839
  411MPD2    C2 6133   4.441   1.446  14.603  0.3723 -0.3504  0.0181
  411MPD2    C3 6134   4.454   1.312  14.589 -0.0533  0.3896 -0.4811
  411MPD2    C4 6135   4.571   1.247  14.633 -0.8704 -0.4323  0.7947
  411MPD2    C5 6136   4.679   1.326  14.676 -0.2770 -0.4374 -0.8785
  411MPD2     H 6137   4.343   1.484  14.579  0.2414 -1.0610 -0.5843
  411MPD2    H1 6138   4.611   1.148  14.617  0.6979  0.5306 -1.2608
  411MPD2    H2 6139   0.010   1.521  14.748 -0.6285  0.6176 -0.6122
  411MPD2    H3 6140   0.056   1.289  14.692 -1.0812 -3.0940 -1.9654
  411MPD2     N 6141   4.360   1.234  14.511 -0.7577 -0.4922  0.7225
  411MPD2    H5 6142   4.373   1.134  14.508  0.6962 -0.2418 -1.2134
  411MPD2    N1 6143   4.534   1.655  14.685  0.4515  0.0971 -0.3687
  411MPD2    H7 6144   4.605   1.694  14.746 -0.5785 -1.1146  1.6229
  412TMC3    C1 6145   4.188   1.174  14.369 -0.3087 -0.3728  0.2649
  412TMC3    C2 6146   4.131   1.224  14.255 -0.4527 -0.3659  0.0208
  412TMC3    C3 6147   4.067   1.137  14.174 -0.2382  0.1673 -0.2333
  412TMC3    C4 6148   4.181   1.046  14.412  0.0242 -0.1410 -0.0471
  412TMC3    C5 6149   4.113   0.962  14.323 -0.0585 -0.4387 -0.1089
  412TMC3    C6 6150   4.057   1.002  14.204 -0.1336 -0.1038  0.1982
  412TMC3     C 6151   4.260   1.281  14.436  1.0336  0.2049  0.4767
  412TMC3     O 6152   4.214   1.391  14.417  0.0475  0.7436  0.8938
  412TMC3     H 6153   4.142   1.327  14.222 -1.1185  0.7780  3.3369
  412TMC3    H1 6154   4.214   1.001  14.505 -0.3843  0.2428  0.2854
  412TMC3    H2 6155   3.991   0.927  14.161  2.0192 -1.1115 -1.3517
  412TMC3    C7 6156   4.163   0.827  14.318 -0.1151 -0.0233  0.0865
  412TMC3    C8 6157   4.118   1.135  14.035 -0.4365  0.5606  0.1020
  412TMC3    O1 6158   4.138   0.753  14.411  0.2900  0.1841 -0.5112
  412TMC3    O2 6159   4.121   1.023  13.984 -0.0384  0.4155  0.2882
  413MPD2     C 6160   1.190   0.246  15.159  0.4983 -0.4301 -0.1241
  413MPD2    C1 6161   1.150   0.159  15.060 -0.4926 -0.7618 -1.1217
  413MPD2    C2 6162   1.236   0.054  15.019  0.2002  0.0275  0.0997
  413MPD2    C3 6163   1.358   0.043  15.076 -0.0106  0.1329 -0.7746
  413MPD2    C4 6164   1.407   0.139  15.160 -0.2054 -0.0501 -0.0356
  413MPD2    C5 6165   1.322   0.239  15.202 -0.6188 -0.1509  0.1310
  413MPD2     H 6166   1.210   4.707  14.942  0.1914 -0.2719  0.3803
  413MPD2    H1 6167   1.505   0.133  15.207  0.0927 -1.6981 -0.8740
  413MPD2    H2 6168   1.124   0.319  15.204 -0.5784 -2.3858  1.4561
  413MPD2    H3 6169   1.358   0.317  15.268  0.2384 -0.0470 -0.4544
  413MPD2     N 6170   1.440   4.660  15.045 -0.5190 -0.1367  0.0646
  413MPD2    H5 6171   1.410   4.589  14.979  0.1167  0.2616 -0.6688
  413MPD2    N1 6172   1.019   0.177  15.008 -0.1082  0.0817 -0.0893
  413MPD2    H7 6173   0.954   0.238  15.056 -0.2825 -0.3627  0.2486
  414TMC3    C1 6174   1.582   4.488  15.081  0.2156 -0.3517  0.2953
  414TMC3    C2 6175   1.582   4.407  15.190 -0.2478 -0.0349 -0.4836
  414TMC3    C3 6176   1.534   4.279  15.175 -0.6973 -0.0791 -0.4624
  414TMC3    C4 6177   1.528   4.449  14.961  0.7131 -0.2373 -0.6972
  414TMC3    C5 6178   1.486   4.316  14.951  0.5256 -0.8179 -0.1109
  414TMC3    C6 6179   1.490   4.229  15.056  0.5436  0.4167  0.7898
  414TMC3     C 6180   1.552   4.628  15.116 -0.5694 -0.3413 -0.0188
  414TMC3     O 6181   1.597   4.659  15.228  0.9063 -0.0995  0.3417
  414TMC3     H 6182   1.631   4.439  15.282  0.7121 -3.7677  0.2831
  414TMC3    H1 6183   1.537   4.517  14.877 -0.6331  2.4366  1.3401
  414TMC3    H2 6184   1.449   4.130  15.035  1.3029 -0.0130  1.3468
  414TMC3    C7 6185   1.526   4.252  14.828  0.2155 -0.1895 -0.1522
  414TMC3    C8 6186   1.610   4.173  15.233 -0.9383  0.1940 -0.7169
  414TMC3    O1 6187   1.492   4.297  14.717 -0.4636 -0.2742  0.4172
  414TMC3    O2 6188   1.621   4.077  15.159 -0.1454  0.4093 -0.3714
  415TMC3    C1 6189   2.194   1.618   9.725 -0.5457  0.6258 -0.0190
  415TMC3    C2 6190   2.268   1.660   9.625  0.1240  0.2446 -0.1863
  415TMC3    C3 6191   2.212   1.666   9.503  0.0691  0.4745  0.1911
  415TMC3    C4 6192   2.055   1.592   9.718  1.0592  0.0844 -0.4008
  415TMC3    C5 6193   1.999   1.610   9.599  0.3306  0.1178 -0.3749
  415TMC3    C6 6194   2.078   1.644   9.492 -0.5793 -0.1084  0.0104
  415TMC3     C 6195   2.256   1.608   9.856 -0.3184 -0.0225 -0.4583
  415TMC3     O 6196   2.197   1.535   9.938  0.4070 -0.2505 -0.0863
  415TMC3     H 6197   2.374   1.679   9.628  0.4006 -1.6433  1.3390
  415TMC3    H1 6198   1.989   1.593   9.805  1.6624  1.6755  0.0532
  415TMC3    H2 6199   2.035   1.655   9.393  2.0883  0.3952 -1.1013
  415TMC3    C7 6200   1.850   1.612   9.580  0.0296  0.3969  0.7445
  415TMC3    C8 6201   2.288   1.704   9.385  0.1412  0.7343  0.5144
  415TMC3    O1 6202   1.810   1.679   9.483 -0.6231  0.1876 -0.1903
  415TMC3    O2 6203   2.247   1.655   9.278 -0.5986  0.2903 -0.2520
  416MPD2     C 6204   4.002   1.171  11.508  0.0153 -0.2611  0.3482
  416MPD2    C1 6205   3.864   1.150  11.518  1.1233 -0.1109  0.5533
  416MPD2    C2 6206   3.811   1.031  11.480 -0.5162 -0.4897  0.2108
  416MPD2    C3 6207   3.895   0.930  11.437 -0.0545  0.5930 -0.0570
  416MPD2    C4 6208   4.033   0.950  11.444  0.4346 -0.2852  0.0095
  416MPD2    C5 6209   4.085   1.069  11.472 -0.8637  0.0244  0.9539
  416MPD2     H 6210   3.703   1.019  11.471 -0.2528 -4.6145  2.6610
  416MPD2    H1 6211   4.099   0.876  11.400  0.9025 -0.1567  0.4979
  416MPD2    H2 6212   4.038   1.267  11.541  1.3075 -0.9055  0.8317
  416MPD2    H3 6213   4.193   1.079  11.471 -0.9437  0.7889 -0.1690
  416MPD2     N 6214   3.851   0.805  11.393 -1.3452  0.4546  0.3422
  416MPD2    H5 6215   3.917   0.729  11.377 -0.8000  1.3778 -1.7700
  416MPD2    N1 6216   3.791   1.258  11.565 -0.2165  0.4142  0.1078
  416MPD2    H7 6217   3.841   1.334  11.610  0.2993 -0.3269  0.7827
  417TMC3    C1 6218   3.611   1.374  11.627  0.1459 -0.3922  0.1627
  417TMC3    C2 6219   3.695   1.440  11.709 -0.2432 -0.0866 -0.4927
  417TMC3    C3 6220   3.682   1.573  11.718 -0.0458 -0.5556 -0.1425
  417TMC3    C4 6221   3.492   1.423  11.569 -0.1479  0.1032 -0.1003
  417TMC3    C5 6222   3.476   1.558  11.585 -0.7409 -0.1038 -0.3721
  417TMC3    C6 6223   3.571   1.633  11.659 -0.0165 -0.3899 -0.4680
  417TMC3     C 6224   3.654   1.254  11.566 -0.0413 -0.1435 -0.2100
  417TMC3     O 6225   3.573   1.182  11.510 -0.2542  0.4788 -0.0572
  417TMC3     H 6226   3.761   1.389  11.778  2.1432  0.1301 -2.6360
  417TMC3    H1 6227   3.443   1.364  11.492 -0.5177 -0.1637  0.3361
  417TMC3    H2 6228   3.555   1.740  11.654  1.2734 -0.1792 -0.2086
  417TMC3    C7 6229   3.395   1.623  11.489  0.2155  0.0369 -0.0214
  417TMC3    C8 6230   3.699   1.617  11.857 -0.1725  0.0773  0.0499
  417TMC3    O1 6231   3.434   1.735  11.450  0.3832 -0.4013  0.2035
  417TMC3    O2 6232   3.603   1.604  11.931 -0.1123  0.2282 -0.5631
  418TMC3    C1 6233   2.392   3.029  17.475 -0.3703 -0.8745 -0.1585
  418TMC3    C2 6234   2.256   3.027  17.452 -0.7051  0.3747  0.3746
  418TMC3    C3 6235   2.165   3.000  17.551 -0.0220 -0.0566 -0.2078
  418TMC3    C4 6236   2.443   3.005  17.595 -0.9679 -0.8686  0.6822
  418TMC3    C5 6237   2.350   2.972  17.696  0.4526 -0.1123 -0.2820
  418TMC3    C6 6238   2.218   2.961  17.670  0.2360 -0.4213  0.3528
  418TMC3     C 6239   2.482   3.004  17.367 -0.5115 -0.2800 -0.3316
  418TMC3     O 6240   2.481   3.083  17.272 -0.0580  0.1482  0.2722
  418TMC3     H 6241   2.214   3.058  17.357  2.5688  1.1632 -0.8256
  418TMC3    H1 6242   2.550   3.009  17.607 -0.7624 -2.3948 -0.6237
  418TMC3    H2 6243   2.154   2.935   0.057  0.0342 -2.0253 -0.2904
  418TMC3    C7 6244   2.385   2.919   0.130 -1.0637 -0.5868  0.6419
  418TMC3    C8 6245   2.034   2.947  17.519  0.1169 -0.0811  0.7453
  418TMC3    O1 6246   2.309   2.841   0.187 -0.6289 -0.5366  0.3850
  418TMC3    O2 6247   1.957   3.011  17.450 -0.0247  0.1016  0.2464
  419MPD2     C 6248   1.232   0.804  12.532  0.3603  0.1913 -0.4670
  419MPD2    C1 6249   1.125   0.861  12.470 -0.5521 -0.3199 -0.3779
  419MPD2    C2 6250   1.080   0.979  12.516  0.4773  0.6454 -0.7912
  419MPD2    C3 6251   1.131   1.042  12.621 -0.1244  0.9636  0.3749
  419MPD2    C4 6252   1.241   0.983  12.691 -0.5163  0.4097  0.0910
  419MPD2    C5 6253   1.290   0.870  12.640  0.0811 -0.3591  0.5235
  419MPD2     H 6254   0.995   1.027  12.469 -0.7373 -0.7784 -0.0356
  419MPD2    H1 6255   1.274   1.010  12.791  1.0028  2.0383 -0.8556
  419MPD2    H2 6256   1.278   0.711  12.502 -0.1005 -0.1527 -0.1045
  419MPD2    H3 6257   1.376   0.823  12.687 -1.2688 -1.8980  1.4532
  419MPD2     N 6258   1.074   1.162  12.667  0.0147  0.4924 -0.5464
  419MPD2    H5 6259   0.980   1.179  12.632  0.0405  1.4537 -0.1605
  419MPD2    N1 6260   1.045   0.806  12.368  0.9201  0.1163  0.1021
  419MPD2    H7 6261   0.958   0.857  12.356  0.7714  0.4478  2.5658
  420TMC3    C1 6262   1.056   1.373  12.770 -0.2341 -0.0629  0.4294
  420TMC3    C2 6263   0.920   1.357  12.746 -0.0383 -0.5034 -0.8812
  420TMC3    C3 6264   0.841   1.439  12.816  0.6145 -0.7353 -0.1315
  420TMC3    C4 6265   1.107   1.463  12.858  0.2404 -0.0727  0.0569
  420TMC3    C5 6266   1.020   1.553  12.907  0.5608  0.2975 -0.5503
  420TMC3    C6 6267   0.885   1.537  12.894  0.0854 -0.1056  0.3383
  420TMC3     C 6268   1.139   1.265  12.732 -0.2702 -1.2425 -0.3370
  420TMC3     O 6269   1.257   1.279  12.754 -0.2494  0.2075  0.1582
  420TMC3     H 6270   0.872   1.313  12.660 -0.2165  0.7481 -1.4050
  420TMC3    H1 6271   1.212   1.472  12.882  0.3105 -2.1945  0.5170
  420TMC3    H2 6272   0.808   1.593  12.945 -0.4422 -1.7230  1.2854
  420TMC3    C7 6273   1.053   1.588  13.045  0.0294  0.1018 -0.1728
  420TMC3    C8 6274   0.696   1.438  12.796 -0.2246  0.5985 -0.8436
  420TMC3    O1 6275   1.155   1.538  13.088  0.8031 -0.2807  0.1979
  420TMC3    O2 6276   0.637   1.548  12.817  0.5946  0.0990 -0.5186
  421TMC3    C1 6277   2.110   2.770  13.817  0.3215 -0.3080 -0.2005
  421TMC3    C2 6278   2.132   2.909  13.825 -0.2771  0.1971  0.6637
  421TMC3    C3 6279   2.232   2.962  13.899 -0.0448  0.1314  0.3599
  421TMC3    C4 6280   2.202   2.690  13.883 -0.1952 -0.2570  0.0100
  421TMC3    C5 6281   2.295   2.749  13.964  0.6300  0.6514 -0.5243
  421TMC3    C6 6282   2.313   2.882  13.977 -0.2811 -0.6557  0.4194
  421TMC3     C 6283   1.999   2.714  13.750 -0.3253 -0.0421 -0.5735
  421TMC3     O 6284   2.011   2.593  13.741  0.6176  0.0090  0.3454
  421TMC3     H 6285   2.066   2.972  13.767 -1.4180 -1.2219  0.4209
  421TMC3    H1 6286   2.205   2.584  13.861 -3.9198 -0.5235  0.7212
  421TMC3    H2 6287   2.400   2.924  14.027  0.5110 -2.0773  0.2376
  421TMC3    C7 6288   2.387   2.669  14.041  0.3699  0.4526  0.1089
  421TMC3    C8 6289   2.189   3.088  13.961  0.5845 -0.4146  0.5806
  421TMC3    O1 6290   2.480   2.728  14.100 -0.0414 -0.0817  0.5355
  421TMC3    O2 6291   2.074   3.128  13.950  0.0065 -0.6472 -0.6722
  422TMC3    C1 6292   0.018   3.930  12.526  0.1457  0.3756 -0.7628
  422TMC3    C2 6293   4.702   4.055  12.545 -0.5858 -0.0284 -0.0130
  422TMC3    C3 6294   4.584   4.078  12.607  0.3173  0.2455  0.3245
  422TMC3    C4 6295   4.653   3.826  12.541  0.0569  0.3255 -0.0304
  422TMC3    C5 6296   4.522   3.857  12.590 -0.7427  0.1493  0.0378
  422TMC3    C6 6297   4.492   3.981  12.640  0.5597 -0.0838 -0.0104
  422TMC3     C 6298   0.145   3.910  12.454 -0.0743  0.3317  0.4036
  422TMC3     O 6299   0.194   4.003  12.390 -0.0633 -0.2221 -0.4196
  422TMC3     H 6300   0.052   4.131  12.522  0.2384 -1.4399 -2.0528
  422TMC3    H1 6301   4.680   3.721  12.529  0.2841  0.4804 -0.8293
  422TMC3    H2 6302   4.405   3.995  12.702  0.5421 -3.5329  0.7362
  422TMC3    C7 6303   4.435   3.744  12.608  1.4183  0.2032  0.4419
  422TMC3    C8 6304   4.552   4.213  12.622  0.3242 -0.6670  0.3604
  422TMC3    O1 6305   4.477   3.630  12.572 -0.3515  0.2226  0.5315
  422TMC3    O2 6306   4.640   4.293  12.596  0.5957  0.1107 -0.2531
  423MPD2     C 6307   0.994   0.583   0.084 -0.1967  0.3354 -0.7978
  423MPD2    C1 6308   0.965   0.483   0.171 -0.2259  1.1839  0.2979
  423MPD2    C2 6309   1.015   0.358   0.153  0.6727  0.0145  0.2767
  423MPD2    C3 6310   1.081   0.328   0.038  0.1229  0.2090 -0.2379
  423MPD2    C4 6311   1.109   0.427  17.641  0.3346 -0.7881  0.0606
  423MPD2    C5 6312   1.070   0.558  17.675 -0.7229  0.4792 -0.2584
  423MPD2     H 6313   1.012   0.281   0.229  1.4827 -0.1998  0.0976
  423MPD2    H1 6314   1.156   0.398  17.547 -1.2674 -2.2195 -0.3012
  423MPD2    H2 6315   0.962   0.683   0.114 -1.1829  0.0551 -0.8981
  423MPD2    H3 6316   1.099   0.642  17.612  0.7618 -0.4301 -0.7906
  423MPD2     N 6317   1.102   0.194   0.000  0.4942  0.1840  0.2264
  423MPD2    H5 6318   1.126   0.181  17.599 -1.4304  0.4421 -0.2815
  423MPD2    N1 6319   0.896   0.485   0.292 -0.3626 -0.1559 -0.1902
  423MPD2    H7 6320   0.889   0.404   0.354 -0.6993  0.2738  0.3290
  424TMC3    C1 6321   0.820   0.588   0.490 -0.1677 -0.0036  0.6654
  424TMC3    C2 6322   0.894   0.495   0.562 -0.0079 -0.7658  0.2027
  424TMC3    C3 6323   0.896   0.508   0.695  0.0393 -0.6753  0.4052
  424TMC3    C4 6324   0.762   0.699   0.551 -0.4347 -0.1774 -0.2149
  424TMC3    C5 6325   0.765   0.700   0.691  0.0826 -0.2639 -0.1532
  424TMC3    C6 6326   0.832   0.609   0.767 -0.4850  0.1617 -0.7395
  424TMC3     C 6327   0.841   0.598   0.346  0.8065  0.3260 -0.2252
  424TMC3     O 6328   0.819   0.706   0.290 -0.6987 -0.4666 -0.3239
  424TMC3     H 6329   0.954   0.419   0.514  1.2541  0.4595 -0.1920
  424TMC3    H1 6330   0.704   0.765   0.488 -3.6804 -3.6779 -0.9083
  424TMC3    H2 6331   0.831   0.609   0.875 -0.6293  1.6189 -0.7527
  424TMC3    C7 6332   0.698   0.808   0.770 -0.3706  0.9025  0.5883
  424TMC3    C8 6333   0.922   0.385   0.778 -0.0732  0.5898  0.3215
  424TMC3    O1 6334   0.664   0.905   0.701 -0.3624  0.5504 -0.2589
  424TMC3    O2 6335   0.973   0.402   0.885  0.0721  0.1094  0.0486
  425MPD2     C 6336   4.689   4.221  17.126  0.0402  0.1080  0.4062
  425MPD2    C1 6337   4.632   4.102  17.158 -0.1398  0.8659 -0.1200
  425MPD2    C2 6338   4.524   4.103  17.242 -0.8494 -0.0153  0.6007
  425MPD2    C3 6339   4.474   4.224  17.294 -0.5847 -0.8419  0.7061
  425MPD2    C4 6340   4.542   4.342  17.271  0.7942 -0.3438  0.2127
  425MPD2    C5 6341   4.643   4.338  17.182 -0.3417  0.4185  0.2819
  425MPD2     H 6342   4.473   4.011  17.267  0.4363 -1.0331 -0.5473
  425MPD2    H1 6343   4.511   4.433  17.321 -1.1753  0.1375 -1.8876
  425MPD2    H2 6344   0.051   4.221  17.060  0.5097  1.8875  1.0117
  425MPD2    H3 6345   4.696   4.429  17.152 -0.8567  0.1363 -1.4826
  425MPD2     N 6346   4.362   4.206  17.378  0.5690  0.1825 -0.6515
  425MPD2    H5 6347   4.326   4.111  17.387 -0.2754  0.7300  1.7354
  425MPD2    N1 6348   4.695   3.983  17.120  0.1915  0.0300 -1.0105
  425MPD2    H7 6349   0.060   3.984  17.070 -0.3331  3.0915 -1.8251
  426TMC3    C1 6350   0.013   3.760  17.067  0.3300 -0.0951  0.3348
  426TMC3    C2 6351   4.683   3.643  17.028 -0.7239  0.1341 -0.5172
  426TMC3    C3 6352   0.051   3.538  17.017  0.1599 -0.5050 -0.5241
  426TMC3    C4 6353   0.135   3.768  17.124  0.0243  0.0566 -0.8670
  426TMC3    C5 6354   0.214   3.651  17.131 -0.1327  0.1145  0.1925
  426TMC3    C6 6355   0.177   3.542  17.071  0.5319  0.8628  0.1126
  426TMC3     C 6356   4.649   3.857  17.140 -0.1772 -0.1627  0.1762
  426TMC3     O 6357   4.544   3.816  17.188 -0.0594 -0.1389 -0.0150
  426TMC3     H 6358   4.577   3.630  17.008 -0.7515  1.7578 -1.4160
  426TMC3    H1 6359   0.174   3.855  17.175 -1.5557  1.4855 -2.0792
  426TMC3    H2 6360   0.241   3.455  17.058 -2.4035 -1.1261 -1.1106
  426TMC3    C7 6361   0.321   3.636  17.230  1.0195  0.7259 -0.8489
  426TMC3    C8 6362   0.002   3.419  16.946  0.0091 -0.1551 -0.8009
  426TMC3    O1 6363   0.385   3.532  17.222  0.2428 -0.4549 -0.3291
  426TMC3    O2 6364   0.066   3.316  16.944 -0.1173 -0.2276 -0.1783
  427MPD2     C 6365   3.733   1.621  15.003  0.0335  0.9004 -0.0955
  427MPD2    C1 6366   3.716   1.575  15.135 -0.1147  0.0942 -0.5874
  427MPD2    C2 6367   3.592   1.591  15.204 -0.2963  0.2080 -0.4234
  427MPD2    C3 6368   3.487   1.656  15.134 -0.5945  0.2486 -0.0342
  427MPD2    C4 6369   3.509   1.707  15.005 -0.2685 -0.1359  0.0928
  427MPD2    C5 6370   3.627   1.678  14.939  0.4867 -0.0035  0.0924
  427MPD2     H 6371   3.588   1.553  15.306  0.0260  0.3221 -0.3670
  427MPD2    H1 6372   3.433   1.748  14.939 -1.8057 -0.7214  1.5186
  427MPD2    H2 6373   3.823   1.610  14.944  0.6643  0.4658  0.9491
  427MPD2    H3 6374   3.636   1.690  14.832  1.4734 -0.2171  0.1508
  427MPD2     N 6375   3.352   1.664  15.180 -0.4215 -0.1092 -0.8243
  427MPD2    H5 6376   3.283   1.669  15.105  0.1655  1.1792 -1.2632
  427MPD2    N1 6377   3.822   1.514  15.204 -0.3150  0.1639 -0.0068
  427MPD2    H7 6378   3.811   1.491  15.302 -0.8647  1.4498  0.2344
  428TMC3    C1 6379   4.039   1.454  15.259  0.2111  0.2596 -0.2764
  428TMC3    C2 6380   3.992   1.354  15.335 -0.5529 -0.5465 -0.4541
  428TMC3    C3 6381   4.084   1.278  15.401  0.2336  0.1285  0.4731
  428TMC3    C4 6382   4.171   1.480  15.256 -0.6624  0.1717 -0.2814
  428TMC3    C5 6383   4.260   1.407  15.328  0.5503  0.1954 -0.3336
  428TMC3    C6 6384   4.217   1.305  15.402  0.5708 -0.2132  0.1457
  428TMC3     C 6385   3.949   1.506  15.158 -0.0087  0.0985  0.5873
  428TMC3     O 6386   3.990   1.527  15.051 -0.1034 -0.5797 -0.2703
  428TMC3     H 6387   3.886   1.332  15.338 -1.4697  3.6223 -1.6644
  428TMC3    H1 6388   4.214   1.539  15.176  1.3275  0.1789  0.7994
  428TMC3    H2 6389   4.285   1.249  15.465  1.9654  0.4180 -0.8125
  428TMC3    C7 6390   4.355   1.488  15.400  0.0049  0.1493 -1.1412
  428TMC3    C8 6391   4.035   1.149  15.458  0.0445  0.1267  0.5090
  428TMC3    O1 6392   4.347   1.452  15.516 -0.1021  0.2210  0.1823
  428TMC3    O2 6393   4.093   1.118  15.564 -0.7144  0.7124 -0.0650
  429MPD2     C 6394   4.385   1.276  17.476  0.6200 -0.2961 -0.0446
  429MPD2    C1 6395   4.477   1.286  17.584  0.4939  0.2281 -1.4187
  429MPD2    C2 6396   4.579   1.380  17.575 -0.0276 -0.2990 -0.3088
  429MPD2    C3 6397   4.572   1.474  17.469 -0.6132  1.0196 -0.0795
  429MPD2    C4 6398   4.469   1.465  17.375  0.0721 -0.7596  0.5124
  429MPD2    C5 6399   4.384   1.365  17.374 -0.1364 -0.1139  0.0179
  429MPD2     H 6400   4.655   1.392  17.651  0.3520  1.0955 -0.9111
  429MPD2    H1 6401   4.464   1.538  17.295 -1.2224 -0.2564  1.0483
  429MPD2    H2 6402   4.301   1.208  17.478 -0.3848  0.8917 -1.2634
  429MPD2    H3 6403   4.313   1.354  17.294 -1.0072  0.6524  0.6824
  429MPD2     N 6404   4.671   1.576  17.462 -0.1115  0.2235 -0.4171
  429MPD2    H5 6405   0.030   1.555  17.517  1.1192 -1.8246 -3.0661
  429MPD2    N1 6406   4.465   1.183  17.690 -0.4123 -0.2703  0.1750
  429MPD2    H7 6407   4.393   1.113  17.676  0.9128 -1.5137 -0.3821
  430TMC3    C1 6408   0.067   1.759  17.401  1.2871  0.0264  0.9780
  430TMC3    C2 6409   0.049   1.887  17.349 -0.1321  0.2896  0.3096
  430TMC3    C3 6410   0.149   1.954  17.282 -0.6569 -0.5898  0.3151
  430TMC3    C4 6411   0.182   1.690  17.366  0.0699 -1.1820  0.7658
  430TMC3    C5 6412   0.280   1.757  17.297  0.1779  0.3391  0.0570
  430TMC3    C6 6413   0.271   1.894  17.274 -0.1882  0.1674 -0.0772
  430TMC3     C 6414   4.672   1.683  17.377  0.1108  0.2241 -0.6933
  430TMC3     O 6415   4.595   1.722  17.296 -0.8074  0.3891  0.3548
  430TMC3     H 6416   4.674   1.929  17.362 -0.8011 -1.7018  1.8074
  430TMC3    H1 6417   0.182   1.583  17.382  0.6168 -1.3115 -0.1226
  430TMC3    H2 6418   0.355   1.951  17.237  0.8534  0.4682  2.7143
  430TMC3    C7 6419   0.364   1.673  17.211  0.1518 -0.8529 -0.2614
  430TMC3    C8 6420   0.121   2.008  17.148  0.5817 -0.1681  0.3047
  430TMC3    O1 6421   0.404   1.563  17.247  0.7418  0.1097 -0.3805
  430TMC3    O2 6422   0.205   1.990  17.060  0.4645  0.1266  0.3138
  431MPD2     C 6423   0.898   1.423  12.445  0.4197 -0.2277  0.8122
  431MPD2    C1 6424   1.014   1.389  12.391  0.6633  0.3603  0.4554
  431MPD2    C2 6425   1.022   1.279  12.307  0.1514 -0.2824 -0.0465
  431MPD2    C3 6426   0.911   1.198  12.285  0.1510  0.1646 -0.4938
  431MPD2    C4 6427   0.789   1.231  12.343 -0.3233 -0.1059 -0.1447
  431MPD2    C5 6428   0.787   1.341  12.428  0.0863 -0.1545 -0.2906
  431MPD2     H 6429   1.117   1.260  12.257  0.1036 -1.8397  0.4560
  431MPD2    H1 6430   0.696   1.180  12.324 -1.4404  2.2816 -1.0644
  431MPD2    H2 6431   0.879   1.507  12.511  0.5873  0.4370  0.0205
  431MPD2    H3 6432   0.694   1.363  12.477  0.9820 -1.6488  2.0769
  431MPD2     N 6433   0.907   1.087  12.191 -0.5992  0.4997 -0.0005
  431MPD2    H5 6434   0.821   1.035  12.175 -1.2551  1.3343  0.7490
  431MPD2    N1 6435   1.137   1.462  12.416 -0.2476 -0.0111 -0.0351
  431MPD2    H7 6436   1.222   1.420  12.380 -0.2526 -0.5181  0.5468
  432TMC3    C1 6437   1.006   0.917  12.076 -0.2610 -0.2045 -0.9977
  432TMC3    C2 6438   1.108   0.882  11.986  0.8666 -0.0687 -0.5876
  432TMC3    C3 6439   1.137   0.748  11.987 -0.2142  0.1698  0.1144
  432TMC3    C4 6440   0.944   0.824  12.159 -0.2004 -0.1165  0.5297
  432TMC3    C5 6441   0.996   0.697  12.171 -1.0657  0.4543  0.2790
  432TMC3    C6 6442   1.084   0.657  12.072 -0.4943 -0.6218  0.3696
  432TMC3     C 6443   1.017   1.054  12.118 -0.0335  0.2792 -0.0095
  432TMC3     O 6444   1.118   1.117  12.084  0.0337  0.1938 -0.3334
  432TMC3     H 6445   1.154   0.948  11.913  1.7833  0.9168  0.8898
  432TMC3    H1 6446   0.850   0.851  12.207 -0.0499 -1.2657  1.4718
  432TMC3    H2 6447   1.116   0.553  12.073 -0.2488 -0.5473  0.1024
  432TMC3    C7 6448   1.075   0.695  12.293  0.5687 -0.1333 -0.0593
  432TMC3    C8 6449   1.242   0.699  11.893 -0.4514  0.7164  0.0451
  432TMC3    O1 6450   1.160   0.608  12.303  0.5955 -0.2905  0.1209
  432TMC3    O2 6451   1.264   0.581  11.895 -0.6822 -0.1332 -0.0396
  433MPD2     C 6452   0.254   0.321  10.885 -0.6653 -0.9336 -0.3026
  433MPD2    C1 6453   0.174   0.219  10.920 -0.6482  0.0040  0.6084
  433MPD2    C2 6454   0.114   0.209  11.048  0.1933  0.5350 -0.3779
  433MPD2    C3 6455   0.145   0.305  11.143 -0.7525 -0.1424  0.5254
  433MPD2    C4 6456   0.228   0.409  11.107  0.0998 -0.2949 -0.1172
  433MPD2    C5 6457   0.272   0.424  10.974  0.0641  0.1862  0.2049
  433MPD2     H 6458   0.046   0.130  11.078  2.2103 -0.6403  1.1312
  433MPD2    H1 6459   0.263   0.481  11.180  0.3816  2.3712 -2.8844
  433MPD2    H2 6460   0.301   0.323  10.787 -0.2055  2.7656 -0.0185
  433MPD2    H3 6461   0.331   0.512  10.949 -0.3220  0.7839  1.3582
  433MPD2     N 6462   0.098   0.283  11.276  0.3659  1.3588 -0.2574
  433MPD2    H5 6463   0.067   0.187  11.292 -2.9874  2.5265  0.2812
  433MPD2    N1 6464   0.154   0.128  10.816 -0.2246  0.2171  0.0327
  433MPD2    H7 6465   0.220   0.126  10.739 -0.6653 -1.0770 -0.3072
  434TMC3    C1 6466   0.134   4.643  10.745  0.3606 -0.2200  0.2850
  434TMC3    C2 6467   0.152   4.531  10.819 -0.4398  0.4762  0.0914
  434TMC3    C3 6468   0.229   4.429  10.769  0.0695 -0.1395  0.0999
  434TMC3    C4 6469   0.167   4.655  10.615  0.5536  0.1193 -0.3616
  434TMC3    C5 6470   0.234   4.552  10.560  0.0935  0.7469 -0.2637
  434TMC3    C6 6471   0.268   4.442  10.633  0.6748  0.1205 -0.3594
  434TMC3     C 6472   0.071   0.020  10.820  0.8058 -0.3810  0.2672
  434TMC3     O 6473   4.715   4.704  10.904 -0.0131  0.0362 -0.0161
  434TMC3     H 6474   0.110   4.529  10.919 -2.0480  1.9588 -0.5422
  434TMC3    H1 6475   0.140   0.016  10.554  0.4691  0.0297 -0.4489
  434TMC3    H2 6476   0.312   4.353  10.588  0.8604 -0.6173  1.2730
  434TMC3    C7 6477   0.209   4.536  10.420  0.4566  0.8064 -0.4923
  434TMC3    C8 6478   0.322   4.380  10.863  0.3139 -0.7385 -0.1024
  434TMC3    O1 6479   0.107   4.589  10.372  0.2577 -0.0421  0.0505
  434TMC3    O2 6480   0.289   4.401  10.978 -0.4566  0.1304 -0.6852
  435MPD2     C 6481   2.142   0.486  15.580  0.2911  0.0073  0.7352
  435MPD2    C1 6482   2.090   0.450  15.703  0.6148  1.0683  0.2865
  435MPD2    C2 6483   2.150   0.351  15.775 -0.7001 -0.3473 -0.4535
  435MPD2    C3 6484   2.259   0.277  15.729 -0.2286 -0.2564 -0.4340
  435MPD2    C4 6485   2.317   0.326  15.611 -0.2287 -0.5354  0.4640
  435MPD2    C5 6486   2.258   0.430  15.546 -0.3005  1.0469  0.4886
  435MPD2     H 6487   2.102   0.314  15.865  1.1409 -0.6395  0.4088
  435MPD2    H1 6488   2.407   0.290  15.563 -1.1957 -0.7623 -1.1900
  435MPD2    H2 6489   2.090   0.551  15.511  1.1194  0.8247  0.8885
  435MPD2    H3 6490   2.319   0.470  15.466  2.5107 -0.1066  2.0253
  435MPD2     N 6491   2.304   0.165  15.799 -0.2925  0.0047  0.2294
  435MPD2    H5 6492   2.251   0.137  15.881  0.2884 -0.9065  0.3032
  435MPD2    N1 6493   1.969   0.495  15.752  0.2748  0.2388 -0.1209
  435MPD2    H7 6494   1.929   0.447  15.832  0.7858 -0.8067 -0.4999
  436TMC3    C1 6495   1.646   0.618  15.959 -0.9048 -0.5125 -0.5217
  436TMC3    C2 6496   1.750   0.567  15.888 -0.0498  0.0450  0.3811
  436TMC3    C3 6497   1.774   0.623  15.768  0.1356 -0.4127  0.5317
  436TMC3    C4 6498   1.559   0.710  15.914  0.6010  0.1014  0.1768
  436TMC3    C5 6499   1.572   0.736  15.787 -0.1403 -0.2796 -0.3687
  436TMC3    C6 6500   1.685   0.709  15.710 -0.0196  0.4037  0.0968
  436TMC3     C 6501   1.671   0.600  16.096  0.8255  0.4717 -0.0551
  436TMC3     O 6502   1.783   0.576  16.139 -0.2458 -0.1057 -0.0276
  436TMC3     H 6503   1.808   0.483  15.925  1.0823  1.8579  2.7271
  436TMC3    H1 6504   1.486   0.766  15.971 -0.0072 -1.0075  0.4657
  436TMC3    H2 6505   1.696   0.740  15.606  0.0806 -0.9156 -0.2900
  436TMC3    C7 6506   1.458   0.807  15.723 -0.9627  0.3749  1.1537
  436TMC3    C8 6507   1.891   0.592  15.692  0.1755 -0.2019  0.2047
  436TMC3    O1 6508   1.484   0.879  15.628 -0.7252  0.3423  0.5803
  436TMC3    O2 6509   1.907   0.641  15.583  0.4501  0.0890 -1.0826
  437TMC3    C1 6510   0.051   2.289  13.138 -0.0369 -0.3125 -0.6118
  437TMC3    C2 6511   4.698   2.373  13.219  0.0951  0.3091 -0.8660
  437TMC3    C3 6512   4.699   2.512  13.179 -0.8080  0.1321 -0.1659
  437TMC3    C4 6513   0.145   2.337  13.050  0.6588  0.9328 -0.6392
  437TMC3    C5 6514   0.142   2.470  13.010 -0.4778 -0.0213  0.7179
  437TMC3    C6 6515   0.055   2.559  13.076 -0.6108 -0.6610  0.0748
  437TMC3     C 6516   0.014   2.146  13.139 -1.2019  0.0491 -0.3157
  437TMC3     O 6517   4.657   2.117  13.228  0.4241 -0.1753 -0.5668
  437TMC3     H 6518   4.643   2.333  13.303  0.4186  2.1889  0.2589
  437TMC3    H1 6519   0.199   2.256  13.003  0.4260  1.4748 -1.8389
  437TMC3    H2 6520   0.063   2.662  13.046  0.5338 -0.2599  1.7539
  437TMC3    C7 6521   0.244   2.518  12.915 -0.1527  0.2983 -0.5075
  437TMC3    C8 6522   4.597   2.591  13.242 -0.1554  0.9750  0.0980
  437TMC3    O1 6523   0.231   2.635  12.884 -0.3002  0.3669 -0.1447
  437TMC3    O2 6524   4.540   2.537  13.334  0.3806 -0.0203  0.1989
  438MPD2     C 6525   2.768   2.782  16.133 -0.1894 -0.4211  0.1633
  438MPD2    C1 6526   2.838   2.760  16.252  0.4609 -0.0358  1.0169
  438MPD2    C2 6527   2.816   2.842  16.360 -0.6486  0.2793 -0.5518
  438MPD2    C3 6528   2.705   2.928  16.362  0.0068 -0.0570  0.2539
  438MPD2    C4 6529   2.628   2.939  16.248 -0.2558 -0.3116 -0.4198
  438MPD2    C5 6530   2.668   2.878  16.135  0.0136  0.0320  0.2456
  438MPD2     H 6531   2.868   2.824  16.453  0.3127 -2.4787 -1.6313
  438MPD2    H1 6532   2.545   3.010  16.248 -1.1904 -1.4062 -1.9246
  438MPD2    H2 6533   2.790   2.724  16.043  0.7617 -2.0057  1.4120
  438MPD2    H3 6534   2.604   2.888  16.049  0.1047 -0.2795  0.1433
  438MPD2     N 6535   2.673   3.006  16.473  0.3662  0.1464  0.2101
  438MPD2    H5 6536   2.586   3.057  16.468  0.3031 -0.1668 -1.9527
  438MPD2    N1 6537   2.943   2.665  16.268 -0.2598 -0.3929  0.1524
  438MPD2    H7 6538   2.979   2.652  16.362  1.1265  1.7485 -0.0831
  439TMC3    C1 6539   3.105   2.502  16.208 -0.7393 -0.6861 -0.3357
  439TMC3    C2 6540   3.152   2.421  16.112  0.0603 -0.1571 -0.1130
  439TMC3    C3 6541   3.234   2.321  16.148  0.1196  0.5640 -0.4574
  439TMC3    C4 6542   3.140   2.486  16.339  0.1841 -0.2310 -0.1214
  439TMC3    C5 6543   3.237   2.398  16.367 -0.5988 -0.4709 -0.0023
  439TMC3    C6 6544   3.289   2.314  16.271  0.1568 -0.1485  0.2355
  439TMC3     C 6545   3.004   2.594  16.168 -0.1837  0.4891  0.0814
  439TMC3     O 6546   2.974   2.588  16.047 -0.6066  0.0617 -0.1946
  439TMC3     H 6547   3.125   2.440  16.009  3.3693 -0.0657 -0.9690
  439TMC3    H1 6548   3.094   2.537  16.423  1.6995  2.0015 -0.6453
  439TMC3    H2 6549   3.360   2.235  16.295  1.2764  0.1276 -2.0735
  439TMC3    C7 6550   3.318   2.412  16.491  0.4364  0.2310 -0.0514
  439TMC3    C8 6551   3.313   2.259  16.045  1.0959 -0.5311 -0.2634
  439TMC3    O1 6552   3.386   2.316  16.527  0.1875 -0.9864  0.2182
  439TMC3    O2 6553   3.429   2.239  16.068  0.5215 -0.1515 -0.1652
  440MPD2     C 6554   1.849   3.730  14.399  0.3239  0.9692 -0.4562
  440MPD2    C1 6555   1.770   3.723  14.508  0.8244  0.3790  0.3115
  440MPD2    C2 6556   1.824   3.676  14.625  0.0314 -0.3773  0.3314
  440MPD2    C3 6557   1.960   3.640  14.628 -0.2141  0.5526  0.2057
  440MPD2    C4 6558   2.037   3.647  14.518  0.9004 -0.6474  0.1259
  440MPD2    C5 6559   1.980   3.691  14.407 -0.2508  0.0749 -0.6887
  440MPD2     H 6560   1.764   3.679  14.715 -1.7333  0.1314 -0.8741
  440MPD2    H1 6561   2.141   3.618  14.521  1.2658  0.3959 -2.3534
  440MPD2    H2 6562   1.818   3.766  14.301 -1.2239 -0.2872 -0.4076
  440MPD2    H3 6563   2.046   3.690  14.321 -0.3403  1.7241 -0.7739
  440MPD2     N 6564   2.026   3.607  14.742  0.3813 -0.2879 -0.1917
  440MPD2    H5 6565   2.126   3.595  14.732  0.4171 -0.4007  0.3166
  440MPD2    N1 6566   1.636   3.770  14.513  0.7397  0.0993 -0.5845
  440MPD2    H7 6567   1.587   3.752  14.600  0.2071  1.0171 -0.7039
  441TMC3    C1 6568   2.062   3.605  14.977  0.4837  0.4197  0.0130
  441TMC3    C2 6569   2.032   3.686  15.086  0.5521  0.3306  0.0369
  441TMC3    C3 6570   2.101   3.659  15.202 -0.2090  0.5489  0.3465
  441TMC3    C4 6571   2.152   3.501  14.989  0.0364  0.0025  0.0945
  441TMC3    C5 6572   2.220   3.481  15.109 -0.1636  0.1887 -0.3052
  441TMC3    C6 6573   2.192   3.556  15.223 -0.1235 -0.3079 -0.1722
  441TMC3     C 6574   1.963   3.592  14.864  0.3472 -0.0821  0.3167
  441TMC3     O 6575   1.848   3.607  14.901 -0.0318 -0.1127 -0.7275
  441TMC3     H 6576   1.945   3.750  15.079  1.5104  1.8980  2.5472
  441TMC3    H1 6577   2.168   3.433  14.906 -1.7842 -1.9519  1.3553
  441TMC3    H2 6578   2.241   3.535  15.318 -0.0216 -1.5182 -0.4870
  441TMC3    C7 6579   2.253   3.345  15.142 -0.2145 -0.4778  0.7099
  441TMC3    C8 6580   2.059   3.729  15.324 -0.2027  0.2729  0.0453
  441TMC3    O1 6581   2.299   3.265  15.057  0.4302  0.7746  0.4280
  441TMC3    O2 6582   2.098   3.684  15.431  0.4425 -0.0226 -0.3508
  442MPD2     C 6583   4.488   4.077  16.466 -0.2534  0.1320  0.4693
  442MPD2    C1 6584   4.389   3.995  16.510  0.4912 -0.1240  0.6409
  442MPD2    C2 6585   4.411   3.854  16.502 -0.1082  0.2632 -0.3454
  442MPD2    C3 6586   4.533   3.805  16.459  0.6127  0.7240  0.2878
  442MPD2    C4 6587   4.628   3.895  16.415 -0.3385  0.4048 -0.3800
  442MPD2    C5 6588   4.606   4.028  16.410 -0.2568  0.1734 -0.0004
  442MPD2     H 6589   4.334   3.783  16.531  1.5674 -1.8966 -1.1883
  442MPD2    H1 6590   4.723   3.855  16.382 -2.0676 -3.9124 -0.1480
  442MPD2    H2 6591   4.485   4.185  16.459  0.1107  0.2484  2.1100
  442MPD2    H3 6592   4.680   4.099  16.374  1.2452 -1.4839 -0.1893
  442MPD2     N 6593   4.570   3.673  16.458 -0.1056  0.5358  0.4120
  442MPD2    H5 6594   4.662   3.652  16.421  0.5603  0.1132  2.2806
  442MPD2    N1 6595   4.272   4.045  16.571  0.0188  0.1646  0.0331
  442MPD2    H7 6596   4.215   3.973  16.613  1.9162 -1.1746  0.3068
  443TMC3    C1 6597   4.093   4.173  16.641 -0.0420 -0.5323  0.2520
  443TMC3    C2 6598   4.011   4.266  16.580  0.7193 -0.6954  0.7619
  443TMC3    C3 6599   3.879   4.248  16.602 -0.1796 -0.3535  0.0467
  443TMC3    C4 6600   4.062   4.067  16.722 -0.7827 -0.4595  0.4800
  443TMC3    C5 6601   3.933   4.073  16.751 -0.6278 -0.0823 -0.0118
  443TMC3    C6 6602   3.839   4.155  16.701 -0.8518 -0.0864 -0.4600
  443TMC3     C 6603   4.230   4.176  16.588  0.1021  0.2676 -0.1346
  443TMC3     O 6604   4.285   4.279  16.547 -0.1556 -0.4576 -0.4737
  443TMC3     H 6605   4.047   4.355  16.529 -2.2677  0.7365  1.1478
  443TMC3    H1 6606   4.131   4.009  16.782 -0.5822 -0.1517  0.5474
  443TMC3    H2 6607   3.733   4.145  16.721 -0.5215 -3.3886 -0.4857
  443TMC3    C7 6608   3.881   3.988  16.862  0.0884  0.8180  0.1854
  443TMC3    C8 6609   3.779   4.317  16.531  0.6497 -0.3092 -0.0150
  443TMC3    O1 6610   3.942   3.885  16.888  0.1543  0.5455  0.6504
  443TMC3    O2 6611   3.673   4.330  16.591  0.0015  0.0553  0.2613
  444MPD2     C 6612   4.598   3.247  17.366  0.0325  0.3551  0.1048
  444MPD2    C1 6613   4.597   3.138  17.450 -0.1893  0.1269 -0.4821
  444MPD2    C2 6614   4.708   3.047  17.448 -0.3686 -0.5170  0.1560
  444MPD2    C3 6615   0.087   3.073  17.362 -0.0391  0.2097 -0.2805
  444MPD2    C4 6616   0.081   3.174  17.266  0.1421 -0.1276 -0.6132
  444MPD2    C5 6617   4.694   3.254  17.266  0.0187  0.0633  0.0226
  444MPD2     H 6618   4.711   2.949  17.493  3.2857 -1.2816 -1.7402
  444MPD2    H1 6619   0.154   3.181  17.186 -0.6906 -0.3249 -1.3884
  444MPD2    H2 6620   4.517   3.319  17.365 -1.9808 -1.9079  1.1621
  444MPD2    H3 6621   4.689   3.334  17.193  2.2327  1.4539  1.3966
  444MPD2     N 6622   0.195   2.978  17.353 -0.1426 -0.4081 -0.3250
  444MPD2    H5 6623   0.185   2.902  17.420 -2.6193 -0.0724 -0.2999
  444MPD2    N1 6624   4.483   3.111  17.531 -0.1604  0.1252  0.0004
  444MPD2    H7 6625   4.488   3.034  17.597 -2.8649  0.3330  0.4518
  445TMC3    C1 6626   0.403   2.876  17.301  1.1771 -0.3691  0.1279
  445TMC3    C2 6627   0.366   2.767  17.381 -0.5516  0.5190 -0.1813
  445TMC3    C3 6628   0.446   2.655  17.374 -0.1714 -0.4906  0.8837
  445TMC3    C4 6629   0.523   2.878  17.234  0.4169  0.1340 -0.2952
  445TMC3    C5 6630   0.595   2.763  17.237 -0.2923  0.1760 -0.4574
  445TMC3    C6 6631   0.557   2.645  17.298 -0.3137  0.1170  0.3925
  445TMC3     C 6632   0.311   2.988  17.280 -0.1035  0.1427  0.1148
  445TMC3     O 6633   0.350   3.081  17.209 -0.1457  0.3091 -0.2950
  445TMC3     H 6634   0.285   2.781  17.452 -1.2537  1.1088 -1.1045
  445TMC3    H1 6635   0.553   2.969  17.183 -1.4652 -0.4271 -2.4387
  445TMC3    H2 6636   0.624   2.560  17.293 -0.2302  0.1103  1.4970
  445TMC3    C7 6637   0.701   2.754  17.133  0.1055 -0.3413  1.0046
  445TMC3    C8 6638   0.388   2.536  17.444 -0.2516 -0.1473 -0.2105
  445TMC3    O1 6639   0.696   2.831  17.037 -0.2072 -0.3781 -0.4556
  445TMC3    O2 6640   0.289   2.557  17.521  0.4230  0.8342  0.4619
  446MPD2     C 6641   4.559   4.370  11.318  0.2624 -0.3922 -0.3492
  446MPD2    C1 6642   4.612   4.336  11.194  0.1192 -0.0471  0.6852
  446MPD2    C2 6643   4.720   4.408  11.142 -0.0120 -0.3631 -0.5220
  446MPD2    C3 6644   0.061   4.512  11.211 -0.2713 -0.9486 -0.3204
  446MPD2    C4 6645   0.001   4.543  11.328  0.4234  0.5676  0.0176
  446MPD2    C5 6646   4.617   4.475  11.383 -0.1852  0.0571  0.2899
  446MPD2     H 6647   0.028   4.384  11.042  1.9803 -0.2679  0.0777
  446MPD2    H1 6648   0.035   4.634  11.377 -1.5995  1.4088 -0.1351
  446MPD2    H2 6649   4.473   4.327  11.368  0.3546  0.6136  0.6617
  446MPD2    H3 6650   4.579   4.513  11.477  0.6997 -0.9014  1.0235
  446MPD2     N 6651   0.176   4.578  11.160 -0.1030  0.1042 -0.5036
  446MPD2    H5 6652   0.208   4.539  11.072 -1.0265  3.4011 -2.3073
  446MPD2    N1 6653   4.549   4.238  11.111 -0.5938 -0.3380 -0.4837
  446MPD2    H7 6654   4.567   4.236  11.011 -0.0727 -1.0082 -0.3774
  447TMC3    C1 6655   0.397   4.662  11.159 -0.3670  0.6114 -0.0110
  447TMC3    C2 6656   0.401   4.698  11.028  0.1812  0.4085  0.2598
  447TMC3    C3 6657   0.521   4.696  10.966 -0.9128  0.7325 -0.7289
  447TMC3    C4 6658   0.507   4.616  11.224  0.0256 -0.7877 -0.4494
  447TMC3    C5 6659   0.631   4.617  11.162 -0.1157  1.0358 -0.4194
  447TMC3    C6 6660   0.635   4.661  11.038  1.1111 -0.1941  0.0963
  447TMC3     C 6661   0.272   4.643  11.233 -0.4503 -0.8416 -0.4187
  447TMC3     O 6662   0.282   4.642  11.353  0.2631 -0.1744 -0.2371
  447TMC3     H 6663   0.309   0.012  10.985  0.2466 -0.0816 -0.3157
  447TMC3    H1 6664   0.488   4.567  11.318 -1.7697 -1.8233 -1.3535
  447TMC3    H2 6665   0.732   4.663  10.989  1.5490  2.4516  1.0799
  447TMC3    C7 6666   0.747   4.557  11.215  0.5072 -0.2438  0.2110
  447TMC3    C8 6667   0.521   4.714  10.823 -0.5848  0.5803  0.3741
  447TMC3    O1 6668   0.847   4.544  11.145  0.1088  0.4463  0.1982
  447TMC3    O2 6669   0.433   0.053  10.769  0.3272 -0.1834 -0.2630
  448TMC3    C1 6670   3.074   4.581  16.621  0.2721 -0.1444 -0.3921
  448TMC3    C2 6671   3.073   4.450  16.603  0.0715 -0.3920 -0.9248
  448TMC3    C3 6672   3.095   4.373  16.715 -0.5785  0.4453 -0.3308
  448TMC3    C4 6673   3.116   4.639  16.734  0.2534  0.5384 -0.6326
  448TMC3    C5 6674   3.153   4.558  16.841 -0.4453 -0.1609 -0.2434
  448TMC3    C6 6675   3.134   4.420  16.839 -0.5283 -0.0165  0.0962
  448TMC3     C 6676   3.002   4.670  16.528  0.5320  0.2845  0.2780
  448TMC3     O 6677   2.981   4.617  16.417  0.0018 -0.2340 -0.1521
  448TMC3     H 6678   3.053   4.404  16.508 -0.5417  0.7167 -1.3330
  448TMC3    H1 6679   3.131   0.022  16.742 -0.4709  0.5679  0.3386
  448TMC3    H2 6680   3.154   4.357  16.925  1.1782 -2.1889 -1.8913
  448TMC3    C7 6681   3.186   4.627  16.965  0.0453 -0.0472 -0.3056
  448TMC3    C8 6682   3.087   4.230  16.696 -0.0005 -0.4605  0.0577
  448TMC3    O1 6683   3.207   0.024  16.964  0.1253 -0.3380 -0.2451
  448TMC3    O2 6684   3.113   4.158  16.791 -0.0072  0.3917 -0.0346
  449MPD2     C 6685   4.577   2.819  14.142 -0.0520 -0.0215 -0.2699
  449MPD2    C1 6686   4.486   2.912  14.107 -0.3973  0.2338  0.1268
  449MPD2    C2 6687   4.357   2.878  14.094 -0.0335 -0.2649 -0.2137
  449MPD2    C3 6688   4.312   2.748  14.115  0.6100 -0.4796  0.8014
  449MPD2    C4 6689   4.410   2.651  14.150 -0.2230 -0.2852  0.3763
  449MPD2    C5 6690   4.537   2.690  14.159 -0.3152 -1.0885 -0.1094
  449MPD2     H 6691   4.279   2.945  14.062 -0.4381  0.4624  2.2790
  449MPD2    H1 6692   4.389   2.545  14.155  0.4084 -0.3557  1.8155
  449MPD2    H2 6693   4.681   2.843  14.159 -0.4066  0.5275  1.1185
  449MPD2    H3 6694   4.613   2.617  14.183  1.2861  0.2259 -1.1691
  449MPD2     N 6695   4.179   2.725  14.085 -0.2648 -0.0197  0.1506
  449MPD2    H5 6696   4.128   2.802  14.042 -0.7518 -2.2888 -3.3869
  449MPD2    N1 6697   4.512   3.048  14.077  0.1782  0.1997 -0.4470
  449MPD2    H7 6698   4.431   3.101  14.047  0.7771  1.5085  0.2541
  450TMC3    C1 6699   4.627   3.218  13.989  0.2611  0.1967 -0.0647
  450TMC3    C2 6700   4.671   3.224  13.859 -0.1243  0.2338  0.6005
  450TMC3    C3 6701   4.606   3.305  13.769 -0.3353 -0.1383  0.1258
  450TMC3    C4 6702   4.517   3.285  14.022  0.1036 -0.3944  1.4248
  450TMC3    C5 6703   4.452   3.367  13.932 -0.7525 -0.4384 -0.2390
  450TMC3    C6 6704   4.491   3.376  13.803  0.2629  0.5517 -0.2155
  450TMC3     C 6705   4.640   3.091  14.052 -0.8759  0.6128  0.3271
  450TMC3     O 6706   0.018   3.026  14.045 -0.6623  0.4892 -0.0497
  450TMC3     H 6707   0.034   3.167  13.826 -0.0319  0.3690  0.6107
  450TMC3    H1 6708   4.477   3.279  14.122  1.0011 -3.3381  1.5865
  450TMC3    H2 6709   4.423   3.419  13.731  0.7004  0.3940 -0.7178
  450TMC3    C7 6710   4.315   3.315  13.948 -0.0873 -0.0177  0.5659
  450TMC3    C8 6711   4.641   3.308  13.629  0.1500 -0.1550 -0.2475
  450TMC3    O1 6712   4.301   3.203  13.994 -0.4079  0.1984 -0.0365
  450TMC3    O2 6713   4.606   3.406  13.566  0.7619 -0.5845 -0.3815
  451MPD2     C 6714   0.063   1.163   1.611 -0.1274 -0.4604 -0.0017
  451MPD2    C1 6715   0.107   1.273   1.536 -0.0426  0.5097  0.3153
  451MPD2    C2 6716   0.238   1.268   1.480  0.3008  0.5685  0.1598
  451MPD2    C3 6717   0.327   1.172   1.521  0.8971  0.1748  0.0528
  451MPD2    C4 6718   0.285   1.084   1.615  0.0589 -0.4271  0.8385
  451MPD2    C5 6719   0.157   1.077   1.655 -0.4203 -0.1059 -0.5469
  451MPD2     H 6720   0.272   1.344   1.410  2.8056 -1.6111 -0.9815
  451MPD2    H1 6721   0.357   1.016   1.659 -0.6000  0.1126  2.7719
  451MPD2    H2 6722   4.683   1.149   1.638 -0.2273  2.1084  0.9152
  451MPD2    H3 6723   0.145   0.993   1.723  3.5295 -0.3378 -0.1494
  451MPD2     N 6724   0.468   1.178   1.484 -0.7671  0.2143  0.2031
  451MPD2    H5 6725   0.527   1.105   1.521  1.3517  0.8232 -1.9995
  451MPD2    N1 6726   0.015   1.378   1.503  0.4919  0.1109  0.1013
  451MPD2    H7 6727   4.643   1.368   1.534  0.3324 -1.8831 -1.0304
  452TMC3    C1 6728   0.678   1.233   1.416  0.4676 -0.0626  0.2765
  452TMC3    C2 6729   0.720   1.131   1.501  0.2726  0.0700  1.4183
  452TMC3    C3 6730   0.834   1.060   1.472  0.3312 -0.5227  0.1158
  452TMC3    C4 6731   0.762   1.260   1.311  0.3529 -0.6868  0.2782
  452TMC3    C5 6732   0.879   1.194   1.284 -0.7539  0.8535 -0.5781
  452TMC3    C6 6733   0.913   1.084   1.368  0.3515 -0.6300 -0.7730
  452TMC3     C 6734   0.532   1.263   1.398  0.2721 -0.2462 -0.1414
  452TMC3     O 6735   0.492   1.360   1.333  0.2654  0.3623 -0.2957
  452TMC3     H 6736   0.670   1.122   1.597 -3.0959 -0.4498 -0.3713
  452TMC3    H1 6737   0.732   1.333   1.236  2.1856  0.1220  0.3399
  452TMC3    H2 6738   1.016   1.049   1.365  0.6907  0.3306 -0.1947
  452TMC3    C7 6739   0.916   1.177   1.141  0.2102  0.0840  0.1559
  452TMC3    C8 6740   0.866   0.972   1.581 -0.3083  0.0425 -0.2330
  452TMC3    O1 6741   0.883   1.272   1.070  0.3063 -0.2490  0.1035
  452TMC3    O2 6742   0.813   0.991   1.690 -0.0811  0.6697 -0.0043
  453TMC3    C1 6743   2.587   3.268  11.825  1.1723  0.3092 -0.3708
  453TMC3    C2 6744   2.471   3.299  11.763  0.3230 -0.3096 -1.2712
  453TMC3    C3 6745   2.444   3.232  11.646  0.7163  0.5563  0.2927
  453TMC3    C4 6746   2.691   3.197  11.769  0.4040  0.5904  0.2849
  453TMC3    C5 6747   2.658   3.130  11.658 -0.5378 -0.5902 -0.5624
  453TMC3    C6 6748   2.531   3.137  11.603 -0.2482  0.3855  0.7733
  453TMC3     C 6749   2.611   3.319  11.966 -0.2050 -0.8736 -0.5148
  453TMC3     O 6750   2.555   3.425  11.993 -0.1898 -0.1744  0.1938
  453TMC3     H 6751   2.394   3.352  11.817  2.8639  1.3454  0.6929
  453TMC3    H1 6752   2.787   3.198  11.819  0.9692  2.6852 -0.8323
  453TMC3    H2 6753   2.508   3.081  11.513 -2.9576  0.3556  1.5070
  453TMC3    C7 6754   2.756   3.043  11.588  0.1575  0.0101 -0.0596
  453TMC3    C8 6755   2.304   3.207  11.633 -0.3864  0.1716  0.2966
  453TMC3    O1 6756   2.720   2.962  11.509  0.4110  0.4608 -0.1162
  453TMC3    O2 6757   2.234   3.303  11.658  0.0380  0.0141  0.4105
  454MPD2     C 6758   0.338   2.362  17.140 -0.2904 -0.7738  0.5847
  454MPD2    C1 6759   0.319   2.476  17.067  0.2684 -0.2458  0.2398
  454MPD2    C2 6760   0.200   2.541  17.078 -0.3402 -0.2600 -0.2973
  454MPD2    C3 6761   0.103   2.494  17.166 -0.9009  0.6350 -0.4285
  454MPD2    C4 6762   0.125   2.369  17.239  0.2642 -0.2166  0.0285
  454MPD2    C5 6763   0.240   2.312  17.226  1.2527  0.0211 -0.2665
  454MPD2     H 6764   0.179   2.624  17.012 -1.3142 -1.0779 -1.0132
  454MPD2    H1 6765   0.040   2.336  17.298  0.8225 -1.3569  0.1967
  454MPD2    H2 6766   0.429   2.302  17.140 -0.1545 -0.5486  2.5098
  454MPD2    H3 6767   0.253   2.218  17.279 -2.9654 -0.1212  0.5100
  454MPD2     N 6768   4.708   2.571  17.159  0.2224 -0.2750  0.0460
  454MPD2    H5 6769   4.711   2.655  17.103  0.2698  0.3115  0.9301
  454MPD2    N1 6770   0.412   2.524  16.977 -0.9999 -0.1030 -0.1163
  454MPD2    H7 6771   0.379   2.605  16.926  0.7528  0.6324 -0.1079
  455TMC3    C1 6772   4.490   2.600  17.122  0.4374  0.2262 -0.0943
  455TMC3    C2 6773   4.477   2.738  17.116 -0.2683  0.4794 -0.2290
  455TMC3    C3 6774   4.440   2.796  17.001 -0.1820  0.5442  0.0672
  455TMC3    C4 6775   4.480   2.530  17.006 -0.3033 -0.1700 -0.4919
  455TMC3    C5 6776   4.448   2.593  16.895  0.0750  0.1248 -0.1029
  455TMC3    C6 6777   4.418   2.725  16.893  0.8990  0.1204  0.6127
  455TMC3     C 6778   4.587   2.537  17.205  0.5319  0.5696 -0.0481
  455TMC3     O 6779   4.548   2.425  17.242 -0.1410  1.0435 -0.1199
  455TMC3     H 6780   4.503   2.797  17.203 -0.6644  0.8696 -0.3731
  455TMC3    H1 6781   4.483   2.422  17.017  0.6305  0.0328  1.3944
  455TMC3    H2 6782   4.393   2.775  16.799  1.4313 -0.7617  0.0063
  455TMC3    C7 6783   4.512   2.545  16.776 -0.0481 -1.2191  0.2013
  455TMC3    C8 6784   4.465   2.937  16.988  0.0748 -0.3084 -0.7919
  455TMC3    O1 6785   4.476   2.598  16.672  0.2359  0.0980  0.0058
  455TMC3    O2 6786   4.539   2.985  17.073 -0.0606 -0.0735  0.0473
  456MPD2     C 6787   3.203   2.997  16.140 -0.3945 -0.1148 -0.8401
  456MPD2    C1 6788   3.322   3.003  16.207 -0.3207 -0.4347 -0.2622
  456MPD2    C2 6789   3.317   3.063  16.331  0.3509  0.2959 -0.0178
  456MPD2    C3 6790   3.196   3.108  16.388 -0.4590 -0.3307 -0.4535
  456MPD2    C4 6791   3.079   3.086  16.321 -0.1649 -0.2875  0.0566
  456MPD2    C5 6792   3.084   3.037  16.194 -0.5061 -0.0926  0.0503
  456MPD2     H 6793   3.410   3.068  16.387 -1.1301  1.1951  2.3534
  456MPD2    H1 6794   2.975   3.106  16.347  0.4190 -0.2152  2.4121
  456MPD2    H2 6795   3.205   2.951  16.042 -0.1766 -1.6596 -0.1078
  456MPD2    H3 6796   2.996   3.008  16.138  0.0031  0.7417 -1.1892
  456MPD2     N 6797   3.202   3.166  16.516 -0.5616  0.0739 -0.7379
  456MPD2    H5 6798   3.294   3.166  16.559 -0.4792  0.7614 -0.9063
  456MPD2    N1 6799   3.437   2.963  16.136 -0.0721  0.0896 -0.4915
  456MPD2    H7 6800   3.423   2.943  16.037 -1.0769 -0.7758 -0.1653
  457TMC3    C1 6801   3.110   3.331  16.667  0.5794 -0.6363  0.1446
  457TMC3    C2 6802   3.056   3.456  16.662 -0.1862 -0.1314 -0.1308
  457TMC3    C3 6803   3.072   3.540  16.765 -0.1982  0.1954  0.2710
  457TMC3    C4 6804   3.170   3.281  16.780  0.1809 -0.6404  0.8478
  457TMC3    C5 6805   3.192   3.373  16.883  0.0724 -0.0799  0.0772
  457TMC3    C6 6806   3.145   3.504  16.872 -1.0505  0.5563  0.1593
  457TMC3     C 6807   3.089   3.248  16.552 -0.2011  0.4804  0.1347
  457TMC3     O 6808   2.986   3.279  16.492 -0.1456  0.7282  0.5096
  457TMC3     H 6809   3.017   3.487  16.566  1.4975  0.5724 -0.5943
  457TMC3    H1 6810   3.210   3.180  16.789 -1.0834 -1.2040  0.0753
  457TMC3    H2 6811   3.152   3.576  16.953  0.6543 -1.4613  1.7929
  457TMC3    C7 6812   3.239   3.322  17.011  0.4517 -0.4322 -0.0336
  457TMC3    C8 6813   3.077   3.677  16.738  0.1178 -0.5915 -0.0549
  457TMC3    O1 6814   3.246   3.201  17.019  0.5180 -0.1259  0.1780
  457TMC3    O2 6815   3.180   3.742  16.756 -0.3522  0.2707  0.4035
  458MPD2     C 6816   0.694   2.484  12.672  0.0717  0.3288  0.1453
  458MPD2    C1 6817   0.699   2.413  12.789 -0.5730  0.4035  0.4375
  458MPD2    C2 6818   0.588   2.404  12.872 -0.0364  0.0190  0.6710
  458MPD2    C3 6819   0.467   2.463  12.836  0.0086 -0.0465 -1.1354
  458MPD2    C4 6820   0.466   2.546  12.728 -0.1354  0.1463 -0.1495
  458MPD2    C5 6821   0.575   2.554  12.644  0.1968  0.4205 -1.0398
  458MPD2     H 6822   0.594   2.343  12.961 -1.2880  0.3170  0.9563
  458MPD2    H1 6823   0.372   2.597  12.708 -1.4368 -1.2045  2.5175
  458MPD2    H2 6824   0.782   2.494  12.610  0.0260  0.0850  0.0401
  458MPD2    H3 6825   0.576   2.618  12.557  0.4832  2.4721  0.4802
  458MPD2     N 6826   0.355   2.436  12.910  0.6317  0.1627 -0.0962
  458MPD2    H5 6827   0.378   2.367  12.981  0.3395  1.3250  1.1267
  458MPD2    N1 6828   0.825   2.366  12.820 -0.2098  0.4920  0.4204
  458MPD2    H7 6829   0.895   2.397  12.754  0.7118  0.0581  1.1849
  459TMC3    C1 6830   1.021   2.299  12.947 -0.1110 -0.0283  0.3410
  459TMC3    C2 6831   1.107   2.351  12.853  0.2513 -0.1323 -0.5044
  459TMC3    C3 6832   1.240   2.341  12.877 -0.3336 -0.4238 -0.2224
  459TMC3    C4 6833   1.063   2.249  13.065 -0.1949  0.0490 -0.0216
  459TMC3    C5 6834   1.202   2.237  13.078 -0.0767  0.6134  0.8859
  459TMC3    C6 6835   1.294   2.279  12.989 -0.4255  0.8076  0.0640
  459TMC3     C 6836   0.871   2.309  12.937 -0.0721 -0.4409  0.0315
  459TMC3     O 6837   0.807   2.278  13.039  0.0944 -0.2222 -0.0814
  459TMC3     H 6838   1.069   2.412  12.773 -1.1387 -0.9067 -0.4269
  459TMC3    H1 6839   0.996   2.223  13.146  0.7483  1.7503  1.3212
  459TMC3    H2 6840   1.400   2.271  13.012  0.2334  0.2435 -3.1795
  459TMC3    C7 6841   1.262   2.169  13.189 -0.5087 -0.7616  0.1510
  459TMC3    C8 6842   1.337   2.384  12.779 -0.3958 -0.4806 -0.2600
  459TMC3    O1 6843   1.367   2.104  13.181 -0.1971  0.4030  0.9537
  459TMC3    O2 6844   1.456   2.380  12.815  0.3659  0.0585  0.8026
  460MPD2     C 6845   0.755   4.545  10.580  0.1238  0.6646  0.4530
  460MPD2    C1 6846   0.646   4.620  10.621  0.0113  0.6727 -0.2868
  460MPD2    C2 6847   0.568   4.674  10.518  0.1144  0.0728 -0.6798
  460MPD2    C3 6848   0.600   4.652  10.384 -0.1354 -0.0836 -0.1140
  460MPD2    C4 6849   0.715   4.585  10.360 -0.7062  0.1026 -0.5861
  460MPD2    C5 6850   0.789   4.523  10.450 -0.3347 -0.1773  0.3631
  460MPD2     H 6851   0.480   0.009  10.542  0.9286 -0.2672  3.2717
  460MPD2    H1 6852   0.755   4.580  10.260  2.0459  0.3164  0.4933
  460MPD2    H2 6853   0.811   4.501  10.662 -1.1981 -1.2702  0.3124
  460MPD2    H3 6854   0.869   4.461  10.411 -0.4647 -0.2826  0.2638
  460MPD2     N 6855   0.515   4.687  10.267 -0.1217  0.0725  0.3160
  460MPD2    H5 6856   0.426   0.004  10.294  0.8517  1.4423  1.4041
  460MPD2    N1 6857   0.625   4.644  10.757  0.0200  0.5142 -0.3209
  460MPD2    H7 6858   0.702   4.613  10.815 -0.1429 -0.3384 -0.5695
  461TMC3    C1 6859   0.421   4.688  10.042 -0.6495  0.3635  0.4836
  461TMC3    C2 6860   0.442   4.672   9.907  0.4885 -0.4538  0.4618
  461TMC3    C3 6861   0.330   4.685   9.826  0.4139 -0.9266 -0.3726
  461TMC3    C4 6862   0.300   0.012  10.093  0.1364 -0.4396  0.4720
  461TMC3    C5 6863   0.196   0.036  10.008  0.0083  0.0190 -0.2241
  461TMC3    C6 6864   0.214   0.017   9.870  0.6442 -0.0746 -0.0256
  461TMC3     C 6865   0.534   4.651  10.135  0.3573  0.4010 -0.6357
  461TMC3     O 6866   0.625   4.588  10.083  0.1158 -0.3902  0.3358
  461TMC3     H 6867   0.534   4.628   9.872  1.0634  1.1742 -0.1111
  461TMC3    H1 6868   0.282   0.004  10.200  1.9878  0.0581  0.8201
  461TMC3    H2 6869   0.131   0.039   9.805  1.1319  0.5498 -0.4432
  461TMC3    C7 6870   0.124   0.147  10.064 -0.4359  0.1385 -1.1178
  461TMC3    C8 6871   0.362   4.685   9.685  0.3114  0.1411 -0.2153
  461TMC3    O1 6872   0.168   0.201  10.166  0.4944  0.5400 -0.0381
  461TMC3    O2 6873   0.455   4.617   9.640  0.0056 -0.5358 -0.6568
  462TMC3    C1 6874   0.143   1.112  17.637  0.3034 -0.1764  0.3700
  462TMC3    C2 6875   0.076   1.049  17.539  0.3217  0.3264 -0.3949
  462TMC3    C3 6876   0.032   0.922  17.569 -0.2636  0.1325  0.2297
  462TMC3    C4 6877   0.158   1.056   0.065 -0.2034 -0.5679 -0.2233
  462TMC3    C5 6878   0.103   0.933   0.094  0.3625  0.1826  0.0788
  462TMC3    C6 6879   0.054   0.857  17.688  0.1130 -0.3429 -0.4397
  462TMC3     C 6880   0.202   1.244  17.605  0.3551  0.2690 -0.7016
  462TMC3     O 6881   0.188   1.284  17.490 -0.5992  0.0329 -0.3688
  462TMC3     H 6882   0.070   1.086  17.437 -3.0348  0.4798 -0.1543
  462TMC3    H1 6883   0.214   1.103   0.145 -1.7957 -0.2156  0.6884
  462TMC3    H2 6884   4.711   0.772   0.002  0.2666 -0.4648 -0.4565
  462TMC3    C7 6885   0.069   0.907   0.229 -0.3806  0.2064 -0.1521
  462TMC3    C8 6886   4.722   0.840  17.456 -0.8662  0.0198  0.0496
  462TMC3    O1 6887   0.086   1.000   0.303 -0.3997 -0.3707 -0.8657
  462TMC3    O2 6888   4.628   0.874  17.388  0.3316 -0.4327  0.2885
  463MPD2     C 6889   0.604   0.127   2.024  0.4500  0.1658  0.1737
  463MPD2    C1 6890   0.586   0.164   1.897 -0.1693  0.9527  1.2942
  463MPD2    C2 6891   0.691   0.209   1.819  0.0050 -0.2097 -0.7063
  463MPD2    C3 6892   0.822   0.188   1.867  0.4564 -0.6241 -0.6062
  463MPD2    C4 6893   0.837   0.141   1.995  0.2491 -0.2010  0.0395
  463MPD2    C5 6894   0.723   0.122   2.070 -0.2788  0.3645  0.5614
  463MPD2     H 6895   0.678   0.256   1.722  1.0056  0.0529 -0.7199
  463MPD2    H1 6896   0.936   0.130   2.036 -0.0723 -2.0689  0.3113
  463MPD2    H2 6897   0.530   0.096   2.098 -0.3954  1.8603  0.0467
  463MPD2    H3 6898   0.739   0.107   2.176  1.1125  0.8196  0.4187
  463MPD2     N 6899   0.937   0.219   1.798 -0.0754 -0.0228  0.0341
  463MPD2    H5 6900   1.022   0.209   1.853 -1.4725 -1.7553  1.8714
  463MPD2    N1 6901   0.461   0.192   1.846  0.1479  0.2913  0.1594
  463MPD2    H7 6902   0.448   0.228   1.752 -1.4120  1.8066  0.9460
  464TMC3    C1 6903   0.233   0.160   1.809  0.1914  0.4813  0.4619
  464TMC3    C2 6904   0.249   0.244   1.704  0.1299 -0.5148 -0.0841
  464TMC3    C3 6905   0.147   0.225   1.607  0.2026 -0.8675 -0.4637
  464TMC3    C4 6906   0.122   0.090   1.840 -0.0064  0.0725  0.0005
  464TMC3    C5 6907   0.025   0.071   1.739  0.8044 -0.0498  0.0595
  464TMC3    C6 6908   0.035   0.143   1.621  0.1399 -0.4858  0.5942
  464TMC3     C 6909   0.346   0.146   1.900 -0.2494 -0.2496  0.1517
  464TMC3     O 6910   0.321   0.085   2.003 -0.1881  1.1669 -0.0890
  464TMC3     H 6911   0.326   0.320   1.694 -0.8449  0.6129  1.0212
  464TMC3    H1 6912   0.108   0.036   1.933  0.4723  1.5052  0.9058
  464TMC3    H2 6913   4.692   0.124   1.538  0.8033 -0.2734  0.0010
  464TMC3    C7 6914   4.638   4.712   1.772 -0.6621  0.4627 -0.4376
  464TMC3    C8 6915   0.144   0.332   1.508  0.6876 -0.0192 -0.0629
  464TMC3    O1 6916   4.629   4.662   1.884  0.3719  0.0235 -0.0075
  464TMC3    O2 6917   0.249   0.393   1.490  0.2161  0.7490 -0.1678
  465MPD2     C 6918   2.645   3.369  16.485  0.0586  0.3238  0.3724
  465MPD2    C1 6919   2.535   3.384  16.576 -0.0479  0.6501 -1.2692
  465MPD2    C2 6920   2.411   3.336  16.538  0.0709 -0.1366  0.0367
  465MPD2    C3 6921   2.399   3.276  16.414 -0.1057 -0.3382 -0.1894
  465MPD2    C4 6922   2.504   3.276  16.319  0.9237 -0.4954 -0.2597
  465MPD2    C5 6923   2.627   3.312  16.362 -0.1266 -0.6672 -0.2766
  465MPD2     H 6924   2.323   3.337  16.602 -0.7116  2.2546 -1.0574
  465MPD2    H1 6925   2.488   3.238  16.219 -2.2654 -0.8525  0.3808
  465MPD2    H2 6926   2.744   3.402  16.512  0.6984  1.0843 -2.9411
  465MPD2    H3 6927   2.717   3.313  16.301 -0.8660 -0.6172 -1.3750
  465MPD2     N 6928   2.276   3.211  16.380  0.0765  0.3286 -0.1074
  465MPD2    H5 6929   2.198   3.221  16.444  1.7048  1.3766  1.7093
  465MPD2    N1 6930   2.544   3.439  16.703  0.3205 -0.8600 -0.4714
  465MPD2    H7 6931   2.462   3.448  16.763  1.3205  1.7977  0.5020
  466TMC3    C1 6932   1.903   3.073  16.384 -0.1576  0.1887 -0.0675
  466TMC3    C2 6933   1.829   3.135  16.290  0.6830 -0.4491 -0.1065
  466TMC3    C3 6934   1.891   3.197  16.187  0.2418 -0.3762 -0.3320
  466TMC3    C4 6935   2.034   3.069  16.368  0.2745  0.0376 -0.1316
  466TMC3    C5 6936   2.096   3.129  16.254 -0.1078 -0.1493  0.8670
  466TMC3    C6 6937   2.021   3.189  16.158  0.2927  0.4101 -0.0363
  466TMC3     C 6938   1.831   3.024  16.504 -0.1255  0.0117  1.2409
  466TMC3     O 6939   1.727   3.087  16.538  0.0547  0.2452  0.2359
  466TMC3     H 6940   1.722   3.142  16.300  0.9987  2.2755  1.3028
  466TMC3    H1 6941   2.108   3.018  16.429 -0.5262 -2.4385 -1.2483
  466TMC3    H2 6942   2.061   3.244  16.073  2.8009 -0.0928  0.8413
  466TMC3    C7 6943   2.237   3.163  16.260  1.1194  0.1831  0.4392
  466TMC3    C8 6944   1.813   3.299  16.113  0.3337  0.2246 -0.7791
  466TMC3    O1 6945   2.283   3.176  16.147 -0.3454  0.4296 -0.1775
  466TMC3    O2 6946   1.871   3.347  16.014  0.4972  0.1571 -0.6208
  467TMC3    C1 6947   3.155   1.887  13.594  0.0703 -0.4100 -0.4929
  467TMC3    C2 6948   3.160   2.009  13.649  0.7996 -0.9550 -0.0124
  467TMC3    C3 6949   3.055   2.051  13.730 -0.4679  0.3608  0.8500
  467TMC3    C4 6950   3.044   1.807  13.615 -0.1696  0.1226 -0.0375
  467TMC3    C5 6951   2.935   1.853  13.684 -0.6067 -0.2810 -0.2568
  467TMC3    C6 6952   2.938   1.980  13.741 -0.2547  0.3373  0.0600
  467TMC3     C 6953   3.284   1.818  13.582  0.3190  0.0537  1.2329
  467TMC3     O 6954   3.375   1.895  13.549  0.6449 -0.2845  0.2258
  467TMC3     H 6955   3.242   2.077  13.624  1.3057 -2.0388 -1.2742
  467TMC3    H1 6956   3.043   1.714  13.560 -0.6488  1.7672 -2.8493
  467TMC3    H2 6957   2.851   2.037  13.773  0.5362  0.4313  2.0532
  467TMC3    C7 6958   2.803   1.790  13.657  0.3714 -0.5688 -0.1822
  467TMC3    C8 6959   3.062   2.182  13.792 -0.3282  0.7659  0.6565
  467TMC3    O1 6960   2.793   1.724  13.555  0.0364  0.2182  0.0457
  467TMC3    O2 6961   2.970   2.254  13.766  0.1293 -0.7997  0.2272
  468MPD2     C 6962   2.314   4.585  11.040  0.0297 -0.1147  0.7777
  468MPD2    C1 6963   2.442   4.538  11.063  0.5436 -0.8090  0.7678
  468MPD2    C2 6964   2.469   4.404  11.061 -0.2167 -0.1151  0.4430
  468MPD2    C3 6965   2.369   4.308  11.039 -0.3877  0.8527 -0.4243
  468MPD2    C4 6966   2.237   4.354  11.020  0.4514  0.7971  0.5297
  468MPD2    C5 6967   2.211   4.490  11.028  0.3647 -0.7283 -0.0829
  468MPD2     H 6968   2.571   4.375  11.085  0.4652  1.9307  0.0837
  468MPD2    H1 6969   2.157   4.283  11.005  0.0984  1.3939 -0.4250
  468MPD2    H2 6970   2.286   4.690  11.035  1.1866  0.1391 -0.4233
  468MPD2    H3 6971   2.111   4.522  11.003  1.0549  1.3119 -0.2616
  468MPD2     N 6972   2.390   4.171  11.048  0.1067  0.2520  0.0352
  468MPD2    H5 6973   2.312   4.107  11.037  0.3131  0.1746 -0.9868
  468MPD2    N1 6974   2.546   4.619  11.112  0.0739 -0.2874 -0.1490
  468MPD2    H7 6975   2.640   4.581  11.126 -0.0190 -0.6851 -0.5930
  469TMC3    C1 6976   2.670   0.084  11.165  0.2422  0.4581 -0.4028
  469TMC3    C2 6977   2.746   0.018  11.254  0.4078 -0.0743  0.2290
  469TMC3    C3 6978   2.814   0.093  11.343  0.6501 -0.1235  0.1302
  469TMC3    C4 6979   2.668   0.221  11.154  0.3406  0.2209 -0.1980
  469TMC3    C5 6980   2.738   0.293  11.242  0.6001  0.3935 -0.0958
  469TMC3    C6 6981   2.812   0.234  11.336  0.0875  0.4424 -0.3035
  469TMC3     C 6982   2.543   0.033  11.114  0.0199  0.6127 -0.0371
  469TMC3     O 6983   2.466   0.120  11.082  0.1281 -0.4678  0.0589
  469TMC3     H 6984   2.745   4.634  11.259  2.9045 -0.0529  1.1723
  469TMC3    H1 6985   2.602   0.275  11.087 -1.7403 -1.5675  0.4078
  469TMC3    H2 6986   2.876   0.293  11.400 -0.0673  0.1795  0.0971
  469TMC3    C7 6987   2.687   0.424  11.261 -0.1073  0.8965 -0.4272
  469TMC3    C8 6988   2.915   0.027  11.418 -1.0112  0.4135 -0.6978
  469TMC3    O1 6989   2.646   0.487  11.160  0.5684  0.1750  0.3307
  469TMC3    O2 6990   2.949   4.639  11.389 -0.3220  0.2793  0.7245
  470TMC3    C1 6991   4.041   0.803   0.676  0.1125  0.1357 -0.2154
  470TMC3    C2 6992   3.988   0.926   0.691 -0.4803 -0.1062  0.3501
  470TMC3    C3 6993   3.965   0.966   0.816  0.4887 -0.9951  0.3228
  470TMC3    C4 6994   4.079   0.716   0.773  0.4857 -0.2358 -0.1831
  470TMC3    C5 6995   4.048   0.761   0.897  0.6754 -0.0096  0.7878
  470TMC3    C6 6996   3.995   0.881   0.921  0.2772  0.0780 -0.1109
  470TMC3     C 6997   4.019   0.742   0.546 -0.3267  0.0897  0.7261
  470TMC3     O 6998   3.972   0.823   0.465 -0.4902  0.1035  0.8221
  470TMC3     H 6999   3.955   0.983   0.605  2.3884  0.2195 -0.5116
  470TMC3    H1 7000   4.130   0.621   0.762 -0.0238 -0.4083 -1.0256
  470TMC3    H2 7001   3.982   0.918   1.022  1.1074  0.9868 -0.3355
  470TMC3    C7 7002   4.094   0.688   1.008 -0.1361  0.4062 -0.6628
  470TMC3    C8 7003   3.896   1.094   0.844  0.0412  0.9374  0.4058
  470TMC3    O1 7004   4.206   0.636   1.002  0.2394 -0.7069 -0.1985
  470TMC3    O2 7005   3.865   1.118   0.957  0.6759  0.3367  0.0153
  471MPD2     C 7006   4.503   2.158  16.802 -0.5319  0.8047 -0.4406
  471MPD2    C1 7007   4.630   2.104  16.781  0.2560  0.4434  0.4985
  471MPD2    C2 7008   4.708   2.084  16.893 -0.0092  0.2414 -0.0098
  471MPD2    C3 7009   4.657   2.106  17.021  0.5950 -0.8796 -0.4461
  471MPD2    C4 7010   4.536   2.171  17.036  0.4857 -0.1642  0.0387
  471MPD2    C5 7011   4.473   2.204  16.923  0.6663 -0.1014 -0.1905
  471MPD2     H 7012   0.084   2.044  16.876 -0.3091 -0.2609 -0.6056
  471MPD2    H1 7013   4.494   2.190  17.134  2.3933  0.0938  0.8132
  471MPD2    H2 7014   4.436   2.185  16.722 -1.1564 -0.7285 -0.4400
  471MPD2    H3 7015   4.375   2.250  16.930 -0.5108 -2.6458  0.0881
  471MPD2     N 7016   4.722   2.075  17.140 -0.2208 -0.1087  0.6832
  471MPD2    H5 7017   4.673   2.100  17.225 -0.3232 -0.4767  0.7325
  471MPD2    N1 7018   4.678   2.067  16.657  0.1211  0.3325 -0.1260
  471MPD2    H7 7019   0.055   2.055  16.661  0.1517  0.2731 -1.1079
  472TMC3    C1 7020   4.695   2.017  16.427  0.6678 -0.0263 -0.5887
  472TMC3    C2 7021   4.642   2.044  16.309  0.1828  0.1554 -1.2945
  472TMC3    C3 7022   4.643   1.955  16.200 -0.1190  0.1605 -0.8505
  472TMC3    C4 7023   0.017   1.887  16.447 -0.3231 -0.3876 -0.3283
  472TMC3    C5 7024   0.018   1.801  16.340 -0.5737 -0.1391  0.0101
  472TMC3    C6 7025   4.708   1.836  16.214 -0.0645  0.3145  0.5577
  472TMC3     C 7026   4.618   2.083  16.531  0.3074  0.0061  0.0085
  472TMC3     O 7027   4.497   2.101  16.509 -0.5811 -0.0345  0.0234
  472TMC3     H 7028   4.583   2.135  16.312 -1.6565 -1.1344  2.6682
  472TMC3    H1 7029   0.066   1.866  16.541  0.1956  3.1047  0.1968
  472TMC3    H2 7030   4.685   1.771  16.130  1.9218 -1.7792  1.6573
  472TMC3    C7 7031   0.035   1.663  16.367  0.4806  0.2778 -0.1763
  472TMC3    C8 7032   4.514   1.943  16.147  0.0744  0.1807 -1.3357
  472TMC3    O1 7033   0.059   1.623  16.480  0.7913 -0.1983  0.5533
  472TMC3    O2 7034   4.486   2.012  16.052 -0.0332 -0.2668  0.3833
  473MPD2     C 7035   4.523   4.328  13.750  0.1251  0.4356  0.3034
  473MPD2    C1 7036   4.640   4.391  13.732  0.4850  0.1426  0.3288
  473MPD2    C2 7037   4.711   4.430  13.841 -0.1456 -0.1914 -0.5606
  473MPD2    C3 7038   4.651   4.420  13.964 -0.6877 -0.4838  0.6033
  473MPD2    C4 7039   4.534   4.360  13.980 -0.2316  0.5442 -0.0490
  473MPD2    C5 7040   4.471   4.313  13.875  0.1636 -0.0895 -0.1094
  473MPD2     H 7041   0.084   4.473  13.820  0.5761 -0.6419  1.8806
  473MPD2    H1 7042   4.490   4.347  14.078 -0.2272 -0.1237 -0.1338
  473MPD2    H2 7043   4.463   4.293  13.667 -0.4363  0.7441  0.5788
  473MPD2    H3 7044   4.369   4.276  13.879 -0.1336  0.9328  1.4621
  473MPD2     N 7045   4.712   4.486  14.078  0.1224  0.2099 -0.5860
  473MPD2    H5 7046   4.662   4.493  14.166  0.9715 -1.0767  0.0023
  473MPD2    N1 7047   4.696   4.403  13.607  0.4376  0.1082  0.1589
  473MPD2    H7 7048   0.068   4.432  13.592  0.8624 -2.3913 -1.9380
  474TMC3    C1 7049   0.113   4.629  14.202 -0.7177 -0.3762  0.1554
  474TMC3    C2 7050   0.003   4.704  14.229 -0.7537 -0.7775  0.1203
  474TMC3    C3 7051   0.024   0.103  14.286  0.6186  0.4950  0.0859
  474TMC3    C4 7052   0.235   4.654  14.258  0.2448  0.1518  0.3227
  474TMC3    C5 7053   0.243   0.036  14.341 -1.1699  0.2674  0.3191
  474TMC3    C6 7054   0.140   0.127  14.354 -0.4320 -0.1730 -0.9055
  474TMC3     C 7055   0.107   4.555  14.081 -0.4406 -0.2573 -0.6144
  474TMC3     O 7056   0.207   4.546  14.014 -0.9485 -0.1497  0.1479
  474TMC3     H 7057   4.638   4.698  14.167 -1.3270  1.7238  0.7204
  474TMC3    H1 7058   0.319   4.587  14.243 -0.2332 -0.3490 -0.1465
  474TMC3    H2 7059   0.167   0.214  14.414 -0.0035 -2.3831  2.1242
  474TMC3    C7 7060   0.374   0.079  14.400  0.3037 -0.8218 -0.6730
  474TMC3    C8 7061   4.643   0.202  14.298 -0.7673  0.6041  0.2294
  474TMC3    O1 7062   0.479   0.062  14.338  0.4809  0.1064  0.5415
  474TMC3    O2 7063   4.527   0.168  14.306  0.3032  0.1426  0.5036
  475MPD2     C 7064   3.312   1.823  10.444  0.5294  0.5160  0.7927
  475MPD2    C1 7065   3.342   1.953  10.419  0.8192  0.7787  0.9017
  475MPD2    C2 7066   3.235   2.048  10.403  0.4294  0.1338  0.6260
  475MPD2    C3 7067   3.103   2.009  10.412 -0.1494 -0.4561 -0.0811
  475MPD2    C4 7068   3.084   1.870  10.419  0.1141  0.4521 -0.3359
  475MPD2    C5 7069   3.182   1.781  10.449 -0.1878  0.0608 -0.7181
  475MPD2     H 7070   3.249   2.153  10.377  1.5076 -0.3404 -0.6769
  475MPD2    H1 7071   2.984   1.832  10.404  0.6972 -1.0422 -0.5009
  475MPD2    H2 7072   3.389   1.747  10.458 -1.5934 -1.9620 -1.0168
  475MPD2    H3 7073   3.163   1.676  10.468 -0.6813  0.6027  1.7960
  475MPD2     N 7074   3.003   2.102  10.398 -0.0767 -0.9721 -0.8083
  475MPD2    H5 7075   3.027   2.201  10.395  1.5432 -1.3830 -1.4788
  475MPD2    N1 7076   3.480   1.981  10.409 -0.2680  0.1156 -0.5746
  475MPD2    H7 7077   3.544   1.903  10.406  0.8105  0.9346  1.0221
  476TMC3    C1 7078   3.650   2.129  10.353  0.4773  0.2464 -0.5422
  476TMC3    C2 7079   3.637   2.094  10.222  0.3010  0.3163 -0.4295
  476TMC3    C3 7080   3.655   2.185  10.123  0.7148  0.3456  0.4949
  476TMC3    C4 7081   3.679   2.258  10.389 -0.0234  0.0883  0.6459
  476TMC3    C5 7082   3.706   2.348  10.292 -0.3866 -0.0708 -0.0876
  476TMC3    C6 7083   3.692   2.318  10.156 -0.3983 -0.5082  0.1627
  476TMC3     C 7084   3.522   2.113  10.426  0.8264 -0.3387  1.0286
  476TMC3     O 7085   3.457   2.214  10.456 -0.4758  0.0787  0.2119
  476TMC3     H 7086   3.636   1.989  10.195  0.5791 -0.2734  1.8508
  476TMC3    H1 7087   3.692   2.282  10.494  0.3371  2.1387  0.1159
  476TMC3    H2 7088   3.722   2.395  10.086  1.4440 -1.2138  0.1762
  476TMC3    C7 7089   3.805   2.448  10.335  0.0288  0.1799 -0.0427
  476TMC3    C8 7090   3.548   2.201  10.021 -0.5504  0.9937 -0.4103
  476TMC3    O1 7091   3.904   2.465  10.264 -0.0216  0.5532  0.3333
  476TMC3    O2 7092   3.560   2.281   9.932  1.1635 -0.0219 -0.0388
  477MPD2     C 7093   0.940   3.537  11.493 -0.3792 -0.3634 -0.9463
  477MPD2    C1 7094   0.839   3.575  11.576  0.5775 -0.5307  0.3365
  477MPD2    C2 7095   0.823   3.510  11.704 -0.4033  0.2619  0.2714
  477MPD2    C3 7096   0.921   3.411  11.742 -0.0618 -0.3038 -0.6354
  477MPD2    C4 7097   1.027   3.386  11.660  0.2163  0.7396 -0.1148
  477MPD2    C5 7098   1.032   3.439  11.531  0.1559 -0.0793 -0.6714
  477MPD2     H 7099   0.758   3.544  11.784  0.6704 -0.4864  1.4364
  477MPD2    H1 7100   1.096   3.305  11.677 -1.2237  0.1678  3.0045
  477MPD2    H2 7101   0.959   3.596  11.404 -1.8236  0.2543 -0.8325
  477MPD2    H3 7102   1.115   3.415  11.466  0.6302  1.1575 -0.5092
  477MPD2     N 7103   0.915   3.337  11.861  0.6821  0.5060  0.0528
  477MPD2    H5 7104   0.996   3.279  11.879 -0.2772 -1.3907 -1.8518
  477MPD2    N1 7105   0.777   3.695  11.536 -0.0950  0.5420 -0.1355
  477MPD2    H7 7106   0.802   3.734  11.446  2.6558 -0.0956  0.3468
  478TMC3    C1 7107   0.649   3.890  11.570  0.6309  0.8876  0.3604
  478TMC3    C2 7108   0.572   3.960  11.656  0.2564  0.9499 -0.8757
  478TMC3    C3 7109   0.546   4.094  11.622  0.2065 -0.3445 -0.0637
  478TMC3    C4 7110   0.691   3.936  11.446 -0.1737 -0.4187  0.2259
  478TMC3    C5 7111   0.662   4.063  11.419  0.2842  0.7673  0.9459
  478TMC3    C6 7112   0.589   4.150  11.502 -0.5016 -0.3322 -0.0961
  478TMC3     C 7113   0.691   3.761  11.615  0.4008 -0.1111  0.4638
  478TMC3     O 7114   0.654   3.749  11.728 -0.2288  0.1852 -0.1192
  478TMC3     H 7115   0.522   3.921  11.744  0.3796  1.2422 -0.6776
  478TMC3    H1 7116   0.753   3.880  11.376  1.4029 -1.4654  2.4768
  478TMC3    H2 7117   0.558   4.250  11.474  0.2896  0.2929  1.2728
  478TMC3    C7 7118   0.728   4.125  11.312 -0.7345  0.2536  0.4171
  478TMC3    C8 7119   0.504   4.173  11.734 -0.3283 -0.4208  0.0554
  478TMC3    O1 7120   0.833   4.077  11.285  0.5715 -0.3061  0.4800
  478TMC3    O2 7121   0.527   4.122  11.845  0.2317  0.3064  0.2071
  479MPD2     C 7122   4.473   1.828  15.350  0.2868  1.0777  0.5771
  479MPD2    C1 7123   4.464   1.705  15.415  0.0647  0.0925  0.1835
  479MPD2    C2 7124   4.494   1.698  15.550  0.0927  0.0596  0.4706
  479MPD2    C3 7125   4.545   1.809  15.619  0.4878  0.8875  0.6213
  479MPD2    C4 7126   4.566   1.926  15.548  0.1842  0.4990 -0.3010
  479MPD2    C5 7127   4.534   1.936  15.416 -0.0811 -0.6780  0.5459
  479MPD2     H 7128   4.496   1.602  15.601  1.0788 -1.5081 -2.5188
  479MPD2    H1 7129   4.612   2.011  15.596  3.8251 -2.2937  1.1412
  479MPD2    H2 7130   4.461   1.824  15.242 -0.8735  0.4320  0.7237
  479MPD2    H3 7131   4.562   2.032  15.373 -0.2887 -1.0833 -0.5136
  479MPD2     N 7132   4.574   1.815  15.762  0.7116 -0.0238 -0.4691
  479MPD2    H5 7133   4.611   1.900  15.803  0.4360  0.7348 -1.7979
  479MPD2    N1 7134   4.399   1.603  15.345 -0.5743  0.7010  0.6608
  479MPD2    H7 7135   4.392   1.619  15.245 -0.9983 -0.3726  0.5116
  480TMC3    C1 7136   4.261   1.476  15.896 -0.0885 -0.0848  0.2990
  480TMC3    C2 7137   4.165   1.526  15.819 -0.4536  0.3543  0.0630
  480TMC3    C3 7138   4.179   1.637  15.741 -0.1777  0.0586  0.0478
  480TMC3    C4 7139   4.383   1.533  15.903  0.0302 -0.4359  0.7404
  480TMC3    C5 7140   4.402   1.649  15.832  0.2660  0.2181  0.3832
  480TMC3    C6 7141   4.299   1.704  15.750 -0.4809  0.1088  0.1819
  480TMC3     C 7142   4.240   1.350  15.967  0.5979  0.2239 -0.1405
  480TMC3     O 7143   4.346   1.300  16.004 -0.1488 -0.3623 -0.3641
  480TMC3     H 7144   4.065   1.485  15.815 -0.5897  0.3194  3.7871
  480TMC3    H1 7145   4.461   1.490  15.964  0.9267  1.4232  0.9211
  480TMC3    H2 7146   4.303   1.800  15.699 -2.6436 -0.9449 -2.0031
  480TMC3    C7 7147   4.535   1.715  15.853  0.6040  0.0537  0.1755
  480TMC3    C8 7148   4.073   1.678  15.641  1.0043 -0.3432  0.9990
  480TMC3    O1 7149   4.591   1.688  15.952 -0.3785 -0.0790  0.2374
  480TMC3    O2 7150   3.961   1.630  15.656  0.8355 -0.1833  0.3965
  481MPD2     C 7151   1.381   1.342  14.183  0.1643  0.1712  0.2825
  481MPD2    C1 7152   1.262   1.267  14.193  0.4112  0.3783 -0.1562
  481MPD2    C2 7153   1.229   1.198  14.313 -0.5345 -0.6244  0.1814
  481MPD2    C3 7154   1.327   1.202  14.414 -0.2828  0.3847  0.0710
  481MPD2    C4 7155   1.439   1.277  14.409 -0.2619 -0.5352  0.5181
  481MPD2    C5 7156   1.464   1.348  14.296  0.2009 -0.6023 -0.2709
  481MPD2     H 7157   1.129   1.162  14.334 -1.2141  0.2309 -1.5906
  481MPD2    H1 7158   1.510   1.285  14.491  1.4595  2.6243 -1.2583
  481MPD2    H2 7159   1.401   1.404  14.096 -0.1227  0.5414  0.4778
  481MPD2    H3 7160   1.557   1.402  14.282 -0.4289  0.7896  0.8265
  481MPD2     N 7161   1.319   1.128  14.532 -0.2654  0.0461 -0.5456
  481MPD2    H5 7162   1.395   1.135  14.598 -1.3914 -1.4662  0.9130
  481MPD2    N1 7163   1.187   1.275  14.074 -0.6285  0.0999  0.1040
  481MPD2    H7 7164   1.222   1.347  14.012 -0.6765 -0.2275 -0.3021
  482TMC3    C1 7165   1.030   1.204  13.914 -0.2265 -0.0483 -0.0779
  482TMC3    C2 7166   0.980   1.100  13.845 -0.8233  0.4744  0.2581
  482TMC3    C3 7167   0.943   1.118  13.718 -0.9059 -0.7601  0.0022
  482TMC3    C4 7168   1.048   1.327  13.853 -0.7790  0.3668 -1.2487
  482TMC3    C5 7169   1.021   1.330  13.720 -0.4614  0.4650 -0.4211
  482TMC3    C6 7170   0.968   1.226  13.648  0.4113 -0.1910  0.0715
  482TMC3     C 7171   1.076   1.190  14.053 -0.3529  0.2483 -0.0316
  482TMC3     O 7172   1.029   1.101  14.122  0.4005  0.0812  0.2214
  482TMC3     H 7173   0.975   1.004  13.896 -0.2170 -0.3412 -1.2257
  482TMC3    H1 7174   1.073   1.425  13.891  0.1084 -0.2528 -0.2357
  482TMC3    H2 7175   0.937   1.234  13.544 -1.1494  0.1385  0.5706
  482TMC3    C7 7176   0.963   1.457  13.673  0.5117 -1.2689  0.6299
  482TMC3    C8 7177   0.880   1.001  13.657  0.3652 -0.3459 -0.4799
  482TMC3    O1 7178   0.893   1.516  13.753  0.8623 -0.0770  0.3622
  482TMC3    O2 7179   0.845   0.918  13.737  0.1155 -0.0644 -0.1359
  483TMC3    C1 7180   3.707   0.281   1.080 -0.2210 -0.0632  0.2114
  483TMC3    C2 7181   3.823   0.330   1.135 -0.2037  0.4123  0.0672
  483TMC3    C3 7182   3.894   0.258   1.227 -0.1785  0.9446  0.0339
  483TMC3    C4 7183   3.644   0.167   1.130 -0.4176 -0.0431  0.2177
  483TMC3    C5 7184   3.723   0.094   1.218  0.6502  0.1684 -0.2502
  483TMC3    C6 7185   3.841   0.137   1.268 -0.3111  0.0202 -0.1681
  483TMC3     C 7186   3.706   0.289   0.933 -0.1823 -0.2923 -0.0849
  483TMC3     O 7187   3.741   0.394   0.881  0.5194 -0.3445  0.4180
  483TMC3     H 7188   3.863   0.419   1.088 -0.6926  1.2970  1.3336
  483TMC3    H1 7189   3.551   0.125   1.091 -1.5495  1.8361  0.8921
  483TMC3    H2 7190   3.909   0.072   1.321 -1.4811  0.4746  1.8883
  483TMC3    C7 7191   3.692   4.676   1.218 -0.3910 -0.0134 -0.1028
  483TMC3    C8 7192   4.036   0.257   1.190 -0.0907  0.4670 -0.9459
  483TMC3    O1 7193   3.658   4.635   1.106  0.2951  0.5426 -0.1686
  483TMC3    O2 7194   4.065   0.307   1.082  0.0816  0.0925 -0.1496
  484MPD2     C 7195   1.312   2.506  12.429 -0.3833 -0.1515 -0.3270
  484MPD2    C1 7196   1.369   2.488  12.557  0.4984  0.0097  0.4740
  484MPD2    C2 7197   1.507   2.501  12.558 -0.9214 -0.1393 -0.7086
  484MPD2    C3 7198   1.584   2.541  12.448 -0.2011  0.6830 -0.2851
  484MPD2    C4 7199   1.521   2.552  12.328  0.1782  0.2904 -0.5271
  484MPD2    C5 7200   1.385   2.527  12.317  0.4800 -0.3057 -0.0391
  484MPD2     H 7201   1.558   2.499  12.654 -1.0284 -2.3063 -0.6953
  484MPD2    H1 7202   1.586   2.562  12.242  1.5765  0.6331  0.5658
  484MPD2    H2 7203   1.211   2.468  12.417 -0.8103  0.7562  0.4493
  484MPD2    H3 7204   1.335   2.522  12.220 -1.4927 -0.2976  0.9844
  484MPD2     N 7205   1.727   2.564  12.451 -0.4894 -0.7615  0.3158
  484MPD2    H5 7206   1.766   2.582  12.359 -0.8913 -0.9058  0.1165
  484MPD2    N1 7207   1.285   2.433  12.658  0.1463  0.6797  0.1743
  484MPD2    H7 7208   1.184   2.433  12.650  0.1557  3.1866  0.1201
  485TMC3    C1 7209   1.950   2.578  12.529 -0.1718 -0.3306 -0.4161
  485TMC3    C2 7210   2.044   2.511  12.601 -0.9715  0.6273 -0.2236
  485TMC3    C3 7211   2.173   2.543  12.578  0.0151  0.5742 -0.4991
  485TMC3    C4 7212   1.979   2.689  12.443 -0.3535  0.8258  0.7483
  485TMC3    C5 7213   2.113   2.713  12.416  0.1830 -0.3472 -0.7380
  485TMC3    C6 7214   2.210   2.644  12.492 -0.0030 -0.3597 -0.0936
  485TMC3     C 7215   1.805   2.556  12.566 -1.2442 -0.3656  0.7037
  485TMC3     O 7216   1.781   2.520  12.683 -0.2257  0.0858  1.1067
  485TMC3     H 7217   2.026   2.421  12.660 -1.1817  0.4977 -0.4824
  485TMC3    H1 7218   1.907   2.750  12.390  0.6383  0.1634 -1.3521
  485TMC3    H2 7219   2.314   2.669  12.477 -0.2871 -0.3318 -1.9343
  485TMC3    C7 7220   2.141   2.734  12.276  0.1175 -0.5325 -0.5266
  485TMC3    C8 7221   2.265   2.438  12.544  1.0730  0.1884 -0.3992
  485TMC3    O1 7222   2.072   2.810  12.209  0.0943 -0.0029  0.8268
  485TMC3    O2 7223   2.323   2.458  12.437 -1.0138 -0.0657 -0.0764
  486MPD2     C 7224   4.291   1.442  12.549 -0.1634 -0.2762  0.3330
  486MPD2    C1 7225   4.163   1.480  12.584  0.1212 -0.0407  0.4456
  486MPD2    C2 7226   4.136   1.613  12.601  0.0053  0.0991 -0.3940
  486MPD2    C3 7227   4.227   1.710  12.574 -0.7098  0.1880  0.1095
  486MPD2    C4 7228   4.350   1.675  12.531  0.0546 -0.3161  0.7795
  486MPD2    C5 7229   4.382   1.543  12.517 -0.1233 -0.3040  0.9018
  486MPD2     H 7230   4.038   1.647  12.629 -0.8613 -1.2945 -1.7116
  486MPD2    H1 7231   4.437   1.739  12.522 -0.2100  0.0162  0.5840
  486MPD2    H2 7232   4.325   1.340  12.537  1.4684  0.2299  0.7643
  486MPD2    H3 7233   4.483   1.506  12.502 -1.0406 -1.8355 -1.5456
  486MPD2     N 7234   4.190   1.840  12.584 -0.4980  0.1734  0.0055
  486MPD2    H5 7235   4.094   1.863  12.608 -0.2141  0.3713  0.9759
  486MPD2    N1 7236   4.067   1.377  12.585 -0.2376 -0.1388 -0.5292
  486MPD2    H7 7237   4.106   1.283  12.579  0.5561  0.1214  0.5187
  487TMC3    C1 7238   3.859   1.265  12.624 -0.1440  0.2317 -0.5653
  487TMC3    C2 7239   3.724   1.286  12.637 -0.0664 -0.1859  0.3232
  487TMC3    C3 7240   3.652   1.192  12.700  0.5090  0.1811  0.0935
  487TMC3    C4 7241   3.914   1.159  12.688 -0.0762  0.5379  0.1805
  487TMC3    C5 7242   3.841   1.059  12.749  0.1483  0.2626 -0.4614
  487TMC3    C6 7243   3.703   1.071  12.747  0.5714 -0.1094  0.3049
  487TMC3     C 7244   3.929   1.389  12.606  0.2389 -0.5241 -0.9789
  487TMC3     O 7245   3.871   1.496  12.600  0.0775  0.1233 -0.0953
  487TMC3     H 7246   3.676   1.377  12.602 -1.1129 -0.6137  0.6441
  487TMC3    H1 7247   4.021   1.147  12.674 -0.3757  1.3523 -2.7692
  487TMC3    H2 7248   3.638   1.007  12.806  0.5060 -1.4773 -1.2320
  487TMC3    C7 7249   3.893   1.000  12.861  0.0188  0.1243 -0.2140
  487TMC3    C8 7250   3.522   1.228  12.750  0.6611 -0.6180 -0.7467
  487TMC3    O1 7251   4.012   1.018  12.865  0.0930  0.2198  0.6044
  487TMC3    O2 7252   3.471   1.146  12.828 -0.4463 -0.2787  0.1565
  488MPD2     C 7253   3.998   3.181  16.519 -0.2237 -0.5766 -0.0570
  488MPD2    C1 7254   3.988   3.311  16.570 -0.2013 -0.2881  0.1653
  488MPD2    C2 7255   3.912   3.340  16.683  0.6435  0.1508  0.0521
  488MPD2    C3 7256   3.850   3.242  16.756  0.1104  0.2083  0.0190
  488MPD2    C4 7257   3.857   3.114  16.699 -0.0466  0.2495 -0.0826
  488MPD2    C5 7258   3.935   3.085  16.590  0.4054 -0.5925  1.0239
  488MPD2     H 7259   3.903   3.442  16.720 -2.7103  0.1559 -0.8162
  488MPD2    H1 7260   3.798   3.033  16.739  1.0228 -0.0388  0.9065
  488MPD2    H2 7261   4.060   3.150  16.436  1.5825 -0.0914  1.1078
  488MPD2    H3 7262   3.952   2.983  16.556 -1.4406  0.3462 -2.6702
  488MPD2     N 7263   3.778   3.272  16.873 -0.3195 -0.1961 -0.1055
  488MPD2    H5 7264   3.752   3.369  16.888  3.5267  0.7128  0.5416
  488MPD2    N1 7265   4.045   3.418  16.502 -0.7098 -0.4514  0.0787
  488MPD2    H7 7266   4.038   3.512  16.539 -1.5068 -1.0019  1.3028
  489TMC3    C1 7267   3.686   3.243  17.082 -0.6077 -0.0543 -0.0967
  489TMC3    C2 7268   3.636   3.369  17.067 -0.6278 -0.2728  0.1208
  489TMC3    C3 7269   3.658   3.456  17.172  0.2165 -0.3881  0.2349
  489TMC3    C4 7270   3.730   3.201  17.200 -0.5452 -0.4405 -0.0233
  489TMC3    C5 7271   3.722   3.281  17.308  0.7265 -0.0070  0.9380
  489TMC3    C6 7272   3.707   3.416  17.291  0.8866 -0.4087  0.2356
  489TMC3     C 7273   3.757   3.178  16.973  0.0885  0.3858  0.0736
  489TMC3     O 7274   3.790   3.063  16.974 -0.2870  0.4394 -0.4735
  489TMC3     H 7275   3.591   3.399  16.974 -0.2175 -2.0314 -0.6449
  489TMC3    H1 7276   3.760   3.097  17.203 -1.9925 -0.8417  0.5519
  489TMC3    H2 7277   3.708   3.487  17.372  1.3378 -0.1564  0.0056
  489TMC3    C7 7278   3.729   3.229  17.450  0.4939  0.3051  0.7576
  489TMC3    C8 7279   3.684   3.588  17.135  0.4610 -0.1124  0.4387
  489TMC3    O1 7280   3.781   3.306  17.533  0.0726 -0.0361  0.2517
  489TMC3    O2 7281   3.711   3.596  17.016  0.2101  0.2922  0.0023
  490MPD2     C 7282   4.253   2.637   0.406  0.2419  0.2409  0.1287
  490MPD2    C1 7283   4.304   2.643   0.280  0.3730  0.2200 -0.3347
  490MPD2    C2 7284   4.372   2.755   0.232  0.6389 -0.8801 -0.2896
  490MPD2    C3 7285   4.401   2.855   0.317 -0.0657 -0.1972  0.4931
  490MPD2    C4 7286   4.354   2.857   0.447 -0.6874 -0.6651  0.7008
  490MPD2    C5 7287   4.278   2.746   0.488 -0.1738 -0.1883  0.4041
  490MPD2     H 7288   4.410   2.750   0.131  0.2741 -0.3888 -0.4524
  490MPD2    H1 7289   4.369   2.942   0.511 -1.5640 -1.6820  2.2699
  490MPD2    H2 7290   4.190   2.555   0.439  0.2487 -0.4512 -1.5906
  490MPD2    H3 7291   4.242   2.745   0.590 -1.1832  0.1741  0.0463
  490MPD2     N 7292   4.489   2.955   0.281 -0.1653  0.4651  0.3261
  490MPD2    H5 7293   4.517   3.013   0.360 -1.2680 -0.5358  1.4681
  490MPD2    N1 7294   4.262   2.542   0.187  0.2022 -0.0895  0.6397
  490MPD2    H7 7295   4.210   2.464   0.224 -1.8338  0.7034 -0.5711
  491TMC3    C1 7296   4.254   2.420  17.688 -0.3795  0.5844 -0.8114
  491TMC3    C2 7297   4.294   2.307   0.056  0.3261 -0.0604 -0.8753
  491TMC3    C3 7298   4.313   2.189  17.691 -0.2559  0.0411  0.0290
  491TMC3    C4 7299   4.216   2.415  17.551  0.0566 -0.0134  0.0070
  491TMC3    C5 7300   4.221   2.292  17.496 -0.7313  0.2792  0.4712
  491TMC3    C6 7301   4.266   2.178  17.559 -0.4300 -0.0852 -1.0549
  491TMC3     C 7302   4.266   2.551   0.051  0.1175 -0.6248  0.8894
  491TMC3     O 7303   4.310   2.636  17.675  0.0265 -0.4638  0.2397
  491TMC3     H 7304   4.330   2.320   0.157  0.6384  1.9539 -1.2249
  491TMC3    H1 7305   4.183   2.500  17.493 -0.9120 -0.7590 -0.5395
  491TMC3    H2 7306   4.269   2.087  17.499  1.9538 -1.9223  1.8275
  491TMC3    C7 7307   4.183   2.277  17.355  0.2861  0.3586 -0.3336
  491TMC3    C8 7308   4.335   2.078   0.086  0.1599  0.5105  0.0918
  491TMC3    O1 7309   4.149   2.169  17.317 -0.3168  0.6537  0.9762
  491TMC3    O2 7310   4.362   2.104   0.202 -0.4251  0.6601  0.4850
  492MPD2     C 7311   0.738   2.789  11.345  0.0372 -0.0741 -0.4059
  492MPD2    C1 7312   0.718   2.650  11.339  0.1988 -0.1837  0.4403
  492MPD2    C2 7313   0.616   2.590  11.416 -1.0047 -0.3126  0.0928
  492MPD2    C3 7314   0.538   2.664  11.498 -0.3021 -0.3339  0.0089
  492MPD2    C4 7315   0.574   2.796  11.518  0.1006  0.4430 -0.2394
  492MPD2    C5 7316   0.670   2.855  11.441  0.2460  0.4099  0.2100
  492MPD2     H 7317   0.609   2.482  11.412  0.8920 -0.4654  1.2085
  492MPD2    H1 7318   0.523   2.857  11.591  0.7280 -1.8696  2.1296
  492MPD2    H2 7319   0.804   2.847  11.281  0.5146 -1.6415 -1.3418
  492MPD2    H3 7320   0.679   2.960  11.465 -0.9855  0.7340 -0.7486
  492MPD2     N 7321   0.431   2.613  11.567 -0.1928 -0.1082 -0.2448
  492MPD2    H5 7322   0.395   2.670  11.643 -1.7607 -0.7328 -0.5156
  492MPD2    N1 7323   0.789   2.574  11.241  0.0017 -0.3830  0.0438
  492MPD2    H7 7324   0.865   2.620  11.191 -3.1457  0.0786 -4.3467
  493TMC3    C1 7325   0.864   2.399  11.099  0.4215  0.3578  0.1361
  493TMC3    C2 7326   0.929   2.492  11.023 -0.1695  0.8199 -0.6632
  493TMC3    C3 7327   0.940   2.461  10.890  0.5881 -1.0351  0.4278
  493TMC3    C4 7328   0.812   2.282  11.052 -0.7167  0.2166  0.2506
  493TMC3    C5 7329   0.816   2.265  10.919 -0.3595  0.0410  0.2945
  493TMC3    C6 7330   0.875   2.354  10.834 -0.2011 -0.1692  1.2158
  493TMC3     C 7331   0.785   2.437  11.217 -0.5315 -0.2991  0.5374
  493TMC3     O 7332   0.720   2.348  11.274  0.8739 -0.3139 -0.3323
  493TMC3     H 7333   0.995   2.568  11.063  0.7584 -0.1224 -0.4093
  493TMC3    H1 7334   0.773   2.212  11.125 -2.2406  0.7226 -0.0782
  493TMC3    H2 7335   0.860   2.335  10.729 -1.9354  0.8117  1.2965
  493TMC3    C7 7336   0.701   2.202  10.870  0.5809 -0.3598  0.1842
  493TMC3    C8 7337   1.069   2.485  10.828 -0.3143  0.1423 -0.2247
  493TMC3    O1 7338   0.649   2.231  10.764 -0.2178  0.4514  0.1206
  493TMC3    O2 7339   1.153   2.530  10.902 -0.0128  0.3896  0.3081
  494TMC3    C1 7340   0.581   0.165   0.264  0.1196 -0.6192 -0.5367
  494TMC3    C2 7341   0.603   0.071   0.363  0.0510  0.1967 -0.0144
  494TMC3    C3 7342   0.666   4.678   0.324 -0.4969 -1.1865 -0.4416
  494TMC3    C4 7343   0.617   0.145   0.132  0.5198  0.8717  0.1535
  494TMC3    C5 7344   0.675   0.027   0.105  0.0584  0.1591 -0.6465
  494TMC3    C6 7345   0.700   4.651   0.195  0.7417 -0.2023  0.3488
  494TMC3     C 7346   0.527   0.292   0.314  0.0464 -0.1823 -0.1971
  494TMC3     O 7347   0.494   0.287   0.429  0.2655 -0.0114  0.2181
  494TMC3     H 7348   0.609   0.102   0.467 -0.3702  0.7225 -0.1495
  494TMC3    H1 7349   0.595   0.216   0.053 -1.0931 -0.0364 -0.2162
  494TMC3    H2 7350   0.736   4.552   0.169  0.0736 -0.0567 -1.1382
  494TMC3    C7 7351   0.706   4.722  17.666  0.4949 -0.0998 -0.4365
  494TMC3    C8 7352   0.688   4.578   0.425 -0.2299  0.4763  0.1058
  494TMC3    O1 7353   0.747   0.089  17.591 -0.1797 -0.0478 -0.1188
  494TMC3    O2 7354   0.785   4.506   0.410  0.1694  0.0403  0.2257
  495TMC3    C1 7355   4.418   1.849  14.723  0.2987  0.3162  0.4268
  495TMC3    C2 7356   4.360   1.955  14.658 -0.0656 -0.1070 -0.2137
  495TMC3    C3 7357   4.235   2.004  14.697  0.3892  0.5897 -0.3493
  495TMC3    C4 7358   4.361   1.805  14.839 -0.2766 -1.2116  0.3505
  495TMC3    C5 7359   4.245   1.854  14.885 -0.1134  0.2562  0.0312
  495TMC3    C6 7360   4.181   1.956  14.814  0.7066  0.4597 -0.2257
  495TMC3     C 7361   4.436   1.738  14.639  0.0491 -0.3639  0.5152
  495TMC3     O 7362   4.357   1.729  14.546  0.9107 -0.2263  0.1328
  495TMC3     H 7363   4.392   1.979  14.557  0.2798  1.2508  0.2143
  495TMC3    H1 7364   4.402   1.719  14.891  0.0960 -1.9906 -1.2519
  495TMC3    H2 7365   4.113   2.021  14.867 -0.8932  0.7210 -2.5817
  495TMC3    C7 7366   4.204   1.813  15.022  0.6335 -0.2721 -0.7658
  495TMC3    C8 7367   4.141   2.015  14.595  0.6693  1.0355  0.3052
  495TMC3    O1 7368   4.281   1.747  15.094 -0.2031  0.1322 -0.2724
  495TMC3    O2 7369   4.030   1.968  14.628  0.6961 -0.4038 -0.2605
  496MPD2     C 7370   1.378   1.656  15.150 -0.0451  0.4508  1.0059
  496MPD2    C1 7371   1.434   1.608  15.262  0.5912 -0.3165  0.3629
  496MPD2    C2 7372   1.359   1.635  15.379  0.0354  0.3767 -0.1697
  496MPD2    C3 7373   1.240   1.705  15.376 -0.7399 -0.2176  0.3070
  496MPD2    C4 7374   1.181   1.730  15.256 -0.2473  0.6703 -1.0350
  496MPD2    C5 7375   1.249   1.710  15.136 -0.1012 -0.2074  0.0378
  496MPD2     H 7376   1.408   1.609  15.472  0.0536 -3.7292 -1.3110
  496MPD2    H1 7377   1.087   1.783  15.250 -0.7481 -0.0508  0.4883
  496MPD2    H2 7378   1.432   1.644  15.056 -3.7821 -1.2337 -0.9423
  496MPD2    H3 7379   1.203   1.723  15.039  0.5094  0.7457 -0.1262
  496MPD2     N 7380   1.170   1.741  15.498  0.4672 -0.2475 -0.1548
  496MPD2    H5 7381   1.074   1.773  15.489  0.2231 -0.2866  2.4701
  496MPD2    N1 7382   1.562   1.551  15.255 -0.2543 -0.5703 -0.1470
  496MPD2    H7 7383   1.601   1.538  15.162 -0.5798  0.5150 -0.4377
  497TMC3    C1 7384   1.142   1.729  15.732  0.1777  0.3990 -0.5319
  497TMC3    C2 7385   1.015   1.691  15.733  0.1058 -0.6931 -0.5171
  497TMC3    C3 7386   0.952   1.679  15.848  0.0668  0.6274 -0.8344
  497TMC3    C4 7387   1.204   1.753  15.857  0.1133  0.0902  0.7436
  497TMC3    C5 7388   1.136   1.735  15.969  0.3592 -0.5609  0.1054
  497TMC3    C6 7389   1.005   1.696  15.972 -0.5984  0.3566 -0.0794
  497TMC3     C 7390   1.231   1.723  15.620  0.5650 -0.2451 -0.7006
  497TMC3     O 7391   1.354   1.722  15.645  0.4893 -0.3850  0.3878
  497TMC3     H 7392   0.962   1.658  15.645  0.8781 -1.2181 -0.7909
  497TMC3    H1 7393   1.297   1.809  15.865  0.1159  0.1891  0.0543
  497TMC3    H2 7394   0.948   1.683  16.063  1.4222 -0.9001  1.0104
  497TMC3    C7 7395   1.201   1.757  16.098 -0.4882  0.0759  0.3016
  497TMC3    C8 7396   0.811   1.684  15.834 -0.0126  0.3574  0.6917
  497TMC3    O1 7397   1.316   1.723  16.098 -0.0499  0.4420 -0.2623
  497TMC3    O2 7398   0.775   1.743  15.735 -0.2834  0.1509  0.0083
  498MPD2     C 7399   2.732   1.854   9.177  0.4118 -0.9669 -0.7055
  498MPD2    C1 7400   2.740   1.857   9.315  0.0755  0.1139 -0.3305
  498MPD2    C2 7401   2.623   1.835   9.385  1.0174 -0.0901  0.1556
  498MPD2    C3 7402   2.504   1.800   9.321 -0.3543 -1.2428 -0.1942
  498MPD2    C4 7403   2.504   1.788   9.185  0.2603 -0.8842 -0.1615
  498MPD2    C5 7404   2.618   1.814   9.112  0.4244  0.9624  0.0630
  498MPD2     H 7405   2.618   1.838   9.493  0.0858 -2.0874  0.1737
  498MPD2    H1 7406   2.405   1.778   9.142  0.3472 -0.8561 -0.3692
  498MPD2    H2 7407   2.816   1.889   9.118 -0.0135  1.0802 -0.1290
  498MPD2    H3 7408   2.623   1.809   9.004  1.6956 -0.9550  0.2011
  498MPD2     N 7409   2.401   1.775   9.411  0.7568  0.2566 -0.8670
  498MPD2    H5 7410   2.425   1.805   9.504  0.5438  0.7798 -0.9829
  498MPD2    N1 7411   2.855   1.903   9.383 -0.1130  0.3258 -0.4519
  498MPD2    H7 7412   2.848   1.931   9.480 -0.7343  0.4104 -0.5241
  499TMC3    C1 7413   3.073   1.965   9.427  0.1354  0.2952  0.5803
  499TMC3    C2 7414   3.123   1.877   9.528 -0.0763  0.0775 -0.1355
  499TMC3    C3 7415   3.227   1.925   9.609 -0.6667 -0.2522  0.0671
  499TMC3    C4 7416   3.146   2.074   9.388 -0.5739 -0.0768 -0.7244
  499TMC3    C5 7417   3.241   2.116   9.482  0.3932 -0.2806  0.0485
  499TMC3    C6 7418   3.278   2.050   9.597  0.2669  0.5258  0.5936
  499TMC3     C 7419   2.978   1.917   9.328  0.1037 -0.0661  0.4120
  499TMC3     O 7420   3.019   1.906   9.210  0.5251  0.1847 -0.2021
  499TMC3     H 7421   3.084   1.776   9.532 -2.0468  0.9012  1.3447
  499TMC3    H1 7422   3.116   2.135   9.304  0.6981  1.2194 -0.2383
  499TMC3    H2 7423   3.364   2.087   9.651  1.4308 -1.3607  0.0087
  499TMC3    C7 7424   3.328   2.231   9.452 -1.1221  0.3536 -0.5634
  499TMC3    C8 7425   3.270   1.847   9.726  0.1573 -0.2352 -0.4153
  499TMC3    O1 7426   3.391   2.289   9.543 -0.0870  0.4161  0.1685
  499TMC3    O2 7427   3.211   1.736   9.735 -0.3333 -0.2290  0.2698
  500MPD2     C 7428   4.570   3.510  10.636 -0.3089 -0.0191  0.1340
  500MPD2    C1 7429   4.589   3.582  10.523 -0.0680  0.2038 -0.3250
  500MPD2    C2 7430   4.490   3.612  10.436 -0.3468  0.2907 -0.0016
  500MPD2    C3 7431   4.361   3.583  10.468  0.4490 -0.6457 -0.0587
  500MPD2    C4 7432   4.343   3.494  10.575  0.1127 -0.8185  0.3063
  500MPD2    C5 7433   4.443   3.474  10.664  0.1858 -0.0507 -0.1502
  500MPD2     H 7434   4.507   3.671  10.347 -1.8895  2.5775  1.2129
  500MPD2    H1 7435   4.249   3.448  10.602 -1.5784  2.1036 -0.6097
  500MPD2    H2 7436   4.651   3.475  10.699 -1.7851  1.2022  2.7352
  500MPD2    H3 7437   4.427   3.420  10.757 -2.9964 -0.9393 -1.2185
  500MPD2     N 7438   4.246   3.610  10.390 -0.1509 -0.4463  0.3356
  500MPD2    H5 7439   4.154   3.588  10.425 -0.7033  2.6244  0.8216
  500MPD2    N1 7440   4.722   3.616  10.498 -0.4767 -0.1785  0.3132
  500MPD2    H7 7441   0.064   3.607  10.575  0.0750 -0.9568 -0.2494
  501TMC3    C1 7442   0.186   3.721  10.381  0.6920  0.3336 -0.3444
  501TMC3    C2 7443   0.225   3.794  10.273 -0.1694  0.3052 -0.4301
  501TMC3    C3 7444   0.354   3.837  10.271  0.8899  0.0816 -0.4326
  501TMC3    C4 7445   0.263   3.687  10.479 -0.1143 -0.5634 -0.3509
  501TMC3    C5 7446   0.392   3.719  10.473  0.0092 -0.4983 -0.0721
  501TMC3    C6 7447   0.436   3.800  10.376 -0.6495 -0.6967  0.1367
  501TMC3     C 7448   0.052   3.666  10.374  0.0792  0.8265  0.6623
  501TMC3     O 7449   0.001   3.675  10.263 -0.5086 -0.4116  0.4711
  501TMC3     H 7450   0.152   3.839  10.206 -1.1032 -0.9104 -0.2310
  501TMC3    H1 7451   0.226   3.610  10.547 -3.4751  0.0493 -1.4855
  501TMC3    H2 7452   0.534   3.842  10.392 -1.1267  0.5664 -0.2602
  501TMC3    C7 7453   0.470   3.687  10.590  0.0194  0.1740  0.5623
  501TMC3    C8 7454   0.366   3.975  10.245 -0.0387 -0.4292  0.0888
  501TMC3    O1 7455   0.590   3.692  10.565  0.0071  0.3002 -0.3010
  501TMC3    O2 7456   0.449   4.029  10.313  0.7110 -0.5054  0.3958
  502TMC3    C1 7457   3.880   2.783  14.778  0.9359  0.7247 -0.4654
  502TMC3    C2 7458   3.848   2.908  14.813  0.4150  0.0825  0.5198
  502TMC3    C3 7459   3.718   2.935  14.847  0.1608  0.0891 -0.1013
  502TMC3    C4 7460   3.787   2.682  14.791 -0.4402 -0.0239  0.1955
  502TMC3    C5 7461   3.659   2.717  14.824 -0.1285 -0.0741 -0.2674
  502TMC3    C6 7462   3.616   2.844  14.856 -0.3191 -0.5390 -0.6703
  502TMC3     C 7463   4.012   2.757  14.795 -0.9872  0.3007 -0.5898
  502TMC3     O 7464   4.090   2.845  14.758 -0.2459  0.1252  0.1855
  502TMC3     H 7465   3.920   2.989  14.812  0.3441  0.1777  3.1764
  502TMC3    H1 7466   3.813   2.585  14.751  0.5018  0.2879  0.0636
  502TMC3    H2 7467   3.521   2.870  14.901  0.8800  0.7209  1.1262
  502TMC3    C7 7468   3.592   2.601  14.870 -0.5833 -0.4028  0.6864
  502TMC3    C8 7469   3.692   3.074  14.886  0.1576 -0.1835  0.6293
  502TMC3    O1 7470   3.671   2.520  14.913  0.7554  0.1176 -0.1966
  502TMC3    O2 7471   3.579   3.117  14.847 -0.0236 -0.0550 -0.3881
  503MPD2     C 7472   0.950   3.101  17.005  0.1190  0.1831  0.3609
  503MPD2    C1 7473   0.922   3.148  17.127  0.2762  0.7000 -0.4488
  503MPD2    C2 7474   0.959   3.078  17.238  0.2412 -0.0739 -0.0880
  503MPD2    C3 7475   1.022   2.953  17.218 -0.6182 -0.4017 -0.3118
  503MPD2    C4 7476   1.043   2.906  17.093  0.4941  0.8468 -1.1424
  503MPD2    C5 7477   0.993   2.973  16.985  0.6273  0.0358  0.3555
  503MPD2     H 7478   0.944   3.112  17.340 -0.3181 -0.0525 -0.1768
  503MPD2    H1 7479   1.089   2.809  17.080  0.8631  0.7915  0.6253
  503MPD2    H2 7480   0.935   3.157  16.913 -2.2311  0.3102  0.8162
  503MPD2    H3 7481   0.992   2.937  16.883 -2.8335 -0.3679  0.5490
  503MPD2     N 7482   1.083   2.887  17.330  0.3405 -0.3544 -0.7694
  503MPD2    H5 7483   1.069   2.918  17.426 -0.7111 -1.1434 -0.6672
  503MPD2    N1 7484   0.865   3.272  17.155 -0.1499  0.3497 -0.0427
  503MPD2    H7 7485   0.851   3.295  17.253  1.0044 -1.0001  0.4394
  504TMC3    C1 7486   1.233   2.749  17.446 -0.4569 -0.4573  0.3953
  504TMC3    C2 7487   1.179   2.643  17.512 -0.4154  0.6734  0.3161
  504TMC3    C3 7488   1.260   2.545  17.570 -1.1085 -0.1383  0.0533
  504TMC3    C4 7489   1.373   2.749  17.430  0.6081 -1.0820 -0.5378
  504TMC3    C5 7490   1.451   2.657  17.480 -0.4584  0.0391  0.3993
  504TMC3    C6 7491   1.396   2.548  17.546  0.5049  0.1168 -0.3522
  504TMC3     C 7492   1.179   2.787  17.320  0.0034  0.5111  0.0177
  504TMC3     O 7493   1.231   2.726  17.226  0.1972  0.2175  0.1765
  504TMC3     H 7494   1.070   2.636  17.513 -0.3081 -1.2418  0.1269
  504TMC3    H1 7495   1.400   2.814  17.348 -1.2836  3.4943  2.4306
  504TMC3    H2 7496   1.455   2.464  17.579  0.7338  0.9279  1.2892
  504TMC3    C7 7497   1.564   2.634  17.388  0.0375 -0.6136 -0.7207
  504TMC3    C8 7498   1.192   2.432  17.628 -0.0120  0.4924 -0.8362
  504TMC3    O1 7499   1.534   2.654  17.270 -0.0780 -0.9198  0.9242
  504TMC3    O2 7500   1.085   2.398  17.579 -0.5535  0.3636 -0.4696
  505MPD2     C 7501   1.564   1.882  10.463  0.1460 -0.7410 -0.3416
  505MPD2    C1 7502   1.571   1.758  10.520  0.3291 -0.4727  0.4604
  505MPD2    C2 7503   1.683   1.720  10.591 -0.8625  0.4774  0.5289
  505MPD2    C3 7504   1.789   1.815  10.609 -0.5257  0.2938  0.0160
  505MPD2    C4 7505   1.772   1.942  10.556  0.3386  0.2673 -0.2824
  505MPD2    C5 7506   1.660   1.968  10.477 -0.1893  0.3792 -0.0132
  505MPD2     H 7507   1.710   1.616  10.606 -0.9259  0.8082  2.8721
  505MPD2    H1 7508   1.848   2.019  10.565  1.7924 -1.1203 -0.8623
  505MPD2    H2 7509   1.486   1.912  10.394 -0.6559 -0.3832  0.7272
  505MPD2    H3 7510   1.640   2.070  10.444 -0.7122  0.4024  0.3935
  505MPD2     N 7511   1.910   1.764  10.656  0.4922 -0.3755  0.6186
  505MPD2    H5 7512   1.911   1.663  10.668  0.2348 -0.6016 -1.3154
  505MPD2    N1 7513   1.472   1.665  10.482 -0.4920  0.0862  0.2997
  505MPD2    H7 7514   1.405   1.698  10.414 -1.0099 -1.8628 -0.1379
  506TMC3    C1 7515   1.372   1.453  10.452  0.2588  0.1847  0.0601
  506TMC3    C2 7516   1.335   1.494  10.331  0.2924  0.5793 -0.1145
  506TMC3    C3 7517   1.348   1.413  10.226  0.3387 -0.1499 -0.1710
  506TMC3    C4 7518   1.406   1.330  10.481  0.1795  0.1125  0.0507
  506TMC3    C5 7519   1.410   1.244  10.377  0.4462  0.2495  0.2769
  506TMC3    C6 7520   1.401   1.285  10.241 -0.1362  0.1372  0.0701
  506TMC3     C 7521   1.460   1.537  10.532  0.8319  0.4036 -0.1981
  506TMC3     O 7522   1.542   1.471  10.591  0.2603  0.3783 -0.3065
  506TMC3     H 7523   1.290   1.591  10.313 -2.6741 -1.0520 -1.5338
  506TMC3    H1 7524   1.389   1.291  10.581  1.4594 -0.8528 -0.1133
  506TMC3    H2 7525   1.405   1.210  10.164  0.2940  0.2136  0.0212
  506TMC3    C7 7526   1.511   1.140  10.382 -0.2273  0.0583 -0.2112
  506TMC3    C8 7527   1.338   1.469  10.089 -0.0953 -0.1809  0.2925
  506TMC3    O1 7528   1.518   1.060  10.290  0.6902  0.1561 -0.2223
  506TMC3    O2 7529   1.245   1.543  10.076  0.2589  0.4012 -0.2078
  507TMC3    C1 7530   1.905   2.419  14.853 -0.3391 -0.2508 -0.5783
  507TMC3    C2 7531   1.956   2.358  14.745 -0.1641 -0.3944  0.2340
  507TMC3    C3 7532   2.077   2.393  14.704 -1.1330 -1.2425 -0.3768
  507TMC3    C4 7533   1.973   2.522  14.913 -0.3365  0.3723 -0.3354
  507TMC3    C5 7534   2.096   2.563  14.862  1.1216 -0.4751  0.0315
  507TMC3    C6 7535   2.155   2.492  14.760  0.5909  0.0262  0.5711
  507TMC3     C 7536   1.775   2.384  14.902 -0.0058 -0.1477 -0.1413
  507TMC3     O 7537   1.695   2.350  14.811  0.1628  0.0482 -0.4046
  507TMC3     H 7538   1.900   2.285  14.687 -0.5069  1.6047 -1.9432
  507TMC3    H1 7539   1.920   2.569  14.994 -0.2756  1.7091 -1.0593
  507TMC3    H2 7540   2.252   2.524  14.722  0.2577  3.0385  2.2248
  507TMC3    C7 7541   2.105   2.704  14.827  0.2812  0.4588 -0.1017
  507TMC3    C8 7542   2.092   2.382  14.558  0.4228 -0.3850 -0.4052
  507TMC3    O1 7543   2.133   2.718  14.708  0.3156 -0.0617  0.3000
  507TMC3    O2 7544   2.013   2.315  14.494  0.1350  0.6810 -0.0612
  508MPD2     C 7545   3.123   0.155  16.215  0.1970 -0.5483  0.1696
  508MPD2    C1 7546   3.160   0.282  16.257  0.0416 -0.6040  0.2139
  508MPD2    C2 7547   3.117   0.390  16.180 -0.7655 -0.6102  0.2783
  508MPD2    C3 7548   3.078   0.371  16.055 -0.2635  0.3875 -0.1646
  508MPD2    C4 7549   3.053   0.245  16.007  0.2987  0.3859  0.0410
  508MPD2    C5 7550   3.071   0.136  16.085  0.1214  0.1970  0.6905
  508MPD2     H 7551   3.140   0.491  16.211 -0.8994 -0.8438  1.1345
  508MPD2    H1 7552   3.009   0.220  15.911  1.2833 -2.0562  0.2094
  508MPD2    H2 7553   3.134   0.074  16.286  0.4355 -1.6394 -1.1100
  508MPD2    H3 7554   3.048   0.036  16.048  0.6998 -0.4913  2.1691
  508MPD2     N 7555   3.061   0.477  15.967 -0.1889 -0.2580  0.3418
  508MPD2    H5 7556   3.060   0.569  16.009  0.8425  0.2264 -0.7011
  508MPD2    N1 7557   3.245   0.290  16.369  0.4774  0.4110 -0.3098
  508MPD2    H7 7558   3.246   0.202  16.420  1.7178  0.8967  0.4936
  509TMC3    C1 7559   2.927   0.784  15.746 -0.3798  0.0288 -0.1284
  509TMC3    C2 7560   3.013   0.822  15.639  0.4178  0.0086 -0.3473
  509TMC3    C3 7561   3.108   0.736  15.599 -0.0441  0.4620 -0.4317
  509TMC3    C4 7562   2.947   0.667  15.808 -0.0603  0.1177  0.7964
  509TMC3    C5 7563   3.052   0.590  15.767 -0.8058  0.6549  0.0348
  509TMC3    C6 7564   3.120   0.616  15.654  0.2048 -0.5026  0.5085
  509TMC3     C 7565   2.894   0.890  15.839 -0.1874 -0.4327 -0.3189
  509TMC3     O 7566   2.910   0.869  15.958 -0.2731  0.2494  0.0260
  509TMC3     H 7567   3.005   0.916  15.586  1.5022 -0.0889 -0.6818
  509TMC3    H1 7568   2.888   0.636  15.893  1.0805  0.5639  1.7612
  509TMC3    H2 7569   3.204   0.553  15.625  1.1052  1.1921 -0.5607
  509TMC3    C7 7570   3.077   0.468  15.833 -0.0444  0.5042 -0.0336
  509TMC3    C8 7571   3.231   0.797  15.552 -0.1230  1.1634  0.0171
  509TMC3    O1 7572   3.140   0.381  15.771  0.0327  0.4404  0.2296
  509TMC3    O2 7573   3.292   0.737  15.467  0.1854 -0.4504  0.3679
  510MPD2     C 7574   0.907   2.326  14.902  0.1318 -0.8605 -0.4283
  510MPD2    C1 7575   0.942   2.197  14.945  0.1408 -0.2445 -0.1482
  510MPD2    C2 7576   1.066   2.148  14.900 -0.4878  0.0922  0.3604
  510MPD2    C3 7577   1.155   2.226  14.824 -0.1864  0.6796 -0.2173
  510MPD2    C4 7578   1.127   2.361  14.805 -0.0842 -0.1259 -0.0460
  510MPD2    C5 7579   1.002   2.408  14.834  0.2864 -0.5337  0.3496
  510MPD2     H 7580   1.100   2.046  14.917 -0.0969  0.5491  2.2878
  510MPD2    H1 7581   1.200   2.426  14.756  0.2796  0.7489  1.6628
  510MPD2    H2 7582   0.819   2.372  14.945  1.4456  1.9198 -0.6919
  510MPD2    H3 7583   0.989   2.516  14.835  0.6043 -0.5139  1.5607
  510MPD2     N 7584   1.288   2.172  14.799  0.0090 -0.1868  0.1173
  510MPD2    H5 7585   1.304   2.076  14.828 -1.8223 -0.2016  1.0634
  510MPD2    N1 7586   0.852   2.129  15.028  0.8517 -0.5513  0.0255
  510MPD2    H7 7587   0.756   2.160  15.016  1.5724  0.3593 -3.2530
  511TMC3    C1 7588   0.772   1.930  15.113 -0.6860  0.3009  0.4895
  511TMC3    C2 7589   0.646   1.979  15.141  0.4171 -0.8699 -0.1328
  511TMC3    C3 7590   0.553   1.890  15.186  0.1820 -0.1460  0.4106
  511TMC3    C4 7591   0.801   1.799  15.128  0.3825  0.1635 -0.0011
  511TMC3    C5 7592   0.698   1.711  15.158  0.4000  0.6079 -0.3052
  511TMC3    C6 7593   0.569   1.753  15.185  0.3681  0.1345 -0.0440
  511TMC3     C 7594   0.885   2.013  15.089  1.0420 -0.2466  0.2116
  511TMC3     O 7595   0.996   1.966  15.124 -0.5111 -0.2427 -0.2448
  511TMC3     H 7596   0.636   2.087  15.150  0.5246 -0.5847 -3.3616
  511TMC3    H1 7597   0.898   1.760  15.100  0.5736  0.8949 -0.3470
  511TMC3    H2 7598   0.487   1.686  15.211 -1.2592  1.9722 -0.4299
  511TMC3    C7 7599   0.731   1.569  15.165 -0.2780  0.4351  0.7537
  511TMC3    C8 7600   0.470   1.933  15.300 -1.0792 -0.0758 -0.1569
  511TMC3    O1 7601   0.852   1.543  15.153 -0.0594 -0.3784  0.1181
  511TMC3    O2 7602   0.406   2.036  15.280 -0.5005  0.0755  0.0889
  512TMC3    C1 7603   0.347   1.282  13.203  0.9870 -0.0461 -1.2164
  512TMC3    C2 7604   0.271   1.309  13.313  0.5961  0.0364  0.3787
  512TMC3    C3 7605   0.135   1.301  13.307  0.2066  0.4922 -0.9849
  512TMC3    C4 7606   0.293   1.238  13.087  0.2483 -0.0107 -0.6762
  512TMC3    C5 7607   0.159   1.224  13.085 -0.0887 -0.1435 -0.6106
  512TMC3    C6 7608   0.074   1.251  13.192 -0.2475  1.5852  0.4864
  512TMC3     C 7609   0.488   1.295  13.214 -0.3595  0.7347 -0.9202
  512TMC3     O 7610   0.519   1.393  13.274  0.1681 -1.0331 -0.2655
  512TMC3     H 7611   0.320   1.333  13.407  1.0778  3.6263 -0.7790
  512TMC3    H1 7612   0.352   1.232  12.996 -0.6836  1.3847 -1.3736
  512TMC3    H2 7613   4.690   1.242  13.189 -0.0340 -0.7423 -0.2713
  512TMC3    C7 7614   0.101   1.191  12.950 -0.4292  0.4388  0.5906
  512TMC3    C8 7615   0.048   1.299  13.424  0.1138 -0.4136 -0.8563
  512TMC3    O1 7616   4.718   1.254  12.937 -0.3829 -0.3830 -0.5132
  512TMC3    O2 7617   4.714   1.193  13.445 -0.0800  0.1645 -0.2110
  513MPD2     C 7618   1.397   1.275  13.060  0.1019 -1.0746 -0.3092
  513MPD2    C1 7619   1.500   1.198  13.003  0.0943 -0.2122  0.2006
  513MPD2    C2 7620   1.600   1.156  13.087 -0.0866  0.3947  0.4793
  513MPD2    C3 7621   1.591   1.177  13.221  0.2617  0.4756  0.2664
  513MPD2    C4 7622   1.496   1.257  13.275 -0.4667 -0.5047 -0.2041
  513MPD2    C5 7623   1.392   1.300  13.196  0.0039 -0.5615  0.1424
  513MPD2     H 7624   1.697   1.123  13.052  0.0814  2.5999 -1.1109
  513MPD2    H1 7625   1.500   1.286  13.380  1.0728 -2.8066  0.3551
  513MPD2    H2 7626   1.321   1.310  12.991 -0.6038 -0.7815  0.6170
  513MPD2    H3 7627   1.310   1.358  13.239 -0.0410  0.9556 -1.9737
  513MPD2     N 7628   1.697   1.132  13.299  0.2119 -0.0551  0.0028
  513MPD2    H5 7629   1.767   1.091  13.238  0.1716 -0.8715  0.5050
  513MPD2    N1 7630   1.494   1.185  12.865 -0.0939  0.1132 -0.7309
  513MPD2    H7 7631   1.411   1.218  12.816 -0.1726 -2.4093 -2.3036
  514TMC3    C1 7632   1.579   1.114  12.659 -0.0497 -0.7584 -0.0034
  514TMC3    C2 7633   1.527   1.221  12.586  1.0422 -0.0151  0.5045
  514TMC3    C3 7634   1.589   1.249  12.467  0.0077  0.3564 -0.7972
  514TMC3    C4 7635   1.693   1.051  12.615  0.0119 -0.0197 -0.5234
  514TMC3    C5 7636   1.761   1.097  12.505  0.0225 -0.2360  0.0900
  514TMC3    C6 7637   1.712   1.194  12.430 -0.2646 -0.0629  0.1142
  514TMC3     C 7638   1.595   1.126  12.801  0.0848 -0.1810  0.4423
  514TMC3     O 7639   1.703   1.098  12.845 -0.3672  0.0470  0.0056
  514TMC3     H 7640   1.423   1.244  12.604  1.5162  2.1048  0.4813
  514TMC3    H1 7641   1.726   0.961  12.665 -1.0844  0.9965  2.0168
  514TMC3    H2 7642   1.770   1.234  12.347 -0.4658  0.7230  0.3516
  514TMC3    C7 7643   1.900   1.132  12.540  0.5543 -0.2752 -0.3821
  514TMC3    C8 7644   1.496   1.302  12.362  0.4153 -0.9782  0.3317
  514TMC3    O1 7645   1.976   1.183  12.460 -0.0441  0.4899 -0.2645
  514TMC3    O2 7646   1.381   1.328  12.397 -0.0528 -0.2382 -0.4087
  515MPD2     C 7647   4.641   2.880  14.944 -0.2321 -0.5473 -0.2778
  515MPD2    C1 7648   4.609   2.965  14.841 -0.4832  0.6643  0.0979
  515MPD2    C2 7649   4.624   3.104  14.846 -0.3698 -0.2347  0.8533
  515MPD2    C3 7650   4.641   3.169  14.963  0.1971  0.6167 -0.3037
  515MPD2    C4 7651   4.669   3.086  15.070 -0.3077 -0.6998 -0.3225
  515MPD2    C5 7652   4.666   2.948  15.063 -0.3250 -0.0881  0.7862
  515MPD2     H 7653   4.610   3.150  14.749 -1.5729  0.6972  1.4701
  515MPD2    H1 7654   4.692   3.124  15.169 -0.3607 -0.4093 -0.4233
  515MPD2    H2 7655   4.623   2.773  14.944  0.3536 -0.6390 -1.1557
  515MPD2    H3 7656   4.710   2.890  15.143  0.6573  1.2877  1.2328
  515MPD2     N 7657   4.634   3.311  14.983 -0.8897  0.4778 -0.4462
  515MPD2    H5 7658   4.647   3.347  15.077 -1.7601 -0.5406  0.0694
  515MPD2    N1 7659   4.571   2.911  14.715  0.2310  0.3561 -0.4552
  515MPD2    H7 7660   4.561   2.973  14.635  3.2228  0.1431 -1.0108
  516TMC3    C1 7661   4.448   2.760  14.566 -0.0614  0.1115 -0.8161
  516TMC3    C2 7662   4.355   2.863  14.536 -0.3192 -0.3983  0.6621
  516TMC3    C3 7663   4.238   2.833  14.463  0.3386  0.3675 -0.7981
  516TMC3    C4 7664   4.425   2.627  14.543 -0.3696 -0.0571 -0.4391
  516TMC3    C5 7665   4.300   2.602  14.504  0.2108  0.2498 -0.0341
  516TMC3    C6 7666   4.206   2.699  14.457 -0.3086  0.2920  0.0680
  516TMC3     C 7667   4.533   2.781  14.683 -0.1503 -0.0919 -0.7528
  516TMC3     O 7668   4.544   2.684  14.758 -0.1202  0.2531 -0.6705
  516TMC3     H 7669   4.366   2.959  14.584 -1.1354 -0.5664  1.1626
  516TMC3    H1 7670   4.498   2.549  14.554  0.4061  0.8395  0.8168
  516TMC3    H2 7671   4.113   2.671  14.407  0.8235 -0.8350 -1.4236
  516TMC3    C7 7672   4.252   2.472  14.545 -0.5278 -0.6238  0.0778
  516TMC3    C8 7673   4.149   2.931  14.409 -0.4144  0.5730 -0.6897
  516TMC3    O1 7674   4.331   2.385  14.582 -0.3041  1.1228 -0.0673
  516TMC3    O2 7675   4.034   2.897  14.392  0.0830 -0.3381 -0.4308
  517MPD2     C 7676   3.989   4.586   0.352 -0.5128  0.7471 -0.0485
  517MPD2    C1 7677   4.109   4.556   0.296  0.7032 -0.2376 -0.1687
  517MPD2    C2 7678   4.225   4.605   0.355  0.2439  1.1768  0.1902
  517MPD2    C3 7679   4.219   4.679   0.475 -0.1195  0.0449  0.3728
  517MPD2    C4 7680   4.099   4.695   0.536  0.4418  0.3971  1.1191
  517MPD2    C5 7681   3.988   4.656   0.473 -0.3940  0.5856  0.0739
  517MPD2     H 7682   4.319   4.580   0.307 -0.2441 -1.0168  0.3601
  517MPD2    H1 7683   4.097   0.018   0.634 -3.5901 -3.4489  2.8798
  517MPD2    H2 7684   3.896   4.550   0.308  0.8877 -2.3726 -0.4206
  517MPD2    H3 7685   3.895   4.689   0.518 -0.1939  1.7069 -0.3196
  517MPD2     N 7686   4.337   4.720   0.551  0.2321  0.8963 -0.0618
  517MPD2    H5 7687   4.315   0.033   0.644 -1.1300  0.8898 -0.3788
  517MPD2    N1 7688   4.118   4.461   0.190 -0.4019 -0.5320 -0.3132
  517MPD2    H7 7689   4.209   4.441   0.151 -0.8594  1.5206 -2.4796
  518TMC3    C1 7690   4.069   4.276   0.046  0.0323  0.2171 -0.1742
  518TMC3    C2 7691   4.036   4.142   0.053  0.3325  0.6914 -0.3711
  518TMC3    C3 7692   4.090   4.056  17.656  0.0605  0.1663 -0.6712
  518TMC3    C4 7693   4.164   4.322  17.651 -0.0982 -0.3792 -1.3457
  518TMC3    C5 7694   4.226   4.234  17.568 -0.2416  0.1492  0.4368
  518TMC3    C6 7695   4.187   4.095  17.563 -0.3330 -0.0556  0.2838
  518TMC3     C 7696   4.021   4.369   0.153 -0.0077 -0.6651  0.2714
  518TMC3     O 7697   3.910   4.333   0.187  0.1122  0.1315  0.4542
  518TMC3     H 7698   3.968   4.108   0.131  0.4455 -1.8419 -1.3599
  518TMC3    H1 7699   4.194   4.426  17.652 -0.1643 -0.3820  1.1355
  518TMC3    H2 7700   4.227   4.029  17.487  0.0871  0.5075  0.0215
  518TMC3    C7 7701   4.324   4.302  17.469 -0.5137 -0.4181 -0.3905
  518TMC3    C8 7702   4.073   3.914  17.664 -0.3248  0.1673 -0.0719
  518TMC3    O1 7703   4.350   4.419  17.488 -0.2925  0.6976  0.4615
  518TMC3    O2 7704   4.150   3.844  17.593  0.0371 -0.1271 -0.1445
  519MPD2     C 7705   1.475   3.193  14.462  0.6498 -0.6687  0.5033
  519MPD2    C1 7706   1.391   3.178  14.357  0.1190 -0.4297 -0.1724
  519MPD2    C2 7707   1.417   3.087  14.256 -0.2106 -0.3913  0.0433
  519MPD2    C3 7708   1.527   3.002  14.262 -0.1031 -0.0606  0.6613
  519MPD2    C4 7709   1.606   3.015  14.375  0.9506  0.1028  0.4538
  519MPD2    C5 7710   1.587   3.114  14.464  0.1955  0.0440  0.0075
  519MPD2     H 7711   1.348   3.084  14.172  1.1469 -0.2273 -1.0841
  519MPD2    H1 7712   1.694   2.953  14.388  0.5960 -0.8356 -1.5635
  519MPD2    H2 7713   1.456   3.260  14.545 -1.0077 -0.8467  0.2609
  519MPD2    H3 7714   1.647   3.124  14.554 -0.5800 -3.3160  0.8932
  519MPD2     N 7715   1.555   2.908  14.160 -0.8199 -0.1165 -0.2201
  519MPD2    H5 7716   1.637   2.849  14.174 -1.4268 -0.5864  1.4350
  519MPD2    N1 7717   1.266   3.250  14.362 -0.3278  0.1819  0.1710
  519MPD2    H7 7718   1.235   3.282  14.453  0.5011  1.2991  0.0550
  520TMC3    C1 7719   1.513   2.745  13.998  0.0093 -0.1590 -0.1242
  520TMC3    C2 7720   1.408   2.680  13.930 -0.5631 -0.3313  0.1025
  520TMC3    C3 7721   1.424   2.551  13.901  0.2645  0.3563 -0.2699
  520TMC3    C4 7722   1.627   2.676  14.038 -0.1446 -0.2478 -0.0663
  520TMC3    C5 7723   1.633   2.546  14.001 -0.1738 -0.3544 -0.5772
  520TMC3    C6 7724   1.539   2.484  13.927 -0.4788  0.3708 -0.2158
  520TMC3     C 7725   1.486   2.878  14.051 -0.0176 -0.0468 -0.1814
  520TMC3     O 7726   1.377   2.918  14.025 -0.1640 -0.2072  0.5904
  520TMC3     H 7727   1.320   2.734  13.900  0.3873  0.3889 -1.4038
  520TMC3    H1 7728   1.703   2.722  14.102 -0.5783  0.7655 -0.2832
  520TMC3    H2 7729   1.532   2.376  13.924 -0.4478  0.3816 -0.6492
  520TMC3    C7 7730   1.730   2.464  14.068 -0.6623 -0.3311 -0.7662
  520TMC3    C8 7731   1.309   2.476  13.867  0.2905 -0.4566  0.3851
  520TMC3    O1 7732   1.767   2.491  14.184  0.4986  0.1801  0.1682
  520TMC3    O2 7733   1.329   2.383  13.790 -0.5079  0.4972  0.4215
  521MPD2     C 7734   2.245   0.909   0.010 -0.4733 -0.2985  0.6236
  521MPD2    C1 7735   2.243   0.868  17.577  0.0376 -0.0832  0.3790
  521MPD2    C2 7736   2.350   0.894  17.495 -0.1962 -0.6613  0.2885
  521MPD2    C3 7737   2.473   0.931  17.544  0.3519  0.4030  0.1480
  521MPD2    C4 7738   2.476   0.976  17.675 -0.2719 -0.7243  0.2879
  521MPD2    C5 7739   2.366   0.958   0.061  0.1022  0.1165 -0.3734
  521MPD2     H 7740   2.356   0.863  17.391  2.6103  1.1116 -0.0790
  521MPD2    H1 7741   2.570   1.009   0.020  0.5658 -1.9577 -0.6028
  521MPD2    H2 7742   2.166   0.878   0.078 -1.2163 -1.3167 -0.7003
  521MPD2    H3 7743   2.380   0.983   0.166  1.0336 -2.0099  0.0217
  521MPD2     N 7744   2.579   0.934  17.456 -0.2923  0.4886  0.6558
  521MPD2    H5 7745   2.554   0.924  17.359 -0.3956  1.5605  0.5734
  521MPD2    N1 7746   2.120   0.809  17.541  0.4576 -0.9684  0.1680
  521MPD2    H7 7747   2.054   0.795  17.616 -1.5750  1.2248 -1.2072
  522TMC3    C1 7748   2.802   0.939  17.374  0.4542  0.0643 -0.2377
  522TMC3    C2 7749   2.916   0.870  17.405 -0.9815 -0.5995  0.4409
  522TMC3    C3 7750   2.965   0.805  17.297 -0.1415 -0.1500 -0.2674
  522TMC3    C4 7751   2.752   0.951  17.249 -1.0541  0.3304 -0.1371
  522TMC3    C5 7752   2.816   0.892  17.142  0.7729 -0.2597 -0.4336
  522TMC3    C6 7753   2.918   0.812  17.168  0.7241 -0.0077  0.2465
  522TMC3     C 7754   2.710   0.954  17.484  0.1374  0.0366  0.2602
  522TMC3     O 7755   2.752   0.966  17.599 -0.2572 -0.5672  0.3364
  522TMC3     H 7756   2.977   0.885  17.494 -0.9846  0.4183  0.2772
  522TMC3    H1 7757   2.673   1.022  17.231 -1.2898  0.6406  2.2011
  522TMC3    H2 7758   2.957   0.751  17.088 -1.4241  0.4893 -1.1764
  522TMC3    C7 7759   2.786   0.911  17.000 -0.2505  0.4340  0.1520
  522TMC3    C8 7760   3.071   0.710  17.329  0.2612  0.3428  0.3963
  522TMC3    O1 7761   2.878   0.887  16.922 -0.6473 -0.1533 -0.8198
  522TMC3    O2 7762   3.080   0.685  17.448 -0.4229 -0.5194 -0.5206
  523MPD2     C 7763   4.510   0.270   9.958 -0.9979  0.1586 -0.0776
  523MPD2    C1 7764   4.621   0.250  10.033 -0.3843 -1.0828  0.2133
  523MPD2    C2 7765   4.637   0.331  10.146 -0.3288  0.1014  0.6155
  523MPD2    C3 7766   4.552   0.430  10.190 -0.5894 -0.3603 -0.3766
  523MPD2    C4 7767   4.449   0.448  10.109  0.2132  0.2113  0.5123
  523MPD2    C5 7768   4.426   0.361  10.007 -0.1395 -0.6806 -0.6268
  523MPD2     H 7769   0.002   0.316  10.207  2.0028  0.6498 -2.6677
  523MPD2    H1 7770   4.386   0.533  10.133 -0.9416 -0.0976 -1.4380
  523MPD2    H2 7771   4.484   0.210   9.871 -0.7337  3.5730 -2.5056
  523MPD2    H3 7772   4.338   0.391   9.951 -0.6433 -1.5943 -0.3307
  523MPD2     N 7773   4.591   0.535  10.278 -0.1304 -0.5543 -0.0541
  523MPD2    H5 7774   4.536   0.620  10.276  0.8943  0.0842 -0.9060
  523MPD2    N1 7775   0.003   0.155  10.002  0.2383  0.6842 -0.3139
  523MPD2    H7 7776   4.707   0.092   9.925 -2.0973  1.5897 -0.4719
  524TMC3    C1 7777   0.022   0.674  10.389 -0.3127 -0.1321  0.0220
  524TMC3    C2 7778   0.151   0.700  10.367  0.0097 -0.5292 -0.0224
  524TMC3    C3 7779   0.192   0.835  10.367 -0.1050  0.2553  0.2524
  524TMC3    C4 7780   4.657   0.771  10.429  0.1891  0.7900  0.1029
  524TMC3    C5 7781   4.706   0.894  10.417  0.1158 -0.0915 -0.2002
  524TMC3    C6 7782   0.109   0.940  10.387 -0.1234 -0.0396 -0.0706
  524TMC3     C 7783   4.699   0.538  10.358 -0.5467  0.0096  0.6087
  524TMC3     O 7784   0.065   0.457  10.376  0.0030  0.2933 -0.5816
  524TMC3     H 7785   0.209   0.626  10.313  0.1759  1.6330 -2.8211
  524TMC3    H1 7786   4.553   0.760  10.454  0.5377  1.0114  1.6473
  524TMC3    H2 7787   0.140   1.043  10.391 -0.6771  0.0859  1.1270
  524TMC3    C7 7788   4.605   0.989  10.435 -0.6453  0.1507  0.4315
  524TMC3    C8 7789   0.321   0.870  10.321 -0.3151  0.5010 -0.4981
  524TMC3    O1 7790   4.518   0.965  10.518  0.0760 -0.0968  0.4834
  524TMC3    O2 7791   0.332   0.981  10.264 -0.6230 -0.0562 -0.2114
  525MPD2     C 7792   2.535   2.444  14.592  0.6305  0.1336  0.7892
  525MPD2    C1 7793   2.666   2.439  14.638 -0.2669 -0.1102  0.9336
  525MPD2    C2 7794   2.752   2.536  14.606 -0.1812  0.0800 -0.1471
  525MPD2    C3 7795   2.713   2.641  14.514 -0.6763 -0.1498  0.4204
  525MPD2    C4 7796   2.586   2.639  14.467 -0.3789  0.0854  0.4216
  525MPD2    C5 7797   2.499   2.539  14.505  0.2068  0.7619  0.2526
  525MPD2     H 7798   2.855   2.536  14.640 -0.0273  1.7381 -0.6325
  525MPD2    H1 7799   2.555   2.728  14.413 -0.1998 -0.3503 -0.4015
  525MPD2    H2 7800   2.467   2.362  14.613  0.0857  0.4594  0.2998
  525MPD2    H3 7801   2.396   2.554  14.472  0.5778  1.5468 -0.5437
  525MPD2     N 7802   2.790   2.756  14.491 -0.5075  0.5109 -0.6157
  525MPD2    H5 7803   2.742   2.841  14.462 -0.3270  1.1849  1.0615
  525MPD2    N1 7804   2.715   2.335  14.721 -0.3590  0.0849  0.1322
  525MPD2    H7 7805   2.809   2.333  14.759  0.8645 -1.8625 -2.9869
  526TMC3    C1 7806   2.731   2.143  14.843  0.0881 -0.1850  1.3770
  526TMC3    C2 7807   2.675   2.081  14.950 -0.3894 -0.5999  0.6604
  526TMC3    C3 7808   2.749   2.004  15.034  0.4825 -0.2146  0.5479
  526TMC3    C4 7809   2.867   2.133  14.820 -0.3931  0.0170 -0.2323
  526TMC3    C5 7810   2.931   2.053  14.906 -0.1206 -0.0555 -0.4090
  526TMC3    C6 7811   2.880   1.996  15.016  0.1009  1.0722 -0.2891
  526TMC3     C 7812   2.647   2.235  14.778 -0.2712  0.0638 -0.7927
  526TMC3     O 7813   2.530   2.202  14.779  0.2187 -0.2479 -0.1729
  526TMC3     H 7814   2.571   2.102  14.970 -1.0641 -1.8384 -1.5723
  526TMC3    H1 7815   2.912   2.175  14.730  0.3444  1.1542  0.6680
  526TMC3    H2 7816   2.946   1.957  15.094 -1.7494 -0.3086  0.6036
  526TMC3    C7 7817   3.075   2.034  14.897 -0.6638  0.1219 -0.0364
  526TMC3    C8 7818   2.710   2.001  15.170 -0.3160  0.2677 -0.3842
  526TMC3    O1 7819   3.135   2.047  14.999 -0.0316 -0.2820  0.3680
  526TMC3    O2 7820   2.795   1.993  15.259  0.1904 -0.7822 -0.2462
  527MPD2     C 7821   0.466   1.032   1.163 -0.2816 -0.3494  0.2948
  527MPD2    C1 7822   0.453   0.892   1.181 -0.6189 -0.3048  0.3751
  527MPD2    C2 7823   0.529   0.808   1.097  0.5375 -0.1227  0.4935
  527MPD2    C3 7824   0.599   0.859   0.991 -0.5887 -0.6640  0.2705
  527MPD2    C4 7825   0.614   1.000   0.979 -0.5834 -0.1389  0.2089
  527MPD2    C5 7826   0.545   1.079   1.059 -0.4065 -0.2981 -0.2300
  527MPD2     H 7827   0.514   0.702   1.111 -2.2523  0.0889 -0.9177
  527MPD2    H1 7828   0.676   1.038   0.898  0.6380 -0.8134  0.8509
  527MPD2    H2 7829   0.408   1.104   1.220 -1.5086 -2.6234  1.9044
  527MPD2    H3 7830   0.557   1.186   1.049  2.5551 -0.8851 -2.8815
  527MPD2     N 7831   0.664   0.775   0.899  0.1781 -0.3316 -0.0161
  527MPD2    H5 7832   0.652   0.675   0.916  1.4472 -0.5737 -0.4879
  527MPD2    N1 7833   0.362   0.833   1.268  0.2805  0.3209  0.6102
  527MPD2    H7 7834   0.380   0.739   1.302 -1.6967 -0.7169 -1.2022
  528TMC3    C1 7835   0.176   0.831   1.412 -0.2299 -0.1587 -0.1151
  528TMC3    C2 7836   0.234   0.756   1.506 -0.4729 -0.5051 -0.0237
  528TMC3    C3 7837   0.160   0.695   1.603  0.4583 -0.5985  0.0987
  528TMC3    C4 7838   0.036   0.841   1.403 -0.5098  0.5846 -0.0141
  528TMC3    C5 7839   4.687   0.780   1.505 -0.5190  0.2343 -0.7341
  528TMC3    C6 7840   0.023   0.703   1.606  0.1616 -0.1251  0.9546
  528TMC3     C 7841   0.251   0.896   1.305 -0.1020  0.1361 -0.2995
  528TMC3     O 7842   0.198   0.997   1.254 -0.1238 -0.9071  0.6664
  528TMC3     H 7843   0.342   0.752   1.498 -0.4693  1.8010 -1.1440
  528TMC3    H1 7844   4.717   0.905   1.327 -1.2129 -1.1335 -1.0738
  528TMC3    H2 7845   4.687   0.670   1.689  0.4874  0.8535  1.5706
  528TMC3    C7 7846   4.539   0.795   1.507  0.0851 -0.2863  0.0851
  528TMC3    C8 7847   0.237   0.649   1.721  0.4589  0.0832 -0.1899
  528TMC3    O1 7848   4.474   0.750   1.600 -0.5478 -0.0666 -0.2363
  528TMC3    O2 7849   0.345   0.702   1.734 -0.1048  0.3703  0.6144
  529MPD2     C 7850   3.052   3.819   0.575 -0.0894  0.7156  0.3907
  529MPD2    C1 7851   2.940   3.814   0.488  0.0861 -0.2195  0.3593
  529MPD2    C2 7852   2.905   3.927   0.412  0.2488  0.7464  0.0261
  529MPD2    C3 7853   2.977   4.044   0.431 -0.3627  0.0550  0.0959
  529MPD2    C4 7854   3.090   4.040   0.516 -0.0583 -0.7519  0.4335
  529MPD2    C5 7855   3.121   3.932   0.595  0.4613 -0.0566 -0.1509
  529MPD2     H 7856   2.813   3.934   0.355  0.0616  1.3185  0.3940
  529MPD2    H1 7857   3.143   4.131   0.539  0.3582 -0.8658 -0.0743
  529MPD2    H2 7858   3.069   3.739   0.646 -2.3362  1.1856  1.4717
  529MPD2    H3 7859   3.200   3.935   0.669  0.3041  0.7940 -0.0156
  529MPD2     N 7860   2.950   4.167   0.364 -0.4334  0.0060  0.1535
  529MPD2    H5 7861   3.024   4.235   0.379  1.0517 -1.5579 -0.0111
  529MPD2    N1 7862   2.850   3.706   0.487 -0.2229 -0.1560 -0.0533
  529MPD2    H7 7863   2.770   3.710   0.424  0.7630 -2.9548 -1.5022
  530TMC3    C1 7864   2.761   3.496   0.574 -0.1469  0.8032 -0.4496
  530TMC3    C2 7865   2.792   3.371   0.614  0.3733  0.5692 -1.1100
  530TMC3    C3 7866   2.689   3.307   0.673  0.3256  0.3583 -0.0598
  530TMC3    C4 7867   2.642   3.562   0.588  0.3426  0.2810 -0.7264
  530TMC3    C5 7868   2.542   3.484   0.645  0.2504 -0.3623  0.0057
  530TMC3    C6 7869   2.568   3.357   0.692 -0.1983 -0.3040 -0.4132
  530TMC3     C 7870   2.875   3.587   0.559  0.2962 -0.2515 -0.8047
  530TMC3     O 7871   2.978   3.543   0.612 -0.2146 -0.4467  0.5925
  530TMC3     H 7872   2.891   3.329   0.606 -0.5601 -1.4494 -2.0257
  530TMC3    H1 7873   2.625   3.665   0.559 -1.3527  0.2506  0.2082
  530TMC3    H2 7874   2.509   3.299   0.761 -1.0781  1.3407  0.2227
  530TMC3    C7 7875   2.408   3.535   0.648 -0.0295  0.1416 -0.1001
  530TMC3    C8 7876   2.716   3.176   0.702 -0.1914  0.4264  0.2124
  530TMC3    O1 7877   2.389   3.655   0.627 -0.0472  0.2477  0.1741
  530TMC3    O2 7878   2.635   3.085   0.705  1.0984  0.1091  0.5272
  531MPD2     C 7879   2.251   1.196  12.911 -0.3334  0.0062  0.1926
  531MPD2    C1 7880   2.130   1.155  12.962  0.2235 -0.0989  0.2739
  531MPD2    C2 7881   2.024   1.134  12.885 -0.1010 -0.3509  0.3172
  531MPD2    C3 7882   2.036   1.148  12.745 -0.0598 -0.1994 -0.4592
  531MPD2    C4 7883   2.159   1.178  12.687 -0.3712  0.3445 -0.1878
  531MPD2    C5 7884   2.266   1.206  12.772  0.2671  0.0428 -0.3594
  531MPD2     H 7885   1.930   1.100  12.927  0.1170  0.6386  1.6027
  531MPD2    H1 7886   2.172   1.191  12.581  1.0266 -1.8236 -0.2974
  531MPD2    H2 7887   2.340   1.222  12.967  0.9391  1.1285 -2.3541
  531MPD2    H3 7888   2.363   1.225  12.730 -0.0255  1.0953 -0.5644
  531MPD2     N 7889   1.922   1.119  12.673  0.1087 -0.1430 -0.2416
  531MPD2    H5 7890   1.848   1.080  12.730 -0.1349 -1.7369 -1.6461
  531MPD2    N1 7891   2.131   1.135  13.104 -0.1113 -0.0314  0.0957
  531MPD2    H7 7892   2.214   1.162  13.156 -0.2226  0.9389 -0.2172
  532TMC3    C1 7893   2.031   1.086  13.314  0.0760 -0.6220  0.8618
  532TMC3    C2 7894   1.912   1.036  13.368 -0.1375 -0.1717  0.2408
  532TMC3    C3 7895   1.854   1.112  13.467  0.0549  0.0263 -0.1984
  532TMC3    C4 7896   2.094   1.193  13.363  0.8102 -0.3410 -0.0569
  532TMC3    C5 7897   2.055   1.240  13.483  0.2153 -0.4721 -0.0414
  532TMC3    C6 7898   1.933   1.204  13.535 -0.0921  0.1476  0.2158
  532TMC3     C 7899   2.025   1.076  13.169 -0.4750 -0.2954  0.2033
  532TMC3     O 7900   1.913   1.046  13.134  0.2733 -0.1998  0.0553
  532TMC3     H 7901   1.866   0.949  13.323  0.1333  0.3744 -1.1078
  532TMC3    H1 7902   2.195   1.213  13.327  0.5046 -2.4387 -2.1058
  532TMC3    H2 7903   1.894   1.242  13.629  1.6981  2.7347 -0.0736
  532TMC3    C7 7904   2.153   1.295  13.571  0.0400  0.3093 -0.3546
  532TMC3    C8 7905   1.723   1.155  13.433 -0.0691  0.4896 -0.5888
  532TMC3    O1 7906   2.135   1.399  13.634 -0.1060  0.8474 -0.3266
  532TMC3    O2 7907   1.651   1.210  13.512  0.1073  0.5585  0.3964
  533TMC3    C1 7908   2.954   2.914  14.523 -0.4953  0.1970  0.4312
  533TMC3    C2 7909   3.083   2.958  14.502  0.0935 -0.3050 -1.1514
  533TMC3    C3 7910   3.115   3.087  14.534  0.2195  0.7146  0.0202
  533TMC3    C4 7911   2.856   2.989  14.582  0.0754  0.3641  0.5219
  533TMC3    C5 7912   2.894   3.111  14.623 -0.1283  0.2623 -0.0248
  533TMC3    C6 7913   3.020   3.161  14.596  0.5991 -0.1163  0.2105
  533TMC3     C 7914   2.919   2.771  14.521  0.2096  0.1921  0.1712
  533TMC3     O 7915   3.014   2.689  14.532  0.0182 -0.0051 -0.3364
  533TMC3     H 7916   3.153   2.898  14.445  1.1450  1.0319 -1.2583
  533TMC3    H1 7917   2.765   2.941  14.615 -0.6078  0.1494 -1.7431
  533TMC3    H2 7918   3.051   3.259  14.630  2.3058 -0.3535 -0.6595
  533TMC3    C7 7919   2.834   3.168  14.738  1.0162  0.1560  0.0099
  533TMC3    C8 7920   3.242   3.154  14.514 -0.6716 -0.2195 -0.1596
  533TMC3    O1 7921   2.842   3.286  14.759 -0.2308  0.3629  0.0820
  533TMC3    O2 7922   3.247   3.274  14.534 -0.1276  0.6328 -0.5280
  534MPD2     C 7923   4.363   4.599   1.749  0.4529 -0.0823  0.1356
  534MPD2    C1 7924   4.445   4.610   1.643  0.1631  0.0421  0.3486
  534MPD2    C2 7925   4.410   4.545   1.532 -0.3532  0.1092  0.7379
  534MPD2    C3 7926   4.289   4.476   1.527  0.2665  0.5353 -0.1519
  534MPD2    C4 7927   4.206   4.465   1.634  0.4264 -0.0254 -0.3423
  534MPD2    C5 7928   4.252   4.519   1.749  0.1810 -0.3858 -0.4008
  534MPD2     H 7929   4.473   4.556   1.444  1.2336 -0.9869  1.7364
  534MPD2    H1 7930   4.115   4.408   1.625  0.2383  0.1871  0.2473
  534MPD2    H2 7931   4.386   4.659   1.836  1.4621  0.3287 -0.4220
  534MPD2    H3 7932   4.193   4.516   1.840 -0.4075 -0.2517 -0.7779
  534MPD2     N 7933   4.238   4.418   1.412 -0.0150  0.2480 -0.4609
  534MPD2    H5 7934   4.145   4.376   1.410 -0.1883  0.6806 -2.3317
  534MPD2    N1 7935   4.573   4.670   1.657  0.1201 -0.2031  0.0999
  534MPD2    H7 7936   4.632   4.669   1.574  0.8673 -0.9784  0.6423
  535TMC3    C1 7937   4.239   4.313   1.193 -0.2001  0.4641 -0.2680
  535TMC3    C2 7938   4.179   4.200   1.239 -1.1201 -0.3613  0.5976
  535TMC3    C3 7939   4.192   4.084   1.170 -0.1268 -0.0335  0.3629
  535TMC3    C4 7940   4.321   4.302   1.080 -0.2451  0.7420  0.3101
  535TMC3    C5 7941   4.342   4.179   1.020  0.2875  0.3454 -0.4295
  535TMC3    C6 7942   4.266   4.070   1.054  0.4763  0.0441  0.5067
  535TMC3     C 7943   4.305   4.406   1.295  0.8504 -0.4852  0.0423
  535TMC3     O 7944   4.422   4.435   1.263  0.0305  0.1992 -0.0685
  535TMC3     H 7945   4.119   4.197   1.330 -3.2064  0.6870 -0.7305
  535TMC3    H1 7946   4.387   4.383   1.051  1.8400 -0.6136  1.2796
  535TMC3    H2 7947   4.279   3.982   0.991 -0.3730  0.4814 -0.2764
  535TMC3    C7 7948   4.469   4.152   0.949  0.3778  0.0527 -0.0140
  535TMC3    C8 7949   4.136   3.969   1.225 -0.3780  0.2568 -0.5958
  535TMC3    O1 7950   4.500   4.034   0.935 -0.8178  0.0627  0.1800
  535TMC3    O2 7951   4.028   3.970   1.284 -0.0332  0.5259  0.2794
  536MPD2     C 7952   4.414   2.322  16.273 -0.6706  0.0498 -0.4201
  536MPD2    C1 7953   4.290   2.260  16.263 -0.3910 -0.3874 -0.3202
  536MPD2    C2 7954   4.210   2.264  16.149  0.0071 -0.0154 -0.4204
  536MPD2    C3 7955   4.245   2.344  16.044 -0.2614  0.3908  0.5879
  536MPD2    C4 7956   4.363   2.417  16.055 -0.1412 -0.1842 -0.3339
  536MPD2    C5 7957   4.448   2.393  16.163  0.5909 -0.7229 -0.5422
  536MPD2     H 7958   4.124   2.200  16.138  0.6745 -1.3497  2.2014
  536MPD2    H1 7959   4.405   2.467  15.968 -1.2633  0.8741 -0.2719
  536MPD2    H2 7960   4.485   2.311  16.354  1.5451 -0.5103 -2.4041
  536MPD2    H3 7961   4.548   2.437  16.171  0.2233  0.2646 -1.3833
  536MPD2     N 7962   4.154   2.358  15.937  0.2019 -1.2812  0.2460
  536MPD2    H5 7963   4.066   2.306  15.937  1.5706 -3.6000  1.0165
  536MPD2    N1 7964   4.265   2.170  16.373 -0.1148  0.0163 -0.0231
  536MPD2    H7 7965   4.337   2.147  16.440 -0.9096  0.8766  1.1318
  537TMC3    C1 7966   4.167   2.002  16.499 -0.0175  0.7262 -0.3172
  537TMC3    C2 7967   4.199   2.063  16.620  0.0237  0.1476 -0.2014
  537TMC3    C3 7968   4.160   1.994  16.731 -0.1514 -0.1999  0.8347
  537TMC3    C4 7969   4.103   1.884  16.485  0.7237 -0.2265 -0.3187
  537TMC3    C5 7970   4.079   1.819  16.602  0.2912  0.3710 -0.4285
  537TMC3    C6 7971   4.106   1.877  16.720 -0.1547 -0.6294  0.6055
  537TMC3     C 7972   4.152   2.092  16.388  0.2089  0.6919  0.2850
  537TMC3     O 7973   4.058   2.087  16.312  0.1832 -0.0386 -0.2985
  537TMC3     H 7974   4.237   2.164  16.631 -1.0962  0.6645 -1.0717
  537TMC3    H1 7975   4.073   1.837  16.392 -0.2980  1.6759 -0.9419
  537TMC3    H2 7976   4.062   1.831  16.808 -0.3733  0.2089  0.9317
  537TMC3    C7 7977   4.012   1.695  16.597 -0.3520 -0.1340 -0.1408
  537TMC3    C8 7978   4.128   2.079  16.848 -0.5847 -0.7431  0.3348
  537TMC3    O1 7979   3.939   1.669  16.502  0.4423 -0.4301  0.2106
  537TMC3    O2 7980   4.130   2.010  16.951  0.2626 -0.0470 -0.0920
  538TMC3    C1 7981   0.722   0.493  10.903 -0.7297 -0.3733 -0.6317
  538TMC3    C2 7982   0.773   0.380  10.834 -0.2204  0.2692  0.4735
  538TMC3    C3 7983   0.746   0.375  10.699  0.3217 -0.2365 -0.6373
  538TMC3    C4 7984   0.659   0.597  10.838  0.3053  0.2424 -0.3853
  538TMC3    C5 7985   0.647   0.589  10.699 -0.0265 -0.0767 -0.8318
  538TMC3    C6 7986   0.687   0.476  10.632 -0.5547  0.3552  0.4294
  538TMC3     C 7987   0.674   0.475  11.040 -0.5573  0.2401 -0.1170
  538TMC3     O 7988   0.587   0.552  11.079 -0.0637 -0.2023 -0.4157
  538TMC3     H 7989   0.815   0.294  10.884 -1.2444  0.0140  0.9064
  538TMC3    H1 7990   0.615   0.675  10.899  0.3697 -0.1548  0.1785
  538TMC3    H2 7991   0.669   0.477  10.525  1.0949  1.0201  0.1662
  538TMC3    C7 7992   0.527   0.643  10.653 -0.7257 -0.6219  0.2987
  538TMC3    C8 7993   0.818   0.271  10.620 -0.1853 -0.2997  0.1385
  538TMC3    O1 7994   0.453   0.587  10.568 -0.2907  0.3347  0.3686
  538TMC3    O2 7995   0.910   0.215  10.682 -0.2200 -0.0633  0.6474
  539MPD2     C 7996   0.489   4.394  11.921  0.4153 -0.6079 -0.7693
  539MPD2    C1 7997   0.425   4.396  11.794  0.6295  0.3256  0.4762
  539MPD2    C2 7998   0.341   4.505  11.765  0.3502 -1.0065 -0.1949
  539MPD2    C3 7999   0.344   4.618  11.840  0.2098  0.0343  0.3136
  539MPD2    C4 8000   0.414   4.622  11.962  0.5717  0.2659  0.9749
  539MPD2    C5 8001   0.481   4.511  11.998 -0.5539  0.0559  0.5100
  539MPD2     H 8002   0.289   4.498  11.670 -2.1133 -2.6072  1.2653
  539MPD2    H1 8003   0.418   4.715  12.017 -0.0447 -0.0839  1.6192
  539MPD2    H2 8004   0.555   4.315  11.953  0.0208 -1.2383 -1.5124
  539MPD2    H3 8005   0.550   4.512  12.082  1.1063 -1.7138 -0.8208
  539MPD2     N 8006   0.272   0.009  11.806  0.0739  0.1648 -1.0264
  539MPD2    H5 8007   0.289   0.097  11.854 -0.8546 -0.1217 -0.1583
  539MPD2    N1 8008   0.450   4.293  11.701 -0.0923 -0.1454  0.2996
  539MPD2    H7 8009   0.410   4.303  11.609 -1.6074  1.0429  1.0879
  540TMC3    C1 8010   0.155   0.158  11.660  0.2629  0.2594  0.7220
  540TMC3    C2 8011   0.109   0.188  11.531 -0.3313  0.4874  0.0602
  540TMC3    C3 8012   0.049   0.311  11.511 -0.8672 -0.0039  0.1479
  540TMC3    C4 8013   0.123   0.236  11.766 -0.1870 -0.1447 -1.0079
  540TMC3    C5 8014   0.069   0.359  11.737 -0.3764 -0.1859 -0.3976
  540TMC3    C6 8015   0.035   0.402  11.612 -0.8216  0.2928 -0.8452
  540TMC3     C 8016   0.198   0.021  11.687  0.1586  0.3191 -0.0967
  540TMC3     O 8017   0.157   4.655  11.616  0.2259  0.0917  0.5002
  540TMC3     H 8018   0.130   0.116  11.452 -3.3685  1.3508 -1.5519
  540TMC3    H1 8019   0.134   0.196  11.866  0.0870  1.1829 -0.5072
  540TMC3    H2 8020   0.003   0.499  11.578  4.0603  1.5079 -2.0406
  540TMC3    C7 8021   4.709   0.420  11.840 -0.3693  0.5416  0.2138
  540TMC3    C8 8022   0.096   0.369  11.379 -0.0421  0.0827  0.3490
  540TMC3    O1 8023   4.695   0.360  11.950  0.0377 -0.1258 -0.8990
  540TMC3    O2 8024   0.143   0.487  11.381  0.2333  0.0404 -0.8550
  541MPD2     C 8025   3.771   1.381  13.165  0.5538 -0.1390  0.0695
  541MPD2    C1 8026   3.665   1.465  13.179 -0.3949 -0.1361 -0.6963
  541MPD2    C2 8027   3.619   1.546  13.079  0.0911 -0.8826 -0.0330
  541MPD2    C3 8028   3.689   1.548  12.960 -0.5358  0.2918 -0.4659
  541MPD2    C4 8029   3.793   1.460  12.939 -0.5859  0.0607 -0.7976
  541MPD2    C5 8030   3.839   1.376  13.043 -0.1857 -0.0251  0.0652
  541MPD2     H 8031   3.529   1.606  13.082  0.0862 -0.7431 -2.5061
  541MPD2    H1 8032   3.848   1.457  12.846 -1.0670  2.0277 -1.1266
  541MPD2    H2 8033   3.802   1.316  13.246 -2.4676 -0.0089  1.3339
  541MPD2    H3 8034   3.918   1.302  13.043  0.4264  0.6243  0.0331
  541MPD2     N 8035   3.656   1.621  12.846  0.0063  0.8508  0.2345
  541MPD2    H5 8036   3.702   1.608  12.756  1.5288 -1.0687  1.2657
  541MPD2    N1 8037   3.593   1.442  13.299  0.2185  0.0320 -0.0876
  541MPD2    H7 8038   3.618   1.362  13.356  0.6028  0.2969  0.1138
  542TMC3    C1 8039   3.542   1.777  12.713  0.1686 -0.1205  0.0516
  542TMC3    C2 8040   3.622   1.757  12.605  0.4023  0.0631 -0.8396
  542TMC3    C3 8041   3.611   1.841  12.496 -0.1432 -0.7867 -0.6214
  542TMC3    C4 8042   3.441   1.870  12.699  0.0373 -0.0438  0.1231
  542TMC3    C5 8043   3.430   1.954  12.595 -0.4959 -0.2215 -1.2662
  542TMC3    C6 8044   3.506   1.928  12.483  0.4886 -0.2944 -0.2760
  542TMC3     C 8045   3.560   1.724  12.847 -0.1851  0.2783 -0.0662
  542TMC3     O 8046   3.508   1.771  12.945 -0.1067  0.0821 -0.0976
  542TMC3     H 8047   3.696   1.678  12.607 -2.8611 -2.9564  0.1202
  542TMC3    H1 8048   3.374   1.880  12.784 -2.7979 -0.9648 -1.9926
  542TMC3    H2 8049   3.480   1.977  12.390 -2.4233  1.2075  1.3451
  542TMC3    C7 8050   3.307   2.028  12.577  0.4509 -0.0112 -0.3408
  542TMC3    C8 8051   3.669   1.792  12.370 -0.4067 -0.3901  0.3630
  542TMC3    O1 8052   3.212   1.989  12.646 -0.8118 -0.2027  0.2201
  542TMC3    O2 8053   3.588   1.815  12.279 -0.6263 -0.0124 -0.4869
  543TMC3    C1 8054   2.672   3.085  16.698  0.8719 -0.2406 -0.3680
  543TMC3    C2 8055   2.547   3.040  16.722 -0.0666 -0.7402  0.1715
  543TMC3    C3 8056   2.503   3.042  16.850 -0.6849  0.0602 -0.6064
  543TMC3    C4 8057   2.752   3.126  16.803  0.4842 -0.4980 -0.4634
  543TMC3    C5 8058   2.705   3.134  16.930  0.5758  0.3079  0.5724
  543TMC3    C6 8059   2.577   3.089  16.952  0.1531  0.4308 -0.0497
  543TMC3     C 8060   2.747   3.019  16.588  0.4705 -0.0553  0.1942
  543TMC3     O 8061   2.868   2.992  16.608 -0.2924 -0.4747  0.1243
  543TMC3     H 8062   2.482   3.006  16.642  1.0360 -0.6124 -0.7785
  543TMC3    H1 8063   2.858   3.139  16.786  0.2830  2.2733  0.3088
  543TMC3    H2 8064   2.537   3.076  17.052  0.7863 -1.6907 -0.0656
  543TMC3    C7 8065   2.782   3.217  17.023  0.2096 -0.0144 -0.1597
  543TMC3    C8 8066   2.437   2.919  16.876 -0.0378  0.2303  0.2334
  543TMC3    O1 8067   2.886   3.260  16.982  0.0399 -0.0751  0.4574
  543TMC3    O2 8068   2.454   2.834  16.788 -0.4566  0.1385 -0.0708
  544MPD2     C 8069   2.183   2.579  17.174  0.0643  0.0460 -0.4505
  544MPD2    C1 8070   2.262   2.560  17.060  0.6134  0.0897  0.2299
  544MPD2    C2 8071   2.331   2.666  17.006  0.1284  0.0219 -0.3814
  544MPD2    C3 8072   2.306   2.796  17.048  0.2398  0.3569 -0.5825
  544MPD2    C4 8073   2.214   2.809  17.150  0.4394  0.3282  0.0211
  544MPD2    C5 8074   2.162   2.704  17.218  0.5006 -0.3993 -0.5296
  544MPD2     H 8075   2.406   2.647  16.930  2.0747 -1.3843  1.8711
  544MPD2    H1 8076   2.187   2.906  17.190 -1.2921 -0.6888  1.3323
  544MPD2    H2 8077   2.143   2.496  17.231 -1.5872  0.0499 -1.6073
  544MPD2    H3 8078   2.110   2.715  17.313  0.6570 -0.1717 -0.4717
  544MPD2     N 8079   2.370   2.910  16.999 -0.8073  0.5520 -0.0082
  544MPD2    H5 8080   2.358   2.993  17.056  2.0464 -0.1177  1.5762
  544MPD2    N1 8081   2.283   2.432  17.007 -0.6598 -0.1649  0.3520
  544MPD2    H7 8082   2.226   2.360  17.049  0.4952 -0.9267  0.6050
  545TMC3    C1 8083   2.337   2.258  16.869  0.6306  0.4584  0.2764
  545TMC3    C2 8084   2.438   2.230  16.784 -0.2401 -0.2695  0.2003
  545TMC3    C3 8085   2.537   2.136  16.825 -0.0895 -0.5388  0.4339
  545TMC3    C4 8086   2.330   2.181  16.985  0.4328  0.2448  0.1510
  545TMC3    C5 8087   2.411   2.074  17.003 -0.9069  0.4162 -0.1781
  545TMC3    C6 8088   2.520   2.052  16.925  1.1173  0.6286  0.0866
  545TMC3     C 8089   2.332   2.395  16.888 -0.4595 -0.3962  0.4327
  545TMC3     O 8090   2.380   2.468  16.806 -0.0123 -0.6918 -0.1955
  545TMC3     H 8091   2.438   2.286  16.691  2.2243 -0.7450 -0.0942
  545TMC3    H1 8092   2.247   2.192  17.054 -0.5201  2.4301 -1.3301
  545TMC3    H2 8093   2.595   1.979  16.951 -0.2882 -0.9945 -0.3665
  545TMC3    C7 8094   2.383   1.994  17.125 -0.8933  0.3547  0.4062
  545TMC3    C8 8095   2.675   2.179  16.795 -0.0181  0.6680  0.1772
  545TMC3    O1 8096   2.292   2.034  17.198 -0.5379 -0.3955  0.0017
  545TMC3    O2 8097   2.761   2.096  16.802  0.6243  0.3097  0.0419
  546MPD2     C 8098   3.836   2.400   0.003  0.0044  0.1097 -0.0689
  546MPD2    C1 8099   3.872   2.470  17.590 -0.8545 -0.9050 -0.6325
  546MPD2    C2 8100   3.916   2.598  17.606 -0.8897 -0.7017 -0.8860
  546MPD2    C3 8101   3.934   2.657   0.026  0.2798 -0.4505  0.0276
  546MPD2    C4 8102   3.895   2.588   0.140 -0.5499 -0.3242  0.2446
  546MPD2    C5 8103   3.851   2.460   0.124  0.2348 -0.0524 -0.1640
  546MPD2     H 8104   3.953   2.646  17.516  0.4002 -0.4943 -0.2423
  546MPD2    H1 8105   3.914   2.616   0.243  0.0828 -1.2684  0.3900
  546MPD2    H2 8106   3.806   2.297  17.687 -0.8681  0.3440  0.1006
  546MPD2    H3 8107   3.816   2.407   0.211  0.1620  0.7219  0.2780
  546MPD2     N 8108   3.997   2.783   0.051 -0.2420  0.8853  0.0038
  546MPD2    H5 8109   4.009   2.809   0.148 -3.5978 -1.6034  1.0567
  546MPD2    N1 8110   3.863   2.403  17.459 -1.0190 -0.1278  0.3877
  546MPD2    H7 8111   3.849   2.303  17.464 -0.4370 -0.2925 -1.1177
  547TMC3    C1 8112   3.857   2.349  17.229  0.1262  0.6096 -0.4893
  547TMC3    C2 8113   3.794   2.394  17.111  0.6037  0.0075  0.0179
  547TMC3    C3 8114   3.690   2.324  17.056  0.0066  0.3876 -0.6443
  547TMC3    C4 8115   3.834   2.220  17.275  0.8703 -0.0393 -0.2127
  547TMC3    C5 8116   3.742   2.145  17.205 -0.2524 -0.0110 -0.3301
  547TMC3    C6 8117   3.662   2.200  17.102 -0.1632  0.3743  0.0489
  547TMC3     C 8118   3.867   2.456  17.331  0.3985 -0.3420 -0.1611
  547TMC3     O 8119   3.874   2.570  17.294  0.4979 -0.1252  0.8680
  547TMC3     H 8120   3.810   2.491  17.065 -0.5995 -0.3775 -1.2355
  547TMC3    H1 8121   3.883   2.178  17.362  0.1574  0.3533  0.3781
  547TMC3    H2 8122   3.572   2.150  17.069 -0.8763  1.1918  0.7807
  547TMC3    C7 8123   3.664   2.060  17.295 -0.0093  0.0363 -0.0218
  547TMC3    C8 8124   3.634   2.362  16.924  1.1714  1.2283 -0.8612
  547TMC3    O1 8125   3.654   2.097  17.414 -0.1211  0.1122  0.2700
  547TMC3    O2 8126   3.595   2.264  16.860  0.1917  0.1015 -0.1487
  548MPD2     C 8127   4.317   3.395  12.139 -0.6528  0.3828 -0.7239
  548MPD2    C1 8128   4.300   3.277  12.210 -0.1284 -0.0552 -0.0836
  548MPD2    C2 8129   4.386   3.176  12.194 -0.1750  0.4292 -0.1756
  548MPD2    C3 8130   4.482   3.169  12.091 -0.5881  0.3438  0.3708
  548MPD2    C4 8131   4.493   3.285  12.013  0.2482 -0.6183 -0.0256
  548MPD2    C5 8132   4.413   3.399  12.041  1.4513 -0.1256 -0.7485
  548MPD2     H 8133   4.381   3.094  12.266  0.3542  0.1713 -0.4323
  548MPD2    H1 8134   4.571   3.294  11.938 -1.3619  0.9242 -1.5135
  548MPD2    H2 8135   4.252   3.480  12.157 -0.2019  1.0403 -2.2128
  548MPD2    H3 8136   4.406   3.481  11.971  1.5606  0.8706  0.4117
  548MPD2     N 8137   4.565   3.054  12.084  0.5616  0.4625  0.3778
  548MPD2    H5 8138   4.549   2.980  12.153  1.2128 -0.0621 -0.0338
  548MPD2    N1 8139   4.218   3.281  12.323 -0.2700  0.2540 -0.3571
  548MPD2    H7 8140   4.194   3.373  12.358 -2.1562 -0.7997  1.1863
  549TMC3    C1 8141   4.089   3.208  12.510 -0.5853 -0.1667 -0.3161
  549TMC3    C2 8142   3.986   3.296  12.488  0.6433 -0.5117 -0.6245
  549TMC3    C3 8143   3.890   3.298  12.578  0.6426  0.1607  0.5412
  549TMC3    C4 8144   4.090   3.119  12.614 -0.0200  0.6958 -0.1009
  549TMC3    C5 8145   3.981   3.113  12.696 -0.3133 -0.4836  0.1012
  549TMC3    C6 8146   3.882   3.206  12.681 -0.2923 -0.0453 -0.8573
  549TMC3     C 8147   4.169   3.172  12.394  0.3398 -0.0568  0.4179
  549TMC3     O 8148   4.189   3.052  12.379 -0.3478 -0.0355  0.1326
  549TMC3     H 8149   3.970   3.351  12.396 -2.4472 -0.7255 -0.2118
  549TMC3    H1 8150   4.169   3.045  12.615  0.9044  1.6927  0.8884
  549TMC3    H2 8151   3.792   3.208  12.742  1.7087 -0.4696  2.0923
  549TMC3    C7 8152   3.945   2.989  12.759 -0.1261 -0.5813 -0.2938
  549TMC3    C8 8153   3.794   3.402  12.567  0.9968 -0.1694  0.7125
  549TMC3    O1 8154   3.844   2.981  12.831 -0.1722 -1.1310 -0.0269
  549TMC3    O2 8155   3.690   3.379  12.624  0.2836  0.6482 -0.8165
  550TMC3    C1 8156   2.850   1.033  12.267  0.1421 -0.9478  0.6285
  550TMC3    C2 8157   2.827   1.093  12.389  0.4195  0.0714 -0.2739
  550TMC3    C3 8158   2.693   1.128  12.411 -0.0348 -0.1534  0.3573
  550TMC3    C4 8159   2.755   1.014  12.166  0.1109  0.2635 -0.1235
  550TMC3    C5 8160   2.628   1.055  12.194 -0.2671 -0.4120 -0.3353
  550TMC3    C6 8161   2.596   1.107  12.315 -0.0171  0.2289 -0.7978
  550TMC3     C 8162   2.985   0.981  12.250  0.1904 -0.2094 -0.5910
  550TMC3     O 8163   3.032   0.926  12.347 -0.0816  0.0873 -0.0884
  550TMC3     H 8164   2.907   1.110  12.461  2.2645 -0.1255 -2.2852
  550TMC3    H1 8165   2.774   0.939  12.090  1.0736 -1.6403  1.9956
  550TMC3    H2 8166   2.492   1.136  12.322 -0.6086 -2.4681  1.7293
  550TMC3    C7 8167   2.543   1.069  12.077  0.2861 -0.0530 -0.4116
  550TMC3    C8 8168   2.657   1.220  12.511  0.7391  0.3917  0.5911
  550TMC3    O1 8169   2.423   1.084  12.103  0.6004 -0.2687 -0.0692
  550TMC3    O2 8170   2.567   1.296  12.485 -0.1087 -0.0727  0.1320
  551TMC3    C1 8171   0.290   3.660  13.224 -0.3487  0.7009  0.4520
  551TMC3    C2 8172   0.415   3.663  13.169  0.0520  0.4899  0.0019
  551TMC3    C3 8173   0.514   3.696  13.252 -1.1298  0.4061  0.0105
  551TMC3    C4 8174   0.264   3.693  13.357 -0.4077 -0.4808 -0.2045
  551TMC3    C5 8175   0.366   3.735  13.427  0.1837 -0.5700  0.3097
  551TMC3    C6 8176   0.494   3.737  13.381 -0.2457  0.1788  0.4619
  551TMC3     C 8177   0.180   3.606  13.143 -0.3860 -0.8940 -0.0814
  551TMC3     O 8178   0.208   3.553  13.035 -0.3537 -0.1724  0.0891
  551TMC3     H 8179   0.420   3.645  13.062  0.8774  1.6669 -0.1542
  551TMC3    H1 8180   0.164   3.684  13.398  0.2186  0.4495  1.5332
  551TMC3    H2 8181   0.577   3.754  13.449  1.3074  0.7472 -1.6080
  551TMC3    C7 8182   0.349   3.755  13.573  0.2683 -0.4250  0.1213
  551TMC3    C8 8183   0.639   3.730  13.181 -0.7010  0.2745 -0.2245
  551TMC3    O1 8184   0.441   3.805  13.639  0.2971  0.4338  0.1067
  551TMC3    O2 8185   0.689   3.635  13.117  0.0362 -0.2320  0.0594
  552MPD2     C 8186   2.423   1.207  14.006  0.5629 -0.7879 -0.6691
  552MPD2    C1 8187   2.419   1.068  14.032 -0.4140 -0.5998 -0.0916
  552MPD2    C2 8188   2.538   1.020  14.077  0.5227  0.1141 -0.0395
  552MPD2    C3 8189   2.645   1.093  14.111 -0.6968 -0.0451 -0.1734
  552MPD2    C4 8190   2.644   1.230  14.101  0.9973 -0.1540 -0.0039
  552MPD2    C5 8191   2.535   1.280  14.035 -0.5372  0.8065 -0.9655
  552MPD2     H 8192   2.548   0.913  14.085 -1.7224 -0.0956 -0.0759
  552MPD2    H1 8193   2.729   1.294  14.120  1.0974  0.1887 -1.6013
  552MPD2    H2 8194   2.358   1.264  13.942 -0.9995 -2.7025 -0.7783
  552MPD2    H3 8195   2.530   1.385  14.010 -2.0306  0.8365 -0.5365
  552MPD2     N 8196   2.756   1.030  14.168  0.1421 -0.4657 -0.0140
  552MPD2    H5 8197   2.843   1.081  14.158 -0.1260 -0.4236 -2.1639
  552MPD2    N1 8198   2.316   0.985  13.987 -0.0736  0.1536  0.6675
  552MPD2    H7 8199   2.331   0.885  13.994 -0.3833  0.0825  0.3092
  553TMC3    C1 8200   2.128   0.916  13.876 -0.1266 -0.0945 -0.3190
  553TMC3    C2 8201   2.074   0.928  13.750 -0.8007  0.3030 -0.1817
  553TMC3    C3 8202   2.070   0.814  13.667  0.6639  0.1847 -0.3247
  553TMC3    C4 8203   2.151   0.798  13.935 -0.1357  0.5195  0.0065
  553TMC3    C5 8204   2.136   0.687  13.857 -0.5192 -0.3619 -0.1541
  553TMC3    C6 8205   2.097   0.687  13.729 -0.0274  0.0239  0.2518
  553TMC3     C 8206   2.202   1.031  13.919 -0.6064 -0.2913 -0.0494
  553TMC3     O 8207   2.166   1.146  13.904  0.1108  0.8143 -0.1886
  553TMC3     H 8208   2.061   1.029  13.714  0.8600  0.9564  1.0452
  553TMC3    H1 8209   2.191   0.788  14.035  0.8525  0.3299 -0.4045
  553TMC3    H2 8210   2.107   0.597  13.669 -0.4581  0.9147 -1.1617
  553TMC3    C7 8211   2.184   0.562  13.888 -0.9116 -0.3801  0.2254
  553TMC3    C8 8212   2.152   0.836  13.553 -0.3216  0.1919 -0.4959
  553TMC3    O1 8213   2.103   0.476  13.896  0.4829  0.0429  0.3008
  553TMC3    O2 8214   2.231   0.929  13.567  0.0205  0.3008 -0.1351
  554TMC3    C1 8215   3.877   4.593  11.596  0.4194 -0.4747 -0.9659
  554TMC3    C2 8216   3.815   4.529  11.494  0.0367  0.0748 -0.0111
  554TMC3    C3 8217   3.847   4.573  11.370  0.6990 -0.1796 -0.4523
  554TMC3    C4 8218   3.962   4.700  11.581 -0.4255  0.0387 -0.9082
  554TMC3    C5 8219   3.983   0.021  11.455 -0.4488 -0.3266 -0.3146
  554TMC3    C6 8220   3.930   4.682  11.347  0.0511  0.0391  0.0433
  554TMC3     C 8221   3.873   4.521  11.724  0.4701  0.2506  0.0007
  554TMC3     O 8222   3.768   4.468  11.761  0.6172 -0.5846 -0.6889
  554TMC3     H 8223   3.752   4.444  11.520  0.4969 -0.6542 -1.2754
  554TMC3    H1 8224   4.001   0.017  11.674 -0.4711  1.0982 -1.3535
  554TMC3    H2 8225   3.932   0.000  11.247  0.2643 -1.1176 -0.4428
  554TMC3    C7 8226   4.060   0.140  11.427  0.6639  0.1925  0.5614
  554TMC3    C8 8227   3.804   4.503  11.246  0.3229  0.3535  0.4303
  554TMC3    O1 8228   4.040   0.186  11.316  0.1938  0.2124 -0.0280
  554TMC3    O2 8229   3.825   4.569  11.144  0.2384  0.2240  0.0793
  555TMC3    C1 8230   3.265   4.233  14.882  0.6437  0.4457 -0.6435
  555TMC3    C2 8231   3.251   4.307  14.989 -0.3403 -0.7643 -0.1120
  555TMC3    C3 8232   3.261   4.252  15.116  0.1181 -0.5294 -0.0981
  555TMC3    C4 8233   3.296   4.100  14.897  0.9096 -0.3556  0.0077
  555TMC3    C5 8234   3.300   4.044  15.021  0.3234 -0.4181 -0.9938
  555TMC3    C6 8235   3.278   4.117  15.134 -0.1037  0.2629  0.8813
  555TMC3     C 8236   3.287   4.297  14.753  0.0238  0.3625 -0.3313
  555TMC3     O 8237   3.338   4.243  14.656  0.4642 -0.3290 -0.1253
  555TMC3     H 8238   3.255   4.415  14.999 -0.5597 -0.7383 -0.3186
  555TMC3    H1 8239   3.310   4.036  14.811 -0.1778  0.4712 -0.7946
  555TMC3    H2 8240   3.268   4.069  15.231 -2.9660 -1.2966 -0.1682
  555TMC3    C7 8241   3.299   3.904  15.040 -0.3222 -0.1365 -0.4977
  555TMC3    C8 8242   3.251   4.334  15.233 -0.9166 -0.7007  0.3771
  555TMC3    O1 8243   3.293   3.849  15.150 -0.0618 -0.3253 -0.2626
  555TMC3    O2 8244   3.211   4.450  15.218  0.2154  0.1395  0.3542
  556MPD2     C 8245   1.462   0.820  10.555  1.7171 -0.1198 -0.3603
  556MPD2    C1 8246   1.431   0.726  10.655 -0.3155 -0.9727  0.1442
  556MPD2    C2 8247   1.447   0.590  10.635 -0.8870 -0.0495  0.1095
  556MPD2    C3 8248   1.493   0.541  10.511  0.1747  0.5684  0.7544
  556MPD2    C4 8249   1.508   0.629  10.415  0.4408  0.1416  1.0979
  556MPD2    C5 8250   1.496   0.766  10.438 -0.3860  0.0731  0.0910
  556MPD2     H 8251   1.420   0.522  10.715 -0.2184 -2.5818 -1.8157
  556MPD2    H1 8252   1.533   0.594  10.315  1.1445  2.3469  0.5162
  556MPD2    H2 8253   1.456   0.928  10.565 -0.7349 -0.4950  2.4532
  556MPD2    H3 8254   1.510   0.838  10.359  0.9979  1.0453  1.2196
  556MPD2     N 8255   1.520   0.402  10.500  0.0762  0.1444 -0.5029
  556MPD2    H5 8256   1.495   0.330  10.566  0.7013 -0.9021 -1.4054
  556MPD2    N1 8257   1.398   0.755  10.790 -0.7082 -0.3767  0.0328
  556MPD2    H7 8258   1.415   0.674  10.848 -0.8176 -1.4135 -1.3738
  557TMC3    C1 8259   1.575   0.207  10.368 -0.4487 -0.0045  0.1865
  557TMC3    C2 8260   1.623   0.153  10.249  0.1285 -0.1267  0.2844
  557TMC3    C3 8261   1.563   0.055  10.181  0.0074  0.0966  0.4822
  557TMC3    C4 8262   1.477   0.138  10.427  0.9624  0.5831  0.0594
  557TMC3    C5 8263   1.401   0.052  10.351 -0.2979  0.5547 -0.3054
  557TMC3    C6 8264   1.443   0.002  10.227 -0.7910 -0.6596 -0.2223
  557TMC3     C 8265   1.586   0.350  10.386 -0.0297 -0.0898 -0.2943
  557TMC3     O 8266   1.637   0.408  10.292  0.2407  0.6234  0.2008
  557TMC3     H 8267   1.711   0.199  10.206 -0.6851  1.8454  0.6945
  557TMC3    H1 8268   1.425   0.196  10.502 -2.6688 -1.3485 -0.9453
  557TMC3    H2 8269   1.381   4.656  10.172  0.4135 -1.0269 -1.1188
  557TMC3    C7 8270   1.257   0.049  10.381  0.0090  0.0922  0.9342
  557TMC3    C8 8271   1.595   0.068  10.039  0.9508 -0.4962 -0.5639
  557TMC3    O1 8272   1.226   0.059  10.503  0.6603 -0.0602  0.4193
  557TMC3    O2 8273   1.609   0.177   9.992  0.4264 -0.4763 -0.0656
  558TMC3    C1 8274   4.120   3.660  10.189 -0.0192 -0.1947  0.2114
  558TMC3    C2 8275   4.004   3.607  10.235 -0.4201 -0.5769 -0.9343
  558TMC3    C3 8276   3.901   3.583  10.142  0.2349  0.5204 -0.3725
  558TMC3    C4 8277   4.139   3.670  10.057 -0.2469  0.4467 -0.4263
  558TMC3    C5 8278   4.039   3.643   9.969  0.2771  0.2137 -0.2140
  558TMC3    C6 8279   3.915   3.605  10.005  0.0903  0.1084 -0.0353
  558TMC3     C 8280   4.246   3.665  10.264 -0.3406 -0.5943  0.4158
  558TMC3     O 8281   4.343   3.711  10.201 -0.1533 -0.5633 -0.0436
  558TMC3     H 8282   3.985   3.615  10.341  2.1965  1.7135 -0.6218
  558TMC3    H1 8283   4.235   3.690  10.012 -0.1148  1.1662  0.1825
  558TMC3    H2 8284   3.833   3.593   9.934 -0.8373  2.4231  0.6503
  558TMC3    C7 8285   4.070   3.625   9.839  1.0002  0.1812  0.8349
  558TMC3    C8 8286   3.766   3.556  10.186 -0.1204 -0.1654  0.3208
  558TMC3    O1 8287   4.179   3.667   9.796  0.0810 -0.2694 -0.3240
  558TMC3    O2 8288   3.670   3.598  10.121  0.3589  0.0876  0.1450
  559MPD2     C 8289   4.000   3.950  10.320 -0.0182  0.2528  0.3699
  559MPD2    C1 8290   3.967   3.887  10.436  0.1332 -0.2241 -0.3304
  559MPD2    C2 8291   4.055   3.876  10.536  0.4302  0.4277  0.7060
  559MPD2    C3 8292   4.174   3.944  10.539 -0.1816  0.3080 -0.1558
  559MPD2    C4 8293   4.209   4.010  10.416  0.6310 -0.4218 -0.3455
  559MPD2    C5 8294   4.123   4.009  10.308 -0.3244 -0.0689 -0.0286
  559MPD2     H 8295   4.032   3.819  10.626 -0.8036  1.9297  1.3372
  559MPD2    H1 8296   4.300   4.066  10.396 -0.8993  1.2217 -2.6629
  559MPD2    H2 8297   3.922   3.954  10.244  0.5268  1.1579 -0.1337
  559MPD2    H3 8298   4.155   4.058  10.217  0.3493 -0.0746  0.2050
  559MPD2     N 8299   4.244   3.948  10.659 -0.1047  0.2448  0.5485
  559MPD2    H5 8300   4.215   3.882  10.731  1.3894 -1.2066 -0.1850
  559MPD2    N1 8301   3.828   3.846  10.446  0.0081 -0.3938 -0.0439
  559MPD2    H7 8302   3.762   3.866  10.371 -0.0115  1.5573  0.4764
  560TMC3    C1 8303   4.392   3.975  10.836  0.1921  0.8852 -0.3399
  560TMC3    C2 8304   4.351   3.854  10.880 -0.2660  0.1571  0.5876
  560TMC3    C3 8305   4.337   3.827  11.022 -1.0166 -0.1675  0.2383
  560TMC3    C4 8306   4.430   4.073  10.925  0.6784  0.0020  0.3638
  560TMC3    C5 8307   4.417   4.042  11.059  0.1277 -0.1575  0.3749
  560TMC3    C6 8308   4.370   3.922  11.110  0.1749 -0.4621  0.2049
  560TMC3     C 8309   4.345   4.023  10.701 -0.4048  0.2959  0.8603
  560TMC3     O 8310   4.390   4.127  10.656  0.0407  0.1458  0.2981
  560TMC3     H 8311   4.337   3.772  10.810 -4.3546  1.2842  0.0957
  560TMC3    H1 8312   4.459   4.171  10.889 -1.2676  1.0263  1.5564
  560TMC3    H2 8313   4.339   3.903  11.213 -1.2549 -0.5848 -0.2476
  560TMC3    C7 8314   4.463   4.137  11.157  0.5824 -0.2853 -0.1927
  560TMC3    C8 8315   4.276   3.701  11.064 -0.3384  0.0427  0.4404
  560TMC3    O1 8316   4.423   4.117  11.271  0.6175 -0.3375  0.4231
  560TMC3    O2 8317   4.208   3.657  10.970 -0.5966  0.1576 -0.1624
  561TMC3    C1 8318   1.852   3.027  11.421  0.6955 -0.4771 -0.0782
  561TMC3    C2 8319   1.794   2.960  11.519  0.1322 -0.0833  0.2973
  561TMC3    C3 8320   1.739   3.029  11.628 -0.4209 -0.2150 -1.9725
  561TMC3    C4 8321   1.862   3.162  11.426  0.5247 -0.2298  0.3630
  561TMC3    C5 8322   1.821   3.228  11.537  0.3190 -0.1002 -0.3402
  561TMC3    C6 8323   1.746   3.167  11.636 -0.5700  0.3684  0.4940
  561TMC3     C 8324   1.907   2.956  11.314  0.0211 -0.3629 -0.4741
  561TMC3     O 8325   1.867   2.836  11.303  0.7077  0.2428  0.0194
  561TMC3     H 8326   1.795   2.852  11.517 -0.8568 -0.0940  0.0753
  561TMC3    H1 8327   1.889   3.221  11.339 -0.2889 -0.0400  0.2399
  561TMC3    H2 8328   1.709   3.223  11.722 -0.7388  1.4882 -0.3145
  561TMC3    C7 8329   1.805   3.372  11.527  0.4210 -0.1045 -0.3630
  561TMC3    C8 8330   1.672   2.946  11.725 -0.3114 -0.1481 -0.6323
  561TMC3    O1 8331   1.720   3.424  11.595  0.7126  0.2124 -0.1935
  561TMC3    O2 8332   1.700   2.828  11.727 -0.0674 -0.4262 -0.2453
  562TMC3    C1 8333   3.044   4.384  15.902  0.4131 -0.1826 -0.2790
  562TMC3    C2 8334   2.982   4.509  15.938  0.1829  0.6810 -0.1548
  562TMC3    C3 8335   2.921   4.575  15.837 -0.2187  0.8459  0.5671
  562TMC3    C4 8336   3.045   4.345  15.773 -0.9099  0.0656  0.9732
  562TMC3    C5 8337   2.970   4.416  15.676  0.0685 -0.4410  0.2519
  562TMC3    C6 8338   2.900   4.527  15.708  0.0422 -0.4855 -0.1995
  562TMC3     C 8339   3.094   4.291  16.011 -0.4068 -0.5897  0.1568
  562TMC3     O 8340   3.119   4.175  15.979 -0.0113  0.4624  0.3584
  562TMC3     H 8341   2.971   4.534  16.043  0.2060  0.5082 -0.1121
  562TMC3    H1 8342   3.088   4.247  15.757 -1.7109  0.2006 -1.9464
  562TMC3    H2 8343   2.825   4.574  15.645 -0.6057 -2.6330 -1.0135
  562TMC3    C7 8344   2.953   4.371  15.540  0.1077  0.2489 -0.0844
  562TMC3    C8 8345   2.845   4.696  15.876 -0.5578  0.6390  0.3990
  562TMC3    O1 8346   2.907   4.442  15.453  0.0027  0.5066  0.0117
  562TMC3    O2 8347   2.794   4.692  15.986 -0.3975  0.1308  0.1762
  563MPD2     C 8348   0.666   1.364  15.555  0.3469 -0.9700  0.3056
  563MPD2    C1 8349   0.656   1.342  15.693  0.1212  0.5615 -0.5091
  563MPD2    C2 8350   0.774   1.333  15.759 -0.7430 -0.2745  0.1531
  563MPD2    C3 8351   0.897   1.339  15.695 -0.2602  0.4234  0.0727
  563MPD2    C4 8352   0.908   1.359  15.560  0.1106 -0.4013  0.4068
  563MPD2    C5 8353   0.788   1.367  15.494  0.5026 -0.5031 -0.2232
  563MPD2     H 8354   0.764   1.321  15.867  1.3828 -2.1649  0.1486
  563MPD2    H1 8355   1.000   1.374  15.504 -1.4749 -0.8960 -2.3683
  563MPD2    H2 8356   0.577   1.387  15.498  1.6733  2.2444 -0.4891
  563MPD2    H3 8357   0.791   1.388  15.388  0.8870  0.5733  0.0014
  563MPD2     N 8358   1.010   1.325  15.782  0.1508 -0.0353  0.4719
  563MPD2    H5 8359   0.992   1.305  15.880  1.1351 -0.7636  0.4982
  563MPD2    N1 8360   0.536   1.324  15.764 -0.8756 -0.2500  0.1029
  563MPD2    H7 8361   0.546   1.308  15.864 -0.0159  0.5450  0.1362
  564TMC3    C1 8362   0.312   1.310  15.818 -0.3617  0.3203  0.4237
  564TMC3    C2 8363   0.201   1.242  15.781  0.0203  0.4357 -0.4854
  564TMC3    C3 8364   0.129   1.174  15.882  0.4223  1.1399  0.5342
  564TMC3    C4 8365   0.349   1.322  15.951  0.6262  0.5493 -0.1626
  564TMC3    C5 8366   0.272   1.264  16.048  0.1677 -0.2846  0.0698
  564TMC3    C6 8367   0.159   1.199  16.017  0.1009 -0.0835  0.3337
  564TMC3     C 8368   0.408   1.334  15.709 -0.2743  0.3869 -0.1009
  564TMC3     O 8369   0.374   1.346  15.592 -0.5654  0.4032  0.0883
  564TMC3     H 8370   0.183   1.211  15.679 -1.6619  0.7870 -0.3023
  564TMC3    H1 8371   0.436   1.376  15.988  1.3574  0.7196 -2.1224
  564TMC3    H2 8372   0.100   1.146  16.091  0.9331  0.4260  1.3639
  564TMC3    C7 8373   0.355   1.199  16.151  0.0308 -0.2218  0.3024
  564TMC3    C8 8374   0.109   1.037  15.866  0.0000 -0.2659  0.0251
  564TMC3    O1 8375   0.452   1.260  16.189 -0.7012 -0.2725 -0.0194
  564TMC3    O2 8376   0.136   0.963  15.958  0.0338  0.4368  0.4925
  565TMC3    C1 8377   1.150   2.122  10.116 -0.4611  0.1995  0.3423
  565TMC3    C2 8378   1.171   2.035  10.211 -0.4060 -0.1568  0.5198
  565TMC3    C3 8379   1.066   1.951  10.244 -0.1241  0.4827 -0.0978
  565TMC3    C4 8380   1.022   2.150  10.066 -0.0787 -0.3272  0.0141
  565TMC3    C5 8381   0.922   2.069  10.103 -0.1292 -0.1136 -0.3324
  565TMC3    C6 8382   0.940   1.964  10.186 -0.1841  0.6397 -0.5135
  565TMC3     C 8383   1.251   2.213  10.058 -0.3094 -0.4364  0.1792
  565TMC3     O 8384   1.217   2.270   9.956 -0.1318 -0.1155  0.3233
  565TMC3     H 8385   1.271   2.018  10.249 -0.3506 -3.0961 -0.9629
  565TMC3    H1 8386   1.005   2.234  10.000  0.7438 -0.4641 -0.3706
  565TMC3    H2 8387   0.848   1.926  10.228 -0.1382  0.6672 -0.3867
  565TMC3    C7 8388   0.791   2.088  10.044 -0.7506  0.1217  0.6466
  565TMC3    C8 8389   1.094   1.840  10.338 -0.1976  0.0455  0.0994
  565TMC3    O1 8390   0.712   1.994  10.058 -0.5827 -0.0418  0.3429
  565TMC3    O2 8391   1.199   1.837  10.400  0.1478  0.4099  0.3465
  566MPD2     C 8392   2.485   0.031  14.790  0.7106 -0.2596 -0.1347
  566MPD2    C1 8393   2.502   0.030  14.654 -0.2706  0.2397  0.5628
  566MPD2    C2 8394   2.406   4.710  14.572  0.5886  0.9493 -0.1188
  566MPD2    C3 8395   2.293   4.662  14.629 -0.6862 -0.4519 -0.3733
  566MPD2    C4 8396   2.271   4.657  14.765  0.0953 -0.4231 -0.0199
  566MPD2    C5 8397   2.372   4.699  14.845  0.2969  0.4734 -0.1722
  566MPD2     H 8398   2.422   4.695  14.466 -1.3958 -1.7260 -0.0249
  566MPD2    H1 8399   2.178   4.621  14.807 -0.2259  0.2186 -0.1756
  566MPD2    H2 8400   2.562   0.065  14.857  0.1609  0.9589 -0.1047
  566MPD2    H3 8401   2.347   4.707  14.950 -2.1297  0.2417 -0.7210
  566MPD2     N 8402   2.188   4.599  14.553  0.0491  0.0020  0.4722
  566MPD2    H5 8403   2.127   4.537  14.605  0.8027 -2.1732 -1.2334
  566MPD2    N1 8404   2.633   0.049  14.600  0.4408 -0.1171 -0.4201
  566MPD2    H7 8405   2.712   0.043  14.663 -0.8347 -1.0935  1.0992
  567TMC3    C1 8406   2.780   4.717  14.425  0.1422 -0.0269  0.3656
  567TMC3    C2 8407   2.799   0.011  14.292 -0.2070  0.4642  1.0850
  567TMC3    C3 8408   2.869   4.652  14.218  0.2662  0.6379 -0.0334
  567TMC3    C4 8409   2.811   4.595  14.480  0.1658  0.5941 -0.0555
  567TMC3    C5 8410   2.883   4.508  14.402 -0.3038  0.4138  0.5523
  567TMC3    C6 8411   2.915   4.533  14.269  0.5300 -0.0442 -0.1767
  567TMC3     C 8412   2.652   0.057  14.470 -0.0491 -0.2335  0.4780
  567TMC3     O 8413   2.581   0.119  14.387 -0.9254 -0.3846 -0.5955
  567TMC3     H 8414   2.754   0.099  14.247 -2.5840 -1.1922  0.2193
  567TMC3    H1 8415   2.799   4.574  14.585 -0.0302  1.0467  0.0130
  567TMC3    H2 8416   2.964   4.466  14.199 -2.6707 -1.8696 -0.6761
  567TMC3    C7 8417   2.936   4.386  14.459 -0.2834 -0.3834 -0.1681
  567TMC3    C8 8418   2.810   4.647  14.085 -0.1891 -0.6552 -0.3855
  567TMC3    O1 8419   3.017   4.325  14.390 -0.4519 -0.1442 -0.1867
  567TMC3    O2 8420   2.707   4.714  14.069 -0.1745  0.4074 -0.3778
  568MPD2     C 8421   4.398   4.488  16.326 -0.4813 -0.1425  0.5755
  568MPD2    C1 8422   4.518   4.502  16.384  0.4066 -0.5403  0.4632
  568MPD2    C2 8423   4.615   4.582  16.323 -0.1336 -0.6891  0.5054
  568MPD2    C3 8424   4.590   4.657  16.209 -0.0921 -0.0990  0.4881
  568MPD2    C4 8425   4.463   4.641  16.150  0.6890  0.6326 -0.6713
  568MPD2    C5 8426   4.373   4.552  16.211  0.2542 -0.7512  1.0429
  568MPD2     H 8427   4.711   4.597  16.372 -0.3106  0.3698  0.5282
  568MPD2    H1 8428   4.428   4.698  16.064 -2.2511 -0.1901  0.0044
  568MPD2    H2 8429   4.318   4.419  16.351 -0.9761 -0.0244 -0.6389
  568MPD2    H3 8430   4.283   4.524  16.159  0.2774  1.8648 -0.4404
  568MPD2     N 8431   4.689   0.020  16.164 -0.4793 -0.5817  0.5787
  568MPD2    H5 8432   0.053   0.025  16.215 -1.0625  0.8735  1.4533
  568MPD2    N1 8433   4.536   4.423  16.500  0.0234  0.1147  0.2923
  568MPD2    H7 8434   4.464   4.364  16.539 -1.8470  0.5154 -2.5151
  569TMC3    C1 8435   0.056   0.204  16.057  0.0751  0.1224 -0.2138
  569TMC3    C2 8436   0.103   0.249  16.175  0.1535 -0.3168 -0.0190
  569TMC3    C3 8437   0.211   0.334  16.185  0.0987  0.6008 -0.1198
  569TMC3    C4 8438   0.089   0.268  15.938  0.2468  0.0336 -0.5377
  569TMC3    C5 8439   0.190   0.365  15.948  0.1346  0.1904 -0.3368
  569TMC3    C6 8440   0.253   0.394  16.072  0.1905  0.5650  0.2443
  569TMC3     C 8441   4.677   0.103  16.059 -0.2464  0.8759  0.0665
  569TMC3     O 8442   4.596   0.117  15.969  0.1451  0.0664 -0.3144
  569TMC3     H 8443   0.050   0.227  16.267  2.8773 -1.4737  1.2606
  569TMC3    H1 8444   0.032   0.246  15.848  2.0462 -0.5478 -1.5375
  569TMC3    H2 8445   0.330   0.470  16.074  1.2318 -0.5062  0.8181
  569TMC3    C7 8446   0.160   0.496  15.900  0.1740 -0.1721 -0.1359
  569TMC3    C8 8447   0.207   0.427  16.288  0.1043  0.1273  0.6614
  569TMC3    O1 8448   0.137   0.578  15.986 -1.4488 -0.2434  0.5672
  569TMC3    O2 8449   0.208   0.400  16.407 -0.1615 -0.1246 -0.2379
  570TMC3    C1 8450   4.117   3.522  16.301  0.0705  0.4945 -0.8954
  570TMC3    C2 8451   4.210   3.519  16.194  0.0115  0.4607  0.1638
  570TMC3    C3 8452   4.275   3.638  16.162 -0.1614  0.2680  0.2583
  570TMC3    C4 8453   4.076   3.636  16.360 -0.3136 -0.2471  0.5117
  570TMC3    C5 8454   4.137   3.748  16.319  0.4130 -0.3571  0.2066
  570TMC3    C6 8455   4.234   3.755  16.222 -0.6147  0.3715  0.2674
  570TMC3     C 8456   4.127   3.403  16.387  0.2952  0.5989  0.4456
  570TMC3     O 8457   4.196   3.308  16.347  0.4080 -0.1234  0.6101
  570TMC3     H 8458   4.246   3.422  16.164  2.2374  1.8923 -1.8077
  570TMC3    H1 8459   3.994   3.640  16.430 -1.9419 -0.9296 -1.3710
  570TMC3    H2 8460   4.288   3.848  16.205  1.4837 -0.8414  0.2929
  570TMC3    C7 8461   4.072   3.876  16.341  0.2406 -0.0702  0.0497
  570TMC3    C8 8462   4.389   3.653  16.068 -0.5954  0.2968 -0.2745
  570TMC3    O1 8463   4.013   3.886  16.444 -0.4234  0.1618  0.1139
  570TMC3    O2 8464   4.428   3.768  16.044 -0.6061  0.8649 -0.6986
  571MPD2     C 8465   2.373   4.242  16.888  0.2400  0.9437 -0.3389
  571MPD2    C1 8466   2.254   4.179  16.907  0.7326  0.5870 -0.0501
  571MPD2    C2 8467   2.173   4.220  17.014 -0.5756  0.2585 -0.1718
  571MPD2    C3 8468   2.220   4.319  17.108  0.0946  0.3097  0.0429
  571MPD2    C4 8469   2.349   4.370  17.086  0.2936 -0.2998  0.5389
  571MPD2    C5 8470   2.419   4.335  16.973 -0.0013  0.3579  0.9672
  571MPD2     H 8471   2.074   4.181  17.032 -1.2179  0.9071 -2.2602
  571MPD2    H1 8472   2.397   4.449  17.142  1.7186  0.1937 -1.3571
  571MPD2    H2 8473   2.438   4.215  16.805  0.4555 -0.5603  0.3099
  571MPD2    H3 8474   2.517   4.381  16.963  0.8422 -1.5549  0.2498
  571MPD2     N 8475   2.145   4.349  17.222  0.3632  0.1464  0.2468
  571MPD2    H5 8476   2.190   4.420  17.278  2.1265 -0.4413 -0.4033
  571MPD2    N1 8477   2.219   4.076  16.814 -0.2676 -0.4163  0.1464
  571MPD2    H7 8478   2.285   4.062  16.737 -1.8333 -1.5387 -0.9784
  572TMC3    C1 8479   1.953   4.378  17.369  0.0493  0.8409  0.0862
  572TMC3    C2 8480   1.839   4.320  17.403  0.7448  0.1528 -0.0279
  572TMC3    C3 8481   1.784   4.359  17.519  0.6778  0.4351 -0.0700
  572TMC3    C4 8482   2.010   4.491  17.434  0.6851 -0.1083  0.1300
  572TMC3    C5 8483   1.936   4.542  17.541 -0.1869  0.7196 -0.0786
  572TMC3    C6 8484   1.821   4.477  17.584  0.5719 -0.0245 -0.8425
  572TMC3     C 8485   2.009   4.314  17.250  0.0711  0.1530 -0.0134
  572TMC3     O 8486   1.935   4.234  17.193 -0.0385  0.7658  0.1035
  572TMC3     H 8487   1.820   4.217  17.373 -0.6205  0.1357  0.8908
  572TMC3    H1 8488   2.093   4.547  17.392  0.7920 -0.1686  0.2619
  572TMC3    H2 8489   1.783   4.517  17.677  0.4672  0.1821 -0.9736
  572TMC3    C7 8490   1.981   4.659  17.617 -0.3509  0.2907 -0.0059
  572TMC3    C8 8491   1.656   4.293  17.549  0.2174  0.3951 -0.0643
  572TMC3    O1 8492   1.911   4.724  17.691 -0.5229 -0.5101  0.1164
  572TMC3    O2 8493   1.613   4.212  17.467 -0.4525 -0.1733 -0.5536
  573MPD2     C 8494   3.169   0.823   0.279  0.8129 -0.0677  0.3445
  573MPD2    C1 8495   3.134   0.953   0.311  0.1278  0.2112 -0.9883
  573MPD2    C2 8496   3.130   1.048   0.209 -0.0549  0.4340 -0.3126
  573MPD2    C3 8497   3.155   1.010   0.080 -0.1577 -0.8031 -0.2217
  573MPD2    C4 8498   3.200   0.883   0.052  0.6798 -0.1800  0.4356
  573MPD2    C5 8499   3.201   0.785   0.149  0.0411  0.3144  0.0322
  573MPD2     H 8500   3.110   1.151   0.238 -0.6554  0.3186 -0.3016
  573MPD2    H1 8501   3.218   0.849  17.648  0.3448 -1.3752  0.7811
  573MPD2    H2 8502   3.150   0.746   0.354 -0.0752 -0.3057 -0.1193
  573MPD2    H3 8503   3.220   0.681   0.122  0.4799  0.6669 -1.0036
  573MPD2     N 8504   3.116   1.078  17.658  0.1357 -0.6056  0.1346
  573MPD2    H5 8505   3.151   1.041  17.569 -3.0097  1.7149 -2.0684
  573MPD2    N1 8506   3.105   0.985   0.443  0.2570 -0.1093 -0.5774
  573MPD2    H7 8507   3.119   0.910   0.510 -0.9782 -1.9628 -2.3979
  574TMC3    C1 8508   2.991   1.250  17.546  0.4786  0.2383  0.4222
  574TMC3    C2 8509   2.864   1.304  17.539  0.6402 -0.2884 -0.8153
  574TMC3    C3 8510   2.820   1.350  17.421  0.6652 -0.1431 -0.0756
  574TMC3    C4 8511   3.075   1.245  17.436  0.7568  0.0970 -0.8280
  574TMC3    C5 8512   3.025   1.308  17.326 -0.2718  0.6820 -0.2354
  574TMC3    C6 8513   2.898   1.350  17.307 -0.3745 -0.2330  0.3976
  574TMC3     C 8514   3.034   1.185  17.669  0.2342  0.3003 -0.0076
  574TMC3     O 8515   2.981   1.234   0.075 -0.2208 -0.1364  0.0262
  574TMC3     H 8516   2.798   1.315  17.624  0.8811  0.9654 -0.7843
  574TMC3    H1 8517   3.179   1.217  17.452  1.3859  1.4259 -2.6764
  574TMC3    H2 8518   2.854   1.379  17.213 -0.6828  1.2811  1.0080
  574TMC3    C7 8519   3.108   1.313  17.210 -0.5095 -0.6825 -0.3737
  574TMC3    C8 8520   2.686   1.407  17.417  0.3259 -0.0198  1.0854
  574TMC3    O1 8521   3.205   1.241  17.210  1.2872 -0.1317  0.0441
  574TMC3    O2 8522   2.610   1.351  17.497  0.6461 -0.5111  0.4143
  575TMC3    C1 8523   1.365   1.502  11.118 -0.4987 -0.0262 -0.3418
  575TMC3    C2 8524   1.296   1.395  11.166  0.2497 -0.5736  0.2475
  575TMC3    C3 8525   1.206   1.332  11.081 -0.1639 -0.1245 -0.2053
  575TMC3    C4 8526   1.351   1.545  10.989  0.6046  0.4296 -0.7696
  575TMC3    C5 8527   1.250   1.487  10.913 -0.0838  0.1958  0.4919
  575TMC3    C6 8528   1.173   1.378  10.958  0.4604  0.3374 -0.6583
  575TMC3     C 8529   1.478   1.544  11.200 -0.2193  0.7336  0.4025
  575TMC3     O 8530   1.466   1.548  11.320  0.7115 -0.0017  0.5198
  575TMC3     H 8531   1.329   1.346  11.256  1.0024 -1.2172 -0.3843
  575TMC3    H1 8532   1.396   1.639  10.959  0.8090  0.7261  0.4480
  575TMC3    H2 8533   1.095   1.330  10.900  0.3826 -3.1450  2.3405
  575TMC3    C7 8534   1.221   1.549  10.784  0.1237  0.9206 -0.7651
  575TMC3    C8 8535   1.144   1.206  11.126  0.4398 -0.1558  0.4478
  575TMC3    O1 8536   1.228   1.668  10.776 -0.4349  0.1463 -0.1942
  575TMC3    O2 8537   1.144   1.185  11.246  0.6494  0.3882 -0.2030
  576MPD2     C 8538   0.607   3.405  12.652 -0.3938 -0.6051 -0.3789
  576MPD2    C1 8539   0.673   3.480  12.558  0.0051 -0.0930 -0.6334
  576MPD2    C2 8540   0.677   3.614  12.575 -0.3625 -0.2665  0.1110
  576MPD2    C3 8541   0.624   3.676  12.691 -0.3141  0.3618 -0.2056
  576MPD2    C4 8542   0.552   3.595  12.782 -0.4350  0.3417 -0.5964
  576MPD2    C5 8543   0.544   3.460  12.757  0.0197 -0.4490 -0.7470
  576MPD2     H 8544   0.725   3.673  12.498  1.4344 -1.3513  0.3972
  576MPD2    H1 8545   0.508   3.624  12.876 -0.2604 -1.0675 -0.0677
  576MPD2    H2 8546   0.593   3.298  12.639 -0.1995 -0.7349  0.4983
  576MPD2    H3 8547   0.475   3.404  12.819  0.5147  0.7040  0.8514
  576MPD2     N 8548   0.642   3.813  12.710 -0.3666 -0.4609 -0.0365
  576MPD2    H5 8549   0.709   3.867  12.656 -0.6151  1.4479  1.6105
  576MPD2    N1 8550   0.744   3.429  12.444 -0.1271  0.2398  0.0915
  576MPD2    H7 8551   0.759   3.498  12.371 -1.7463  1.8832  1.3287
  577TMC3    C1 8552   0.868   3.281  12.309 -0.1328 -0.3751 -1.1078
  577TMC3    C2 8553   0.974   3.202  12.323 -0.2761  0.2453 -0.1219
  577TMC3    C3 8554   1.029   3.155  12.205  0.0412 -0.3543  0.3224
  577TMC3    C4 8555   0.805   3.317  12.197 -1.0278 -0.9577  0.4263
  577TMC3    C5 8556   0.866   3.280  12.079  0.1808 -0.4531 -0.7668
  577TMC3    C6 8557   0.981   3.203  12.080  0.1948  1.0270 -0.8925
  577TMC3     C 8558   0.800   3.305  12.438  0.2046  0.1507 -0.1546
  577TMC3     O 8559   0.818   3.226  12.530  0.3901 -0.1118 -0.1607
  577TMC3     H 8560   1.021   3.173  12.417  0.7230 -2.9479 -1.5987
  577TMC3    H1 8561   0.718   3.383  12.195 -1.1850 -1.1277  1.6094
  577TMC3    H2 8562   1.011   3.151  11.990 -0.4246 -1.2422  0.1942
  577TMC3    C7 8563   0.827   3.356  11.965 -0.2499  0.8711 -0.3040
  577TMC3    C8 8564   1.139   3.061  12.201  0.0711  0.0232  1.2127
  577TMC3    O1 8565   0.724   3.420  11.978 -0.1027  0.1749 -0.7464
  577TMC3    O2 8566   1.150   2.987  12.298  0.0974  0.2005  0.1252
  578MPD2     C 8567   3.294   3.977   0.937 -0.2113  0.3434 -0.0973
  578MPD2    C1 8568   3.432   3.956   0.924  0.7983 -0.1319 -1.1094
  578MPD2    C2 8569   3.486   3.837   0.975 -0.5535 -0.0424  1.3287
  578MPD2    C3 8570   3.411   3.743   1.040 -0.1709 -0.0805 -0.0331
  578MPD2    C4 8571   3.271   3.763   1.054  0.1046 -0.4174 -0.3085
  578MPD2    C5 8572   3.216   3.877   1.004  0.0825 -0.1431  0.3301
  578MPD2     H 8573   3.593   3.825   0.960 -1.0408  0.0020 -2.2289
  578MPD2    H1 8574   3.210   3.696   1.113 -1.1922 -0.5299 -1.8028
  578MPD2    H2 8575   3.242   4.061   0.893 -0.4185 -0.1643 -0.8238
  578MPD2    H3 8576   3.112   3.898   1.027 -0.2305  0.7551 -1.8978
  578MPD2     N 8577   3.482   3.626   1.083 -0.0252 -0.8260  0.5794
  578MPD2    H5 8578   3.583   3.630   1.078 -0.0697 -1.1297 -0.5498
  578MPD2    N1 8579   3.514   4.039   0.848 -0.2553 -0.4040 -0.6287
  578MPD2    H7 8580   3.602   3.994   0.823 -1.8135 -2.8476 -1.6869
  579TMC3    C1 8581   3.526   3.419   1.177 -0.3191  0.2687  0.5020
  579TMC3    C2 8582   3.647   3.462   1.210 -0.6285 -0.0401  0.2496
  579TMC3    C3 8583   3.739   3.364   1.227 -0.3613  0.0946 -0.2598
  579TMC3    C4 8584   3.487   3.295   1.144 -0.2035  1.1697 -0.0634
  579TMC3    C5 8585   3.589   3.198   1.146  0.3131 -0.0021  0.3124
  579TMC3    C6 8586   3.713   3.234   1.186  0.0920 -1.0151 -0.1956
  579TMC3     C 8587   3.428   3.516   1.137 -0.6455  0.9461  0.2060
  579TMC3     O 8588   3.312   3.478   1.134  0.3464  0.0450  0.1471
  579TMC3     H 8589   3.665   3.561   1.252  1.6696  0.5706 -2.1628
  579TMC3    H1 8590   3.388   3.266   1.113  0.3819  3.4194 -3.9357
  579TMC3    H2 8591   3.790   3.159   1.200  0.6556 -0.7523 -1.8955
  579TMC3    C7 8592   3.555   3.059   1.157  0.4433  0.9402 -0.4027
  579TMC3    C8 8593   3.880   3.378   1.262 -0.7749 -0.2866 -0.5037
  579TMC3    O1 8594   3.595   2.982   1.242  0.0065  0.6549 -0.8036
  579TMC3    O2 8595   3.941   3.279   1.298 -0.1073  0.0897 -0.3421
  580TMC3    C1 8596   3.302   3.033  12.195 -0.7262 -1.1360 -0.5588
  580TMC3    C2 8597   3.389   3.103  12.277 -0.4696  0.3429 -0.1064
  580TMC3    C3 8598   3.499   3.039  12.324  0.7640 -0.2284 -0.2213
  580TMC3    C4 8599   3.328   2.899  12.163  0.5788  0.3294 -0.9177
  580TMC3    C5 8600   3.426   2.833  12.232 -0.2554  0.0016 -0.4762
  580TMC3    C6 8601   3.516   2.901  12.316 -0.1464 -0.3272 -0.0568
  580TMC3     C 8602   3.259   3.106  12.077 -0.2248  0.2177  0.5244
  580TMC3     O 8603   3.290   3.062  11.965  0.4884 -0.4432 -0.1889
  580TMC3     H 8604   3.388   3.211  12.270  0.6306  0.4773  1.8468
  580TMC3    H1 8605   3.265   2.850  12.089  0.6050 -0.5444 -0.3664
  580TMC3    H2 8606   3.590   2.852  12.379  1.4780  0.2130 -1.5494
  580TMC3    C7 8607   3.449   2.705  12.188 -0.7257  0.2915 -0.1722
  580TMC3    C8 8608   3.616   3.126  12.340  0.1345 -0.5338  0.7456
  580TMC3    O1 8609   3.368   2.654  12.106  0.1305 -0.2601  0.5600
  580TMC3    O2 8610   3.597   3.245  12.355 -0.7116 -0.9659  0.2478
  581MPD2     C 8611   1.126   2.462  15.189  0.0816 -0.0955  0.8911
  581MPD2    C1 8612   0.992   2.452  15.235 -0.3729  0.6429 -0.4993
  581MPD2    C2 8613   0.903   2.549  15.202 -0.1047  0.3298  0.5642
  581MPD2    C3 8614   0.948   2.651  15.119 -0.7154  0.0229 -0.2573
  581MPD2    C4 8615   1.078   2.667  15.083  0.1163 -0.2299 -0.9059
  581MPD2    C5 8616   1.168   2.571  15.110  0.0053 -0.2540 -0.1204
  581MPD2     H 8617   0.801   2.539  15.236 -0.2954  0.8648  0.1447
  581MPD2    H1 8618   1.107   2.750  15.018  2.1197 -0.0630  0.2140
  581MPD2    H2 8619   1.189   2.375  15.206  2.5199  1.2814 -1.0784
  581MPD2    H3 8620   1.262   2.571  15.056  0.1624 -0.4155  0.1522
  581MPD2     N 8621   0.847   2.750  15.089 -0.4951 -0.1108 -0.1456
  581MPD2    H5 8622   0.749   2.728  15.106  0.0700 -0.9403  2.0529
  581MPD2    N1 8623   0.966   2.339  15.312 -0.4629  0.2215 -0.1849
  581MPD2    H7 8624   1.041   2.272  15.319  0.9671  1.8804  0.5004
  582TMC3    C1 8625   0.824   2.190  15.437  0.2242 -0.1485 -0.0050
  582TMC3    C2 8626   0.933   2.145  15.513 -0.2113 -0.6974 -0.5522
  582TMC3    C3 8627   0.904   2.088  15.632  0.4791 -0.1320  0.0095
  582TMC3    C4 8628   0.698   2.180  15.485  0.3176 -0.0872 -1.0215
  582TMC3    C5 8629   0.671   2.119  15.603  0.0304 -0.5092 -0.1362
  582TMC3    C6 8630   0.775   2.066  15.673  0.1240  0.4778  0.7890
  582TMC3     C 8631   0.835   2.309  15.360 -0.3546  0.2070 -0.3894
  582TMC3     O 8632   0.741   2.382  15.376 -0.1556 -0.4599 -0.3601
  582TMC3     H 8633   1.027   2.195  15.494 -0.4679  0.2792  0.7959
  582TMC3    H1 8634   0.624   2.196  15.407  2.2886  1.4836 -2.5726
  582TMC3    H2 8635   0.757   2.040  15.776 -1.3432 -0.2698  0.3412
  582TMC3    C7 8636   0.561   2.184  15.671 -0.1914 -0.7565  0.1170
  582TMC3    C8 8637   1.002   2.088  15.738  0.8670 -0.2709 -0.1814
  582TMC3    O1 8638   0.534   2.146  15.781  0.0807  0.4499 -0.8653
  582TMC3    O2 8639   1.120   2.067  15.704  0.2209 -0.2555 -0.1552
  583MPD2     C 8640   1.134   4.095  16.378  0.8270  0.0256 -0.5496
  583MPD2    C1 8641   1.211   4.203  16.355 -1.1166 -0.4661 -0.9310
  583MPD2    C2 8642   1.190   4.311  16.437  0.4076  0.3440 -0.4235
  583MPD2    C3 8643   1.103   4.312  16.545  0.4679  0.9378 -0.5374
  583MPD2    C4 8644   1.036   4.190  16.560  0.1093 -0.2462  0.6569
  583MPD2    C5 8645   1.049   4.091  16.479  0.2132  0.3984 -0.3891
  583MPD2     H 8646   1.264   4.389  16.431 -0.5821  1.0412 -3.3626
  583MPD2    H1 8647   0.976   4.168  16.648  0.7022 -1.0346  0.8639
  583MPD2    H2 8648   1.134   4.010  16.311  2.5664 -0.0428 -0.4677
  583MPD2    H3 8649   0.992   4.000  16.495 -0.6163  0.9115 -0.3889
  583MPD2     N 8650   1.102   4.418  16.640  0.5897 -0.2079  0.2430
  583MPD2    H5 8651   1.161   4.499  16.621 -1.2707  0.8664 -0.9203
  583MPD2    N1 8652   1.302   4.214  16.253  0.5304 -0.0018 -0.5218
  583MPD2    H7 8653   1.357   4.298  16.240 -1.3573  1.1580 -0.9832
  584TMC3    C1 8654   1.067   4.527  16.850  0.0578  0.0815  0.1708
  584TMC3    C2 8655   1.125   4.650  16.812 -0.4882 -0.3157  0.8321
  584TMC3    C3 8656   1.169   0.012  16.905 -0.3259 -0.2259 -0.4917
  584TMC3    C4 8657   1.026   4.513  16.978  0.6516 -0.5478 -0.1294
  584TMC3    C5 8658   1.055   4.610  17.073 -0.0833  0.0179 -0.0902
  584TMC3    C6 8659   1.133   4.721  17.035 -0.4366  1.0788  0.0564
  584TMC3     C 8660   1.028   4.422  16.759  0.2418  0.1616 -0.3928
  584TMC3     O 8661   0.939   4.347  16.800  0.6608 -0.1418  0.1949
  584TMC3     H 8662   1.144   4.668  16.707  1.3251  2.3762  1.6135
  584TMC3    H1 8663   0.946   4.442  16.993  0.3582 -0.0987  0.4081
  584TMC3    H2 8664   1.154   0.073  17.109  0.3471  1.0157 -0.1055
  584TMC3    C7 8665   0.997   4.610  17.207  0.1828  0.0468 -0.2661
  584TMC3    C8 8666   1.255   0.118  16.859  0.7684  0.4882  0.5288
  584TMC3    O1 8667   0.994   4.710  17.276  0.0646  0.1499  0.2265
  584TMC3    O2 8668   1.252   0.140  16.738  0.4132 -0.0135 -0.0139
  585MPD2     C 8669   0.068   3.487   0.841 -0.6826 -0.0689  0.4471
  585MPD2    C1 8670   0.164   3.506   0.749 -0.1158  0.3707 -1.0310
  585MPD2    C2 8671   0.156   3.424   0.632 -0.1971  0.0117  0.8826
  585MPD2    C3 8672   0.060   3.324   0.616 -0.4659 -0.6869  0.2912
  585MPD2    C4 8673   4.699   3.303   0.715 -0.4245  0.1586 -0.7422
  585MPD2    C5 8674   4.708   3.379   0.829 -0.4041 -0.5839 -0.1109
  585MPD2     H 8675   0.226   3.452   0.554 -1.8745  0.6700 -0.3800
  585MPD2    H1 8676   4.627   3.222   0.709 -0.4453 -0.0610  2.2632
  585MPD2    H2 8677   0.082   3.536   0.936  0.9386  1.4166 -0.5555
  585MPD2    H3 8678   4.639   3.354   0.909  0.1367 -0.8442  0.2779
  585MPD2     N 8679   0.047   3.241   0.504  0.1842 -0.0372 -0.5266
  585MPD2    H5 8680   4.688   3.182   0.505  0.1737 -0.0366 -1.5143
  585MPD2    N1 8681   0.261   3.607   0.768 -0.2634 -0.1293  0.4935
  585MPD2    H7 8682   0.247   3.678   0.839  1.9301  1.1715 -0.3867
  586TMC3    C1 8683   0.104   3.143   0.297  0.0317 -0.0849 -0.1526
  586TMC3    C2 8684   0.205   3.094   0.224  0.0521  0.1804  0.4850
  586TMC3    C3 8685   0.177   3.008   0.124  0.4573 -0.1095  0.2023
  586TMC3    C4 8686   4.697   3.123   0.273  0.2900  0.2136 -0.0491
  586TMC3    C5 8687   4.670   3.034   0.171 -0.2438 -0.0864 -0.2040
  586TMC3    C6 8688   0.043   2.966   0.101  1.1487  0.5236  0.5972
  586TMC3     C 8689   0.146   3.220   0.408  0.1138 -0.2304  0.1995
  586TMC3     O 8690   0.262   3.263   0.414 -0.0139 -0.2847  0.0246
  586TMC3     H 8691   0.305   3.102   0.265  1.0953  0.5708 -2.1088
  586TMC3    H1 8692   4.618   3.174   0.327 -0.8295 -1.7470  0.1656
  586TMC3    H2 8693   0.009   2.905   0.018 -0.3205  1.1046  0.7730
  586TMC3    C7 8694   4.538   2.972   0.154  0.4747 -0.4058 -0.0401
  586TMC3    C8 8695   0.284   2.928   0.071  0.0964 -0.3819 -0.0326
  586TMC3    O1 8696   4.510   2.927   0.043 -0.2082  0.0670 -0.6795
  586TMC3    O2 8697   0.249   2.814   0.062  0.4242  0.2467  0.1492
  587TMC3    C1 8698   2.782   1.868  16.573  0.4244  0.7816 -0.2780
  587TMC3    C2 8699   2.738   1.994  16.524 -0.6428  0.1237  0.3718
  587TMC3    C3 8700   2.828   2.070  16.452 -0.3578  1.1474 -0.0656
  587TMC3    C4 8701   2.910   1.825  16.547 -0.1542  0.5194 -0.7298
  587TMC3    C5 8702   2.990   1.910  16.478  0.1593  0.3341 -1.5538
  587TMC3    C6 8703   2.953   2.032  16.425 -0.3020  0.1128  0.9707
  587TMC3     C 8704   2.704   1.786  16.656 -0.1263 -0.6279  0.3561
  587TMC3     O 8705   2.755   1.701  16.730  0.0024  0.3261  0.0847
  587TMC3     H 8706   2.641   2.031  16.555  0.9712  3.2646  1.6516
  587TMC3    H1 8707   2.941   1.730  16.588 -0.5777  0.4239 -0.6308
  587TMC3    H2 8708   3.016   2.092  16.361 -0.0708 -1.0473  0.1201
  587TMC3    C7 8709   3.127   1.878  16.460  0.4109 -0.4300 -0.1821
  587TMC3    C8 8710   2.786   2.208  16.409  0.7615 -0.7709 -0.5465
  587TMC3    O1 8711   3.209   1.969  16.435  0.0943 -0.2493 -0.0073
  587TMC3    O2 8712   2.885   2.281  16.388  0.2721  0.1174 -0.1510
  588TMC3    C1 8713   0.559   3.660   9.505 -0.3413 -0.1318 -0.3596
  588TMC3    C2 8714   0.509   3.537   9.552 -0.5853  0.1172  0.4794
  588TMC3    C3 8715   0.577   3.471   9.650 -0.2820 -0.0891 -0.2916
  588TMC3    C4 8716   0.669   3.714   9.565 -0.1256  0.4654 -0.1184
  588TMC3    C5 8717   0.723   3.650   9.677  0.0149 -0.1587 -0.4362
  588TMC3    C6 8718   0.686   3.524   9.713  0.3143  0.7688 -0.0318
  588TMC3     C 8719   0.466   3.749   9.444  0.1139 -0.0010 -0.3756
  588TMC3     O 8720   0.427   3.717   9.331  0.0871  0.0379 -0.9328
  588TMC3     H 8721   0.413   3.507   9.513  0.8900 -0.7555 -2.5055
  588TMC3    H1 8722   0.714   3.807   9.530  0.5259  0.1943  0.0163
  588TMC3    H2 8723   0.727   3.481   9.804 -0.1749  0.9110  0.2558
  588TMC3    C7 8724   0.841   3.706   9.739 -0.2114 -0.0846  0.7376
  588TMC3    C8 8725   0.541   3.333   9.644 -0.2024 -0.0680 -0.0067
  588TMC3    O1 8726   0.923   3.627   9.788 -0.8105  0.0816  0.2991
  588TMC3    O2 8727   0.435   3.303   9.597 -0.1064  0.1382  0.1438
  589TMC3    C1 8728   3.408   1.759   1.218  0.2931  0.5152 -0.2405
  589TMC3    C2 8729   3.438   1.742   1.347 -0.9347  0.4228 -0.4818
  589TMC3    C3 8730   3.528   1.644   1.388 -0.3939  0.2782  0.3260
  589TMC3    C4 8731   3.465   1.686   1.118  0.4852  0.5678 -0.1856
  589TMC3    C5 8732   3.555   1.589   1.162 -0.5710 -0.7987 -0.8278
  589TMC3    C6 8733   3.590   1.570   1.294 -0.0885  0.1589 -0.4844
  589TMC3     C 8734   3.327   1.871   1.175 -0.2541  0.1430  0.7293
  589TMC3     O 8735   3.306   1.885   1.056  0.5347  0.5253 -0.5649
  589TMC3     H 8736   3.387   1.801   1.422 -0.5259 -0.1443  0.2386
  589TMC3    H1 8737   3.433   1.702   1.015  0.3274 -0.3882 -0.2865
  589TMC3    H2 8738   3.668   1.499   1.316 -0.9202 -0.5917  0.0278
  589TMC3    C7 8739   3.629   1.509   1.064  0.2602 -0.2642 -0.3777
  589TMC3    C8 8740   3.601   1.660   1.510 -0.6468 -0.0022 -0.7860
  589TMC3    O1 8741   3.707   1.429   1.118  0.0008 -0.1744  0.2539
  589TMC3    O2 8742   3.545   1.689   1.616  0.1941  0.8276  0.0817
  590MPD2     C 8743   4.014   0.182  16.813 -0.4911  0.2555  0.2330
  590MPD2    C1 8744   3.960   0.282  16.731 -0.1459 -0.0580  0.2239
  590MPD2    C2 8745   4.049   0.369  16.670 -0.5653 -0.0818  0.8429
  590MPD2    C3 8746   4.183   0.363  16.682 -0.3952 -0.0350 -0.0597
  590MPD2    C4 8747   4.231   0.259  16.763 -0.2606 -0.1735 -0.5630
  590MPD2    C5 8748   4.149   0.167  16.822  0.1310 -0.3795  0.5435
  590MPD2     H 8749   4.008   0.447  16.607  1.3881  0.5937  0.4176
  590MPD2    H1 8750   4.337   0.252  16.784 -0.8694  0.1735  2.7396
  590MPD2    H2 8751   3.948   0.103  16.848 -2.0765  2.0636  1.3212
  590MPD2    H3 8752   4.195   0.087  16.880  0.0902 -0.3391  0.6315
  590MPD2     N 8753   4.262   0.456  16.615 -0.0745 -0.4775  0.1010
  590MPD2    H5 8754   4.210   0.526  16.562 -0.2320 -1.0898 -0.5594
  590MPD2    N1 8755   3.815   0.287  16.725 -0.2960  0.0561 -0.1782
  590MPD2    H7 8756   3.765   0.215  16.776  1.2151 -1.0698 -0.2982
  591TMC3    C1 8757   4.414   0.556  16.474  0.5583 -0.3913  0.2328
  591TMC3    C2 8758   4.496   0.526  16.369 -0.1078  0.5689 -0.6943
  591TMC3    C3 8759   4.476   0.598  16.257  0.4836  0.3201 -0.0439
  591TMC3    C4 8760   4.311   0.653  16.466 -0.3359 -0.4978  0.6655
  591TMC3    C5 8761   4.314   0.732  16.360  0.0973 -0.2961  0.0433
  591TMC3    C6 8762   4.394   0.706  16.251  0.6693  0.5372 -0.3694
  591TMC3     C 8763   4.396   0.454  16.576  0.0799 -1.0313 -0.1617
  591TMC3     O 8764   4.483   0.370  16.591 -1.1640  0.5035  0.0184
  591TMC3     H 8765   4.554   0.434  16.376 -1.5901 -0.4040 -1.1539
  591TMC3    H1 8766   4.257   0.685  16.555  0.6948 -1.3168  1.5828
  591TMC3    H2 8767   4.374   0.767  16.164 -0.6239 -1.0327 -1.1575
  591TMC3    C7 8768   4.201   0.823  16.350 -0.0238 -0.0209  0.4946
  591TMC3    C8 8769   4.507   0.521  16.137 -0.4195 -0.4893 -0.4362
  591TMC3    O1 8770   4.106   0.808  16.432  0.2263  0.0359 -0.2436
  591TMC3    O2 8771   4.515   0.400  16.150 -0.2238 -0.6071  0.4722
  592MPD2     C 8772   4.509   2.409  11.183  0.1530 -0.0398 -0.0260
  592MPD2    C1 8773   4.537   2.435  11.319 -0.2377 -0.0103 -0.3904
  592MPD2    C2 8774   4.476   2.364  11.420 -0.1448  0.1624  0.9074
  592MPD2    C3 8775   4.384   2.264  11.394 -0.1559 -0.4299  0.2689
  592MPD2    C4 8776   4.361   2.239  11.261  0.2811  0.7464  1.4972
  592MPD2    C5 8777   4.424   2.304  11.152 -0.6138 -1.1994 -0.0473
  592MPD2     H 8778   4.495   2.391  11.523 -1.4695  0.6945  1.0059
  592MPD2    H1 8779   4.286   2.165  11.234 -0.3276  1.7697  0.3689
  592MPD2    H2 8780   4.547   2.464  11.098  0.9976  0.6367  0.7832
  592MPD2    H3 8781   4.395   2.294  11.048 -1.2486  1.2570 -0.1079
  592MPD2     N 8782   4.323   2.202  11.508  0.0534  0.3423  0.5472
  592MPD2    H5 8783   4.368   2.231  11.594 -0.3171  1.4039  0.3873
  592MPD2    N1 8784   4.636   2.533  11.343  0.3648 -0.3834 -0.0210
  592MPD2    H7 8785   4.686   2.579  11.268  0.0648 -1.1078 -0.6666
  593TMC3    C1 8786   0.049   2.686  11.453 -0.0300  0.1679  0.5412
  593TMC3    C2 8787   0.088   2.735  11.577 -0.3878 -0.1506 -0.0403
  593TMC3    C3 8788   0.176   2.832  11.571  0.0293 -0.0296  0.8058
  593TMC3    C4 8789   0.106   2.727  11.332 -0.3150  0.3364  0.2903
  593TMC3    C5 8790   0.194   2.827  11.344 -0.7584  0.7164 -0.1591
  593TMC3    C6 8791   0.234   2.872  11.465  0.5229 -0.3444 -0.6154
  593TMC3     C 8792   4.668   2.584  11.466  1.0639 -0.6395  0.0637
  593TMC3     O 8793   4.617   2.569  11.574 -0.1760 -0.2367 -0.2696
  593TMC3     H 8794   0.047   2.709  11.674 -0.7010 -0.4873 -0.2664
  593TMC3    H1 8795   0.069   2.691  11.237  2.6378 -0.5449 -0.5166
  593TMC3    H2 8796   0.323   2.930  11.487 -0.1982 -0.2403  1.9410
  593TMC3    C7 8797   0.300   2.844  11.254 -0.0425  0.1740 -0.6018
  593TMC3    C8 8798   0.241   2.862  11.698 -0.1900  0.3972  0.1236
  593TMC3    O1 8799   0.356   2.951  11.257  0.2904 -0.1250 -0.1244
  593TMC3    O2 8800   0.266   2.765  11.774 -0.0921  0.2730  0.2140
  594MPD2     C 8801   3.595   1.002  14.198 -0.0923 -0.0331 -0.1187
  594MPD2    C1 8802   3.476   1.050  14.221  0.3253  0.5697 -0.1158
  594MPD2    C2 8803   3.469   1.189  14.219 -0.6930 -0.1766  0.3487
  594MPD2    C3 8804   3.569   1.270  14.166  0.0987  0.6940 -0.0086
  594MPD2    C4 8805   3.682   1.211  14.128 -0.2903  0.4535  0.8387
  594MPD2    C5 8806   3.690   1.082  14.145 -0.0105 -0.1980  0.7894
  594MPD2     H 8807   3.385   1.252  14.244 -0.7682 -0.5771  1.1063
  594MPD2    H1 8808   3.769   1.256  14.081 -1.4727  1.4126 -0.3819
  594MPD2    H2 8809   3.615   0.895  14.196  0.4740  0.0614  0.5191
  594MPD2    H3 8810   3.782   1.033  14.116 -0.7133 -2.0812  1.7455
  594MPD2     N 8811   3.545   1.412  14.158 -0.4317  0.3574  0.4690
  594MPD2    H5 8812   3.452   1.450  14.173 -0.0489  0.0958  3.4974
  594MPD2    N1 8813   3.369   0.965  14.246 -0.3974 -0.5161 -0.2359
  594MPD2    H7 8814   3.387   0.865  14.256  0.2215 -0.2389  1.3712
  595TMC3    C1 8815   3.635   1.856  14.087  0.3512  0.2238  1.0789
  595TMC3    C2 8816   3.653   1.727  14.046 -0.3508 -0.0747  0.0846
  595TMC3    C3 8817   3.565   1.637  14.109  0.3714  0.1213  0.6496
  595TMC3    C4 8818   3.555   1.896  14.188  0.4289 -0.2256  0.5894
  595TMC3    C5 8819   3.467   1.805  14.242  0.0354  0.5183 -0.3464
  595TMC3    C6 8820   3.467   1.678  14.200  0.5182 -0.5113  0.9957
  595TMC3     C 8821   3.758   1.937  14.072  0.8359  0.4818  0.6789
  595TMC3     O 8822   3.792   1.967  13.960 -0.3213  0.3143 -1.0050
  595TMC3     H 8823   3.735   1.705  13.979 -1.5756 -1.8590 -0.8137
  595TMC3    H1 8824   3.560   1.999  14.221 -0.8130  1.4767 -4.5326
  595TMC3    H2 8825   3.395   1.615  14.252  1.1174 -1.1820  1.0207
  595TMC3    C7 8826   3.395   1.840  14.359  0.8552 -0.2399 -0.2390
  595TMC3    C8 8827   3.636   1.508  14.126  0.3880 -0.0662  0.5318
  595TMC3    O1 8828   3.285   1.794  14.386  0.3154 -0.2249  0.0799
  595TMC3    O2 8829   3.758   1.505  14.107  0.5020  0.4250  0.3566
  596MPD2     C 8830   1.777   3.923  16.553 -0.3161  0.0505  0.8279
  596MPD2    C1 8831   1.859   4.028  16.504 -0.4212 -0.6082 -0.2483
  596MPD2    C2 8832   1.916   4.018  16.387  0.1991 -0.0652 -0.3555
  596MPD2    C3 8833   1.919   3.905  16.315  0.6821  0.1035  0.3686
  596MPD2    C4 8834   1.845   3.795  16.360 -0.1407  0.4428  0.3930
  596MPD2    C5 8835   1.778   3.806  16.479 -0.7922  0.4615  0.0511
  596MPD2     H 8836   1.967   4.109  16.359  0.8755 -0.5506 -0.7145
  596MPD2    H1 8837   1.836   3.707  16.297 -1.4280  1.6440 -1.0773
  596MPD2    H2 8838   1.721   3.930  16.646 -0.3756  0.2688  0.7775
  596MPD2    H3 8839   1.707   3.732  16.511  2.0899 -1.2459  2.4666
  596MPD2     N 8840   1.987   3.892  16.191  0.3396 -0.1707  0.4070
  596MPD2    H5 8841   1.965   3.810  16.135 -0.4910 -0.6125  1.4026
  596MPD2    N1 8842   1.880   4.145  16.582 -0.3390  0.3037 -0.4401
  596MPD2    H7 8843   1.919   4.222  16.531  0.3270 -1.8910 -3.2316
  597TMC3    C1 8844   1.870   4.290  16.765 -0.1451 -0.1928 -0.1473
  597TMC3    C2 8845   1.988   4.353  16.726 -0.2604 -0.0177  0.6098
  597TMC3    C3 8846   2.025   4.459  16.806 -0.9258 -0.4439  0.7643
  597TMC3    C4 8847   1.795   4.328  16.875 -0.0462 -0.4968 -0.0342
  597TMC3    C5 8848   1.833   4.436  16.951  0.4007 -0.4653 -0.2220
  597TMC3    C6 8849   1.952   4.499  16.920  0.2615  0.7086 -0.0653
  597TMC3     C 8850   1.833   4.166  16.707  0.0472 -0.1429 -0.8035
  597TMC3     O 8851   1.783   4.085  16.785  0.2378 -0.1781  0.4341
  597TMC3     H 8852   2.047   4.321  16.642  2.4903  3.5280  1.1620
  597TMC3    H1 8853   1.694   4.290  16.888  0.2912 -1.3693  0.0346
  597TMC3    H2 8854   1.979   4.582  16.984 -0.0197  1.2251 -0.6197
  597TMC3    C7 8855   1.743   4.478  17.061  0.1545 -0.1082  0.2807
  597TMC3    C8 8856   2.144   4.537  16.776 -0.4622 -0.3177  0.0735
  597TMC3    O1 8857   1.644   4.412  17.088  0.0878  0.1791 -0.5695
  597TMC3    O2 8858   2.151   4.651  16.825 -0.1251  0.1024  0.2221
  598TMC3    C1 8859   0.137   0.756  15.076 -0.2319  0.2930 -0.2580
  598TMC3    C2 8860   0.005   0.766  15.115  0.0328  0.4138  0.8705
  598TMC3    C3 8861   4.710   0.888  15.173  0.1774  0.3581  0.1679
  598TMC3    C4 8862   0.245   0.837  15.115 -0.2613  0.2047 -0.2806
  598TMC3    C5 8863   0.218   0.935  15.199  0.1438 -0.1360 -0.0548
  598TMC3    C6 8864   0.084   0.973  15.222 -0.9992 -0.0763  0.8297
  598TMC3     C 8865   0.180   0.640  15.007 -0.1069 -0.0982 -0.9286
  598TMC3     O 8866   0.287   0.647  14.950  0.0763  0.0883 -0.2139
  598TMC3     H 8867   4.643   0.705  15.087 -0.0951  0.1385  1.8455
  598TMC3    H1 8868   0.346   0.803  15.096 -0.0792  1.0007 -0.7504
  598TMC3    H2 8869   0.055   1.057  15.284  0.3004  1.1631 -0.2506
  598TMC3    C7 8870   0.319   1.040  15.215  0.5384  0.2911  0.1029
  598TMC3    C8 8871   4.573   0.933  15.199  0.1038  0.1475  0.2002
  598TMC3    O1 8872   0.273   1.131  15.283 -0.1978  0.3461  0.4159
  598TMC3    O2 8873   4.552   1.053  15.218 -0.1669  0.5693 -0.5511
  599MPD2     C 8874   0.549   3.090  16.891 -0.2521 -0.7434 -0.1415
  599MPD2    C1 8875   0.519   3.025  16.780 -0.6368 -0.2000  0.0961
  599MPD2    C2 8876   0.426   3.078  16.688  0.5635  0.7653  0.2854
  599MPD2    C3 8877   0.365   3.206  16.712  0.2518  0.3829  0.2204
  599MPD2    C4 8878   0.396   3.265  16.829  0.5355  0.2973 -0.5434
  599MPD2    C5 8879   0.498   3.215  16.914 -0.0313  0.9458  0.5794
  599MPD2     H 8880   0.390   3.032  16.597  0.2822 -0.9004  1.2368
  599MPD2    H1 8881   0.346   3.353  16.867  0.4888 -0.1752  0.4699
  599MPD2    H2 8882   0.625   3.055  16.959 -0.5704 -0.1075  0.5353
  599MPD2    H3 8883   0.527   3.262  17.007 -3.2241 -1.3525  2.7332
  599MPD2     N 8884   0.246   3.231  16.636  0.9131  0.2160 -0.1030
  599MPD2    H5 8885   0.217   3.160  16.570 -1.0848 -0.0145  1.0367
  599MPD2    N1 8886   0.575   2.893  16.763 -0.2319 -0.2956  0.1155
  599MPD2    H7 8887   0.626   2.852  16.841  0.3758  0.7542  0.2727
  600TMC3    C1 8888   0.045   3.330  16.556  0.2345 -0.4494  0.0416
  600TMC3    C2 8889   4.708   3.207  16.564 -0.5486  0.6122 -0.0646
  600TMC3    C3 8890   4.576   3.210  16.525 -0.2955 -0.0343 -0.2128
  600TMC3    C4 8891   4.703   3.444  16.514 -0.0947 -0.1218  0.9824
  600TMC3    C5 8892   4.575   3.441  16.478 -0.0873  0.5012  0.2461
  600TMC3    C6 8893   4.511   3.321  16.473  0.0165 -0.1664  0.0749
  600TMC3     C 8894   0.176   3.349  16.627  0.3896  0.4157 -0.0391
  600TMC3     O 8895   0.211   3.458  16.666 -0.2074  0.6661  0.1375
  600TMC3     H 8896   0.028   3.116  16.605 -1.6229 -0.1650 -0.6272
  600TMC3    H1 8897   0.048   3.529  16.513 -2.1071  1.4988  0.7422
  600TMC3    H2 8898   4.405   3.323  16.449 -0.6603 -1.3417  2.9013
  600TMC3    C7 8899   4.491   3.563  16.481 -0.4245 -0.2950 -0.1255
  600TMC3    C8 8900   4.506   3.079  16.524 -0.2916  0.9563  0.0700
  600TMC3    O1 8901   4.369   3.549  16.487  0.2727  0.3024 -0.5403
  600TMC3    O2 8902   4.573   2.995  16.584 -0.3916 -0.5918  0.4241
  601MPD2     C 8903   2.341   0.257   0.077  0.2234 -0.7500 -0.3114
  601MPD2    C1 8904   2.205   0.271   0.084 -0.5166 -0.4657  0.4928
  601MPD2    C2 8905   2.135   0.169   0.033  0.2998  0.4489  0.6328
  601MPD2    C3 8906   2.188   0.074  17.651 -0.3551  0.4636 -0.7026
  601MPD2    C4 8907   2.326   0.069  17.630  0.2975  1.3303  1.1663
  601MPD2    C5 8908   2.397   0.150   0.006  0.2342  0.0806  0.1619
  601MPD2     H 8909   2.027   0.179   0.040  0.1831 -1.3278  1.3107
  601MPD2    H1 8910   2.382   4.712  17.586 -0.1345  0.9809  1.2609
  601MPD2    H2 8911   2.416   0.330   0.104  0.9153 -1.7045  0.3217
  601MPD2    H3 8912   2.504   0.139   0.006  0.4587  2.2469  3.1297
  601MPD2     N 8913   2.111   4.688  17.596  0.4571  0.9946  0.3204
  601MPD2    H5 8914   2.154   4.626  17.529 -2.0517 -1.8628  1.3453
  601MPD2    N1 8915   2.140   0.384   0.142  0.1000  0.1306  0.0242
  601MPD2    H7 8916   2.042   0.389   0.116 -0.0341  0.8829  0.6683
  602TMC3    C1 8917   2.114   0.603   0.237  0.2625 -0.3720  0.2418
  602TMC3    C2 8918   2.167   0.716   0.275  0.0626 -0.5692 -0.2866
  602TMC3    C3 8919   2.079   0.816   0.311 -0.9509  0.2166  0.1834
  602TMC3    C4 8920   1.978   0.575   0.231  0.6624 -0.0524  0.3819
  602TMC3    C5 8921   1.894   0.680   0.260  0.1789  0.2188 -0.5616
  602TMC3    C6 8922   1.942   0.799   0.308 -0.1200 -0.4023  0.6607
  602TMC3     C 8923   2.205   0.494   0.205 -0.2879 -0.4715  0.0898
  602TMC3     O 8924   2.324   0.507   0.236  0.5011  0.3506  0.1082
  602TMC3     H 8925   2.275   0.720   0.270  0.2042 -3.8246 -0.2990
  602TMC3    H1 8926   1.929   0.483   0.201  0.8432 -0.4683  1.3687
  602TMC3    H2 8927   1.863   0.869   0.336  1.7366  1.6834  0.6900
  602TMC3    C7 8928   1.752   0.661   0.247  1.3509  0.2168 -1.0163
  602TMC3    C8 8929   2.121   0.947   0.337  1.0213 -0.4226  0.0009
  602TMC3    O1 8930   1.705   0.563   0.307  0.0436  0.0897 -0.4461
  602TMC3    O2 8931   2.217   0.958   0.417  0.1687 -0.1010  0.1408
  603TMC3    C1 8932   0.844   1.533  10.909  0.0894  0.3132  0.7030
  603TMC3    C2 8933   0.880   1.533  11.044 -0.1064 -0.2709  0.4126
  603TMC3    C3 8934   0.958   1.632  11.105 -0.6447  0.0922  0.0185
  603TMC3    C4 8935   0.862   1.644  10.839  0.4186  0.2686 -0.1865
  603TMC3    C5 8936   0.941   1.741  10.901  0.3310  0.0118  1.0092
  603TMC3    C6 8937   0.978   1.751  11.033 -0.1786 -0.4055  0.1088
  603TMC3     C 8938   0.785   1.413  10.853  0.3222 -0.2989  0.3801
  603TMC3     O 8939   0.801   1.301  10.910  0.3401 -0.8044 -0.3959
  603TMC3     H 8940   0.849   1.440  11.092 -3.0660  0.7035  0.4186
  603TMC3    H1 8941   0.850   1.648  10.731 -0.0774 -1.2117 -0.1777
  603TMC3    H2 8942   1.043   1.826  11.075 -1.3149  1.4725 -1.5053
  603TMC3    C7 8943   0.976   1.854  10.816 -0.6954 -0.2027  0.0461
  603TMC3    C8 8944   1.001   1.618  11.248 -0.3635  0.0958  0.5033
  603TMC3    O1 8945   1.068   1.922  10.857  0.2012  0.1760  0.5967
  603TMC3    O2 8946   0.994   1.502  11.280  0.3459  0.0604  0.1036
  604MPD2     C 8947   1.500   0.672  16.558  0.6081 -0.1045  0.5770
  604MPD2    C1 8948   1.385   0.665  16.473  0.2197 -0.1708  0.1896
  604MPD2    C2 8949   1.405   0.652  16.338  0.1359 -0.8485  0.3991
  604MPD2    C3 8950   1.534   0.646  16.289  0.4757  0.0757 -0.9793
  604MPD2    C4 8951   1.642   0.668  16.371 -0.1316  0.3078  1.2010
  604MPD2    C5 8952   1.631   0.672  16.503  0.2946 -0.3407  0.1425
  604MPD2     H 8953   1.324   0.634  16.268  1.3331 -1.1654 -0.9128
  604MPD2    H1 8954   1.742   0.678  16.330 -0.8637  1.1996 -0.3694
  604MPD2    H2 8955   1.498   0.719  16.656 -2.5669  2.4845 -0.7019
  604MPD2    H3 8956   1.724   0.697  16.554  1.2777 -0.9244 -1.3592
  604MPD2     N 8957   1.546   0.616  16.154 -0.2902 -0.1992  0.3977
  604MPD2    H5 8958   1.462   0.598  16.099 -0.0651  0.9825 -0.3523
  604MPD2    N1 8959   1.257   0.671  16.533  0.2494  0.0825 -0.1347
  604MPD2    H7 8960   1.254   0.678  16.635 -0.4550  0.6088 -0.1945
  605TMC3    C1 8961   1.042   0.764  16.548  0.4946  0.8042  0.0578
  605TMC3    C2 8962   1.079   0.809  16.670 -0.4110  0.2321 -0.3857
  605TMC3    C3 8963   1.017   0.922  16.716 -0.4467 -0.9079  0.2085
  605TMC3    C4 8964   0.949   0.832  16.470 -0.5081  0.1405  0.6149
  605TMC3    C5 8965   0.887   0.942  16.520 -0.1133 -0.7420 -0.0672
  605TMC3    C6 8966   0.924   0.988  16.642 -0.0563  0.3116 -0.0619
  605TMC3     C 8967   1.136   0.681  16.472  0.3913  0.0874  0.1384
  605TMC3     O 8968   1.115   0.649  16.354  0.1344  0.1432  0.6610
  605TMC3     H 8969   1.129   0.749  16.744  1.5708 -0.4069 -2.2529
  605TMC3    H1 8970   0.936   0.800  16.368  1.6676  1.8635 -0.2007
  605TMC3    H2 8971   0.880   1.077  16.684 -2.8136 -1.0715  0.0213
  605TMC3    C7 8972   0.761   0.986  16.463  0.0846  0.0573 -0.1349
  605TMC3    C8 8973   1.070   0.967  16.843  0.3560 -0.4220 -0.0998
  605TMC3    O1 8974   0.729   1.103  16.465  0.5393 -0.1586 -0.1196
  605TMC3    O2 8975   0.986   1.029  16.911 -0.2539  0.1617 -0.7978
  606TMC3    C1 8976   2.205   3.821  17.220  0.2192 -0.4401 -0.5959
  606TMC3    C2 8977   2.239   3.946  17.274 -0.6833 -0.2482 -0.0102
  606TMC3    C3 8978   2.200   3.961  17.402  0.2063 -0.5871 -0.2242
  606TMC3    C4 8979   2.115   3.734  17.282 -0.3482  0.0016  0.0716
  606TMC3    C5 8980   2.063   3.770  17.403 -0.1290  0.5295  0.2436
  606TMC3    C6 8981   2.129   3.866  17.472  0.0556  0.3933 -0.1780
  606TMC3     C 8982   2.252   3.786  17.086 -0.7181  0.0818 -0.3660
  606TMC3     O 8983   2.175   3.724  17.014  0.7258  0.2199 -0.2428
  606TMC3     H 8984   2.289   4.025  17.220 -2.8592  0.7036 -0.6350
  606TMC3    H1 8985   2.091   3.642  17.231 -0.4722 -0.1435  0.3906
  606TMC3    H2 8986   2.103   3.883  17.576  0.5973 -2.8882  0.4987
  606TMC3    C7 8987   1.990   3.677  17.486 -0.6073  0.6189 -0.2049
  606TMC3    C8 8988   2.250   4.073  17.468  0.3769  0.2124 -0.3434
  606TMC3    O1 8989   1.987   3.695  17.609  0.9999  0.1912  0.0861
  606TMC3    O2 8990   2.347   4.126  17.415 -0.0660 -0.1267  0.4222
  607MPD2     C 8991   4.559   1.946  11.676 -0.4992  0.0325  0.0902
  607MPD2    C1 8992   4.602   2.019  11.784 -0.1498  0.1729  0.5710
  607MPD2    C2 8993   4.590   1.963  11.909  0.5260  0.1042 -0.1191
  607MPD2    C3 8994   4.534   1.835  11.924 -0.4799  0.1048 -0.2600
  607MPD2    C4 8995   4.477   1.768  11.817  0.2433  0.4066 -0.1652
  607MPD2    C5 8996   4.497   1.823  11.691  0.5454 -0.4799  0.2193
  607MPD2     H 8997   4.623   2.016  11.998  0.0173 -0.7927  0.6004
  607MPD2    H1 8998   4.429   1.671  11.822  0.2249  0.5249  2.2272
  607MPD2    H2 8999   4.578   1.985  11.576  1.0086 -2.9247 -0.7848
  607MPD2    H3 9000   4.469   1.768  11.602  3.4096 -2.1129  0.3379
  607MPD2     N 9001   4.529   1.789  12.056  0.3270  0.1308  0.5145
  607MPD2    H5 9002   4.566   1.858  12.121 -0.3038  1.7308 -0.8199
  607MPD2    N1 9003   4.675   2.140  11.776 -0.2957 -0.0677 -0.3774
  607MPD2    H7 9004   4.721   2.170  11.861 -0.8218  0.2757 -0.2188
  608TMC3    C1 9005   0.081   2.315  11.694  0.2016  0.2139  0.6772
  608TMC3    C2 9006   0.091   2.353  11.824  0.7616 -0.4109  0.1907
  608TMC3    C3 9007   0.199   2.428  11.866  0.3455  0.2955 -0.0440
  608TMC3    C4 9008   0.179   2.349  11.603  0.1061 -0.2532  0.4504
  608TMC3    C5 9009   0.274   2.446  11.645  0.2639  0.3410 -0.0300
  608TMC3    C6 9010   0.290   2.482  11.779  0.1511 -0.1966 -0.4481
  608TMC3     C 9011   4.706   2.209  11.663 -0.1658  0.6457  0.1669
  608TMC3     O 9012   4.682   2.180  11.545 -0.1446  0.1003  0.2992
  608TMC3     H 9013   0.013   2.339  11.898 -0.4472 -1.1577 -1.2334
  608TMC3    H1 9014   0.180   2.331  11.496  0.3311 -0.7811  0.5453
  608TMC3    H2 9015   0.380   2.531  11.815 -0.7967  0.5635  0.8654
  608TMC3    C7 9016   0.370   2.490  11.547 -0.0169 -0.1081  0.1281
  608TMC3    C8 9017   0.227   2.435  12.008  0.0106  0.4679 -0.1758
  608TMC3    O1 9018   0.380   2.425  11.444 -0.0888 -0.5123 -0.0490
  608TMC3    O2 9019   0.285   2.531  12.058  0.2596  0.1978 -0.5081
  609TMC3    C1 9020   3.559   0.619   9.420 -0.1045 -0.2268 -0.7642
  609TMC3    C2 9021   3.530   0.532   9.318  0.4166  0.5595 -0.0399
  609TMC3    C3 9022   3.633   0.461   9.265 -0.5369  0.4278  0.4492
  609TMC3    C4 9023   3.686   0.638   9.467  0.4824  0.1528 -0.1484
  609TMC3    C5 9024   3.786   0.562   9.413  0.1963  0.3599  0.1504
  609TMC3    C6 9025   3.754   0.464   9.324 -0.4457  0.7002 -0.0007
  609TMC3     C 9026   3.454   0.640   9.519  0.5149 -0.3018 -0.5154
  609TMC3     O 9027   3.365   0.560   9.496  0.1783 -0.0788 -0.4136
  609TMC3     H 9028   3.431   0.522   9.275  0.0897  1.5759  0.4681
  609TMC3    H1 9029   3.709   0.717   9.539  0.1219  1.3750 -1.3795
  609TMC3    H2 9030   3.833   0.397   9.293 -0.2601 -0.1787  2.3934
  609TMC3    C7 9031   3.923   0.598   9.454  0.5117 -0.2144  0.3874
  609TMC3    C8 9032   3.612   0.354   9.164  0.2012  0.6200  0.2578
  609TMC3    O1 9033   3.930   0.659   9.559 -0.6292  0.5050  0.0047
  609TMC3    O2 9034   3.686   0.258   9.167  0.4902 -0.0292  0.1261
  610TMC3    C1 9035   4.476   1.624  12.812  0.5072  0.5632  0.6639
  610TMC3    C2 9036   4.512   1.758  12.804 -0.8945 -0.5859 -0.0827
  610TMC3    C3 9037   4.638   1.798  12.759  0.2669 -0.3276 -0.4793
  610TMC3    C4 9038   4.568   1.527  12.781  0.4785 -0.0143 -0.1803
  610TMC3    C5 9039   4.695   1.572  12.749 -0.0765  0.4400 -0.0591
  610TMC3    C6 9040   0.008   1.702  12.732  0.1126  0.2680  0.7168
  610TMC3     C 9041   4.365   1.598  12.907  0.2882  0.6701 -0.7630
  610TMC3     O 9042   4.299   1.698  12.926 -0.0597  0.6221  0.4509
  610TMC3     H 9043   4.435   1.833  12.814 -1.0640 -0.6754 -0.7369
  610TMC3    H1 9044   4.538   1.424  12.789  0.3275  0.2564  2.6048
  610TMC3    H2 9045   0.105   1.736  12.699  0.5964 -0.6896  1.1612
  610TMC3    C7 9046   0.048   1.471  12.687  0.0333  0.2878 -0.4714
  610TMC3    C8 9047   4.684   1.944  12.749 -0.2024 -0.4605  0.0374
  610TMC3    O1 9048   4.710   1.384  12.626  0.2298  0.3706  0.1480
  610TMC3    O2 9049   0.063   1.971  12.693  0.2961  0.1233  1.0453
  611MPD2     C 9050   0.014   1.609  10.415 -0.2005 -0.4194  0.4861
  611MPD2    C1 9051   4.668   1.728  10.405 -0.7467  0.1355  0.7890
  611MPD2    C2 9052   0.017   1.842  10.373  0.2992 -0.2905  0.8095
  611MPD2    C3 9053   0.155   1.835  10.345  0.5655  0.3119  0.0659
  611MPD2    C4 9054   0.217   1.710  10.341 -0.0481  0.0479  0.0776
  611MPD2    C5 9055   0.139   1.600  10.373  0.0181 -0.4789 -0.5277
  611MPD2     H 9056   4.700   1.942  10.376  1.9046  0.4265 -1.4223
  611MPD2    H1 9057   0.319   1.693  10.310 -0.4558 -1.6784 -0.3060
  611MPD2    H2 9058   4.683   1.521  10.449  0.5024  0.1604  3.1581
  611MPD2    H3 9059   0.195   1.511  10.399  0.0223 -0.5221 -0.6901
  611MPD2     N 9060   0.239   1.939  10.306  0.5847 -0.4900 -0.3861
  611MPD2    H5 9061   0.338   1.925  10.285  0.7826 -0.3256  0.4375
  611MPD2    N1 9062   4.531   1.730  10.437 -0.1390 -0.1205 -0.9216
  611MPD2    H7 9063   4.499   1.638  10.467 -1.1376  0.5663  0.1249
  612TMC3    C1 9064   0.294   2.173  10.232  0.3487 -0.5465  0.4703
  612TMC3    C2 9065   0.420   2.157  10.284  0.2039 -0.0708 -0.2079
  612TMC3    C3 9066   0.498   2.266  10.278 -0.3422 -0.1548  0.6830
  612TMC3    C4 9067   0.247   2.295  10.190 -0.7639  0.6138 -0.4348
  612TMC3    C5 9068   0.325   2.405  10.194 -0.9692  0.2420 -0.1969
  612TMC3    C6 9069   0.451   2.391  10.240  0.2435 -0.3547 -0.1434
  612TMC3     C 9070   0.192   2.070  10.274 -0.1598 -0.1546 -0.5325
  612TMC3     O 9071   0.077   2.114  10.280 -0.0030  0.4154  0.0975
  612TMC3     H 9072   0.437   2.060  10.327 -2.9018 -0.7988 -0.6498
  612TMC3    H1 9073   0.140   2.293  10.171 -0.6236  2.2352 -1.4595
  612TMC3    H2 9074   0.519   2.476  10.249 -1.1888  0.9194 -1.2555
  612TMC3    C7 9075   0.277   2.536  10.144 -0.4625  0.4488 -0.0035
  612TMC3    C8 9076   0.638   2.246  10.310 -0.1299 -0.4247 -0.0949
  612TMC3    O1 9077   0.196   2.544  10.057 -0.0504 -0.2088 -0.1027
  612TMC3    O2 9078   0.718   2.330  10.279  0.1075 -0.3270  0.1101
  613MPD2     C 9079   3.106   3.825  16.143  0.1789  0.3661 -0.2954
  613MPD2    C1 9080   3.230   3.805  16.086 -0.2832 -0.2175 -0.4850
  613MPD2    C2 9081   3.239   3.725  15.975 -0.4091  0.0242  0.7298
  613MPD2    C3 9082   3.121   3.672  15.920  0.7225 -0.1359  0.6892
  613MPD2    C4 9083   2.993   3.689  15.975  0.1285 -0.7038  0.1886
  613MPD2    C5 9084   2.989   3.774  16.083 -0.1773 -0.5002  0.7769
  613MPD2     H 9085   3.330   3.712  15.917 -1.7701  2.3072 -1.9021
  613MPD2    H1 9086   2.906   3.647  15.927 -0.1618  1.1668 -0.9507
  613MPD2    H2 9087   3.097   3.892  16.227  0.4926 -2.6648  2.1355
  613MPD2    H3 9088   2.891   3.800  16.122 -1.9042 -0.6541 -3.4421
  613MPD2     N 9089   3.139   3.592  15.808 -0.1454  0.0290  0.4511
  613MPD2    H5 9090   3.237   3.579  15.785 -0.0655 -1.8499  1.8983
  613MPD2    N1 9091   3.339   3.863  16.142  0.0281 -0.5631  0.3985
  613MPD2    H7 9092   3.316   3.909  16.230 -2.2574 -0.3586 -0.3268
  614TMC3    C1 9093   3.541   3.982  16.128 -0.6466 -0.1317 -0.0354
  614TMC3    C2 9094   3.677   3.969  16.104  1.5173 -0.1984 -0.8512
  614TMC3    C3 9095   3.738   4.050  16.004 -0.0975 -0.0496  0.5211
  614TMC3    C4 9096   3.475   4.096  16.086 -0.1573 -0.5611 -0.8236
  614TMC3    C5 9097   3.546   4.182  15.998 -0.6542 -0.1703  0.6742
  614TMC3    C6 9098   3.668   4.152  15.949  0.0024  0.1073 -0.6892
  614TMC3     C 9099   3.468   3.863  16.097  0.5737 -0.0076 -0.8444
  614TMC3     O 9100   3.526   3.783  16.024 -0.6258 -0.5140 -0.4321
  614TMC3     H 9101   3.738   3.884  16.130  0.3676 -1.1457 -1.2309
  614TMC3    H1 9102   3.367   4.103  16.092 -0.0160  0.4685  0.4282
  614TMC3    H2 9103   3.720   4.226  15.889  0.2558 -0.4009 -1.0914
  614TMC3    C7 9104   3.468   4.275  15.925  0.5253  0.4372  0.1045
  614TMC3    C8 9105   3.814   3.972  15.908 -0.6812 -0.7301 -0.2174
  614TMC3    O1 9106   3.430   4.368  15.994 -0.3605 -0.1427 -0.1194
  614TMC3    O2 9107   3.878   4.038  15.826 -0.0788 -0.1277 -0.1715
  615MPD2     C 9108   2.718   1.411  16.279 -0.1799  0.3458 -0.0326
  615MPD2    C1 9109   2.753   1.291  16.321  0.8989 -0.4598  0.8837
  615MPD2    C2 9110   2.703   1.176  16.257 -0.4278  0.5378 -0.1555
  615MPD2    C3 9111   2.610   1.185  16.154 -0.4758  0.2087 -0.1973
  615MPD2    C4 9112   2.553   1.312  16.129  0.1788 -0.4056 -0.4975
  615MPD2    C5 9113   2.608   1.423  16.198 -0.1263  0.5460 -0.3989
  615MPD2     H 9114   2.726   1.078  16.298 -0.7286  0.2078 -0.7652
  615MPD2    H1 9115   2.484   1.331  16.049 -2.1097 -1.0889  1.3169
  615MPD2    H2 9116   2.764   1.504  16.310  2.6167 -0.4748 -1.7328
  615MPD2    H3 9117   2.574   1.517  16.155  0.6423  1.0644  0.1414
  615MPD2     N 9118   2.572   1.073  16.074  0.1434  0.5333 -0.3333
  615MPD2    H5 9119   2.515   1.090  15.992 -0.5351 -0.6375 -0.0982
  615MPD2    N1 9120   2.847   1.279  16.428 -0.0323 -0.3359  0.1454
  615MPD2    H7 9121   2.866   1.182  16.454 -1.1692 -1.0740 -1.7269
  616TMC3    C1 9122   2.961   1.336  16.619  0.3638  0.0105  0.2855
  616TMC3    C2 9123   3.057   1.237  16.615 -0.6700 -0.0864  0.6549
  616TMC3    C3 9124   3.076   1.156  16.726 -0.4887 -0.4488 -0.1291
  616TMC3    C4 9125   2.900   1.364  16.736  0.0126  0.8762 -0.1551
  616TMC3    C5 9126   2.924   1.281  16.843  0.5781  0.5949 -0.2678
  616TMC3    C6 9127   3.016   1.179  16.844 -0.2255 -0.2022  0.0668
  616TMC3     C 9128   2.901   1.380  16.501  0.3749 -0.0192  0.3792
  616TMC3     O 9129   2.916   1.500  16.473  0.0238 -0.0543 -0.2799
  616TMC3     H 9130   3.117   1.205  16.530  0.1151  0.3359  1.0552
  616TMC3    H1 9131   2.843   1.457  16.743 -0.1583  0.5475  2.7412
  616TMC3    H2 9132   3.039   1.117  16.930  0.6743 -0.0882 -0.0903
  616TMC3    C7 9133   2.820   1.274  16.941  0.7450  0.5533  0.0638
  616TMC3    C8 9134   3.191   1.062  16.733  0.1233  1.0013 -0.5468
  616TMC3    O1 9135   2.842   1.219  17.047  0.1786  0.3465 -0.0515
  616TMC3    O2 9136   3.201   0.977  16.818  0.9279 -0.5280 -0.1515
  617MPD2     C 9137   0.981   3.955  13.642 -0.3851 -0.4156 -0.1107
  617MPD2    C1 9138   0.999   3.915  13.769 -0.4094  0.3305  0.2645
  617MPD2    C2 9139   0.892   3.861  13.839  0.7768 -0.5323 -0.0049
  617MPD2    C3 9140   0.767   3.850  13.783 -0.4014  0.0750  0.5009
  617MPD2    C4 9141   0.752   3.906  13.657 -0.2652  0.1154  0.1863
  617MPD2    C5 9142   0.856   3.949  13.584 -0.4243 -0.1113  0.0259
  617MPD2     H 9143   0.918   3.832  13.940 -1.6566  2.0754  1.3973
  617MPD2    H1 9144   0.661   3.903  13.599  0.0768 -1.0858 -0.2987
  617MPD2    H2 9145   1.068   3.988  13.586 -1.8313  2.5604 -0.5906
  617MPD2    H3 9146   0.853   3.986  13.482 -0.7053  2.8115  1.0729
  617MPD2     N 9147   0.657   3.798  13.850  0.9482 -0.3225 -0.7177
  617MPD2    H5 9148   0.570   3.796  13.799 -1.8470 -1.6927  4.0462
  617MPD2    N1 9149   1.130   3.934  13.823 -0.1464  0.0548  0.2774
  617MPD2    H7 9150   1.199   3.981  13.765  0.4705 -1.8691 -0.5533
  618TMC3    C1 9151   1.315   3.878  13.948  0.5059  0.6835  0.2557
  618TMC3    C2 9152   1.403   3.780  13.935 -0.2614  0.1213 -0.9774
  618TMC3    C3 9153   1.535   3.807  13.942 -1.0822 -0.0125  0.7976
  618TMC3    C4 9154   1.351   4.012  13.963  0.3136 -0.4025  1.3922
  618TMC3    C5 9155   1.483   4.040  13.966 -0.2970  0.4568  0.6909
  618TMC3    C6 9156   1.577   3.939  13.959 -0.3503 -0.3126 -0.8312
  618TMC3     C 9157   1.174   3.854  13.926 -0.2831 -0.2527 -0.5720
  618TMC3     O 9158   1.134   3.741  13.956  0.1016 -0.4157 -0.4386
  618TMC3     H 9159   1.369   3.681  13.905 -0.1419  0.4880 -2.3019
  618TMC3    H1 9160   1.273   4.077  14.000  0.9422  1.3894 -0.4423
  618TMC3    H2 9161   1.683   3.960  13.964 -0.6157  1.1152 -1.2899
  618TMC3    C7 9162   1.524   4.176  13.964 -0.5386  0.6763 -0.8583
  618TMC3    C8 9163   1.614   3.744  13.841 -0.0298 -0.8074 -0.1485
  618TMC3    O1 9164   1.469   4.251  14.048 -0.1128  0.2964 -0.6049
  618TMC3    O2 9165   1.737   3.744  13.855 -0.2874 -0.1616  0.0927
  619MPD2     C 9166   2.682   0.370  13.687  0.7934 -0.0351  0.5898
  619MPD2    C1 9167   2.616   0.453  13.592 -0.2517  0.1240  0.1480
  619MPD2    C2 9168   2.484   0.422  13.566  0.4198 -0.4737 -0.2293
  619MPD2    C3 9169   2.417   0.316  13.622  0.4930  0.2041 -1.0745
  619MPD2    C4 9170   2.479   0.234  13.712 -0.0455 -0.1739  0.0487
  619MPD2    C5 9171   2.610   0.267  13.741 -0.2939 -0.3840  0.0214
  619MPD2     H 9172   2.433   0.498  13.508  1.6174  1.6192  1.5123
  619MPD2    H1 9173   2.427   0.161  13.773  0.1094  0.0442  0.4454
  619MPD2    H2 9174   2.786   0.370  13.716  0.5954  0.6082  1.3047
  619MPD2    H3 9175   2.672   0.198  13.797  2.5134 -0.4351 -3.1324
  619MPD2     N 9176   2.278   0.298  13.604 -0.1900  1.3812  0.4243
  619MPD2    H5 9177   2.233   0.237  13.671  1.4153  0.4764  0.6875
  619MPD2    N1 9178   2.677   0.556  13.516 -0.8543  0.4115 -0.4661
  619MPD2    H7 9179   2.618   0.614  13.457 -0.5743 -0.4590 -1.6276
  620TMC3    C1 9180   2.842   0.720  13.458  0.0859 -1.2338  0.4942
  620TMC3    C2 9181   2.765   0.742  13.344 -0.0423  0.2116 -0.2333
  620TMC3    C3 9182   2.741   0.870  13.299  0.2706  0.1779  0.1142
  620TMC3    C4 9183   2.891   0.829  13.535 -0.3473 -0.4766  0.1355
  620TMC3    C5 9184   2.868   0.952  13.477  0.4842  0.7448  0.0270
  620TMC3    C6 9185   2.803   0.975  13.360  0.4122 -0.3029 -0.2463
  620TMC3     C 9186   2.814   0.594  13.523 -0.1540 -0.3235 -0.0849
  620TMC3     O 9187   2.895   0.565  13.610 -0.1466  0.5621 -0.4778
  620TMC3     H 9188   2.722   0.658  13.290 -0.6902  1.2969 -1.4131
  620TMC3    H1 9189   2.948   0.813  13.626  2.2630  0.4802 -1.3577
  620TMC3    H2 9190   2.795   1.075  13.319  0.2841  0.3246  1.2795
  620TMC3    C7 9191   2.845   1.061  13.569 -1.2416 -0.7272 -0.1623
  620TMC3    C8 9192   2.606   0.905  13.268  0.2530 -0.5656 -0.6671
  620TMC3    O1 9193   2.922   1.108  13.648  0.1421 -0.6979  0.2393
  620TMC3    O2 9194   2.558   0.984  13.345 -0.0328  0.0502  0.4314
  621MPD2     C 9195   2.924   3.863  10.539  0.0086 -0.0529  0.6491
  621MPD2    C1 9196   2.807   3.913  10.484 -0.5081  0.0912 -0.1755
  621MPD2    C2 9197   2.787   4.048  10.466  0.4613 -0.4535  0.1317
  621MPD2    C3 9198   2.887   4.139  10.502 -0.3047 -0.1858 -0.0514
  621MPD2    C4 9199   2.996   4.091  10.572  0.2224 -0.5901 -0.4697
  621MPD2    C5 9200   3.017   3.955  10.586 -0.2893 -0.3686  0.0585
  621MPD2     H 9201   2.698   4.076  10.411  0.3941 -0.3995  0.2678
  621MPD2    H1 9202   3.082   4.149  10.601  0.3939  0.1408 -2.4738
  621MPD2    H2 9203   2.926   3.758  10.565  2.7190  0.1324  1.1538
  621MPD2    H3 9204   3.110   3.923  10.631  0.1302  0.1933 -0.4021
  621MPD2     N 9205   2.879   4.273  10.454 -0.1358  0.5288  0.5666
  621MPD2    H5 9206   2.796   4.293  10.399 -1.0441  0.7064  1.9891
  621MPD2    N1 9207   2.709   3.832  10.436 -0.1121 -0.3758 -0.5495
  621MPD2    H7 9208   2.619   3.872  10.414  1.0009  2.6564  0.3018
  622TMC3    C1 9209   2.608   3.647  10.333  0.6580  0.2815  0.4669
  622TMC3    C2 9210   2.494   3.667  10.402 -1.0288 -0.4553 -0.8571
  622TMC3    C3 9211   2.381   3.626  10.335  0.4074 -0.1811  0.8071
  622TMC3    C4 9212   2.621   3.606  10.208 -0.2353 -0.0054  0.3243
  622TMC3    C5 9213   2.508   3.578  10.144  0.0515  0.0273  0.0585
  622TMC3    C6 9214   2.386   3.571  10.209 -0.7388  0.5492  0.2189
  622TMC3     C 9215   2.728   3.703  10.390  0.1142  0.3467  0.4074
  622TMC3     O 9216   2.832   3.652  10.353 -0.6213 -0.5839 -0.5672
  622TMC3     H 9217   2.493   3.705  10.503 -1.0338 -0.1258 -0.9824
  622TMC3    H1 9218   2.721   3.602  10.167 -1.7040  1.5205 -3.4339
  622TMC3    H2 9219   2.296   3.547  10.154 -0.6518 -0.7495  0.6442
  622TMC3    C7 9220   2.512   3.535  10.005 -0.3847 -0.1806 -0.7442
  622TMC3    C8 9221   2.249   3.660  10.397 -0.0686  0.6386 -0.1625
  622TMC3    O1 9222   2.443   3.439   9.979 -0.4916  0.1587 -0.1248
  622TMC3    O2 9223   2.147   3.597  10.366  0.8678  0.4039  0.4149
  623MPD2     C 9224   1.801   1.499  16.103  0.2808  0.3724 -0.1350
  623MPD2    C1 9225   1.731   1.384  16.144  0.2506  0.0244 -0.6886
  623MPD2    C2 9226   1.756   1.327  16.270 -0.2801  0.2564 -0.2808
  623MPD2    C3 9227   1.851   1.378  16.357  0.3267 -0.6912 -0.0456
  623MPD2    C4 9228   1.918   1.488  16.314  0.4788  0.3420  0.0553
  623MPD2    C5 9229   1.890   1.543  16.191  0.6010  0.2692 -0.4205
  623MPD2     H 9230   1.694   1.245  16.304 -1.7453  0.9256 -1.3145
  623MPD2    H1 9231   1.995   1.542  16.367  1.2414  0.2510 -0.9363
  623MPD2    H2 9232   1.787   1.536  16.003 -0.5436 -1.6205 -0.7662
  623MPD2    H3 9233   1.961   1.622  16.167 -0.7230  1.1680 -1.3638
  623MPD2     N 9234   1.865   1.311  16.484 -0.0574 -0.1356 -0.4082
  623MPD2    H5 9235   1.802   1.232  16.498 -2.2107  1.4128 -1.3532
  623MPD2    N1 9236   1.625   1.327  16.071 -0.0990 -0.3504 -0.0125
  623MPD2    H7 9237   1.580   1.242  16.105 -2.1463  1.9655  3.1714
  624TMC3    C1 9238   2.048   1.097  16.821  0.2966 -0.6856  0.1210
  624TMC3    C2 9239   1.928   1.065  16.879  0.3387  0.3005  0.2824
  624TMC3    C3 9240   1.821   1.133  16.837 -0.1524 -0.0135 -0.7031
  624TMC3    C4 9241   2.070   1.206  16.743  0.1826 -0.0921 -0.1969
  624TMC3    C5 9242   1.959   1.268  16.701 -0.2200 -0.0624 -0.2452
  624TMC3    C6 9243   1.835   1.232  16.742  0.3355  0.2172  0.2230
  624TMC3     C 9244   2.159   1.009  16.844 -0.4723  0.1364 -0.5382
  624TMC3     O 9245   2.152   0.933  16.941  0.2428 -0.4166  0.2151
  624TMC3     H 9246   1.917   0.986  16.952  0.4068 -0.0896 -0.1308
  624TMC3    H1 9247   2.160   1.231  16.688 -0.7538  3.2690 -0.1789
  624TMC3    H2 9248   1.749   1.293  16.714  0.0919 -0.1076  0.2620
  624TMC3    C7 9249   1.962   1.341  16.578 -0.1254 -0.1746  0.0436
  624TMC3    C8 9250   1.690   1.079  16.845  0.5507  0.6923 -0.1411
  624TMC3    O1 9251   2.055   1.414  16.555 -0.0455  0.4685  0.1646
  624TMC3    O2 9252   1.631   1.086  16.738  0.2896 -0.8797 -0.5229
  625MPD2     C 9253   1.931   2.445   1.145 -0.6592 -0.8130  1.0834
  625MPD2    C1 9254   1.916   2.376   1.022 -0.1284 -0.1416  0.1528
  625MPD2    C2 9255   2.026   2.341   0.946 -0.3064  0.0644  0.2528
  625MPD2    C3 9256   2.152   2.370   0.986  0.4779 -0.1301  0.1424
  625MPD2    C4 9257   2.170   2.421   1.115  0.2158 -0.0588 -0.5711
  625MPD2    C5 9258   2.059   2.463   1.188 -0.0118  0.3669  0.4060
  625MPD2     H 9259   2.012   2.299   0.847 -0.5364 -2.0270  1.1647
  625MPD2    H1 9260   2.264   2.447   1.163  0.6762 -2.2396 -0.2927
  625MPD2    H2 9261   1.844   2.472   1.203 -0.1029 -1.2448  2.1278
  625MPD2    H3 9262   2.076   2.508   1.285 -1.2620  2.0775 -0.1810
  625MPD2     N 9263   2.258   2.337   0.896  0.1173  0.0149 -0.6856
  625MPD2    H5 9264   2.226   2.308   0.804 -1.6950 -1.3717  0.3963
  625MPD2    N1 9265   1.780   2.366   0.974  0.0740  0.3759  0.2453
  625MPD2    H7 9266   1.709   2.393   1.041  0.2375  1.2788  0.0548
  626TMC3    C1 9267   1.608   2.341   0.820 -0.0918 -0.6467  0.4377
  626TMC3    C2 9268   1.569   2.295   0.694  0.4051  0.5251  0.5485
  626TMC3    C3 9269   1.435   2.303   0.665  0.7053 -0.0496  0.1582
  626TMC3    C4 9270   1.520   2.394   0.907 -0.4792  0.3393 -0.5186
  626TMC3    C5 9271   1.393   2.413   0.870 -0.8162 -0.1811 -0.1408
  626TMC3    C6 9272   1.340   2.369   0.749  0.0005 -0.5734 -0.0799
  626TMC3     C 9273   1.752   2.328   0.847  0.4115 -0.2876  0.7547
  626TMC3     O 9274   1.814   2.276   0.753  0.1241  0.0834 -0.4239
  626TMC3     H 9275   1.631   2.253   0.615 -1.3960 -1.4315  0.1528
  626TMC3    H1 9276   1.553   2.424   1.006  0.3831 -3.5096  0.3599
  626TMC3    H2 9277   1.236   2.387   0.724  0.2647  0.2159 -0.6114
  626TMC3    C7 9278   1.334   2.534   0.931 -0.4483 -0.0033  0.2879
  626TMC3    C8 9279   1.397   2.295   0.528 -0.7411  0.0985  0.2106
  626TMC3    O1 9280   1.413   2.614   0.984 -0.4339  0.3701 -0.3676
  626TMC3    O2 9281   1.482   2.346   0.454  0.1852 -0.2663 -0.1716
  627MPD2     C 9282   0.257   2.905  14.483  0.2838  0.0143 -0.7565
  627MPD2    C1 9283   0.304   2.836  14.600  0.2255 -0.3654  0.5479
  627MPD2    C2 9284   0.267   2.700  14.618  0.4925  0.0179  0.7123
  627MPD2    C3 9285   0.174   2.643  14.535 -0.2874  0.1708 -0.0382
  627MPD2    C4 9286   0.107   2.721  14.437 -0.3332  0.7078  0.4511
  627MPD2    C5 9287   0.160   2.843  14.401 -0.8454 -0.4341  0.5897
  627MPD2     H 9288   0.300   2.644  14.704  0.2429  1.6074  1.8440
  627MPD2    H1 9289   0.037   2.683  14.364  0.0905 -1.2188  1.0327
  627MPD2    H2 9290   0.288   3.007  14.465  0.8995 -0.2916 -1.3789
  627MPD2    H3 9291   0.117   2.892  14.314  0.2275  4.9682  3.1445
  627MPD2     N 9292   0.137   2.506  14.558 -0.3531  0.3790 -0.0510
  627MPD2    H5 9293   0.192   2.454  14.626 -1.4160 -0.0914  0.4564
  627MPD2    N1 9294   0.395   2.911  14.684  0.1502 -0.2085 -0.5586
  627MPD2    H7 9295   0.416   3.008  14.663 -1.3438  0.5819  1.6011
  628TMC3    C1 9296   0.556   2.947  14.860  0.5250 -0.3283  0.4485
  628TMC3    C2 9297   0.641   2.875  14.948 -0.0773  0.0763 -0.2902
  628TMC3    C3 9298   0.749   2.946  14.985 -0.1455  0.0812 -0.0161
  628TMC3    C4 9299   0.559   3.081  14.843 -0.1513 -0.8517  0.0340
  628TMC3    C5 9300   0.663   3.151  14.898  0.1626  0.6578  0.1209
  628TMC3    C6 9301   0.763   3.077  14.960 -0.0127 -0.4553  0.1357
  628TMC3     C 9302   0.456   2.855  14.797  0.3419 -0.0973 -0.4320
  628TMC3     O 9303   0.450   2.740  14.844 -0.3775  0.0485 -0.0167
  628TMC3     H 9304   0.639   2.767  14.954 -0.3225  0.1939  1.9145
  628TMC3    H1 9305   0.482   3.131  14.786  0.8539 -0.0925 -0.6705
  628TMC3    H2 9306   0.852   3.123  15.000  1.1329 -2.9223  0.4095
  628TMC3    C7 9307   0.680   3.301  14.876  0.2117  0.1572 -0.2268
  628TMC3    C8 9308   0.870   2.871  15.022  0.2438  0.3426 -0.1611
  628TMC3    O1 9309   0.753   3.360  14.959 -0.2077  0.3016 -0.1387
  628TMC3    O2 9310   0.976   2.924  14.989  1.0645  0.1260 -0.3277
  629MPD2     C 9311   3.646   0.850  16.630  0.0671  0.1259 -0.3721
  629MPD2    C1 9312   3.650   0.980  16.593  0.7311  0.8245  0.1548
  629MPD2    C2 9313   3.538   1.064  16.599 -0.1057  0.0947  0.9381
  629MPD2    C3 9314   3.423   1.013  16.653  0.2824 -0.6398 -0.1624
  629MPD2    C4 9315   3.417   0.878  16.684 -0.6854  0.0988 -0.1652
  629MPD2    C5 9316   3.528   0.803  16.666 -0.1649  0.2363  0.4731
  629MPD2     H 9317   3.542   1.164  16.557  0.9382 -0.9634 -1.4451
  629MPD2    H1 9318   3.327   0.831  16.723 -0.8943 -0.6743 -1.5883
  629MPD2    H2 9319   3.737   0.791  16.621  1.2888  2.4424 -2.9551
  629MPD2    H3 9320   3.516   0.698  16.691 -0.6972  0.1549 -0.0955
  629MPD2     N 9321   3.302   1.090  16.650  0.2429  0.4360 -0.3667
  629MPD2    H5 9322   3.301   1.173  16.591  1.1133  1.5128  1.1479
  629MPD2    N1 9323   3.782   1.022  16.554  0.2771 -0.3885  0.4244
  629MPD2    H7 9324   3.863   0.960  16.561  1.3786  0.8609 -1.2375
  630TMC3    C1 9325   3.955   1.175  16.504  0.0448  0.0075 -0.6444
  630TMC3    C2 9326   3.997   1.286  16.428 -0.0878  0.7174  0.1634
  630TMC3    C3 9327   4.132   1.309  16.426  0.2972 -0.4713 -0.2964
  630TMC3    C4 9328   4.039   1.110  16.586 -0.9953  0.3773  0.1533
  630TMC3    C5 9329   4.151   1.177  16.610  0.0512 -0.2113 -0.7341
  630TMC3    C6 9330   4.214   1.250  16.518  0.6619 -0.0650 -0.8958
  630TMC3     C 9331   3.818   1.147  16.511  0.0876  0.1263 -0.0626
  630TMC3     O 9332   3.748   1.228  16.448  0.4312  0.4991 -0.0469
  630TMC3     H 9333   3.928   1.349  16.375  1.6774  0.9641 -1.8517
  630TMC3    H1 9334   3.995   1.053  16.667  1.7711 -0.3546  1.1418
  630TMC3    H2 9335   4.316   1.283  16.534 -0.5945  3.5123 -0.3339
  630TMC3    C7 9336   4.228   1.119  16.722  0.2161  0.4958  0.6147
  630TMC3    C8 9337   4.179   1.446  16.393  0.0183 -0.5064  0.6040
  630TMC3    O1 9338   4.201   1.004  16.761  0.1155 -0.0742  0.0521
  630TMC3    O2 9339   4.266   1.490  16.465  0.3550 -0.4554  0.9430
  631MPD2     C 9340   1.814   1.026  15.846  0.6148  0.1877 -0.0164
  631MPD2    C1 9341   1.909   1.045  15.746  0.6840 -0.5396 -0.1804
  631MPD2    C2 9342   2.018   0.958  15.747  0.0536  0.0257  0.0400
  631MPD2    C3 9343   2.038   0.871  15.850 -0.1967 -0.0023 -0.4980
  631MPD2    C4 9344   1.944   0.852  15.947  0.2268  0.5319 -0.1994
  631MPD2    C5 9345   1.836   0.936  15.945  0.5527  0.2540 -0.0645
  631MPD2     H 9346   2.104   0.973  15.684  1.8706  1.4474  2.8311
  631MPD2    H1 9347   1.949   0.765  16.011  1.9330  0.0556 -0.9695
  631MPD2    H2 9348   1.719   1.077  15.832  0.1049 -0.5648  0.7318
  631MPD2    H3 9349   1.760   0.921  16.020 -1.0827 -0.5176 -1.8993
  631MPD2     N 9350   2.157   0.788  15.836 -0.1423 -0.5391  0.4876
  631MPD2    H5 9351   2.223   0.820  15.766  1.4321  0.8213  2.6357
  631MPD2    N1 9352   1.878   1.150  15.644  0.6127 -0.7275 -0.3853
  631MPD2    H7 9353   1.785   1.188  15.641  1.4537  1.4122  1.2397
  632TMC3    C1 9354   1.913   1.288  15.437  0.4188  0.2894 -0.1944
  632TMC3    C2 9355   1.791   1.343  15.446 -0.3890  0.1741  0.0787
  632TMC3    C3 9356   1.746   1.410  15.331 -0.1077  0.2885 -0.2379
  632TMC3    C4 9357   1.994   1.309  15.328  0.5228  1.1825 -0.3428
  632TMC3    C5 9358   1.947   1.383  15.215  0.8203  0.4848 -0.2351
  632TMC3    C6 9359   1.818   1.431  15.218  0.3283  0.1310 -0.5209
  632TMC3     C 9360   1.964   1.178  15.536  0.0314  0.6523  0.0420
  632TMC3     O 9361   2.073   1.124  15.520 -0.5030  0.3445  0.2352
  632TMC3     H 9362   1.728   1.329  15.533  0.6100  1.0871  0.9561
  632TMC3    H1 9363   2.092   1.265  15.320 -0.7744 -1.6101 -0.6799
  632TMC3    H2 9364   1.782   1.496  15.139 -4.4614 -0.5539  1.1208
  632TMC3    C7 9365   2.033   1.395  15.100  0.5639  0.8788 -0.0526
  632TMC3    C8 9366   1.617   1.484  15.358  0.1406  0.5840  0.2045
  632TMC3    O1 9367   1.965   1.418  15.004  0.3806 -0.2793 -0.0387
  632TMC3    O2 9368   1.574   1.466  15.473 -0.0298 -0.0901 -0.1284
  633MPD2     C 9369   1.094   3.797  17.053 -0.0177 -0.4960 -0.2101
  633MPD2    C1 9370   1.165   3.726  16.960  0.1272  0.7218  0.4638
  633MPD2    C2 9371   1.191   3.591  16.986 -1.0049 -0.0454  0.2028
  633MPD2    C3 9372   1.167   3.535  17.108 -0.2606  0.2455  0.6466
  633MPD2    C4 9373   1.106   3.615  17.211  0.2780  0.6051 -0.0782
  633MPD2    C5 9374   1.065   3.743  17.176  0.2019  0.1405 -0.3314
  633MPD2     H 9375   1.243   3.536  16.909 -1.7876  0.4758 -0.7049
  633MPD2    H1 9376   1.088   3.573  17.310  0.4724 -0.4830 -0.5025
  633MPD2    H2 9377   1.050   3.893  17.030  3.4023  1.5327  1.6722
  633MPD2    H3 9378   1.012   3.808  17.245  0.7809 -0.0088  0.2539
  633MPD2     N 9379   1.203   3.403  17.138 -0.4537  0.4842 -0.8506
  633MPD2    H5 9380   1.195   3.369  17.233  0.1237 -0.4365 -1.1323
  633MPD2    N1 9381   1.221   3.777  16.845  0.1893  0.1603  0.7146
  633MPD2    H7 9382   1.280   3.709  16.798 -1.0834 -0.4422 -0.0257
  634TMC3    C1 9383   1.290   3.920  16.683 -0.3487  0.4966 -0.1937
  634TMC3    C2 9384   1.327   3.812  16.604 -0.3042 -0.5114  0.4173
  634TMC3    C3 9385   1.398   3.840  16.494  0.3662  0.2098  0.3744
  634TMC3    C4 9386   1.331   4.049  16.649  0.7696 -0.0433 -0.1919
  634TMC3    C5 9387   1.421   4.068  16.551 -0.1304 -0.2450 -0.1467
  634TMC3    C6 9388   1.450   3.965  16.464 -0.0340  0.2374  0.2354
  634TMC3     C 9389   1.207   3.903  16.796  0.5987  0.3996 -0.6234
  634TMC3     O 9390   1.151   3.996  16.850  0.2125 -0.6130 -0.4278
  634TMC3     H 9391   1.291   3.711  16.618 -0.8673 -0.1078  1.9455
  634TMC3    H1 9392   1.300   4.126  16.718  1.0907  0.4045 -0.5501
  634TMC3    H2 9393   1.509   3.981  16.375 -1.5513 -0.1230 -0.8396
  634TMC3    C7 9394   1.484   4.198  16.528  0.6943  0.6283 -0.2296
  634TMC3    C8 9395   1.461   3.734  16.423 -0.4627 -0.3377  0.0368
  634TMC3    O1 9396   1.540   4.215  16.419  0.3056  0.1767 -0.1136
  634TMC3    O2 9397   1.472   3.627  16.483 -1.0193 -0.0751 -0.3127
  635TMC3    C1 9398   2.099   3.885  16.729 -0.8220 -0.4449  0.2405
  635TMC3    C2 9399   2.171   3.886  16.609 -0.1610  0.1017 -0.5989
  635TMC3    C3 9400   2.156   3.780  16.524 -0.7939  0.1823  0.1894
  635TMC3    C4 9401   2.020   3.780  16.760  0.3221 -0.3654  0.2012
  635TMC3    C5 9402   2.022   3.668  16.682  0.2534 -0.0447 -0.0692
  635TMC3    C6 9403   2.077   3.669  16.558 -1.1388  0.7130 -0.2635
  635TMC3     C 9404   2.100   3.998  16.820  0.0271 -0.0239  0.3307
  635TMC3     O 9405   2.020   3.994  16.909  0.2398  0.2993  0.8145
  635TMC3     H 9406   2.237   3.967  16.580 -1.5856  1.2696 -0.5323
  635TMC3    H1 9407   1.972   3.773  16.857  0.8955 -2.1246  0.3456
  635TMC3    H2 9408   2.087   3.578  16.501  0.0416  1.7935 -1.8094
  635TMC3    C7 9409   1.969   3.548  16.732  0.6449  0.2729  0.6603
  635TMC3    C8 9410   2.257   3.771  16.417  0.1665 -0.7986  1.0191
  635TMC3    O1 9411   1.918   3.470  16.653  0.1904  0.1793  0.0553
  635TMC3    O2 9412   2.348   3.851  16.428 -0.1502 -0.0227  0.1908
  636MPD2     C 9413   2.929   4.192  15.296 -0.1515 -0.4796 -0.3731
  636MPD2    C1 9414   2.994   4.161  15.415 -0.1417 -0.5908 -0.3618
  636MPD2    C2 9415   3.046   4.034  15.433 -0.9403  0.4316  0.5985
  636MPD2    C3 9416   3.025   3.938  15.338  0.0257  0.0903  0.4317
  636MPD2    C4 9417   2.949   3.971  15.231  0.1393  0.4948  0.8202
  636MPD2    C5 9418   2.897   4.095  15.202 -0.0831 -0.1704 -0.5125
  636MPD2     H 9419   3.103   4.013  15.523  0.2231  1.8108  0.1932
  636MPD2    H1 9420   2.925   3.898  15.154  1.2752  1.2250 -0.2376
  636MPD2    H2 9421   2.908   4.295  15.271 -0.3895 -0.4362  0.0045
  636MPD2    H3 9422   2.850   4.124  15.109 -0.8804  2.9727  0.8741
  636MPD2     N 9423   3.071   3.806  15.357 -0.3205  0.4632  0.3009
  636MPD2    H5 9424   3.029   3.734  15.299 -1.2858  0.0591  1.4974
  636MPD2    N1 9425   3.017   4.251  15.522 -0.4829 -0.5048  0.2279
  636MPD2    H7 9426   3.071   4.216  15.600  1.2818 -0.8766 -1.1612
  637TMC3    C1 9427   3.192   3.620  15.443 -0.1840  0.1223  0.5255
  637TMC3    C2 9428   3.086   3.562  15.504 -0.3223 -0.1788  0.3729
  637TMC3    C3 9429   3.115   3.478  15.606 -0.6586 -0.6836  0.1070
  637TMC3    C4 9430   3.321   3.574  15.461 -0.1412  0.0650 -0.1176
  637TMC3    C5 9431   3.346   3.472  15.552  0.2855  0.0767  0.1756
  637TMC3    C6 9432   3.243   3.427  15.628  0.2469  0.2559  0.3841
  637TMC3     C 9433   3.179   3.761  15.433 -0.5307 -0.2073  0.0297
  637TMC3     O 9434   3.270   3.817  15.494 -0.0745 -0.1831 -0.0833
  637TMC3     H 9435   2.990   3.612  15.503 -0.9332 -1.3753 -0.8244
  637TMC3    H1 9436   3.401   3.635  15.422 -1.7644  2.8428  0.9203
  637TMC3    H2 9437   3.260   3.347  15.699  0.4663  1.7560  2.0316
  637TMC3    C7 9438   3.458   3.495  15.632  0.0852 -0.1423  0.1834
  637TMC3    C8 9439   3.050   3.524  15.727  0.1658  0.1615  0.4944
  637TMC3    O1 9440   3.439   3.496  15.750  0.4118  0.4679  0.3530
  637TMC3    O2 9441   2.928   3.540  15.723 -0.4441 -0.7333  0.1019
  638MPD2     C 9442   2.705   3.184  15.010  0.6014 -0.7465  0.4239
  638MPD2    C1 9443   2.760   3.070  14.957 -0.3890 -0.4489  0.3708
  638MPD2    C2 9444   2.758   2.950  15.016 -0.2326 -0.5212  0.3034
  638MPD2    C3 9445   2.696   2.935  15.136 -0.0420 -0.3259 -0.1441
  638MPD2    C4 9446   2.634   3.043  15.189  0.1366  0.1105 -0.3558
  638MPD2    C5 9447   2.644   3.167  15.131  0.3264  0.5124 -0.8047
  638MPD2     H 9448   2.805   2.860  14.978 -2.6035 -1.6393 -0.0024
  638MPD2    H1 9449   2.586   3.036  15.286 -0.4879  1.7751 -0.5356
  638MPD2    H2 9450   2.713   3.280  14.961 -0.7813 -0.5313  0.6417
  638MPD2    H3 9451   2.586   3.250  15.168  0.0274  0.4241 -1.0701
  638MPD2     N 9452   2.705   2.808  15.198  0.2863  0.8286 -0.5200
  638MPD2    H5 9453   2.766   2.740  15.153  2.3042  0.0305  3.4533
  638MPD2    N1 9454   2.824   3.070  14.830  0.2680  0.2051 -0.1045
  638MPD2    H7 9455   2.847   2.981  14.787  0.2985 -1.5877  3.5815
  639TMC3    C1 9456   2.710   2.643  15.349  0.9181  0.2724 -0.6312
  639TMC3    C2 9457   2.602   2.559  15.360  0.1842 -0.0068 -0.4296
  639TMC3    C3 9458   2.628   2.431  15.330 -0.9912  0.8663 -0.4755
  639TMC3    C4 9459   2.838   2.606  15.316 -0.7259  0.3821  0.9425
  639TMC3    C5 9460   2.859   2.473  15.296 -1.0936 -1.0988  0.1365
  639TMC3    C6 9461   2.752   2.390  15.304  0.8379 -0.3942  0.0839
  639TMC3     C 9462   2.664   2.776  15.324  0.1558 -0.4547 -0.3527
  639TMC3     O 9463   2.578   2.838  15.388 -0.1028 -0.5248  0.0394
  639TMC3     H 9464   2.502   2.598  15.374  0.2482 -0.6194  1.7436
  639TMC3    H1 9465   2.924   2.671  15.305 -0.1260 -0.1768  2.4339
  639TMC3    H2 9466   2.767   2.287  15.276 -0.2927  0.0298 -2.0953
  639TMC3    C7 9467   2.975   2.416  15.236  0.4823  0.7286  0.6823
  639TMC3    C8 9468   2.534   2.372  15.235  0.4647 -0.6502 -0.3341
  639TMC3    O1 9469   2.984   2.297  15.243  0.2837 -0.3984  0.5162
  639TMC3    O2 9470   2.593   2.333  15.134 -0.0867  0.2285 -0.1368
  640MPD2     C 9471   3.329   1.100  10.355  0.5216 -0.1813 -0.0245
  640MPD2    C1 9472   3.344   1.234  10.387 -0.2402 -0.5147  0.4149
  640MPD2    C2 9473   3.249   1.320  10.343  0.2046  0.0691  0.2991
  640MPD2    C3 9474   3.132   1.272  10.285 -0.2724 -0.8104  0.3477
  640MPD2    C4 9475   3.110   1.135  10.266  0.3461 -0.3973  0.2934
  640MPD2    C5 9476   3.215   1.052  10.291 -0.0510  1.1224  1.0556
  640MPD2     H 9477   3.257   1.422  10.377  0.7320 -0.2908  1.2613
  640MPD2    H1 9478   3.017   1.110  10.216  0.0686  0.2686  0.4769
  640MPD2    H2 9479   3.409   1.033  10.385  0.7505  0.7591  1.4845
  640MPD2    H3 9480   3.194   0.949  10.264 -0.1033  1.1110  1.1374
  640MPD2     N 9481   3.027   1.358  10.242 -0.1411  0.0105  0.5159
  640MPD2    H5 9482   2.953   1.306  10.195  0.7928 -1.1523  0.3291
  640MPD2    N1 9483   3.462   1.278  10.439 -0.3334 -0.9068 -0.6218
  640MPD2    H7 9484   3.533   1.206  10.450  0.1179 -0.3301  0.3135
  641TMC3    C1 9485   3.641   1.434  10.488  0.3622  0.1291 -1.0156
  641TMC3    C2 9486   3.728   1.335  10.448  0.1042 -0.4241  0.4787
  641TMC3    C3 9487   3.850   1.373  10.400  0.4362 -0.2107  0.1030
  641TMC3    C4 9488   3.674   1.567  10.468  0.2677  0.5979  0.0434
  641TMC3    C5 9489   3.791   1.600  10.412  0.1896 -0.5134 -0.0652
  641TMC3    C6 9490   3.889   1.507  10.392  0.4525 -0.1915  0.4083
  641TMC3     C 9491   3.499   1.409  10.467  0.9270 -0.5320 -0.7633
  641TMC3     O 9492   3.439   1.517  10.452 -0.3950  0.1031  0.3728
  641TMC3     H 9493   3.692   1.232  10.443  0.9877 -0.5904 -2.4505
  641TMC3    H1 9494   3.609   1.649  10.496  0.2947  0.3842  0.7488
  641TMC3    H2 9495   3.989   1.520  10.352 -0.8725  0.1668 -2.7543
  641TMC3    C7 9496   3.810   1.734  10.373  0.2003 -0.4929  0.4486
  641TMC3    C8 9497   3.935   1.275  10.344 -0.0421 -0.3716  0.0539
  641TMC3    O1 9498   3.728   1.817  10.410  0.0180 -0.3374  0.1122
  641TMC3    O2 9499   4.015   1.309  10.257  0.3029 -0.1396  0.2116
  642TMC3    C1 9500   0.010   2.911  11.994  0.2247  0.1546  0.6285
  642TMC3    C2 9501   0.099   2.924  12.100 -0.1349 -0.0044  0.7989
  642TMC3    C3 9502   0.101   2.823  12.193  0.3573  0.1218 -0.6142
  642TMC3    C4 9503   4.668   2.794  11.973  0.2998 -0.1919 -0.6937
  642TMC3    C5 9504   4.686   2.691  12.063  0.0825  0.1319 -0.0596
  642TMC3    C6 9505   0.042   2.702  12.180  0.0205  0.9079 -0.7201
  642TMC3     C 9506   4.659   3.035  11.981  0.0834 -0.0355  0.0805
  642TMC3     O 9507   4.673   3.092  11.874 -0.1822  0.0829 -0.3189
  642TMC3     H 9508   0.161   3.013  12.107  0.2331 -0.1246 -0.7798
  642TMC3    H1 9509   4.604   2.780  11.887 -0.2594 -0.1399 -0.2836
  642TMC3    H2 9510   0.049   2.623  12.254 -0.7461 -1.5995 -3.3263
  642TMC3    C7 9511   4.604   2.568  12.043  0.0654 -0.3252  0.2946
  642TMC3    C8 9512   0.185   2.832  12.313 -0.0248 -0.0954 -0.4797
  642TMC3    O1 9513   4.535   2.568  11.941  0.3750  0.1427  0.4945
  642TMC3    O2 9514   0.203   2.732  12.382 -0.3791 -0.4522 -0.3470
  643TMC3    C1 9515   3.208   1.982   0.298 -0.3212 -0.2288 -0.8527
  643TMC3    C2 9516   3.077   1.968   0.258 -1.1784 -0.4040 -0.1572
  643TMC3    C3 9517   3.044   1.904   0.148  0.8535  0.4994 -0.1846
  643TMC3    C4 9518   3.310   1.926   0.220  0.3334 -0.2958 -0.4067
  643TMC3    C5 9519   3.272   1.843   0.115 -0.0523  0.1353  0.3187
  643TMC3    C6 9520   3.143   1.825   0.089 -0.1074  0.5092  0.8558
  643TMC3     C 9521   3.226   2.114   0.357  0.4010 -0.0163  1.0756
  643TMC3     O 9522   3.181   2.211   0.302 -0.4521  0.0239  0.3893
  643TMC3     H 9523   3.002   2.026   0.310 -0.9715  0.0588 -0.3748
  643TMC3    H1 9524   3.414   1.945   0.242  0.8026 -1.5136 -1.5384
  643TMC3    H2 9525   3.116   1.783  17.689  3.2338  0.6630 -0.1295
  643TMC3    C7 9526   3.373   1.849   0.010 -0.8055 -0.3068  0.1549
  643TMC3    C8 9527   2.985   1.992   0.048 -0.5957 -0.1328  0.1005
  643TMC3    O1 9528   3.455   1.945   0.012 -0.5000  0.4460  0.2420
  643TMC3    O2 9529   2.938   1.942  17.641  0.4767  0.7707 -0.3082
  644MPD2     C 9530   0.387   1.526   9.924 -0.3782  0.5191 -1.0585
  644MPD2    C1 9531   0.360   1.659   9.897  0.2692  0.5800  0.1376
  644MPD2    C2 9532   0.450   1.740   9.845 -0.7710  0.4764 -0.1755
  644MPD2    C3 9533   0.565   1.692   9.795  0.2690 -0.1748 -0.1236
  644MPD2    C4 9534   0.602   1.560   9.815 -0.3170  0.0779 -0.7659
  644MPD2    C5 9535   0.516   1.481   9.886 -0.9811  0.8387  0.6085
  644MPD2     H 9536   0.432   1.845   9.823 -0.1324  0.7180  0.4224
  644MPD2    H1 9537   0.699   1.519   9.788  1.4649  4.4505 -1.1372
  644MPD2    H2 9538   0.320   1.454   9.968 -0.4120  1.1961 -0.0023
  644MPD2    H3 9539   0.548   1.380   9.911 -1.6697  0.2170 -0.9951
  644MPD2     N 9540   0.646   1.781   9.721  0.6522 -0.1719  0.0943
  644MPD2    H5 9541   0.609   1.872   9.694  0.7145  0.1817  1.2095
  644MPD2    N1 9542   0.233   1.693   9.949 -0.0670 -0.4934 -0.4394
  644MPD2    H7 9543   0.169   1.621   9.982  0.5046 -1.4748 -1.5079
  645TMC3    C1 9544   0.807   1.837   9.546 -0.4174  0.7613  0.6896
  645TMC3    C2 9545   0.892   1.791   9.455  0.4816 -0.0478 -0.1114
  645TMC3    C3 9546   0.941   1.875   9.353 -0.8262  0.2180  0.0774
  645TMC3    C4 9547   0.771   1.967   9.544  0.4520 -0.3420  0.2203
  645TMC3    C5 9548   0.821   2.047   9.444 -0.5392  0.0319  0.7644
  645TMC3    C6 9549   0.903   2.007   9.343 -0.3876 -0.2594  0.2579
  645TMC3     C 9550   0.755   1.742   9.643  0.8401 -0.2370  0.5752
  645TMC3     O 9551   0.799   1.628   9.626  0.3587 -0.0152 -0.4406
  645TMC3     H 9552   0.920   1.686   9.447  0.2089 -0.0757 -0.6903
  645TMC3    H1 9553   0.694   2.009   9.608  1.6818  0.0477  1.4503
  645TMC3    H2 9554   0.941   2.066   9.260 -1.3541  1.1625  0.8312
  645TMC3    C7 9555   0.835   2.192   9.468  0.5869  0.1247  0.2872
  645TMC3    C8 9556   0.999   1.807   9.239  0.3962  0.4054  0.0278
  645TMC3    O1 9557   0.748   2.235   9.546  0.3722  0.5806  0.0606
  645TMC3    O2 9558   0.972   1.688   9.230  0.3543 -0.7177 -0.4174
  646MPD2     C 9559   2.969   1.703  14.750  0.3360  0.1040 -0.1154
  646MPD2    C1 9560   2.881   1.709  14.855 -0.0246 -0.0674 -0.1487
  646MPD2    C2 9561   2.760   1.771  14.832  0.4749 -0.7558  0.5624
  646MPD2    C3 9562   2.723   1.804  14.706 -0.3243 -0.7723  0.2865
  646MPD2    C4 9563   2.816   1.792  14.605 -0.0522 -0.0029  0.3349
  646MPD2    C5 9564   2.941   1.739  14.626 -1.0551  0.5239 -0.0222
  646MPD2     H 9565   2.687   1.769  14.912  1.5155 -1.2770  1.4967
  646MPD2    H1 9566   2.792   1.823  14.504  1.9323  0.7435  0.0842
  646MPD2    H2 9567   3.070   1.666  14.766 -1.1131 -2.5215  2.8452
  646MPD2    H3 9568   3.012   1.718  14.547 -0.3680 -0.7929  0.9465
  646MPD2     N 9569   2.594   1.855  14.688  0.0603 -0.3470  0.0430
  646MPD2    H5 9570   2.533   1.854  14.769 -1.7668 -2.9396 -1.3490
  646MPD2    N1 9571   2.934   1.664  14.976 -0.3726  0.6638  0.4616
  646MPD2    H7 9572   3.030   1.631  14.968 -0.4944  0.2475  0.7643
  647TMC3    C1 9573   2.961   1.618  15.203 -0.3567  0.2729 -0.5935
  647TMC3    C2 9574   2.898   1.562  15.309  0.1468  0.1660  0.5079
  647TMC3    C3 9575   2.974   1.538  15.415  0.4843  0.3314  0.4943
  647TMC3    C4 9576   3.088   1.669  15.206 -0.7868  0.1918 -0.9422
  647TMC3    C5 9577   3.168   1.625  15.310  0.7014 -0.3000 -0.2975
  647TMC3    C6 9578   3.109   1.557  15.416  0.4132 -0.2733  0.5307
  647TMC3     C 9579   2.868   1.644  15.095 -0.4800 -0.5274 -1.6755
  647TMC3     O 9580   2.750   1.650  15.122  0.0085 -0.1527 -0.0345
  647TMC3     H 9581   2.798   1.521  15.300  0.5314 -0.6951  0.2180
  647TMC3    H1 9582   3.131   1.737  15.134  1.5206  1.4500  1.6686
  647TMC3    H2 9583   3.168   1.524  15.500  1.7601  2.5534  0.6941
  647TMC3    C7 9584   3.308   1.635  15.307 -0.0846  0.6174 -0.5583
  647TMC3    C8 9585   2.927   1.435  15.505 -0.0301 -0.1134 -0.4030
  647TMC3    O1 9586   3.370   1.620  15.414 -0.2969  0.1309  0.0777
  647TMC3    O2 9587   2.857   1.353  15.452 -0.2863 -0.5167  0.0515
  648TMC3    C1 9588   2.116   3.987  16.014  0.1682  0.2847 -0.0393
  648TMC3    C2 9589   2.146   3.875  15.932 -0.0425  0.6147  0.2870
  648TMC3    C3 9590   2.192   3.910  15.807  0.0743 -0.3717 -0.2987
  648TMC3    C4 9591   2.133   4.113  15.968 -1.1271  0.2091  0.0812
  648TMC3    C5 9592   2.187   4.137  15.848  0.4323 -0.9198  0.0623
  648TMC3    C6 9593   2.211   4.032  15.757 -0.0172  0.3044 -1.0176
  648TMC3     C 9594   2.091   3.979  16.158  0.1974  0.2948  0.4062
  648TMC3     O 9595   2.151   4.056  16.235  0.0423  0.8408  0.3394
  648TMC3     H 9596   2.160   3.776  15.973 -0.2417  1.0321  1.3494
  648TMC3    H1 9597   2.127   4.193  16.041  0.2033 -0.4211  0.8767
  648TMC3    H2 9598   2.243   4.046  15.654  0.4349  0.1844 -0.8913
  648TMC3    C7 9599   2.175   4.268  15.791 -0.6116 -0.6834 -0.4351
  648TMC3    C8 9600   2.265   3.804  15.739  0.1698  0.0552  0.0601
  648TMC3    O1 9601   2.252   4.295  15.700  0.0665  0.2441  0.3622
  648TMC3    O2 9602   2.362   3.840  15.679  0.2929  0.1844 -0.0527
  649TMC3    C1 9603   1.275   0.199  12.480  0.9812 -0.3100 -0.4185
  649TMC3    C2 9604   1.345   0.308  12.494  0.3996 -0.1588  0.3512
  649TMC3    C3 9605   1.360   0.361  12.612 -0.6056 -1.3787  0.0725
  649TMC3    C4 9606   1.209   0.146  12.588 -0.1702  0.9897 -0.3218
  649TMC3    C5 9607   1.226   0.205  12.712 -0.0486 -0.4748 -0.4256
  649TMC3    C6 9608   1.297   0.321  12.723 -0.4141 -0.2414 -0.2267
  649TMC3     C 9609   1.192   0.209  12.364 -0.0010  0.3493 -0.3557
  649TMC3     O 9610   1.074   0.231  12.383  0.6590 -0.2107  0.1305
  649TMC3     H 9611   1.403   0.344  12.409  0.2364 -0.6546  0.0286
  649TMC3    H1 9612   1.125   0.081  12.567 -0.9104  2.3606 -1.5948
  649TMC3    H2 9613   1.316   0.355  12.824  1.2967  0.9123 -0.9264
  649TMC3    C7 9614   1.126   0.182  12.820 -0.2539  0.2704  0.5212
  649TMC3    C8 9615   1.464   0.468  12.621 -0.1384 -0.5442  0.4014
  649TMC3    O1 9616   1.131   0.262  12.911  0.6772 -0.4321  0.2254
  649TMC3    O2 9617   1.533   0.488  12.520 -0.1604 -0.2505  0.5815
  650TMC3    C1 9618   4.204   2.075  12.598  0.9946 -0.1896  0.0140
  650TMC3    C2 9619   4.275   2.192  12.616  0.0333  0.4017 -0.5147
  650TMC3    C3 9620   4.241   2.303  12.549  0.3355  0.2016  0.6476
  650TMC3    C4 9621   4.082   2.077  12.532 -0.5164 -0.1385 -0.1721
  650TMC3    C5 9622   4.044   2.197  12.482 -0.8372 -0.4927  0.6416
  650TMC3    C6 9623   4.122   2.307  12.482 -0.2241  0.1680 -0.2163
  650TMC3     C 9624   4.277   1.949  12.603  0.0228  0.5297  0.0158
  650TMC3     O 9625   4.399   1.958  12.603  0.2935 -0.1251 -0.0628
  650TMC3     H 9626   4.370   2.190  12.669  0.6610  2.3890 -1.5685
  650TMC3    H1 9627   4.022   1.988  12.521 -3.0686  1.3394  1.6997
  650TMC3    H2 9628   4.086   2.402  12.443  0.9155  0.5973 -0.2304
  650TMC3    C7 9629   3.916   2.193  12.407  0.3303  0.2471 -0.0416
  650TMC3    C8 9630   4.258   2.420  12.631  0.1133 -0.7659 -0.5697
  650TMC3    O1 9631   3.857   2.086  12.406 -0.9581  0.0507 -0.5711
  650TMC3    O2 9632   4.313   2.513  12.577  0.3604  0.1193 -0.2940
  651MPD2     C 9633   2.947   3.489  11.046 -0.7333 -0.7007 -0.4388
  651MPD2    C1 9634   2.934   3.627  11.027 -0.7420 -0.2696  0.7657
  651MPD2    C2 9635   3.044   3.689  10.984 -0.4743 -0.2493 -0.1905
  651MPD2    C3 9636   3.161   3.628  10.942  0.4173 -0.3479  0.2285
  651MPD2    C4 9637   3.169   3.491  10.954  0.5264 -0.6052 -0.0031
  651MPD2    C5 9638   3.065   3.427  11.015  0.3516  0.1572 -0.0689
  651MPD2     H 9639   3.034   3.797  10.986 -0.7194 -0.2764 -0.0457
  651MPD2    H1 9640   3.257   3.440  10.918  0.6485 -1.4128  1.4312
  651MPD2    H2 9641   2.859   3.434  11.077 -0.5565 -0.7964 -0.1112
  651MPD2    H3 9642   3.064   3.320  11.034 -1.0349  0.0801 -0.5589
  651MPD2     N 9643   3.255   3.712  10.875 -0.9452  0.3444  0.8516
  651MPD2    H5 9644   3.223   3.807  10.867 -2.4194 -0.3326 -1.1893
  651MPD2    N1 9645   2.823   3.704  11.049 -0.8047 -0.0949 -0.5075
  651MPD2    H7 9646   2.823   3.795  11.003  0.7538  0.4358  0.5710
  652TMC3    C1 9647   3.629   3.788  10.576  0.6074  0.6894 -0.4342
  652TMC3    C2 9648   3.572   3.714  10.671 -0.7567  0.7229  0.3467
  652TMC3    C3 9649   3.461   3.763  10.741 -0.6315 -0.1946 -0.7807
  652TMC3    C4 9650   3.574   3.917  10.548  0.1549  0.9039 -0.1890
  652TMC3    C5 9651   3.468   3.961  10.622 -0.6509  0.0231 -0.5920
  652TMC3    C6 9652   3.407   3.885  10.714  0.1341  0.0040 -0.3304
  652TMC3     C 9653   3.774   3.774  10.553  0.1049  0.0185 -0.5682
  652TMC3     O 9654   3.831   3.723  10.646  0.4552 -0.0516 -0.1044
  652TMC3     H 9655   3.614   3.616  10.690  0.4982  0.5841 -2.9558
  652TMC3    H1 9656   3.617   3.979  10.470  0.2419 -1.5805 -2.0884
  652TMC3    H2 9657   3.321   3.917  10.771 -0.2807  1.5572 -1.7978
  652TMC3    C7 9658   3.465   4.101  10.655  0.5071 -0.2321  0.2177
  652TMC3    C8 9659   3.384   3.672  10.832 -0.1440 -0.3585  0.9882
  652TMC3    O1 9660   3.417   4.125  10.765 -0.1719 -0.5151  0.2346
  652TMC3    O2 9661   3.445   3.563  10.843 -0.2562 -0.2482  0.3078
  653MPD2     C 9662   0.925   4.057   0.036 -1.0890  0.1689  0.1749
  653MPD2    C1 9663   0.944   4.112  17.607 -1.3477 -0.3479  0.0810
  653MPD2    C2 9664   0.913   4.038  17.493  0.1598 -0.1606 -0.2289
  653MPD2    C3 9665   0.858   3.911  17.505  0.3857 -0.4158 -0.5148
  653MPD2    C4 9666   0.836   3.862  17.636  0.2589  0.3042 -0.0558
  653MPD2    C5 9667   0.870   3.931   0.047 -0.5404 -0.1581 -0.0455
  653MPD2     H 9668   0.931   4.079  17.395 -3.5082 -1.7781 -1.5807
  653MPD2    H1 9669   0.797   3.761  17.647 -0.1795  0.7710  2.5483
  653MPD2    H2 9670   0.954   4.095   0.133 -2.0084  1.3003  0.0229
  653MPD2    H3 9671   0.841   3.888   0.142 -1.0416  0.1296 -0.0704
  653MPD2     N 9672   0.812   3.845  17.389  0.3186 -0.4506 -0.0172
  653MPD2    H5 9673   0.780   3.898  17.308  2.3245 -0.0629 -0.5430
  653MPD2    N1 9674   0.993   4.241  17.582 -0.4110  0.2872 -0.6303
  653MPD2    H7 9675   1.039   4.268  17.495 -1.4659  1.0029 -0.9662
  654TMC3    C1 9676   0.744   3.649  17.270  0.0378  0.5850 -0.3050
  654TMC3    C2 9677   0.662   3.724  17.184 -0.3129 -0.0598  1.0668
  654TMC3    C3 9678   0.628   3.674  17.062  0.0505  0.4441 -0.3459
  654TMC3    C4 9679   0.797   3.528  17.230  0.7187 -0.0004  0.1307
  654TMC3    C5 9680   0.758   3.476  17.109 -0.0672 -0.3265  0.1692
  654TMC3    C6 9681   0.681   3.551  17.021 -0.2918 -0.5095  1.0692
  654TMC3     C 9682   0.802   3.707  17.385 -0.4767  0.1228  0.1679
  654TMC3     O 9683   0.852   3.632  17.471 -0.7911 -0.4492  0.0537
  654TMC3     H 9684   0.618   3.819  17.213 -0.9453  0.1502 -0.5868
  654TMC3    H1 9685   0.876   3.480  17.287  0.1235  0.9726  1.7632
  654TMC3    H2 9686   0.637   3.495  16.940  1.7692 -1.3983  0.5591
  654TMC3    C7 9687   0.806   3.351  17.053 -0.2501  0.0186  0.1313
  654TMC3    C8 9688   0.553   3.757  16.975 -0.3326 -0.4478 -0.0641
  654TMC3    O1 9689   0.784   3.327  16.934 -0.2772  0.3746 -0.3523
  654TMC3    O2 9690   0.485   3.845  17.024  0.1659 -0.5000 -0.5833
  655MPD2     C 9691   2.716   4.141  15.697  0.1103 -0.6215 -0.4700
  655MPD2    C1 9692   2.612   4.220  15.652  0.0796  0.4649 -0.2891
  655MPD2    C2 9693   2.554   4.184  15.536 -0.3031 -0.5918  0.3380
  655MPD2    C3 9694   2.603   4.080  15.463  0.6399 -0.1885 -0.8247
  655MPD2    C4 9695   2.712   4.010  15.508  0.0277 -1.1246 -0.3150
  655MPD2    C5 9696   2.764   4.038  15.624 -0.3365 -0.1711 -0.1542
  655MPD2     H 9697   2.471   4.240  15.495  0.2909  0.5872  0.7595
  655MPD2    H1 9698   2.754   3.925  15.456  0.6970 -0.4471 -0.8768
  655MPD2    H2 9699   2.767   4.159  15.790 -2.9948  2.2893  0.6713
  655MPD2    H3 9700   2.844   3.982  15.669  0.8591  1.5379 -0.1503
  655MPD2     N 9701   2.551   4.036  15.335 -0.7307 -0.6100  0.6246
  655MPD2    H5 9702   2.596   3.953  15.297 -1.3290 -1.5261  1.8762
  655MPD2    N1 9703   2.558   4.329  15.727 -0.1953  1.1999  0.5474
  655MPD2    H7 9704   2.479   4.376  15.684  1.4402  2.8294 -0.7052
  656TMC3    C1 9705   2.521   4.473  15.883 -0.0375 -0.0103  0.6390
  656TMC3    C2 9706   2.443   4.472  15.994  0.5527  0.3685  0.4857
  656TMC3    C3 9707   2.350   4.564  16.032 -0.0909  0.0123 -0.4165
  656TMC3    C4 9708   2.510   4.592  15.807  0.2609 -0.1920  0.6267
  656TMC3    C5 9709   2.417   4.683  15.844 -0.2317 -0.4854  0.1241
  656TMC3    C6 9710   2.329   4.667  15.952  0.2254 -0.0780  0.0776
  656TMC3     C 9711   2.603   4.362  15.851 -0.0809 -0.3374  1.0119
  656TMC3     O 9712   2.690   4.330  15.931  0.2366  0.7653 -0.8781
  656TMC3     H 9713   2.460   4.381  16.051 -1.8456  0.1277  0.7875
  656TMC3    H1 9714   2.586   4.609  15.732  0.0127  2.2833  0.9305
  656TMC3    H2 9715   2.240   0.001  15.969  0.4753 -0.1606  1.6288
  656TMC3    C7 9716   2.398   0.077  15.755 -0.4155  0.0786 -0.5996
  656TMC3    C8 9717   2.248   4.492  16.107 -0.6434 -0.0425  0.0533
  656TMC3    O1 9718   2.445   0.063  15.642  0.1923 -0.6461 -0.2291
  656TMC3    O2 9719   2.243   4.370  16.113 -0.1943  0.3472 -0.4413
  657TMC3    C1 9720   1.445   3.884  14.464  0.5140 -0.1934  0.5688
  657TMC3    C2 9721   1.423   3.915  14.597  0.0325  0.1763  0.0309
  657TMC3    C3 9722   1.318   3.992  14.628  0.1043 -0.1015  0.3884
  657TMC3    C4 9723   1.363   3.935  14.363  0.4287  0.0299  0.2700
  657TMC3    C5 9724   1.255   4.009  14.401  0.2194 -0.3421 -0.3489
  657TMC3    C6 9725   1.232   4.049  14.535 -0.3628 -0.2167 -0.1669
  657TMC3     C 9726   1.570   3.831  14.413 -0.7446  0.5002  0.1170
  657TMC3     O 9727   1.598   3.845  14.296 -0.3697  0.3011 -0.5847
  657TMC3     H 9728   1.495   3.900  14.677 -0.8166  0.2400  0.8029
  657TMC3    H1 9729   1.380   3.893  14.264  0.8813  1.6184 -0.3235
  657TMC3    H2 9730   1.142   4.100  14.569 -1.1803 -0.0828 -2.5156
  657TMC3    C7 9731   1.163   4.032  14.299 -0.4721  0.3874  0.3177
  657TMC3    C8 9732   1.304   4.026  14.768 -0.2723 -0.0460  0.3700
  657TMC3    O1 9733   1.154   3.945  14.216  0.0006  0.0775  0.0322
  657TMC3    O2 9734   1.337   3.937  14.850  0.6230 -0.7953  0.2923
  658MPD2     C 9735   2.928   3.991  14.772  0.4515  0.3233  0.1851
  658MPD2    C1 9736   2.804   4.054  14.774 -0.3651  0.1694  0.6447
  658MPD2    C2 9737   2.789   4.178  14.707 -0.2720  0.2191  0.6645
  658MPD2    C3 9738   2.885   4.218  14.625 -0.2780  0.2305  0.6490
  658MPD2    C4 9739   3.006   4.150  14.616  1.0020  0.4454  0.1407
  658MPD2    C5 9740   3.024   4.036  14.691  0.2997  0.6287  0.2616
  658MPD2     H 9741   2.698   4.237  14.709  0.6999  1.6931  1.3198
  658MPD2    H1 9742   3.091   4.193  14.564  1.1230  1.5151  1.2197
  658MPD2    H2 9743   2.952   3.907  14.837  0.9459  0.4496  0.1645
  658MPD2    H3 9744   3.123   3.993  14.704  0.8158  1.2393 -1.6326
  658MPD2     N 9745   2.860   4.343  14.558  0.4589  0.1367  0.3182
  658MPD2    H5 9746   2.774   4.392  14.575  1.4196  1.4017  1.5105
  658MPD2    N1 9747   2.702   4.010  14.853  0.4826  0.2728 -0.0278
  658MPD2    H7 9748   2.725   3.946  14.928 -1.7407 -0.8355 -0.2871
  659TMC3    C1 9749   2.472   3.997  14.923  0.2966  0.4507 -0.4975
  659TMC3    C2 9750   2.503   4.017  15.058  0.1123  0.0012  0.4059
  659TMC3    C3 9751   2.409   4.003  15.158 -0.7366  0.7172  0.4838
  659TMC3    C4 9752   2.346   4.005  14.888 -0.2138 -0.8960 -0.5467
  659TMC3    C5 9753   2.245   3.999  14.989 -0.5762 -0.2032  0.5576
  659TMC3    C6 9754   2.273   3.989  15.127  0.3057  0.3798  0.2335
  659TMC3     C 9755   2.569   4.045  14.827  0.4489  0.3358 -0.1035
  659TMC3     O 9756   2.527   4.089  14.723  0.8358 -0.8183  0.7674
  659TMC3     H 9757   2.607   4.033  15.083  0.9442  0.4339 -3.3498
  659TMC3    H1 9758   2.329   4.013  14.781  0.0806  1.7649 -0.4107
  659TMC3    H2 9759   2.198   4.000  15.203  2.4104  1.6444  2.1393
  659TMC3    C7 9760   2.100   3.996  14.960 -0.0512 -0.6858 -0.1573
  659TMC3    C8 9761   2.431   4.067  15.281  0.1045 -0.3948  0.5177
  659TMC3    O1 9762   2.022   3.984  15.053  0.1243 -0.0650  0.4004
  659TMC3    O2 9763   2.339   4.130  15.325  0.2957  0.4904  0.0264
  660MPD2     C 9764   1.062   2.732  12.856  0.2619 -0.0271  0.3245
  660MPD2    C1 9765   0.935   2.750  12.805 -1.4209 -0.3000 -0.5147
  660MPD2    C2 9766   0.828   2.723  12.894  0.3669 -0.9066  0.2318
  660MPD2    C3 9767   0.853   2.682  13.021 -0.5354 -0.1344 -0.2412
  660MPD2    C4 9768   0.982   2.662  13.059  1.1585  0.5943 -0.1474
  660MPD2    C5 9769   1.091   2.692  12.980 -0.2405  0.5169  0.4285
  660MPD2     H 9770   0.728   2.711  12.855 -0.7125  0.1513  2.6849
  660MPD2    H1 9771   1.001   2.630  13.161 -0.0990 -0.9087 -0.3865
  660MPD2    H2 9772   1.149   2.756  12.795  2.0208 -0.4426  2.6818
  660MPD2    H3 9773   1.193   2.666  13.005  0.1538  1.5701 -0.1099
  660MPD2     N 9774   0.747   2.668  13.116  0.1663  0.0095 -0.1565
  660MPD2    H5 9775   0.774   2.631  13.207 -0.6779 -0.9947 -0.3079
  660MPD2    N1 9776   0.922   2.798  12.671  0.5734 -0.3644 -0.9982
  660MPD2    H7 9777   1.003   2.803  12.611  1.5997 -1.8526  0.2556
  661TMC3    C1 9778   0.792   2.853  12.479  0.3078  0.0866 -0.1716
  661TMC3    C2 9779   0.880   2.796  12.395 -0.0117 -0.3188 -0.3187
  661TMC3    C3 9780   0.852   2.821  12.259  0.3622 -1.1033 -0.1022
  661TMC3    C4 9781   0.677   2.911  12.432  0.3172 -0.1083 -0.3923
  661TMC3    C5 9782   0.654   2.928  12.301 -0.2780 -0.0882  0.4703
  661TMC3    C6 9783   0.738   2.874  12.208  0.4677  0.1097  0.1764
  661TMC3     C 9784   0.802   2.842  12.623  0.2496  0.3943  0.2372
  661TMC3     O 9785   0.700   2.871  12.683 -0.0812  0.4646  0.0728
  661TMC3     H 9786   0.974   2.751  12.426 -0.8847 -0.3285  2.2819
  661TMC3    H1 9787   0.618   2.961  12.508  0.5737 -3.0826  1.7653
  661TMC3    H2 9788   0.715   2.896  12.104  2.7176 -0.5550 -0.4635
  661TMC3    C7 9789   0.555   3.022  12.260 -0.4095  0.3906  0.5072
  661TMC3    C8 9790   0.940   2.773  12.160  0.5127  0.0520 -0.0051
  661TMC3    O1 9791   0.549   3.137  12.312  0.1774 -0.5695  0.7462
  661TMC3    O2 9792   0.939   2.833  12.058  0.1470  0.0276 -0.3388
  662MPD2     C 9793   0.733   2.823  17.567  0.0884  0.1081  0.2418
  662MPD2    C1 9794   0.639   2.737  17.626 -0.2359  0.1246  0.3597
  662MPD2    C2 9795   0.530   2.794  17.681  0.1679  0.1389 -0.1240
  662MPD2    C3 9796   0.510   2.934  17.672 -0.2594 -0.1855  0.2724
  662MPD2    C4 9797   0.607   3.015  17.622  0.7540  0.0420 -0.0561
  662MPD2    C5 9798   0.718   2.963  17.566  0.2030 -0.3125 -0.0032
  662MPD2     H 9799   0.461   2.727   0.035  0.0321 -0.4726 -1.1239
  662MPD2    H1 9800   0.582   3.120  17.627 -0.1421 -0.0981 -1.2835
  662MPD2    H2 9801   0.830   2.783  17.540 -1.0261 -1.0521 -2.0356
  662MPD2    H3 9802   0.796   3.032  17.534 -0.2858 -0.1545 -0.8512
  662MPD2     N 9803   0.396   2.995   0.027  0.3615  0.4973 -0.2350
  662MPD2    H5 9804   0.394   3.096   0.022 -0.4721  0.4635 -0.5601
  662MPD2    N1 9805   0.657   2.597  17.643  0.1139 -0.4615 -0.7461
  662MPD2    H7 9806   0.586   2.549   0.001  0.9811 -2.7677 -1.6585
  663TMC3    C1 9807   0.744   2.383  17.582  0.0535  0.3720  0.4094
  663TMC3    C2 9808   0.715   2.325  17.696 -0.3470  0.1291  0.3755
  663TMC3    C3 9809   0.762   2.198   0.028  0.7881  0.3474  0.0083
  663TMC3    C4 9810   0.819   2.313  17.486  0.3289  0.2410 -0.8426
  663TMC3    C5 9811   0.842   2.176  17.500  0.3892 -0.3393  0.4199
  663TMC3    C6 9812   0.810   2.122  17.619  0.3245 -0.0286  0.4707
  663TMC3     C 9813   0.758   2.532  17.573  0.4977 -0.2358  0.7560
  663TMC3     O 9814   0.824   2.566  17.479  0.1295 -0.1079  0.2078
  663TMC3     H 9815   0.691   2.384   0.087 -0.9985 -3.1347  2.3914
  663TMC3    H1 9816   0.856   2.364  17.398  2.8838 -2.2136 -1.2047
  663TMC3    H2 9817   0.863   2.032  17.648 -0.1200  0.1491  1.8777
  663TMC3    C7 9818   0.831   2.099  17.376 -0.2130  0.3412 -0.4970
  663TMC3    C8 9819   0.669   2.109   0.095  0.6160 -0.1852 -0.1183
  663TMC3    O1 9820   0.824   2.155  17.266  0.3738  0.7238  0.4885
  663TMC3    O2 9821   0.706   1.991   0.108  0.0201 -0.2361  0.5604
  664MPD2     C 9822   3.729   0.556  17.247  0.4315  0.5520  0.6436
  664MPD2    C1 9823   3.814   0.617  17.333 -0.1379  0.5264 -0.7827
  664MPD2    C2 9824   3.828   0.580  17.469  0.1885 -0.0740  0.3946
  664MPD2    C3 9825   3.762   0.468  17.524  0.1363  0.1056  0.6817
  664MPD2    C4 9826   3.695   0.396  17.426  0.4631  0.6286 -0.8040
  664MPD2    C5 9827   3.683   0.435  17.295 -0.8538 -0.0602  1.0814
  664MPD2     H 9828   3.883   0.639  17.542  1.5070  0.4452 -1.0279
  664MPD2    H1 9829   3.659   0.297  17.451 -0.8742  1.3954  0.3390
  664MPD2    H2 9830   3.716   0.578  17.142  0.5379 -0.9607  0.3070
  664MPD2    H3 9831   3.623   0.370  17.232 -0.8195  0.0235  0.9626
  664MPD2     N 9832   3.765   0.438  17.659  0.4488 -0.3932  0.0523
  664MPD2    H5 9833   3.817   0.499   0.025  0.5184 -1.7311  1.3006
  664MPD2    N1 9834   3.902   0.722  17.296  0.2564 -0.7957 -0.0689
  664MPD2    H7 9835   3.979   0.748  17.356 -0.0400  0.2302 -0.1311
  665TMC3    C1 9836   3.665   0.372   0.167  0.4443 -0.0294 -0.8623
  665TMC3    C2 9837   3.569   0.294   0.220  0.8230 -0.2990 -0.4432
  665TMC3    C3 9838   3.515   0.333   0.341 -0.5481 -0.1606 -0.3850
  665TMC3    C4 9839   3.705   0.486   0.221  0.9793 -0.2669 -0.7250
  665TMC3    C5 9840   3.643   0.530   0.335  0.0176  0.1941 -0.5661
  665TMC3    C6 9841   3.559   0.442   0.406 -0.6093  1.1534 -0.3644
  665TMC3     C 9842   3.692   0.346   0.024  0.3243  0.1262 -0.0614
  665TMC3     O 9843   3.637   0.254  17.668  0.3042 -0.4132 -0.0172
  665TMC3     H 9844   3.556   0.200   0.169 -1.5624 -0.1798 -0.0665
  665TMC3    H1 9845   3.778   0.548   0.169  1.0370 -0.6047 -1.0416
  665TMC3    H2 9846   3.495   0.485   0.482 -2.4616  0.1661 -1.3757
  665TMC3    C7 9847   3.619   0.673   0.339  0.6690 -0.1042  0.0272
  665TMC3    C8 9848   3.409   0.264   0.406 -0.2503 -0.5077 -0.3591
  665TMC3    O1 9849   3.643   0.734   0.236  0.0573 -0.4366 -0.2118
  665TMC3    O2 9850   3.379   0.307   0.517 -0.1721  0.4105 -0.3440
  666TMC3    C1 9851   2.939   4.501  10.411  0.6021  0.0482  0.2926
  666TMC3    C2 9852   2.935   4.487  10.272  0.1571 -0.5308 -0.1009
  666TMC3    C3 9853   2.970   4.591  10.189  0.6369  0.4271 -0.5092
  666TMC3    C4 9854   2.999   4.606  10.467  0.4434 -0.5352  0.3637
  666TMC3    C5 9855   3.047   4.707  10.381 -0.9493 -0.5478  0.2958
  666TMC3    C6 9856   3.026   4.704  10.244 -0.3433 -0.5383 -0.3291
  666TMC3     C 9857   2.953   4.382  10.499 -0.0234 -0.5506 -0.1691
  666TMC3     O 9858   3.038   4.379  10.588 -0.0743  0.2478 -0.0464
  666TMC3     H 9859   2.895   4.400  10.221 -2.6058 -0.4358  1.9196
  666TMC3    H1 9860   3.001   4.609  10.576  2.1533  0.5717  0.3025
  666TMC3    H2 9861   3.069   0.058  10.182  0.6961 -1.2393 -0.4889
  666TMC3    C7 9862   3.105   0.105  10.433  0.7739  0.9356 -0.3943
  666TMC3    C8 9863   3.043   4.556  10.072  0.2845  0.2111  0.6187
  666TMC3    O1 9864   3.093   0.204  10.359  0.5154  0.3496 -0.3581
  666TMC3    O2 9865   3.103   4.455  10.089 -0.1814 -0.5695 -0.7552
  667MPD2     C 9866   0.286   1.018  14.797  0.2989  0.2374  0.3340
  667MPD2    C1 9867   0.178   1.086  14.840 -0.4247 -0.1932  0.3242
  667MPD2    C2 9868   0.059   1.026  14.830  0.7890 -0.7031  0.5209
  667MPD2    C3 9869   0.039   0.900  14.774  0.0761  0.5648  0.7447
  667MPD2    C4 9870   0.147   0.836  14.724  0.4469  0.0229  0.2935
  667MPD2    C5 9871   0.272   0.890  14.760  0.2644 -0.5280 -0.1902
  667MPD2     H 9872   4.695   1.082  14.860  1.0999 -0.2585  0.5881
  667MPD2    H1 9873   0.140   0.751  14.656  1.3021 -1.3776  1.9389
  667MPD2    H2 9874   0.386   1.058  14.806  0.1057  1.2236 -2.0761
  667MPD2    H3 9875   0.357   0.830  14.730 -0.2128 -1.4633  0.3174
  667MPD2     N 9876   4.639   0.833  14.755 -0.2934  0.1153  0.3399
  667MPD2    H5 9877   4.632   0.744  14.708 -0.4004 -0.2383  1.0369
  667MPD2    N1 9878   0.182   1.211  14.895  0.1006 -0.6890  0.1097
  667MPD2    H7 9879   0.107   1.244  14.954 -1.6313 -1.0073 -1.9309
  668TMC3    C1 9880   0.283   1.400  14.979 -0.2795  0.3142 -0.6437
  668TMC3    C2 9881   0.340   1.520  14.945 -0.1186 -0.5005 -0.2275
  668TMC3    C3 9882   0.297   1.635  14.996 -0.0469  0.7240 -0.0424
  668TMC3    C4 9883   0.190   1.392  15.082 -0.4240 -0.3853 -0.2255
  668TMC3    C5 9884   0.146   1.515  15.131 -0.1705  0.4125 -0.1859
  668TMC3    C6 9885   0.195   1.636  15.092 -0.2140 -0.5938 -0.5530
  668TMC3     C 9886   0.296   1.289  14.892  0.5254 -0.3304  0.0056
  668TMC3     O 9887   0.399   1.279  14.827  0.2714 -0.3974 -0.1629
  668TMC3     H 9888   0.421   1.511  14.873  0.0503  2.1143 -0.3819
  668TMC3    H1 9889   0.150   1.300  15.124 -2.4347 -0.0823 -1.4805
  668TMC3    H2 9890   0.137   1.726  15.109  0.0321 -0.6465  0.6233
  668TMC3    C7 9891   0.113   1.519  15.272 -0.5567 -0.3086  1.0228
  668TMC3    C8 9892   0.349   1.763  14.949 -0.4320 -0.0716  0.0243
  668TMC3    O1 9893   0.153   1.615  15.335  0.4945  0.2784  0.3891
  668TMC3    O2 9894   0.303   1.860  15.002  0.3527 -0.7903 -0.8025
  669TMC3    C1 9895   3.046   0.732  14.371  0.5087 -0.1712 -1.0220
  669TMC3    C2 9896   2.919   0.762  14.339 -0.0799  0.1604 -0.3138
  669TMC3    C3 9897   2.893   0.875  14.267  0.6317  0.2303 -0.4834
  669TMC3    C4 9898   3.153   0.804  14.329 -0.1360  0.2762  0.3873
  669TMC3    C5 9899   3.127   0.913  14.256  0.3065 -0.2548 -0.3582
  669TMC3    C6 9900   3.001   0.958  14.232  0.0519  0.2992 -0.3653
  669TMC3     C 9901   3.068   0.680  14.503  0.7643  0.5781  0.3653
  669TMC3     O 9902   2.970   0.691  14.571  0.1569  0.0186  0.3501
  669TMC3     H 9903   2.830   0.703  14.357  1.4186 -1.2955  2.2922
  669TMC3    H1 9904   3.249   0.785  14.377 -0.1024 -0.5021  0.0178
  669TMC3    H2 9905   2.991   1.037  14.159  0.2880  1.4981  0.8871
  669TMC3    C7 9906   3.236   1.009  14.241 -0.5542 -0.1612 -0.2837
  669TMC3    C8 9907   2.758   0.907  14.226  0.5979  0.1262 -1.0066
  669TMC3    O1 9908   3.193   1.125  14.226  0.1261  0.8120 -0.2006
  669TMC3    O2 9909   2.674   0.829  14.250  0.3000 -0.5509 -0.6705
  670MPD2     C 9910   0.792   3.502  13.543  0.0598  0.1692  0.2128
  670MPD2    C1 9911   0.905   3.557  13.602  0.0271 -0.7434 -0.4960
  670MPD2    C2 9912   0.926   3.533  13.738 -0.1054  0.2543  0.6617
  670MPD2    C3 9913   0.836   3.479  13.820  0.5091 -0.4463 -0.2575
  670MPD2    C4 9914   0.716   3.441  13.766  0.2470 -0.2831  0.0705
  670MPD2    C5 9915   0.700   3.454  13.631  0.4479 -0.1318  0.1127
  670MPD2     H 9916   1.015   3.567  13.789  0.6808 -1.9996  0.7955
  670MPD2    H1 9917   0.632   3.408  13.826 -1.4249  1.1463 -1.4633
  670MPD2    H2 9918   0.761   3.511  13.439  2.0675  0.8928 -0.3317
  670MPD2    H3 9919   0.611   3.409  13.589 -0.1064 -0.5165  1.7225
  670MPD2     N 9920   0.870   3.482  13.957 -0.6349 -0.0655  0.4711
  670MPD2    H5 9921   0.956   3.523  13.991  0.0673  0.4098 -1.8370
  670MPD2    N1 9922   0.997   3.625  13.530  0.1982  0.3000 -0.1092
  670MPD2    H7 9923   1.080   3.663  13.576  0.4004  1.6747 -1.5969
  671TMC3    C1 9924   0.864   3.433  14.178 -0.1783  0.6273 -0.0488
  671TMC3    C2 9925   1.002   3.410  14.174  0.4355 -0.0180 -0.5540
  671TMC3    C3 9926   1.061   3.340  14.274 -0.3458 -0.0695  0.3105
  671TMC3    C4 9927   0.787   3.400  14.292  0.1108  0.0403 -1.0599
  671TMC3    C5 9928   0.847   3.318  14.380  0.0589 -0.6734  0.8841
  671TMC3    C6 9929   0.980   3.285  14.368  0.3825  0.4556  0.3964
  671TMC3     C 9930   0.789   3.445  14.059 -0.4699  0.4948 -0.2669
  671TMC3     O 9931   0.674   3.406  14.057  0.0190 -0.3119 -0.2657
  671TMC3     H 9932   1.065   3.411  14.085 -0.2218  1.2490 -1.0029
  671TMC3    H1 9933   0.682   3.426  14.292  0.1413  0.1601 -0.8053
  671TMC3    H2 9934   1.021   3.198  14.417  0.1700 -1.4087 -2.7188
  671TMC3    C7 9935   0.764   3.229  14.456 -0.5343 -0.4536 -0.0941
  671TMC3    C8 9936   1.192   3.279  14.251 -0.3978  0.6874  0.0668
  671TMC3    O1 9937   0.645   3.230  14.432 -0.0792 -0.1716  0.1749
  671TMC3    O2 9938   1.229   3.273  14.134  0.4760 -0.3361  0.2624
  672MPD2     C 9939   0.246   4.596   1.608 -0.4203  0.7642  0.3656
  672MPD2    C1 9940   0.296   4.650   1.493 -0.3171  0.1657  0.3371
  672MPD2    C2 9941   0.430   4.658   1.470  0.2880  0.4043  0.7355
  672MPD2    C3 9942   0.515   4.636   1.585 -0.1615 -0.5739 -0.0690
  672MPD2    C4 9943   0.455   4.585   1.703 -0.0454  0.6639 -0.1386
  672MPD2    C5 9944   0.319   4.582   1.718  0.0144 -0.0530  0.0796
  672MPD2     H 9945   0.465   4.691   1.373 -1.1048 -1.4801 -0.3897
  672MPD2    H1 9946   0.507   4.568   1.797  0.9750  0.7343 -0.6793
  672MPD2    H2 9947   0.139   4.582   1.625  0.0724 -3.0841  0.3892
  672MPD2    H3 9948   0.273   4.560   1.814  0.0538  0.9783  0.3331
  672MPD2     N 9949   0.655   4.650   1.583  0.1265 -0.1815 -0.3689
  672MPD2    H5 9950   0.709   4.610   1.660  0.1738  3.0972  1.2705
  672MPD2    N1 9951   0.215   4.664   1.378  0.1733  0.0117 -0.3033
  672MPD2    H7 9952   0.268   4.705   1.301 -0.6475  0.0168 -0.8637
  673TMC3    C1 9953   0.074   4.566   1.218 -0.4456  0.2310 -0.0610
  673TMC3    C2 9954   0.019   4.440   1.210  0.3017 -0.9194  0.0514
  673TMC3    C3 9955   0.068   4.357   1.110  0.6679  0.4404 -0.0977
  673TMC3    C4 9956   0.166   4.620   1.125 -0.2764 -0.1123 -0.3579
  673TMC3    C5 9957   0.211   4.526   1.043 -0.8264 -0.9027  0.0669
  673TMC3    C6 9958   0.162   4.399   1.024 -0.5413 -0.0414  0.2688
  673TMC3     C 9959   0.086   4.610   1.356 -0.7413 -0.1079 -0.4905
  673TMC3     O 9960   0.011   4.560   1.436 -0.1109 -0.3246 -0.3986
  673TMC3     H 9961   4.680   4.405   1.291 -0.2546  1.2301  0.5293
  673TMC3    H1 9962   0.214   4.717   1.132 -2.2169  0.7123  1.6167
  673TMC3    H2 9963   0.208   4.334   0.951 -0.5744  2.2299 -1.7665
  673TMC3    C7 9964   0.304   4.573   0.945  0.7983  0.0571 -0.4073
  673TMC3    C8 9965   0.076   4.213   1.137 -1.0243  0.3226 -0.8224
  673TMC3    O1 9966   0.292   4.683   0.885 -0.3781  0.3507 -0.0318
  673TMC3    O2 9967   4.703   4.167   1.210 -0.4766 -0.9451 -0.9935
  674MPD2     C 9968   1.240   3.707   0.721 -0.2735 -0.5068 -0.1229
  674MPD2    C1 9969   1.165   3.623   0.645  0.4024 -0.3247  0.2500
  674MPD2    C2 9970   1.032   3.653   0.635  0.4713 -0.6104 -0.1915
  674MPD2    C3 9971   0.979   3.768   0.695  0.6035  0.2400  0.1878
  674MPD2    C4 9972   1.056   3.851   0.771 -0.0580 -0.0229  0.0874
  674MPD2    C5 9973   1.185   3.816   0.785 -0.1861 -0.1611 -0.0588
  674MPD2     H 9974   0.968   3.586   0.579 -3.3602  2.0166  1.0682
  674MPD2    H1 9975   1.021   3.936   0.827 -3.1620 -1.1315 -0.1480
  674MPD2    H2 9976   1.346   3.687   0.733 -0.2635 -0.4906 -0.1852
  674MPD2    H3 9977   1.252   3.873   0.849  0.0335  2.3779 -2.5045
  674MPD2     N 9978   0.842   3.792   0.685  0.0852 -0.6608  0.8705
  674MPD2    H5 9979   0.798   3.721   0.626  0.3042 -0.4390  0.4358
  674MPD2    N1 9980   1.235   3.511   0.597  0.4082  0.6764 -0.1737
  674MPD2    H7 9981   1.334   3.519   0.616  0.4607 -0.6134  0.1340
  675TMC3    C1 9982   1.267   3.303   0.479 -1.0506 -0.0310 -0.9247
  675TMC3    C2 9983   1.198   3.193   0.429  0.2707 -0.2596  0.4500
  675TMC3    C3 9984   1.265   3.104   0.358  0.2380 -0.0884 -0.1196
  675TMC3    C4 9985   1.392   3.333   0.438 -0.1394 -0.4774  1.1300
  675TMC3    C5 9986   1.457   3.241   0.356  0.1188 -0.5269  0.0379
  675TMC3    C6 9987   1.397   3.120   0.326 -0.6058  0.1172 -0.0173
  675TMC3     C 9988   1.181   3.408   0.522 -1.1816 -0.2670 -0.2182
  675TMC3     O 9989   1.062   3.391   0.500  0.2992  0.3602  0.3759
  675TMC3     H 9990   1.095   3.170   0.454 -0.1007  0.9831  0.0315
  675TMC3    H1 9991   1.438   3.429   0.455 -3.1204  0.5585  3.1660
  675TMC3    H2 9992   1.450   3.048   0.263  1.4496  2.0650 -0.5317
  675TMC3    C7 9993   1.602   3.251   0.345 -0.1411  0.8202 -0.6589
  675TMC3    C8 9994   1.209   2.976   0.308  0.1566 -0.1545 -0.5929
  675TMC3    O1 9995   1.644   3.370   0.334 -0.0967 -0.6387  0.6914
  675TMC3    O2 9996   1.293   2.885   0.287  0.3503  0.4420 -0.6629
  676MPD2     C 9997   3.775   1.875  11.099  0.2384  0.7428  0.4099
  676MPD2    C1 9998   3.707   1.824  11.207  0.0434 -0.2708  0.7595
  676MPD2    C2 9999   3.704   1.690  11.226  1.4937 -0.6666 -0.1492
  676MPD2    C310000   3.771   1.600  11.149  0.6617  0.1161 -0.3237
  676MPD2    C410001   3.838   1.651  11.044  0.2319 -0.4142  0.0168
  676MPD2    C510002   3.839   1.788  11.020  0.6250  0.4338 -0.0192
  676MPD2     H10003   3.660   1.657  11.320 -0.2495 -1.7086 -1.3318
  676MPD2    H110004   3.876   1.586  10.966 -2.2237 -0.5062 -1.1024
  676MPD2    H210005   3.791   1.979  11.075  0.8413  0.7059  0.6544
  676MPD2    H310006   3.899   1.830  10.940  0.9249 -1.4539 -0.7779
  676MPD2     N10007   3.769   1.461  11.156 -0.0302 -0.1849 -0.3158
  676MPD2    H510008   3.833   1.402  11.104  1.9997  0.4741  1.4234
  676MPD2    N110009   3.645   1.908  11.304 -0.0734  0.2179 -0.5347
  676MPD2    H710010   3.589   1.859  11.373  0.2997 -0.2937 -0.5978
  677TMC3    C110011   3.596   2.109  11.416 -0.0238 -0.9837  0.9029
  677TMC3    C210012   3.465   2.077  11.429 -0.4489 -0.5898 -0.4811
  677TMC3    C310013   3.413   2.122  11.548 -0.4142 -0.6893  0.3360
  677TMC3    C410014   3.669   2.196  11.492  0.0897  0.6464  0.6435
  677TMC3    C510015   3.607   2.252  11.600  0.6901 -0.1705 -0.1306
  677TMC3    C610016   3.474   2.214  11.628 -0.2930  0.0106  0.0742
  677TMC3     C10017   3.673   2.040  11.316  0.1104  0.9715  0.4641
  677TMC3     O10018   3.768   2.101  11.273  0.0952 -0.2614  0.5720
  677TMC3     H10019   3.421   2.006  11.360 -2.3754  1.7045 -1.5950
  677TMC3    H110020   3.773   2.206  11.463 -0.0247  0.7013  0.2594
  677TMC3    H210021   3.417   2.244  11.715 -0.9270  1.2550 -0.7631
  677TMC3    C710022   3.684   2.316  11.701 -0.1384  0.1862 -0.3130
  677TMC3    C810023   3.294   2.052  11.596 -0.0758  0.0537  0.0434
  677TMC3    O110024   3.629   2.346  11.802  0.1421  0.3947 -0.1083
  677TMC3    O210025   3.210   2.014  11.511  0.3124  0.3772  0.1464
  678MPD2     C10026   4.060   1.669   1.737  0.0430 -0.0303 -0.0148
  678MPD2    C110027   4.077   1.665   1.603  0.6935 -0.4322 -0.9656
  678MPD2    C210028   3.965   1.672   1.522 -0.6769  0.0488  0.2167
  678MPD2    C310029   3.837   1.667   1.585 -0.2843  0.3905 -0.1232
  678MPD2    C410030   3.826   1.674   1.719  0.3392  0.2646 -0.3808
  678MPD2    C510031   3.936   1.674   1.791 -0.9733 -0.0352  0.7024
  678MPD2     H10032   3.977   1.650   1.417 -1.0670  0.5451  0.0685
  678MPD2    H110033   3.731   1.676   1.772 -0.6920 -0.0542 -2.2249
  678MPD2    H210034   4.143   1.659   1.806 -0.2882 -3.1241 -0.0604
  678MPD2    H310035   3.921   1.680   1.898 -1.3251 -0.3710  0.6730
  678MPD2     N10036   3.731   1.655   1.491  0.3492  0.8702 -0.0494
  678MPD2    H510037   3.775   1.652   1.399 -0.0511  0.0483 -0.2129
  678MPD2    N110038   4.200   1.668   1.541 -0.5148 -0.0454 -0.4536
  678MPD2    H710039   4.195   1.690   1.442  0.8062 -1.5895 -0.8650
  679TMC3    C110040   4.647   1.578   1.441  1.3685 -0.5400 -0.4294
  679TMC3    C210041   4.540   1.559   1.520  0.4942 -0.2524  0.3788
  679TMC3    C310042   4.436   1.650   1.511 -0.1336  0.6711  0.2005
  679TMC3    C410043   4.652   1.688   1.353  0.3031 -0.5163  0.8355
  679TMC3    C510044   4.553   1.779   1.361  0.0610 -0.3342  0.6323
  679TMC3    C610045   4.446   1.766   1.440  0.1514  1.0510 -0.4980
  679TMC3     C10046   0.038   1.490   1.434 -0.4196 -0.2790 -0.2479
  679TMC3     O10047   0.135   1.513   1.366 -0.7427  0.0790 -0.7434
  679TMC3     H10048   4.532   1.474   1.587 -0.8701  0.7372  1.4775
  679TMC3    H110049   0.015   1.702   1.290  0.3803 -3.6912  0.2273
  679TMC3    H210050   4.361   1.833   1.447  0.3339  1.5361 -3.1380
  679TMC3    C710051   4.558   1.887   1.260 -0.4727  0.2862  0.9717
  679TMC3    C810052   4.320   1.646   1.607 -0.3075  0.1175  0.1977
  679TMC3    O110053   4.645   1.894   1.173  0.2977 -0.2481 -0.3070
  679TMC3    O210054   4.343   1.590   1.712 -0.0415  0.1390 -0.4292
  680MPD2     C10055   0.753   0.691  13.270 -0.5648 -0.2330 -0.3627
  680MPD2    C110056   0.778   0.662  13.403 -0.5298 -0.0759 -0.6448
  680MPD2    C210057   0.819   0.760  13.492  0.1017  0.2151  0.1707
  680MPD2    C310058   0.849   0.885  13.445 -0.0287  0.0531 -0.2107
  680MPD2    C410059   0.838   0.910  13.313 -0.1676  0.2156 -0.5813
  680MPD2    C510060   0.779   0.816  13.231 -0.6532 -0.1893  0.2658
  680MPD2     H10061   0.853   0.729  13.590  4.1286 -1.3414 -1.7020
  680MPD2    H110062   0.857   1.012  13.280  0.3678  0.6259  0.9833
  680MPD2    H210063   0.739   0.610  13.198 -1.0171  0.4371 -1.0252
  680MPD2    H310064   0.768   0.847  13.128 -0.3864  0.4948  0.4415
  680MPD2     N10065   0.884   0.994  13.525 -0.0378 -0.4949  0.1978
  680MPD2    H510066   0.918   1.079  13.481  0.2365 -1.1285 -0.8078
  680MPD2    N110067   0.772   0.525  13.439 -0.0615  0.0241 -0.3306
  680MPD2    H710068   0.771   0.455  13.365 -1.8378 -1.5690  1.1973
  681TMC3    C110069   0.810   0.332  13.580  0.1068 -0.8991  0.0022
  681TMC3    C210070   0.844   0.291  13.706 -0.6916 -0.1892 -0.3730
  681TMC3    C310071   0.856   0.153  13.716 -0.0042  0.2397 -1.0877
  681TMC3    C410072   0.794   0.248  13.473  0.2530 -0.3831 -0.6016
  681TMC3    C510073   0.803   0.110  13.489 -0.3945  0.6382 -0.2728
  681TMC3    C610074   0.842   0.060  13.611 -0.8458 -0.0503 -0.2859
  681TMC3     C10075   0.793   0.476  13.568 -0.4871  0.2864 -0.3860
  681TMC3     O10076   0.774   0.534  13.672 -0.3485 -0.2116 -0.6533
  681TMC3     H10077   0.851   0.354  13.794  3.1290 -0.6475 -0.3716
  681TMC3    H110078   0.762   0.277  13.374 -1.2491  0.9559  0.2595
  681TMC3    H210079   0.866   4.678  13.621  0.7744  0.3395 -0.1131
  681TMC3    C710080   0.820   0.014  13.382 -0.6554 -0.4481 -0.1853
  681TMC3    C810081   0.856   0.090  13.846 -0.4037 -0.5402 -0.6993
  681TMC3    O110082   0.786   4.621  13.395 -0.2971 -0.5533 -0.3753
  681TMC3    O210083   0.842   4.693  13.856 -0.5864  0.0674 -0.1733
  682MPD2     C10084   3.197   1.412  10.686  0.2680 -0.4282  0.0538
  682MPD2    C110085   3.081   1.340  10.687 -0.9929  0.1424 -0.2103
  682MPD2    C210086   2.959   1.396  10.726 -0.3802 -0.9041 -0.0181
  682MPD2    C310087   2.962   1.527  10.775  0.2110 -0.6723  0.3509
  682MPD2    C410088   3.082   1.592  10.785 -0.0748 -0.5953  0.1559
  682MPD2    C510089   3.196   1.539  10.733  0.1407 -0.8586 -0.6206
  682MPD2     H10090   2.870   1.335  10.721 -1.3242  0.2349  2.8340
  682MPD2    H110091   3.076   1.694  10.819 -2.5885 -0.4940 -0.6177
  682MPD2    H210092   3.288   1.363  10.651  1.2463 -0.1891  2.3010
  682MPD2    H310093   3.288   1.596  10.726 -0.9301  0.9685  0.1648
  682MPD2     N10094   2.846   1.588  10.820 -0.6074  0.5141 -0.4058
  682MPD2    H510095   2.857   1.670  10.880 -0.5223  1.6351 -1.9385
  682MPD2    N110096   3.071   1.202  10.659  0.7454  0.0795  0.3228
  682MPD2    H710097   2.978   1.160  10.661  0.0705  1.4409 -2.7702
  683TMC3    C110098   2.587   1.596  11.108  0.8967  0.2442 -0.1094
  683TMC3    C210099   2.488   1.503  11.092 -0.3346 -0.4565  0.3955
  683TMC3    C310100   2.450   1.470  10.966 -0.1500 -0.1089  1.2371
  683TMC3    C410101   2.648   1.648  10.998 -0.1548  0.6580  0.4808
  683TMC3    C510102   2.613   1.608  10.868 -0.3756  0.0271 -0.1821
  683TMC3    C610103   2.510   1.522  10.859  0.0575 -0.0970 -0.2279
  683TMC3     C10104   2.613   1.647  11.240 -0.2435  0.0890 -0.0829
  683TMC3     O10105   2.666   1.759  11.245 -0.1645 -0.3944 -0.3785
  683TMC3     H10106   2.418   1.480  11.171 -1.6634 -0.0842 -0.6783
  683TMC3    H110107   2.731   1.715  11.017 -0.5795  0.7525  2.0064
  683TMC3    H210108   2.474   1.490  10.762  1.7897 -0.7821 -0.6430
  683TMC3    C710109   2.722   1.556  10.782 -0.1255 -0.2546  0.6524
  683TMC3    C810110   2.405   1.339  10.945  0.0595 -0.2429  0.1812
  683TMC3    O110111   2.681   1.477  10.696  0.5188  0.0749 -0.0437
  683TMC3    O210112   2.344   1.318  10.840  0.5587 -0.3736 -0.7205
  684MPD2     C10113   1.339   0.982  16.365  0.7054  0.2231  0.4023
  684MPD2    C110114   1.248   1.063  16.309 -0.2432  0.1681  0.1198
  684MPD2    C210115   1.172   1.150  16.387  0.3268  0.1172  0.6592
  684MPD2    C310116   1.198   1.166  16.525  0.3066  0.1065  0.2807
  684MPD2    C410117   1.304   1.096  16.575 -0.2983 -0.3835  0.7046
  684MPD2    C510118   1.373   0.997  16.500 -1.0996 -0.1477  0.6462
  684MPD2     H10119   1.094   1.202  16.333  0.2960 -0.5875  0.0258
  684MPD2    H110120   1.348   1.128  16.669  0.5013 -0.1571  0.2600
  684MPD2    H210121   1.400   0.914  16.305 -2.6792 -1.0699 -1.5368
  684MPD2    H310122   1.463   0.950  16.536  0.4379  2.0793 -0.2928
  684MPD2     N10123   1.152   1.274  16.600  0.4800  0.6608  0.7140
  684MPD2    H510124   1.198   1.296  16.688 -0.0240  1.7644  0.6948
  684MPD2    N110125   1.224   1.066  16.171  0.9064  0.1717  0.6818
  684MPD2    H710126   1.152   1.130  16.138  0.5067 -1.9594 -2.6137
  685TMC3    C110127   1.325   1.114  15.962  0.1235  0.3883  0.0063
  685TMC3    C210128   1.208   1.182  15.928  0.3294  0.0878  0.7877
  685TMC3    C310129   1.239   1.302  15.861  0.2056 -0.2625  0.6996
  685TMC3    C410130   1.451   1.173  15.972  0.4766  0.3592  0.0045
  685TMC3    C510131   1.465   1.297  15.921  0.2486 -0.8312 -0.0649
  685TMC3    C610132   1.367   1.350  15.849 -0.5468  0.2912 -0.2038
  685TMC3     C10133   1.313   1.024  16.073  0.1097 -0.3404 -0.3765
  685TMC3     O10134   1.405   0.948  16.090  0.1053 -0.4291  0.2667
  685TMC3     H10135   1.118   1.125  15.911 -0.3534  1.3592  0.0994
  685TMC3    H110136   1.542   1.118  15.992 -1.3429 -0.5734  5.7924
  685TMC3    H210137   1.382   1.438  15.788 -1.2647  1.9085  1.9852
  685TMC3    C710138   1.570   1.379  15.958 -0.0678  0.4316  0.2999
  685TMC3    C810139   1.144   1.343  15.752 -0.0907  0.1344 -0.2948
  685TMC3    O110140   1.592   1.489  15.906  0.1217 -0.1196 -0.4819
  685TMC3    O210141   1.188   1.382  15.646  0.5914 -0.1496  0.7361
  686MPD2     C10142   2.461   1.317  15.663 -0.2953  0.1120  0.2178
  686MPD2    C110143   2.397   1.217  15.732 -0.6278 -0.2666  0.1972
  686MPD2    C210144   2.427   1.090  15.700 -0.1822 -0.5518  0.4840
  686MPD2    C310145   2.534   1.065  15.619 -1.0388 -0.0063 -0.1219
  686MPD2    C410146   2.601   1.169  15.555 -0.3825 -0.7917  0.7150
  686MPD2    C510147   2.568   1.295  15.583 -0.4580 -0.1498  0.8644
  686MPD2     H10148   2.359   1.007  15.721 -0.0401 -0.9861 -0.7259
  686MPD2    H110149   2.678   1.156  15.480 -2.9212 -1.2986 -1.8084
  686MPD2    H210150   2.438   1.421  15.680  0.1885  0.1978  0.3424
  686MPD2    H310151   2.608   1.378  15.526 -0.8771  0.0763  0.9004
  686MPD2     N10152   2.583   0.933  15.581 -0.0832  0.0026  0.2421
  686MPD2    H510153   2.653   0.923  15.509  0.7126 -1.5689  1.2335
  686MPD2    N110154   2.303   1.249  15.832 -0.6516 -0.0705  0.2795
  686MPD2    H710155   2.256   1.339  15.827  0.3675  0.2810 -3.0389
  687TMC3    C110156   2.506   0.814  15.771  0.0041 -0.1137  0.0466
  687TMC3    C210157   2.400   0.729  15.797  0.3085  0.5209  0.1989
  687TMC3    C310158   2.358   0.717  15.928  0.2252 -0.2225  0.0583
  687TMC3    C410159   2.566   0.884  15.875  0.3310 -0.2459 -0.3918
  687TMC3    C510160   2.522   0.863  16.003  0.0009 -0.4774 -0.0640
  687TMC3    C610161   2.419   0.781  16.027 -0.2581 -0.8648 -0.1356
  687TMC3     C10162   2.564   0.811  15.645  0.4787  0.1684  0.6166
  687TMC3     O10163   2.593   0.700  15.603 -0.3177  0.2383  0.7828
  687TMC3     H10164   2.353   0.671  15.718  1.3805 -1.3646  0.9299
  687TMC3    H110165   2.645   0.956  15.854  1.1172 -1.6029 -2.1186
  687TMC3    H210166   2.380   0.766  16.127 -1.1877  2.8439  0.0507
  687TMC3    C710167   2.574   0.945  16.113 -0.1600  0.4226 -0.3382
  687TMC3    C810168   2.215   0.718  15.936 -0.7149  0.2067  0.4923
  687TMC3    O110169   2.595   0.893  16.222  0.0174 -0.4465  0.2662
  687TMC3    O210170   2.163   0.703  16.044 -0.3298 -0.2599  0.1696
  688MPD2     C10171   1.654   0.054  17.486 -0.2222 -0.6725 -0.0582
  688MPD2    C110172   1.581   4.674  17.437 -0.0801 -0.1103  0.5850
  688MPD2    C210173   1.617   4.611  17.318 -0.1349  0.3746  0.6416
  688MPD2    C310174   1.734   4.648  17.251 -0.2015 -0.2764  0.5648
  688MPD2    C410175   1.809   0.020  17.305  0.4941 -0.3186  0.5990
  688MPD2    C510176   1.769   0.084  17.418 -0.0382 -0.4183 -0.4943
  688MPD2     H10177   1.554   4.541  17.264  0.9775  0.2727 -0.5191
  688MPD2    H110178   1.907   0.037  17.262 -0.5166  0.6218 -1.3085
  688MPD2    H210179   1.621   0.104  17.576  2.1147  2.0961 -0.7123
  688MPD2    H310180   1.836   0.159  17.457  0.9234 -1.0005 -1.0233
  688MPD2     N10181   1.783   4.594  17.129 -0.0307 -0.2830  0.0544
  688MPD2    H510182   1.859   4.644  17.084  2.3744 -2.0359  2.1540
  688MPD2    N110183   1.460   4.646  17.501 -0.6918 -0.5203 -0.6533
  688MPD2    H710184   1.454   4.682  17.596 -0.4659  1.4915 -1.4003
  689TMC3    C110185   1.250   4.565  17.549  0.2025 -0.0233  0.2880
  689TMC3    C210186   1.220   4.686  17.605 -0.4548  0.0714 -0.2489
  689TMC3    C310187   1.114   4.677  17.696 -0.1873 -0.7378 -0.0462
  689TMC3    C410188   1.170   4.451  17.558 -0.3576 -0.0555  0.1646
  689TMC3    C510189   1.073   4.453  17.651 -0.6198  0.7183  0.3529
  689TMC3    C610190   1.053   4.560   0.030  0.7411  0.0079  0.7262
  689TMC3     C10191   1.362   4.559  17.464  0.0908 -0.0131 -0.0186
  689TMC3     O10192   1.347   4.483  17.370  0.2693 -0.1236  0.2697
  689TMC3     H10193   1.271   0.057  17.594  2.1059 -1.3672 -0.7935
  689TMC3    H110194   1.207   4.357  17.517  1.4389 -0.3487  2.5157
  689TMC3    H210195   0.974   4.563   0.104 -0.9060 -0.5829 -1.0099
  689TMC3    C710196   0.993   4.334  17.681  0.7685 -0.3088 -0.6234
  689TMC3    C810197   1.067   0.079   0.065 -0.1704 -0.4623  0.5650
  689TMC3    O110198   0.920   4.326   0.084 -0.0532  0.1970  0.1178
  689TMC3    O210199   0.995   0.065   0.162 -0.2642 -0.0722  0.3001
  690MPD2     C10200   3.851   1.991  15.947  0.1194 -0.3560  0.0236
  690MPD2    C110201   3.784   1.986  15.827 -0.6155  0.1137 -0.3298
  690MPD2    C210202   3.848   2.010  15.708 -0.4771 -0.1883 -0.0050
  690MPD2    C310203   3.984   2.035  15.710  0.1641  0.3447  0.2656
  690MPD2    C410204   4.049   2.037  15.829  0.1984 -0.0604  0.4833
  690MPD2    C510205   3.979   2.014  15.949  0.0036 -0.2578 -0.1132
  690MPD2     H10206   3.787   2.007  15.618 -1.6727 -0.0482  0.7921
  690MPD2    H110207   4.148   2.080  15.826 -0.7292  2.0032 -0.7344
  690MPD2    H210208   3.803   1.969  16.042 -2.3192  1.1206 -0.8731
  690MPD2    H310209   4.033   2.018  16.042 -1.7800 -0.8038  0.9461
  690MPD2     N10210   4.042   2.068  15.587  0.4557  0.4971  0.1055
  690MPD2    H510211   3.971   2.072  15.514 -1.4521  1.5777  2.0095
  690MPD2    N110212   3.646   1.938  15.823  0.1929  0.2114 -0.0281
  690MPD2    H710213   3.618   1.888  15.739 -1.1683 -0.3533  0.7826
  691TMC3    C110214   3.492   1.785  15.916 -0.4336 -0.8000 -0.0717
  691TMC3    C210215   3.389   1.774  16.001 -0.1762 -0.4796 -0.3525
  691TMC3    C310216   3.308   1.666  15.990  0.0801  0.0046 -0.3310
  691TMC3    C410217   3.530   1.680  15.838  0.4206  0.2586 -0.5812
  691TMC3    C510218   3.443   1.573  15.829  0.5560  0.0928 -0.4942
  691TMC3    C610219   3.328   1.561  15.904 -0.6957 -0.2551 -0.1483
  691TMC3     C10220   3.580   1.897  15.934  0.0575  0.3011 -0.2496
  691TMC3     O10221   3.563   1.966  16.032  0.5770  0.3241 -0.5709
  691TMC3     H10222   3.370   1.852  16.074  2.4911 -0.6245  0.4796
  691TMC3    H110223   3.598   1.696  15.755  1.8007 -0.0159  0.4820
  691TMC3    H210224   3.249   1.489  15.883  0.4972 -2.4118  2.8542
  691TMC3    C710225   3.465   1.483  15.714 -0.7119 -0.6556  0.7937
  691TMC3    C810226   3.190   1.662  16.074  0.1495  0.7761 -0.3267
  691TMC3    O110227   3.553   1.510  15.637  0.1741 -0.5933 -0.5110
  691TMC3    O210228   3.143   1.559  16.119 -0.3533  0.3413  0.8226
  692TMC3    C110229   0.588   2.678  16.684 -0.6903 -0.3481  0.0209
  692TMC3    C210230   0.583   2.635  16.812  0.0632  1.0891 -0.1627
  692TMC3    C310231   0.618   2.506  16.842  0.9477  0.5191  0.7449
  692TMC3    C410232   0.609   2.596  16.575 -0.2498 -0.0024 -0.0653
  692TMC3    C510233   0.619   2.466  16.605  0.2692 -0.1446  0.4992
  692TMC3    C610234   0.622   2.420  16.733 -0.4602  0.8612  0.6467
  692TMC3     C10235   0.555   2.822  16.650 -0.9974  0.0007  0.1537
  692TMC3     O10236   0.536   2.855  16.533 -0.4900  0.4560  0.1895
  692TMC3     H10237   0.560   2.703  16.893 -1.8305 -0.9596  1.0280
  692TMC3    H110238   0.608   2.641  16.477  0.3420 -2.2763 -1.1100
  692TMC3    H210239   0.610   2.316  16.760  0.0253  1.0150  1.4707
  692TMC3    C710240   0.627   2.377  16.491  0.1561 -0.1305 -0.6491
  692TMC3    C810241   0.526   2.447  16.941 -0.5910  0.1877 -0.0356
  692TMC3    O110242   0.565   2.411  16.388  0.8056 -0.1139 -0.5614
  692TMC3    O210243   0.563   2.331  16.973 -0.6553 -0.1454  0.7106
  693MPD2     C10244   0.143   0.963  10.760  0.9562 -0.0902 -0.4704
  693MPD2    C110245   0.156   0.825  10.751 -0.0588 -0.0087 -0.0074
  693MPD2    C210246   0.274   0.764  10.718 -1.0151  0.3813 -0.3684
  693MPD2    C310247   0.388   0.839  10.713  0.2569  0.3841  0.3068
  693MPD2    C410248   0.385   0.973  10.758 -0.5550  0.3576 -0.3797
  693MPD2    C510249   0.260   1.034  10.773 -0.2933  0.7279 -0.6177
  693MPD2     H10250   0.279   0.659  10.692 -0.9301  0.7333 -1.7775
  693MPD2    H110251   0.475   1.031  10.770  0.6583 -1.7946  0.9052
  693MPD2    H210252   0.051   1.006  10.795  0.7377 -1.6298  0.8294
  693MPD2    H310253   0.251   1.140  10.793  0.4342 -0.0230  3.6434
  693MPD2     N10254   0.514   0.778  10.691  0.9342  0.7707 -0.3006
  693MPD2    H510255   0.592   0.820  10.740  0.6356  1.1420 -0.1518
  693MPD2    N110256   0.031   0.747  10.772 -0.4287  0.3054  0.0870
  693MPD2    H710257   4.669   0.796  10.795 -0.2581  0.4868  0.3390
  694TMC3    C110258   4.637   0.536  10.807 -0.6902  0.8467 -0.1809
  694TMC3    C210259   4.607   0.427  10.745 -0.1153 -0.5389 -0.4423
  694TMC3    C310260   4.534   0.336  10.814  0.1328  0.1358  0.1049
  694TMC3    C410261   4.616   0.557  10.940 -0.0428  0.3632  0.2830
  694TMC3    C510262   4.547   0.464  11.012 -0.2482  0.4116 -0.1179
  694TMC3    C610263   4.502   0.356  10.944 -1.0479 -0.2437 -0.3199
  694TMC3     C10264   0.023   0.606  10.749  0.0396 -0.4255  0.0463
  694TMC3     O10265   0.096   0.529  10.683  0.1406  0.7071  0.0157
  694TMC3     H10266   4.606   0.429  10.637 -0.4115 -0.2833 -0.4362
  694TMC3    H110267   4.654   0.651  10.979 -0.0587  1.0469 -1.3571
  694TMC3    H210268   4.479   0.264  10.996  1.1279 -1.3271 -1.3023
  694TMC3    C710269   4.512   0.495  11.146  0.3808 -0.0686  0.0576
  694TMC3    C810270   4.484   0.218  10.743  0.3292 -0.0246  0.1671
  694TMC3    O110271   4.554   0.601  11.191 -0.2183 -0.2151 -0.0071
  694TMC3    O210272   4.396   0.146  10.794 -0.1375  0.0948  0.7324
  695MPD2     C10273   1.050   2.339  13.830 -0.3997  1.1615 -0.7982
  695MPD2    C110274   1.065   2.456  13.905 -0.3975  0.5741  0.3325
  695MPD2    C210275   0.950   2.517  13.960  0.7177  0.1285  0.4406
  695MPD2    C310276   0.825   2.459  13.945  0.0864  0.0611 -0.0871
  695MPD2    C410277   0.812   2.359  13.854  0.4251 -0.1611  0.8234
  695MPD2    C510278   0.924   2.301  13.798 -0.2188 -0.1819  0.0170
  695MPD2     H10279   0.951   2.609  14.018 -0.1713 -0.5472  1.5202
  695MPD2    H110280   0.715   2.317  13.828 -0.4414  0.5564  2.8860
  695MPD2    H210281   1.125   2.288  13.770 -0.0511 -0.9449  1.4116
  695MPD2    H310282   0.909   2.227  13.720  0.6124 -0.2876 -0.0398
  695MPD2     N10283   0.717   2.503  14.025  0.2689  0.1213 -0.5608
  695MPD2    H510284   0.743   2.569  14.097  1.1242  0.6439 -1.3493
  695MPD2    N110285   1.191   2.521  13.923 -0.1822  0.4852  0.0564
  695MPD2    H710286   1.196   2.597  13.990  0.7839  0.8828 -0.4706
  696TMC3    C110287   0.498   2.567  14.046  0.2330 -0.4422 -0.7477
  696TMC3    C210288   0.509   2.625  14.168 -0.3298  0.4073  0.5940
  696TMC3    C310289   0.433   2.733  14.199 -0.6685  0.1466 -0.2707
  696TMC3    C410290   0.407   2.612  13.953 -0.5154 -0.7494 -0.3899
  696TMC3    C510291   0.341   2.730  13.984  0.1525 -0.4901 -0.1756
  696TMC3    C610292   0.355   2.790  14.107  1.0563 -0.3890 -0.0233
  696TMC3     C10293   0.589   2.466  13.996 -0.6812  0.3931 -0.5962
  696TMC3     O10294   0.541   2.376  13.936 -0.2934  0.1561  0.6588
  696TMC3     H10295   0.591   2.591  14.231 -1.0829 -1.2696  0.6821
  696TMC3    H110296   0.408   2.558  13.859  1.3409  1.3814 -1.6179
  696TMC3    H210297   0.336   2.895  14.124 -0.0403 -0.4417 -0.9097
  696TMC3    C710298   0.284   2.806  13.870  0.0971 -0.5269 -0.6387
  696TMC3    C810299   0.500   2.824  14.293  0.3152  0.3021 -0.3753
  696TMC3    O110300   0.294   2.752  13.759  0.3868  0.3171 -0.2205
  696TMC3    O210301   0.516   2.940  14.253 -0.1173  0.2402 -0.2789
  697MPD2     C10302   0.205   4.544  15.753 -0.6334  1.0789 -0.0118
  697MPD2    C110303   0.233   4.508  15.625 -0.5857  0.5849  0.3023
  697MPD2    C210304   0.271   4.605  15.533  0.1238 -0.7988 -0.1603
  697MPD2    C310305   0.273   0.014  15.568 -0.1079 -0.5131  0.3521
  697MPD2    C410306   0.225   0.044  15.689  0.0498  0.5390  0.3073
  697MPD2    C510307   0.197   4.673  15.782 -0.0471  0.0714  0.1606
  697MPD2     H10308   0.302   4.576  15.434 -1.2078 -0.7162 -0.6035
  697MPD2    H110309   0.219   0.148  15.720 -1.3542  0.4959  0.2001
  697MPD2    H210310   0.184   4.474  15.833  0.5935 -1.7179 -2.1238
  697MPD2    H310311   0.168   4.701  15.883  1.5089  0.2594  0.5617
  697MPD2     N10312   0.313   0.107  15.474  0.0599 -0.8217  0.7007
  697MPD2    H510313   0.332   0.066  15.383 -0.4004 -0.5918  0.4989
  697MPD2    N110314   0.217   4.371  15.580 -0.1903 -0.0494  0.4500
  697MPD2    H710315   0.236   4.353  15.482  0.4232 -0.6855  0.6827
  698TMC3    C110316   0.332   0.332  15.379  0.0719 -0.4628  0.6175
  698TMC3    C210317   0.363   0.462  15.397  0.0023  0.0091 -0.2437
  698TMC3    C310318   0.436   0.525  15.300  0.4555 -0.6400  0.4066
  698TMC3    C410319   0.363   0.270  15.262  0.0590  0.1859  0.4390
  698TMC3    C510320   0.411   0.355  15.154  0.3262  0.8697 -0.1359
  698TMC3    C610321   0.459   0.479  15.177 -0.5577  0.6867 -0.2341
  698TMC3     C10322   0.301   0.243  15.492 -0.1665 -0.5207 -0.8920
  698TMC3     O10323   0.276   0.309  15.591 -0.8013  0.5124 -0.0038
  698TMC3     H10324   0.353   0.506  15.496  1.9318 -1.8070  0.7600
  698TMC3    H110325   0.359   0.163  15.247 -1.4632  0.4854 -1.2891
  698TMC3    H210326   0.488   0.553  15.103 -0.5849 -0.0742 -1.0049
  698TMC3    C710327   0.408   0.301  15.018 -0.9057 -0.4099 -0.0607
  698TMC3    C810328   0.498   0.649  15.328  0.5063 -0.4602 -0.1714
  698TMC3    O110329   0.341   0.206  15.004 -0.3158 -0.2490  0.2238
  698TMC3    O210330   0.453   0.703  15.430  0.8835  0.1868  0.2024
  699TMC3    C110331   0.531   2.649  13.179  0.8886  0.8734  0.6165
  699TMC3    C210332   0.543   2.524  13.230  0.0471  0.6699 -0.3502
  699TMC3    C310333   0.450   2.494  13.325 -0.3006  0.9037 -0.4351
  699TMC3    C410334   0.417   2.726  13.202  0.6056  0.1544 -0.3804
  699TMC3    C510335   0.319   2.686  13.294 -0.3414  0.3488  0.0488
  699TMC3    C610336   0.340   2.569  13.367 -0.2478  0.5936  0.5773
  699TMC3     C10337   0.618   2.700  13.084  0.1118  0.1124  0.0032
  699TMC3     O10338   0.571   2.769  12.993 -0.4992 -0.3616 -0.1785
  699TMC3     H10339   0.615   2.450  13.199 -1.3785 -0.7008 -0.3993
  699TMC3    H110340   0.406   2.827  13.163 -1.4271 -0.5728 -1.6711
  699TMC3    H210341   0.278   2.540  13.451 -1.8470  0.2599 -0.7035
  699TMC3    C710342   0.213   2.781  13.343 -0.3091 -0.5478  0.1800
  699TMC3    C810343   0.468   2.378  13.405  0.5211  0.7306  0.3367
  699TMC3    O110344   0.168   2.752  13.452  0.0206  0.5774  0.2687
  699TMC3    O210345   0.368   2.342  13.468  0.0115 -0.1538 -0.3535
  700TMC3    C110346   4.038   0.232  17.226 -0.0891  0.3036 -0.7604
  700TMC3    C210347   4.026   0.099  17.236  0.4102 -0.0948  0.6829
  700TMC3    C310348   4.082   0.031  17.341  0.0853  0.5096 -0.4382
  700TMC3    C410349   4.090   0.306  17.329 -0.4873 -0.3437  0.7053
  700TMC3    C510350   4.140   0.235  17.434 -0.0778 -0.2621 -0.0323
  700TMC3    C610351   4.134   0.101  17.447  0.6043 -0.0144 -0.3732
  700TMC3     C10352   3.988   0.308  17.116  0.3285 -0.0620 -0.1159
  700TMC3     O10353   3.881   0.290  17.061 -0.6845 -0.4991 -0.1852
  700TMC3     H10354   3.966   0.038  17.170  0.3603  1.4031 -0.6625
  700TMC3    H110355   4.087   0.414  17.322  0.1245 -0.5542 -2.9285
  700TMC3    H210356   4.151   0.037  17.532 -1.7990 -0.0981  0.0338
  700TMC3    C710357   4.188   0.321  17.548  0.6815  0.9363 -0.7345
  700TMC3    C810358   4.076   4.612  17.349 -0.6120  0.1755  0.0647
  700TMC3    O110359   4.166   0.443  17.549 -0.2838 -1.2794 -0.1888
  700TMC3    O210360   4.006   4.561  17.435  0.2076  0.0254  0.4747
  701TMC3    C110361   4.168   3.539  15.677  0.2285  0.1116  0.6460
  701TMC3    C210362   4.164   3.490  15.555  0.4891 -1.0531  0.3232
  701TMC3    C310363   4.211   3.570  15.458  0.1701 -0.3214 -0.1263
  701TMC3    C410364   4.220   3.660  15.709  0.1813 -0.3514  0.0268
  701TMC3    C510365   4.268   3.737  15.611 -0.0970  0.5067 -0.0269
  701TMC3    C610366   4.265   3.694  15.482  0.0659  1.0121 -0.1340
  701TMC3     C10367   4.098   3.482  15.782 -0.7608 -0.1988  0.9280
  701TMC3     O10368   4.073   3.549  15.882 -0.0422  0.0252 -0.8230
  701TMC3     H10369   4.125   3.392  15.532 -1.0530 -0.2680 -0.4105
  701TMC3    H110370   4.222   3.690  15.813 -0.2841  1.2575 -0.4347
  701TMC3    H210371   4.279   3.755  15.393 -2.9441  2.0724  0.1091
  701TMC3    C710372   4.323   3.869  15.636  0.1025  0.3244 -0.7292
  701TMC3    C810373   4.234   3.497  15.334 -0.5766 -0.1085 -0.3179
  701TMC3    O110374   4.375   3.911  15.532  0.6518 -0.0740 -0.0785
  701TMC3    O210375   4.269   3.381  15.344  0.4845  0.5091 -0.0632
  702MPD2     C10376   4.126   1.070  10.801 -0.3932  0.3241  0.2461
  702MPD2    C110377   4.032   1.170  10.822 -0.3056  0.0798 -0.3275
  702MPD2    C210378   4.057   1.299  10.775  0.5354  0.1705  0.4065
  702MPD2    C310379   4.174   1.326  10.713  0.5342  0.9232 -0.7550
  702MPD2    C410380   4.264   1.225  10.688 -0.6576  0.0510  0.2977
  702MPD2    C510381   4.237   1.094  10.730 -0.6512 -0.1276 -1.2505
  702MPD2     H10382   3.981   1.375  10.792 -0.9912 -1.9112  2.9088
  702MPD2    H110383   4.357   1.243  10.636  0.0537 -2.0832  0.8143
  702MPD2    H210384   4.109   0.970  10.841 -1.5095 -0.1859 -1.4927
  702MPD2    H310385   4.317   1.023  10.713 -0.0130  0.4476 -0.6332
  702MPD2     N10386   4.208   1.461  10.663 -0.5244 -0.0850  0.8410
  702MPD2    H510387   4.307   1.470  10.646 -0.6117  0.4181  0.5970
  702MPD2    N110388   3.917   1.147  10.896 -0.0794  0.5284  0.0105
  702MPD2    H710389   3.864   1.231  10.916 -0.2689  1.3672 -4.0021
  703TMC3    C110390   4.180   1.695  10.627 -0.3051  0.0554 -0.0504
  703TMC3    C210391   4.115   1.808  10.675 -0.0007  0.2837 -0.2589
  703TMC3    C310392   4.136   1.919  10.594 -0.3307  0.8871 -0.5543
  703TMC3    C410393   4.271   1.694  10.524 -0.2034 -0.7368 -0.0157
  703TMC3    C510394   4.301   1.815  10.477 -0.0243  0.8559  0.4998
  703TMC3    C610395   4.232   1.932  10.494  0.2766 -0.6776  0.1238
  703TMC3     C10396   4.123   1.567  10.675  0.5586  0.8138  0.1481
  703TMC3     O10397   4.003   1.565  10.699  0.2091  0.4292  0.7220
  703TMC3     H10398   4.049   1.806  10.761 -0.3270  1.3481 -0.4821
  703TMC3    H110399   4.313   1.605  10.480  0.6204 -0.8284  0.9629
  703TMC3    H210400   4.253   2.023  10.438 -0.6484  0.8131  2.1749
  703TMC3    C710401   4.439   1.842  10.420  0.5288 -0.2096 -1.1615
  703TMC3    C810402   4.069   2.032  10.633  0.3888  0.7857 -0.3324
  703TMC3    O110403   4.458   1.948  10.364  0.2589 -0.0270 -0.6309
  703TMC3    O210404   4.122   2.138  10.611 -0.2088 -0.4532  0.0453
  704TMC3    C110405   1.234   4.120  12.010  0.2271 -0.1916 -0.5946
  704TMC3    C210406   1.287   4.231  12.070 -0.0772  0.7907 -0.0399
  704TMC3    C310407   1.273   4.244  12.206  0.2777 -0.0896 -0.2625
  704TMC3    C410408   1.181   4.019  12.084  0.6659  0.2026  0.2569
  704TMC3    C510409   1.170   4.037  12.218  0.8708  0.1749  0.0870
  704TMC3    C610410   1.214   4.149  12.278  0.4450 -0.2576 -0.0321
  704TMC3     C10411   1.273   4.079  11.882  0.7099 -0.0070  0.0784
  704TMC3     O10412   1.295   3.956  11.865  0.3594 -0.4667  0.3793
  704TMC3     H10413   1.337   4.310  12.015 -2.1623  2.6851  0.7862
  704TMC3    H110414   1.139   3.932  12.035 -0.5561  2.0304 -1.9621
  704TMC3    H210415   1.209   4.146  12.387 -2.0738  0.8239 -0.1294
  704TMC3    C710416   1.128   3.927  12.297 -0.8419 -0.2972 -1.3174
  704TMC3    C810417   1.375   4.314  12.282  0.3018 -0.0120 -0.3092
  704TMC3    O110418   1.073   3.951  12.405  0.2088  0.3968 -0.3449
  704TMC3    O210419   1.349   4.352  12.398  0.7491 -0.1635  0.0378
  705MPD2     C10420   1.076   2.471  16.937 -0.9148 -0.0788 -0.8450
  705MPD2    C110421   0.999   2.571  16.871 -0.2020  0.1800 -0.1803
  705MPD2    C210422   0.900   2.638  16.950 -0.1691 -0.6512 -0.9542
  705MPD2    C310423   0.891   2.607  17.087  0.4057 -0.2066  0.0344
  705MPD2    C410424   0.973   2.514  17.149  0.0167 -0.3921 -0.2224
  705MPD2    C510425   1.053   2.436  17.069  0.3019  0.5147 -0.1876
  705MPD2     H10426   0.838   2.713  16.902  2.1055  0.5322 -2.0301
  705MPD2    H110427   0.970   2.505  17.257 -1.3846  0.9413 -0.1578
  705MPD2    H210428   1.152   2.413  16.887  0.2337  2.0654 -1.5724
  705MPD2    H310429   1.125   2.368  17.112  0.1453  1.3389  1.3644
  705MPD2     N10430   0.794   2.660  17.168 -0.8602 -0.0015  1.0547
  705MPD2    H510431   0.783   2.614  17.258  1.9094 -0.7795  0.9968
  705MPD2    N110432   1.024   2.591  16.733 -0.1059 -0.7970 -0.8667
  705MPD2    H710433   1.086   2.527  16.683 -0.4683  0.6749 -3.1953
  706TMC3    C110434   0.935   2.568  16.317 -0.0427 -0.1519 -0.9393
  706TMC3    C210435   0.925   2.691  16.250  0.1123  0.2531 -0.2826
  706TMC3    C310436   0.970   2.799  16.315 -0.0253  0.1399  0.6412
  706TMC3    C410437   0.974   2.563  16.453 -0.0561 -0.5480  0.5851
  706TMC3    C510438   1.007   2.673  16.511  0.0085  0.5611 -0.0201
  706TMC3    C610439   1.019   2.790  16.441 -0.0088  0.4015  0.7013
  706TMC3     C10440   0.894   2.460  16.236  0.4717 -0.7460  0.4131
  706TMC3     O10441   0.817   2.480  16.141 -0.2190  0.4727 -0.7989
  706TMC3     H10442   0.924   2.698  16.141  0.3642  1.4640 -0.2052
  706TMC3    H110443   0.969   2.463  16.496  2.3466  0.7004  3.6993
  706TMC3    H210444   1.056   2.877  16.493  2.3988  0.3208 -0.8776
  706TMC3    C710445   0.970   2.689  16.651 -0.7672  0.0221  0.7560
  706TMC3    C810446   0.984   2.927  16.239  0.3413  0.2033  0.2737
  706TMC3    O110447   0.910   2.787  16.691 -0.1766  0.4662  0.0727
  706TMC3    O210448   0.908   2.950  16.148 -0.1052  1.0233  0.0837
  707TMC3    C110449   2.097   0.920   0.752  0.0465  0.1758 -0.4951
  707TMC3    C210450   2.116   0.790   0.743 -0.0709 -1.0263 -0.0073
  707TMC3    C310451   2.028   0.704   0.686 -1.0632 -1.0253  0.8194
  707TMC3    C410452   1.971   0.976   0.720  0.4591  0.4784 -0.8452
  707TMC3    C510453   1.887   0.891   0.663  0.0670 -0.4755 -0.1260
  707TMC3    C610454   1.909   0.758   0.646  0.0383  0.7292 -0.6112
  707TMC3     C10455   2.213   1.000   0.765  0.0495  0.3790 -0.1392
  707TMC3     O10456   2.320   0.943   0.765  0.1519 -0.7042 -0.2504
  707TMC3     H10457   2.210   0.751   0.782 -0.2611  0.9517  2.3826
  707TMC3    H110458   1.944   1.080   0.732 -2.0186 -0.3379  0.5609
  707TMC3    H210459   1.841   0.689   0.597  1.2747 -0.1790 -1.0647
  707TMC3    C710460   1.756   0.932   0.602 -0.6915  0.3639 -0.1500
  707TMC3    C810461   2.065   0.580   0.618  0.6770 -0.3459 -0.2895
  707TMC3    O110462   1.693   0.843   0.545  0.4743  0.3339  0.2052
  707TMC3    O210463   1.983   0.531   0.542 -0.4496 -0.5287  0.3604
  708MPD2     C10464   4.378   0.493  13.981  0.2138  0.0941  0.7487
  708MPD2    C110465   4.375   0.620  13.931  0.2194 -0.6490 -0.2394
  708MPD2    C210466   4.318   0.716  14.011  1.0724 -0.1811  0.1228
  708MPD2    C310467   4.266   0.689  14.131  0.4036  0.6321  0.2859
  708MPD2    C410468   4.258   0.557  14.177  0.3619 -0.4160  0.0085
  708MPD2    C510469   4.325   0.466  14.099  0.7021  1.1127 -0.2971
  708MPD2     H10470   4.313   0.819  13.978 -0.0418  0.0540  1.0115
  708MPD2    H110471   4.220   0.527  14.274  1.3958 -0.5605  0.3712
  708MPD2    H210472   4.428   0.417  13.923 -0.9211 -0.1453  0.0815
  708MPD2    H310473   4.335   0.365  14.138  0.0300  0.9687 -0.4945
  708MPD2     N10474   4.213   0.807  14.191  0.5647  0.0961  0.0370
  708MPD2    H510475   4.205   0.887  14.129  1.7860  0.1505 -0.0440
  708MPD2    N110476   4.424   0.654  13.806  1.1082 -0.3896 -0.1076
  708MPD2    H710477   4.415   0.751  13.775 -2.7850 -1.2002 -1.5846
  709TMC3    C110478   4.464   0.644  13.577 -0.1646  0.3346 -0.3100
  709TMC3    C210479   4.372   0.598  13.480 -0.1256 -0.0370  0.7205
  709TMC3    C310480   4.309   0.692  13.403  0.5134  0.5830 -0.1861
  709TMC3    C410481   4.488   0.775  13.596  0.1594  0.3087  0.1460
  709TMC3    C510482   4.416   0.865  13.522 -0.2262 -0.3799 -0.1400
  709TMC3    C610483   4.320   0.827  13.431 -0.1242 -0.5108  0.0359
  709TMC3     C10484   4.454   0.568  13.702  0.4046  0.6851 -0.6491
  709TMC3     O10485   4.448   0.448  13.688  0.1111 -0.1182 -0.5722
  709TMC3     H10486   4.346   0.493  13.485 -2.2161  0.3992 -1.1105
  709TMC3    H110487   4.565   0.806  13.665  1.7313 -0.7636 -1.1292
  709TMC3    H210488   4.254   0.903  13.392 -1.3282 -2.6042 -1.9782
  709TMC3    C710489   4.369   0.960  13.615 -0.3954  0.1711 -0.4907
  709TMC3    C810490   4.189   0.640  13.341 -0.0550 -0.2862 -0.1854
  709TMC3    O110491   4.390   0.918  13.728 -0.0161 -0.1189  0.0531
  709TMC3    O210492   4.146   0.529  13.360  1.0364 -0.0656 -0.0550
  710TMC3    C110493   0.069   2.559   0.707 -0.2818 -0.1133 -0.7935
  710TMC3    C210494   0.105   2.517   0.582 -0.0485 -0.2093 -0.2708
  710TMC3    C310495   0.089   2.383   0.562  0.3685 -0.1841  0.6105
  710TMC3    C410496   0.026   2.482   0.814  0.0646  1.2176 -0.3857
  710TMC3    C510497   0.000   2.353   0.787  0.4365 -0.0642 -0.3882
  710TMC3    C610498   0.037   2.297   0.662  0.6431  0.2338  0.3796
  710TMC3     C10499   0.082   2.696   0.713  0.7286  0.1963  0.4783
  710TMC3     O10500   0.075   2.762   0.607 -0.4043  0.1672 -0.6073
  710TMC3     H10501   0.151   2.579   0.506  1.2353 -2.2762 -1.1875
  710TMC3    H110502   0.018   2.532   0.910 -0.7320 -1.4317  0.9301
  710TMC3    H210503   0.001   2.197   0.642  0.0376  0.1237  2.0179
  710TMC3    C710504   4.659   2.269   0.873 -0.5493  0.3004  0.3913
  710TMC3    C810505   0.156   2.324   0.451 -0.5395 -1.1737 -0.6130
  710TMC3    O110506   4.684   2.147   0.867  0.3288 -0.2609  0.1123
  710TMC3    O210507   0.165   2.402   0.354 -0.0161  0.0663  0.1813
  711TMC3    C110508   4.693   3.526  14.939  0.1202 -0.7417  0.2470
  711TMC3    C210509   4.684   3.549  15.079  0.0966  0.4031 -0.3585
  711TMC3    C310510   0.064   3.606  15.145  0.0315 -0.1197  0.7921
  711TMC3    C410511   0.083   3.566  14.869 -0.0949 -0.3456 -0.3096
  711TMC3    C510512   0.188   3.605  14.946 -0.0707  0.3114 -0.1588
  711TMC3    C610513   0.177   3.643  15.075 -0.6716 -0.2683 -0.3004
  711TMC3     C10514   4.622   3.409  14.886 -0.3184  0.5691 -0.6762
  711TMC3     O10515   4.616   3.400  14.763  0.0704 -0.7258 -0.6066
  711TMC3     H10516   4.593   3.514  15.128 -0.7566 -1.1546 -3.1003
  711TMC3    H110517   0.093   3.539  14.764 -2.1388  1.0352 -0.8703
  711TMC3    H210518   0.268   3.674  15.123 -1.5479 -0.1454  1.2728
  711TMC3    C710519   0.298   3.506  14.939 -0.1352 -0.4482 -0.7927
  711TMC3    C810520   0.084   3.527  15.264  0.5498  0.2071  0.2129
  711TMC3    O110521   0.395   3.534  15.007  0.0178  0.2516  0.5537
  711TMC3    O210522   4.723   3.438  15.283  0.2719 -0.2666 -0.7707
  712MPD2     C10523   1.863   0.104  14.299  0.0170  0.1109  0.2044
  712MPD2    C110524   1.779   0.076  14.196  0.7973 -0.0581 -0.3469
  712MPD2    C210525   1.796   0.130  14.072 -0.8805  0.7472 -0.4612
  712MPD2    C310526   1.902   0.209  14.043 -0.0894 -0.0867  0.3651
  712MPD2    C410527   1.992   0.242  14.141 -0.3735 -0.4648  0.8024
  712MPD2    C510528   1.968   0.195  14.269 -0.2672  0.1457 -0.2748
  712MPD2     H10529   1.736   0.087  13.992  0.7071  0.5929 -1.5774
  712MPD2    H110530   2.078   0.304  14.121 -0.2918 -0.7265  0.3537
  712MPD2    H210531   1.850   0.061  14.397  2.1431 -1.5608 -0.2381
  712MPD2    H310532   2.023   0.236  14.352 -1.4494  0.1026  0.5273
  712MPD2     N10533   1.929   0.252  13.914  0.1182 -0.1293 -0.1292
  712MPD2    H510534   2.022   0.286  13.891  0.1425 -0.4653 -0.5237
  712MPD2    N110535   1.687   4.694  14.202 -0.1976  0.4915 -0.2142
  712MPD2    H710536   1.624   4.689  14.122  3.0309  0.3838 -2.7484
  713TMC3    C110537   1.891   0.311  13.692  0.5276 -0.3008  0.8052
  713TMC3    C210538   2.016   0.290  13.652 -0.4509  0.2955  0.8171
  713TMC3    C310539   2.060   0.339  13.534  0.4887  0.6305 -0.5448
  713TMC3    C410540   1.812   0.385  13.607 -0.0675 -0.5590 -0.5302
  713TMC3    C510541   1.869   0.443  13.504  0.2374  0.3689 -0.0060
  713TMC3    C610542   1.993   0.424  13.456  0.4094  0.0835  0.0086
  713TMC3     C10543   1.838   0.250  13.813  0.3937  0.0133  0.2605
  713TMC3     O10544   1.718   0.231  13.811 -0.5116  0.1301  0.4178
  713TMC3     H10545   2.076   0.219  13.707 -1.7677 -0.4736  1.2441
  713TMC3    H110546   1.718   0.427  13.641  0.0788 -1.3043  0.7942
  713TMC3    H210547   2.031   0.475  13.369  1.3862  1.1190  1.0539
  713TMC3    C710548   1.794   0.562  13.456  0.4493  0.6615 -0.4999
  713TMC3    C810549   2.203   0.353  13.509  0.0754 -0.1387  0.0921
  713TMC3    O110550   1.867   0.657  13.423 -0.1568  0.0421  0.2244
  713TMC3    O210551   2.243   0.417  13.411 -0.5820  0.1675  0.0646
  714MPD2     C10552   2.972   2.822   0.977  0.0096 -0.3965  0.2441
  714MPD2    C110553   3.007   2.946   1.008 -0.0862 -0.2267 -0.5454
  714MPD2    C210554   2.978   3.056   0.921 -0.1203  0.0213  0.0158
  714MPD2    C310555   2.876   3.046   0.829 -0.2598  0.0994 -0.1858
  714MPD2    C410556   2.813   2.923   0.824 -0.4959 -0.2544  0.6455
  714MPD2    C510557   2.865   2.818   0.892  0.2662  0.2515 -0.5913
  714MPD2     H10558   3.031   3.150   0.933 -2.0778  0.8068  2.4844
  714MPD2    H110559   2.728   2.899   0.762 -1.1444 -2.5277  2.4414
  714MPD2    H210560   3.011   2.734   1.028  0.3747  0.7695  1.9995
  714MPD2    H310561   2.825   2.721   0.863  1.1726 -0.2805 -0.0440
  714MPD2     N10562   2.833   3.165   0.768  0.1436  0.2198  0.3992
  714MPD2    H510563   2.879   3.252   0.795 -0.0773  0.0275  1.4130
  714MPD2    N110564   3.080   2.950   1.126 -0.2204 -0.2951 -0.0723
  714MPD2    H710565   3.110   2.858   1.159  0.0239 -0.2825 -0.2618
  715TMC3    C110566   3.180   3.025   1.316  0.5310 -0.1315  0.2976
  715TMC3    C210567   3.189   2.899   1.360 -0.0640 -0.3900  0.5174
  715TMC3    C310568   3.281   2.881   1.458 -0.1127  0.3885 -0.8267
  715TMC3    C410569   3.252   3.130   1.371 -0.7451 -0.6456  0.0294
  715TMC3    C510570   3.339   3.101   1.473  0.0510  0.7379  0.7542
  715TMC3    C610571   3.357   2.975   1.520  0.1109  0.0645  0.2131
  715TMC3     C10572   3.112   3.061   1.196  0.7207 -0.9331 -0.8483
  715TMC3     O10573   3.081   3.177   1.169  0.0999  0.2006 -0.2998
  715TMC3     H10574   3.128   2.815   1.327 -1.2376 -0.2427  2.3119
  715TMC3    H110575   3.239   3.230   1.332  1.7435 -0.5457 -0.5508
  715TMC3    H210576   3.417   2.950   1.606  0.7788 -0.5747 -0.4331
  715TMC3    C710577   3.425   3.197   1.530 -0.2610 -0.2208 -0.4647
  715TMC3    C810578   3.311   2.742   1.479  0.3136  0.7711  0.3393
  715TMC3    O110579   3.516   3.153   1.598 -0.3972 -0.0175 -1.1127
  715TMC3    O210580   3.282   2.671   1.382 -0.4277 -0.0822 -0.3687
  716MPD2     C10581   3.987   0.937  10.491  0.1630  0.1301 -0.2988
  716MPD2    C110582   4.005   1.042  10.402 -0.9608  0.2927 -0.3982
  716MPD2    C210583   4.106   1.034  10.306  0.2457 -0.2623 -0.0350
  716MPD2    C310584   4.186   0.925  10.301 -0.7710 -0.2596  0.2372
  716MPD2    C410585   4.177   0.826  10.399 -0.5580 -0.5152 -0.6265
  716MPD2    C510586   4.074   0.834  10.488 -0.7928  0.1133 -0.3779
  716MPD2     H10587   4.120   1.119  10.241  2.3969 -1.8997 -1.7399
  716MPD2    H110588   4.241   0.738  10.405  1.0461  0.6419 -0.6338
  716MPD2    H210589   3.900   0.942  10.555 -0.8129 -0.4182 -1.6027
  716MPD2    H310590   4.058   0.751  10.556 -0.2964  0.1048 -0.2752
  716MPD2     N10591   4.274   0.919  10.188 -0.0731  0.3368 -0.1109
  716MPD2    H510592   4.276   0.999  10.126 -1.6085 -0.8511 -1.6788
  716MPD2    N110593   3.922   1.158  10.409 -0.2880 -0.0444  0.0886
  716MPD2    H710594   3.854   1.144  10.483 -0.2299  0.5009  0.2451
  717TMC3    C110595   4.459   0.838  10.059  0.5913  0.6406  0.5620
  717TMC3    C210596   4.388   0.809   9.945  0.3232  0.2591 -0.8030
  717TMC3    C310597   4.440   0.722   9.847  0.0602 -0.3914  0.2359
  717TMC3    C410598   4.578   0.773  10.061 -0.2849  0.5505 -0.5291
  717TMC3    C510599   4.628   0.691   9.962  0.0320  0.0007  0.2628
  717TMC3    C610600   4.563   0.660   9.849 -0.2184  0.2989  0.1665
  717TMC3     C10601   4.374   0.824  10.176  0.3091 -0.5839 -0.1281
  717TMC3     O10602   4.400   0.736  10.258  0.0012 -0.4784  0.1168
  717TMC3     H10603   4.283   0.834   9.942  0.5021  0.7730 -2.4546
  717TMC3    H110604   4.633   0.783  10.154 -0.6460 -2.0031 -0.0443
  717TMC3    H210605   4.591   0.582   9.779 -1.7668  0.2104 -0.3487
  717TMC3    C710606   0.045   0.641   9.985 -0.2283  0.0753 -0.5874
  717TMC3    C810607   4.348   0.689   9.739 -0.3274  0.4461 -0.1489
  717TMC3    O110608   0.099   0.690  10.082 -0.3621  0.1557  0.0705
  717TMC3    O210609   4.229   0.700   9.772 -0.2430 -0.0426  0.9009
  718MPD2     C10610   3.244   4.593  13.359  0.0763 -0.0827 -0.4750
  718MPD2    C110611   3.146   4.649  13.289  0.3051 -0.2179  0.3708
  718MPD2    C210612   3.056   4.566  13.226 -0.3565  0.0980  0.0286
  718MPD2    C310613   3.055   4.428  13.240  0.0115 -0.1965 -0.3962
  718MPD2    C410614   3.155   4.373  13.320  0.1786  0.5672 -0.1117
  718MPD2    C510615   3.246   4.456  13.374 -0.7846 -0.2926 -0.3851
  718MPD2     H10616   2.977   4.611  13.166 -0.1510 -0.0179 -0.3266
  718MPD2    H110617   3.157   4.265  13.333  2.2090  0.4615 -1.3671
  718MPD2    H210618   3.318   4.650  13.414 -1.1896  1.1602 -0.0690
  718MPD2    H310619   3.323   4.421  13.441  1.9586  0.8375 -2.9645
  718MPD2     N10620   2.955   4.355  13.179 -0.5236 -0.4455  0.9017
  718MPD2    H510621   2.878   4.405  13.138 -1.7418 -1.9388  1.3695
  718MPD2    N110622   3.137   0.054  13.246  0.0341 -0.1166 -0.2252
  718MPD2    H710623   3.055   0.081  13.193 -0.3214  0.4303  0.6150
  719TMC3    C110624   3.197   0.247  13.150  0.2323 -0.6917 -0.3567
  719TMC3    C210625   3.060   0.262  13.126  0.5011  0.0677 -0.0192
  719TMC3    C310626   3.015   0.273  12.999 -0.5005 -0.1064 -0.4396
  719TMC3    C410627   3.285   0.266  13.048 -0.4066  1.2509  0.4485
  719TMC3    C510628   3.235   0.304  12.923 -0.1426 -0.3196 -0.1768
  719TMC3    C610629   3.105   0.305  12.895  0.4567 -0.1198  0.4778
  719TMC3     C10630   3.230   0.150  13.255  0.0798  0.0145 -0.7279
  719TMC3     O10631   3.350   0.137  13.280  0.2212  0.0805  0.0743
  719TMC3     H10632   2.996   0.240  13.211 -0.0824  1.9261  0.0143
  719TMC3    H110633   3.392   0.258  13.063 -0.6672  1.5369  2.5147
  719TMC3    H210634   3.058   0.328  12.800 -2.4486 -1.0069  1.7123
  719TMC3    C710635   3.338   0.318  12.824  0.9926  0.0105  0.4926
  719TMC3    C810636   2.914   0.171  12.971 -0.2674  0.0182 -0.5585
  719TMC3    O110637   3.453   0.274  12.840  0.3565 -0.3746 -0.6923
  719TMC3    O210638   2.895   0.087  13.059  0.2928  0.2488  0.2702
  720MPD2     C10639   1.694   1.214  14.048  0.2400 -0.0362  0.7899
  720MPD2    C110640   1.755   1.324  14.004  0.1813 -0.3821  0.0469
  720MPD2    C210641   1.867   1.365  14.063 -0.4680 -0.2247  0.1094
  720MPD2    C310642   1.916   1.303  14.175 -0.2830  0.4301  0.4064
  720MPD2    C410643   1.850   1.200  14.232  0.0741 -0.1076  0.5142
  720MPD2    C510644   1.737   1.157  14.163 -0.1755  0.8103 -0.2046
  720MPD2     H10645   1.920   1.451  14.022 -1.7964  0.8507  0.6741
  720MPD2    H110646   1.873   1.141  14.320 -0.0084  1.2358  1.4397
  720MPD2    H210647   1.605   1.166  14.007 -0.1164  1.6940 -0.4281
  720MPD2    H310648   1.672   1.082  14.206  0.6898 -0.2462 -0.7421
  720MPD2     N10649   2.045   1.355  14.215 -0.9175 -0.0645 -0.1767
  720MPD2    H510650   2.081   1.432  14.161 -1.5732 -1.2741 -2.3388
  720MPD2    N110651   1.727   1.380  13.881 -0.5102 -0.4292  0.1904
  720MPD2    H710652   1.786   1.455  13.849 -0.0325 -1.1272 -0.5728
  721TMC3    C110653   2.244   1.362  14.331 -0.0158  0.1223  0.3637
  721TMC3    C210654   2.299   1.369  14.453 -0.0691  0.9626 -0.0055
  721TMC3    C310655   2.390   1.464  14.480 -0.1291 -0.1751  0.1796
  721TMC3    C410656   2.282   1.441  14.231 -0.3965  0.2932  0.3259
  721TMC3    C510657   2.378   1.535  14.263  0.2383  0.3676  0.7218
  721TMC3    C610658   2.432   1.550  14.386  0.7245  0.4328 -0.0667
  721TMC3     C10659   2.115   1.299  14.319 -0.2422 -0.3605  0.1273
  721TMC3     O10660   2.085   1.204  14.391 -0.0337 -0.1179  0.1822
  721TMC3     H10661   2.258   1.296  14.521 -0.6851  1.0235 -0.3125
  721TMC3    H110662   2.271   1.406  14.129 -2.9653 -1.1576  1.0947
  721TMC3    H210663   2.499   1.633  14.404  2.1758 -0.4327 -1.4541
  721TMC3    C710664   2.447   1.604  14.159  0.4353  0.3155 -0.1945
  721TMC3    C810665   2.455   1.477  14.608 -0.1182 -0.0732 -0.4677
  721TMC3    O110666   2.562   1.632  14.182  0.0759 -0.0760  0.0072
  721TMC3    O210667   2.577   1.479  14.616 -0.4197  0.5741 -0.1206
  722MPD2     C10668   0.605   0.229  13.115  0.1724  0.1997 -0.1031
  722MPD2    C110669   0.606   0.325  13.018 -0.2650 -0.3941 -0.8197
  722MPD2    C210670   0.497   0.339  12.940  0.4550  0.3893  0.3045
  722MPD2    C310671   0.393   0.254  12.951  0.2784  1.4786  1.0559
  722MPD2    C410672   0.393   0.158  13.048  0.1364 -0.4803  0.5536
  722MPD2    C510673   0.496   0.152  13.130  0.0948  0.1235  1.1345
  722MPD2     H10674   0.502   0.426  12.876  0.9402 -0.3459 -0.6493
  722MPD2    H110675   0.310   0.092  13.070 -0.8009  1.0207  1.4537
  722MPD2    H210676   0.694   0.218  13.177  1.5772 -0.2902 -2.1901
  722MPD2    H310677   0.487   0.082  13.212 -0.8279  1.2263  1.9831
  722MPD2     N10678   0.276   0.289  12.882 -0.4538  0.3589 -0.4459
  722MPD2    H510679   0.274   0.377  12.832  1.7514  0.7937  0.2136
  722MPD2    N110680   0.720   0.405  12.987  0.0788 -0.1527 -0.1694
  722MPD2    H710681   0.714   0.463  12.904 -0.2885  1.1786  0.7813
  723TMC3    C110682   0.049   0.267  12.820 -0.2910  0.3672  0.1929
  723TMC3    C210683   4.654   0.195  12.828  0.4184 -0.0400  0.2302
  723TMC3    C310684   4.549   0.224  12.748 -0.0778  0.5588  0.2084
  723TMC3    C410685   0.050   0.382  12.749 -0.1554 -0.1634  0.4527
  723TMC3    C510686   4.657   0.420  12.689  0.1077  0.1947 -0.7226
  723TMC3    C610687   4.548   0.340  12.680 -0.7464  0.2836 -0.5239
  723TMC3     C10688   0.166   0.205  12.874  0.0827 -0.7852 -0.4919
  723TMC3     O10689   0.151   0.089  12.905 -0.3523 -0.1345  0.8460
  723TMC3     H10690   4.648   0.111  12.896 -1.6110 -1.2761 -1.4791
  723TMC3    H110691   0.139   0.434  12.718 -0.1196 -0.5810 -0.1367
  723TMC3    H210692   4.460   0.379  12.631 -2.4747 -1.9304  0.7987
  723TMC3    C710693   4.637   0.559  12.650 -0.3187  0.2817  0.2150
  723TMC3    C810694   4.438   0.129  12.746  0.4700 -0.2421  0.2291
  723TMC3    O110695   4.535   0.586  12.587 -0.5383  0.4715 -0.3657
  723TMC3    O210696   4.332   0.185  12.712  0.4872 -0.6825 -0.2043
  724TMC3    C110697   0.314   2.908   9.286  0.1270 -0.6920  0.7604
  724TMC3    C210698   0.361   3.035   9.283 -0.4635  0.3160 -0.6257
  724TMC3    C310699   0.495   3.061   9.276  0.2477 -0.0942  0.5168
  724TMC3    C410700   0.406   2.807   9.283  0.2583  0.0491  0.3037
  724TMC3    C510701   0.540   2.833   9.298  0.3732  0.3090 -0.1607
  724TMC3    C610702   0.584   2.960   9.294  0.4021  0.2681  0.3249
  724TMC3     C10703   0.175   2.882   9.266  0.0978 -0.3034 -0.1374
  724TMC3     O10704   0.141   2.765   9.237  0.1200  0.2817 -0.7465
  724TMC3     H10705   0.298   3.120   9.258 -1.2340 -0.3426 -0.9395
  724TMC3    H110706   0.361   2.711   9.264 -2.3923  1.4430 -0.3780
  724TMC3    H210707   0.691   2.976   9.281  1.0158 -0.8995  4.0610
  724TMC3    C710708   0.639   2.721   9.284  0.2583 -0.3514  0.3628
  724TMC3    C810709   0.536   3.202   9.256  0.6996 -0.4464  0.6670
  724TMC3    O110710   0.752   2.749   9.238  0.6608  0.0815  1.0680
  724TMC3    O210711   0.461   3.287   9.207 -0.4232 -0.2508 -0.5575
  725TMC3    C110712   2.170   1.806  12.944  0.0365 -0.6947 -0.0395
  725TMC3    C210713   2.111   1.866  12.839  0.0848  0.5488 -0.2766
  725TMC3    C310714   2.169   1.858  12.715 -0.7935 -0.3152 -0.5789
  725TMC3    C410715   2.285   1.732  12.929 -0.8909 -0.6002 -0.0805
  725TMC3    C510716   2.339   1.723  12.806  0.4354 -0.6877 -0.3577
  725TMC3    C610717   2.288   1.791  12.702  0.1629  0.4537 -0.5634
  725TMC3     C10718   2.183   1.909  13.047 -0.2666 -0.0799  0.4028
  725TMC3     O10719   2.147   2.020  13.011 -0.4533 -0.2493 -0.2259
  725TMC3     H10720   2.020   1.919  12.867  0.1829  0.0186  1.0481
  725TMC3    H110721   2.319   1.683  13.019  0.3631 -0.5317 -0.5161
  725TMC3    H210722   2.333   1.788  12.603 -0.3569 -1.2575 -0.7567
  725TMC3    C710723   2.428   1.622  12.766  1.0085 -0.1462 -0.4274
  725TMC3    C810724   2.126   1.939  12.603  0.1937 -0.2581 -0.4279
  725TMC3    O110725   2.430   1.589  12.651  0.5448 -0.4976  0.0746
  725TMC3    O210726   2.163   1.889  12.499  0.2357  0.2614  0.0322
  726MPD2     C10727   0.666   3.134  10.555  0.2805  1.1233  0.5323
  726MPD2    C110728   0.583   3.244  10.532  0.2736  0.0820  0.1852
  726MPD2    C210729   0.457   3.248  10.593  0.3246 -0.5480  0.7012
  726MPD2    C310730   0.402   3.144  10.666  0.4940 -0.0696  0.1983
  726MPD2    C410731   0.485   3.033  10.680 -0.7022  1.0597  0.9416
  726MPD2    C510732   0.612   3.027  10.624 -0.0862 -0.0501  0.5665
  726MPD2     H10733   0.404   3.342  10.589 -0.2878 -0.9826 -1.3808
  726MPD2    H110734   0.460   2.948  10.742 -0.0478 -0.1707 -0.4872
  726MPD2    H210735   0.764   3.122  10.512 -0.2354  2.2557 -0.9577
  726MPD2    H310736   0.679   2.942  10.634  3.5510  2.9934  2.3697
  726MPD2     N10737   0.267   3.153  10.718  0.7055  0.2150  0.6445
  726MPD2    H510738   0.234   3.071  10.767  1.1000  1.6692  3.4018
  726MPD2    N110739   0.628   3.339  10.440 -0.1299 -0.1634 -0.0497
  726MPD2    H710740   0.720   3.334  10.397  0.0699 -1.5446  0.5644
  727TMC3    C110741   0.614   3.495  10.258  0.1703  0.1116 -0.4819
  727TMC3    C210742   0.742   3.544  10.275 -1.1409 -0.4745 -0.4221
  727TMC3    C310743   0.786   3.648  10.192  0.0640  0.1799  0.2071
  727TMC3    C410744   0.522   3.549  10.166 -0.0185 -0.0206  0.0083
  727TMC3    C510745   0.571   3.653  10.089 -0.2646 -0.1407  0.0909
  727TMC3    C610746   0.700   3.699  10.097  0.2969 -0.1620  0.2826
  727TMC3     C10747   0.549   3.427  10.365  0.3773  1.1497  0.2038
  727TMC3     O10748   0.423   3.435  10.366  1.0510  0.0675 -0.7610
  727TMC3     H10749   0.801   3.496  10.352 -0.6831 -1.5464 -1.4446
  727TMC3    H110750   0.427   3.498  10.159  1.1146 -1.8699 -1.8805
  727TMC3    H210751   0.736   3.767  10.020  0.3938  1.6023  1.8840
  727TMC3    C710752   0.478   3.716   9.988  0.2071  0.5616  0.1217
  727TMC3    C810753   0.915   3.701  10.212 -0.1946  0.3238  0.0131
  727TMC3    O110754   0.494   3.837   9.973  0.9747  0.2128 -0.6274
  727TMC3    O210755   0.992   3.622  10.258 -0.3704 -0.4185  0.0306
  728TMC3    C110756   4.199   2.142  15.415 -1.0640 -0.5629 -0.3004
  728TMC3    C210757   4.319   2.207  15.404  0.1730  0.6741 -0.1407
  728TMC3    C310758   4.338   2.279  15.287  0.2616 -1.1697  0.0616
  728TMC3    C410759   4.108   2.123  15.316  0.0631  0.5284  0.6394
  728TMC3    C510760   4.137   2.192  15.198  0.1319 -0.3202 -0.4199
  728TMC3    C610761   4.249   2.272  15.182 -0.5239 -0.5529  0.1773
  728TMC3     C10762   4.178   2.101  15.556 -0.5374 -0.0731 -0.5323
  728TMC3     O10763   4.270   2.105  15.639  0.4502 -0.2173 -0.5243
  728TMC3     H10764   4.389   2.189  15.485  1.8836  0.0597 -1.7658
  728TMC3    H110765   4.019   2.063  15.333 -0.7449  0.7426 -2.6885
  728TMC3    H210766   4.275   2.341  15.102  0.9447 -2.1802 -0.7563
  728TMC3    C710767   4.032   2.202  15.097 -0.0950  0.4722  0.2958
  728TMC3    C810768   4.477   2.294  15.253 -0.7675  0.1697 -0.2754
  728TMC3    O110769   3.918   2.170  15.123  0.2070 -0.1862  0.1785
  728TMC3    O210770   4.510   2.282  15.136 -0.0789 -0.5189 -0.1439
  729MPD2     C10771   1.970   2.806  16.779 -0.0589 -1.0561 -0.1887
  729MPD2    C110772   1.881   2.890  16.714  0.4158  0.0827 -0.8397
  729MPD2    C210773   1.764   2.921  16.783  0.4579  0.6015 -0.3608
  729MPD2    C310774   1.738   2.866  16.907  0.2988  0.7043  0.7831
  729MPD2    C410775   1.832   2.797  16.984  0.3567  0.1552  0.7067
  729MPD2    C510776   1.948   2.766  16.910 -0.3655 -0.4836 -0.2432
  729MPD2     H10777   1.686   2.984  16.741 -1.2995 -0.0871  1.8755
  729MPD2    H110778   1.811   2.761  17.084 -1.4028 -0.1959  0.2104
  729MPD2    H210779   2.059   2.781  16.724 -1.3653 -2.4181 -1.6790
  729MPD2    H310780   2.036   2.714  16.947  0.1247  1.5380  1.4514
  729MPD2     N10781   1.613   2.886  16.967 -0.6049 -0.3545  0.6211
  729MPD2    H510782   1.591   2.833  17.050  0.6541 -0.6186  0.7760
  729MPD2    N110783   1.911   2.946  16.583 -0.5290 -0.1397  1.0859
  729MPD2    H710784   1.988   2.900  16.535 -0.5812  0.4873  0.3859
  730TMC3    C110785   1.426   3.008  17.044  0.5204  0.0230  0.0315
  730TMC3    C210786   1.477   3.008  17.162  0.5596  0.3415  0.4832
  730TMC3    C310787   1.439   3.101  17.253 -0.0990  0.2730 -0.5410
  730TMC3    C410788   1.335   3.106  17.009 -0.0054  0.2397  0.2246
  730TMC3    C510789   1.297   3.202  17.091  0.2037  0.6603 -0.1140
  730TMC3    C610790   1.360   3.207  17.215 -0.2784  0.3311  0.2884
  730TMC3     C10791   1.517   2.972  16.929 -0.4537 -0.3950 -0.6297
  730TMC3     O10792   1.517   3.051  16.838 -0.2996 -0.3215  0.6344
  730TMC3     H10793   1.548   2.930  17.187  1.2677  0.5995 -0.7206
  730TMC3    H110794   1.298   3.101  16.907  0.7146 -0.8731  0.0073
  730TMC3    H210795   1.358   3.292  17.283  2.1670 -0.3498  1.2297
  730TMC3    C710796   1.237   3.319  17.039  0.5765  0.3593 -0.2159
  730TMC3    C810797   1.535   3.128  17.357  0.1398  0.2430 -0.1782
  730TMC3    O110798   1.194   3.317  16.924  0.3257 -0.2790 -0.1245
  730TMC3    O210799   1.570   3.031  17.430  0.4094  0.0649  0.1970
  731MPD2     C10800   1.429   1.323  11.864  0.5585 -0.3710 -0.5231
  731MPD2    C110801   1.563   1.332  11.888 -0.9235  0.5658 -0.0712
  731MPD2    C210802   1.605   1.338  12.015  0.1393 -0.2201  0.0519
  731MPD2    C310803   1.516   1.332  12.116 -0.0415  0.0282 -0.0890
  731MPD2    C410804   1.381   1.333  12.095 -0.3481  0.1261 -0.3687
  731MPD2    C510805   1.339   1.331  11.965  0.3783 -0.3208 -0.0905
  731MPD2     H10806   1.709   1.354  12.039  0.0295  0.1923  0.2555
  731MPD2    H110807   1.310   1.345  12.176 -1.4514  0.9941 -1.4671
  731MPD2    H210808   1.399   1.330  11.760 -0.3258  3.3128  0.0043
  731MPD2    H310809   1.234   1.344  11.943  0.4835  1.3418  0.4332
  731MPD2     N10810   1.566   1.329  12.246  0.0052 -0.1812  0.5351
  731MPD2    H510811   1.668   1.327  12.249 -0.0057 -1.9072 -0.2937
  731MPD2    N110812   1.658   1.318  11.780  0.4797 -0.1490  0.1834
  731MPD2    H710813   1.625   1.316  11.684  2.6278 -1.5132 -0.5166
  732TMC3    C110814   1.855   1.242  11.669 -0.3275  0.0020  0.1738
  732TMC3    C210815   1.767   1.184  11.576 -0.8968 -1.0808  0.1444
  732TMC3    C310816   1.817   1.092  11.484  0.1055 -0.4055  0.1009
  732TMC3    C410817   1.983   1.199  11.668  0.0402 -0.1760 -0.5411
  732TMC3    C510818   2.027   1.108  11.575  0.8648 -0.6359  0.1713
  732TMC3    C610819   1.950   1.061  11.473 -0.4550 -0.2791  0.3334
  732TMC3     C10820   1.799   1.303  11.789  0.3814 -0.2060 -0.0319
  732TMC3     O10821   1.874   1.327  11.883  0.4416  0.4586 -0.6107
  732TMC3     H10822   1.670   1.229  11.561 -1.1700 -1.9591 -0.7825
  732TMC3    H110823   2.047   1.250  11.740  2.4011 -1.7332 -1.5447
  732TMC3    H210824   1.984   0.985  11.404  1.4337  1.5174 -0.7368
  732TMC3    C710825   2.173   1.101  11.553 -0.5589  0.0311 -0.8997
  732TMC3    C810826   1.733   0.982  11.457 -0.2572 -0.3231 -0.1751
  732TMC3    O110827   2.213   1.112  11.436  0.3340  0.1379  0.3489
  732TMC3    O210828   1.742   0.920  11.353 -0.0887  0.1365 -0.0570
  733TMC3    C110829   2.579   4.102  13.120  0.0694  0.8996 -0.3550
  733TMC3    C210830   2.690   4.130  13.202 -0.8466  0.4318  0.8566
  733TMC3    C310831   2.793   4.195  13.140  0.4650  0.3103  0.7817
  733TMC3    C410832   2.579   4.132  12.985  0.9314 -0.8313 -0.5692
  733TMC3    C510833   2.691   4.195  12.933  0.3143 -1.0379 -0.2983
  733TMC3    C610834   2.800   4.220  13.010 -0.2085  0.9646  0.2948
  733TMC3     C10835   2.448   4.107  13.185 -0.5009  0.2701  0.4579
  733TMC3     O10836   2.364   4.097  13.096  0.1595  0.2474 -1.0479
  733TMC3     H10837   2.699   4.119  13.309  1.7524 -0.4396  0.5339
  733TMC3    H110838   2.491   4.119  12.922 -0.7705  0.0947  1.6016
  733TMC3    H210839   2.892   4.264  12.973  0.8461 -2.5596 -1.2330
  733TMC3    C710840   2.646   4.304  12.850 -1.2267 -0.0715  0.1104
  733TMC3    C810841   2.907   4.229  13.220  0.7802  0.5889 -0.6195
  733TMC3    O110842   2.572   4.281  12.758 -0.2727  0.6907 -0.2176
  733TMC3    O210843   2.924   4.163  13.322 -0.2349 -0.0068 -0.3581
  734MPD2     C10844   0.206   2.195  12.466  0.2872 -0.1333  0.5018
  734MPD2    C110845   0.155   2.122  12.361 -0.0528 -0.6235  0.5709
  734MPD2    C210846   0.162   2.167  12.234 -0.4249 -0.4994 -0.2709
  734MPD2    C310847   0.209   2.293  12.208 -0.0915  1.0264 -0.1361
  734MPD2    C410848   0.260   2.368  12.315 -0.7785  0.5599  0.0032
  734MPD2    C510849   0.259   2.320  12.443  0.1595  0.1582  0.1390
  734MPD2     H10850   0.119   2.115  12.148 -0.5965 -0.1297 -0.4074
  734MPD2    H110851   0.296   2.468  12.294 -0.9685  0.0814 -2.6043
  734MPD2    H210852   0.214   2.154  12.566  1.1663 -0.6492  0.2277
  734MPD2    H310853   0.296   2.376  12.528 -0.2574 -0.3464  0.6505
  734MPD2     N10854   0.195   2.323  12.075 -0.5069 -0.2270  0.3254
  734MPD2    H510855   0.170   2.253  12.005  0.8447  1.3038 -1.6953
  734MPD2    N110856   0.099   1.998  12.400 -0.0471 -0.0590 -0.3523
  734MPD2    H710857   0.106   1.964  12.495 -2.0605 -0.1699 -0.2338
  735TMC3    C110858   4.668   1.814  12.383 -0.5054  0.0016  0.9168
  735TMC3    C210859   4.559   1.789  12.303 -0.2489 -0.2474  0.4345
  735TMC3    C310860   4.544   1.672  12.238  0.4172 -0.4082 -0.1184
  735TMC3    C410861   0.038   1.721  12.411  0.3443 -0.2078  0.4866
  735TMC3    C510862   0.024   1.607  12.336  0.7608  0.6685  0.0991
  735TMC3    C610863   4.640   1.577  12.255 -0.1179 -0.4150  0.2216
  735TMC3     C10864   0.013   1.930  12.320  0.1175  0.2646 -0.6370
  735TMC3     O10865   4.697   1.958  12.210 -0.1600 -0.6387 -0.5328
  735TMC3     H10866   4.480   1.863  12.296  0.7092  0.7649  0.3990
  735TMC3    H110867   0.119   1.735  12.482  1.7795 -1.2881 -0.9289
  735TMC3    H210868   4.632   1.488  12.195 -0.7256  0.0383 -0.3656
  735TMC3    C710869   0.142   1.536  12.319 -0.2662 -0.1193  0.2559
  735TMC3    C810870   4.481   1.675  12.110 -0.1708 -0.2322 -0.1151
  735TMC3    O110871   0.245   1.602  12.310 -0.1012  0.4181 -0.1873
  735TMC3    O210872   4.434   1.578  12.056  0.1185 -0.4021  0.0049
  736MPD2     C10873   0.183   1.180  12.315 -0.2217 -0.1197  0.3859
  736MPD2    C110874   0.220   1.311  12.289  0.0702  0.5199  0.7530
  736MPD2    C210875   0.341   1.337  12.238 -0.0330 -0.1343 -0.7419
  736MPD2    C310876   0.425   1.235  12.204 -0.1375 -0.0002  0.1024
  736MPD2    C410877   0.394   1.108  12.246  0.1178 -0.1184  0.9227
  736MPD2    C510878   0.270   1.077  12.288  0.1291 -0.2301  0.4680
  736MPD2     H10879   0.376   1.436  12.210  0.4528 -0.1533 -0.2066
  736MPD2    H110880   0.448   1.017  12.224 -0.1502 -0.3473  1.2218
  736MPD2    H210881   0.077   1.163  12.329 -0.1895 -1.3521 -0.8702
  736MPD2    H310882   0.252   0.971  12.301 -0.3039 -0.1617  0.4245
  736MPD2     N10883   0.536   1.249  12.119 -0.3111  0.0509  0.4825
  736MPD2    H510884   0.579   1.168  12.076  0.8858  0.6972  0.4431
  736MPD2    N110885   0.121   1.404  12.318 -0.3370  0.0940  0.1320
  736MPD2    H710886   0.028   1.368  12.337  0.3181 -0.8944  1.4617
  737TMC3    C110887   0.724   1.340  12.005  0.1528  0.2661  0.1765
  737TMC3    C210888   0.831   1.428  12.018  0.1612 -0.3054 -0.1553
  737TMC3    C310889   0.936   1.411  11.933  0.2484  0.7143  0.0901
  737TMC3    C410890   0.729   1.230  11.923  0.2785 -0.1831  0.3705
  737TMC3    C510891   0.837   1.214  11.845 -0.6417  0.1060  0.2893
  737TMC3    C610892   0.940   1.310  11.841 -0.4506  0.3532 -0.0142
  737TMC3     C10893   0.604   1.365  12.080 -0.7665  0.3458  0.3640
  737TMC3     O10894   0.594   1.475  12.120  0.2453  0.0384  0.4161
  737TMC3     H10895   0.825   1.519  12.076 -1.1604  0.3273 -1.2621
  737TMC3    H110896   0.655   1.151  11.920 -0.9454  0.9971 -0.4826
  737TMC3    H210897   1.029   1.288  11.783 -1.0334 -1.0569 -0.3865
  737TMC3    C710898   0.852   1.080  11.788 -0.2049 -0.1657 -0.3275
  737TMC3    C810899   0.978   1.539  11.883  0.4106 -0.0553 -0.0594
  737TMC3    O110900   0.801   0.991  11.855  0.4574  0.2993 -0.2201
  737TMC3    O210901   0.982   1.639  11.951 -0.9079  0.0481  0.4228
  738MPD2     C10902   0.672   0.883  15.369 -0.1443  1.2158 -0.5778
  738MPD2    C110903   0.676   0.810  15.255 -0.0551 -0.2816 -0.1174
  738MPD2    C210904   0.769   0.836  15.157  0.2539  0.5570  0.0374
  738MPD2    C310905   0.873   0.929  15.183  0.0837 -0.1249 -0.2685
  738MPD2    C410906   0.867   1.004  15.300  0.2655  0.2771  0.2643
  738MPD2    C510907   0.764   0.982  15.388 -0.5766 -0.1096  0.5355
  738MPD2     H10908   0.762   0.767  15.074  2.2711  0.5995 -0.1518
  738MPD2    H110909   0.938   1.080  15.329 -0.5173  1.6494 -1.4558
  738MPD2    H210910   0.610   0.860  15.455 -1.1292 -0.2789 -1.6862
  738MPD2    H310911   0.778   1.029  15.485  1.6122 -1.5919  0.9545
  738MPD2     N10912   0.982   0.954  15.092  0.5636  0.3827 -0.2288
  738MPD2    H510913   1.062   1.008  15.124 -0.0765  1.9464 -1.2313
  738MPD2    N110914   0.595   0.692  15.239  0.2429  0.2389  0.5112
  738MPD2    H710915   0.610   0.635  15.156  0.5712  0.2513  0.5635
  739TMC3    C110916   1.110   0.942  14.897  0.1372 -0.0878  0.1162
  739TMC3    C210917   1.104   0.956  14.762  0.4035  0.5691  0.2733
  739TMC3    C310918   1.217   0.972  14.687 -0.2534 -0.0616 -0.1026
  739TMC3    C410919   1.230   0.942  14.964 -0.3535 -0.2792  0.4134
  739TMC3    C510920   1.339   0.951  14.884 -0.1638 -0.9963  0.1665
  739TMC3    C610921   1.337   0.970  14.747  0.7002 -0.4710 -0.2419
  739TMC3     C10922   0.980   0.918  14.961 -0.4739 -0.4903  0.4140
  739TMC3     O10923   0.894   0.862  14.895 -0.4153 -0.7334 -0.7233
  739TMC3     H10924   1.011   0.943  14.707 -1.1413  1.0421  2.7339
  739TMC3    H110925   1.234   0.919  15.069 -2.8378  0.0022  0.5752
  739TMC3    H210926   1.432   0.977  14.695  1.5120 -2.3568  0.9822
  739TMC3    C710927   1.475   0.941  14.935 -0.7437  0.3183 -0.2158
  739TMC3    C810928   1.210   1.043  14.561  0.2766 -0.4989 -0.1362
  739TMC3    O110929   1.559   0.891  14.860 -0.1694  0.6135  0.3164
  739TMC3    O210930   1.108   1.016  14.499  0.2581  0.0271 -0.1539
  740TMC3    C110931   1.497   2.129  14.724 -0.5143  0.0531 -0.2099
  740TMC3    C210932   1.528   2.076  14.844  0.4249 -0.6044 -0.2074
  740TMC3    C310933   1.648   2.008  14.859  0.4374  0.2314  0.4815
  740TMC3    C410934   1.572   2.109  14.612 -0.1431 -0.0278  0.6821
  740TMC3    C510935   1.694   2.041  14.628  0.2172  0.1801 -0.3467
  740TMC3    C610936   1.727   1.990  14.747  0.4626  0.3329 -0.3811
  740TMC3     C10937   1.383   2.224  14.714  0.3119 -0.0427 -0.5587
  740TMC3     O10938   1.369   2.305  14.627 -0.2389  0.0033 -0.1991
  740TMC3     H10939   1.470   2.082  14.935  0.2199 -0.4142 -0.3521
  740TMC3    H110940   1.545   2.151  14.515  2.6177 -0.5178 -0.3217
  740TMC3    H210941   1.799   1.909  14.758 -1.7897 -1.6545 -0.1614
  740TMC3    C710942   1.734   1.956  14.512  0.7504 -0.5982  0.2171
  740TMC3    C810943   1.681   1.946  14.982 -0.2222  0.5676  0.0383
  740TMC3    O110944   1.817   1.869  14.538 -0.3992  0.3576  0.1199
  740TMC3    O210945   1.588   1.930  15.061  0.0375 -0.0586  0.2335
  741TMC3    C110946   1.098   1.505  14.426  0.3322 -0.4045 -0.4190
  741TMC3    C210947   0.983   1.443  14.379 -0.0494  0.2515  0.0954
  741TMC3    C310948   0.913   1.356  14.456 -0.0256  0.0116  0.4958
  741TMC3    C410949   1.135   1.490  14.556 -0.3847 -0.0681  0.1774
  741TMC3    C510950   1.059   1.406  14.632 -0.1893  0.2366  0.2084
  741TMC3    C610951   0.953   1.334  14.585 -0.2477  0.9029  1.2604
  741TMC3     C10952   1.163   1.607  14.345 -0.3421 -0.1202  0.1669
  741TMC3     O10953   1.277   1.638  14.378  0.4878  0.1320 -0.0392
  741TMC3     H10954   0.957   1.447  14.274  1.3878 -0.8897 -0.2907
  741TMC3    H110955   1.204   1.560  14.602 -1.9046  2.2483 -1.0427
  741TMC3    H210956   0.897   1.267  14.649  0.2508 -1.3686 -0.6980
  741TMC3    C710957   1.114   1.350  14.749  0.1169 -0.3723  0.1154
  741TMC3    C810958   0.819   1.266  14.392 -0.3655  0.1389 -0.3288
  741TMC3    O110959   1.026   1.289  14.818  0.3198 -0.3017 -0.0901
  741TMC3    O210960   0.762   1.320  14.293 -0.3367  0.0838  0.2595
  742TMC3    C110961   0.678   0.027  15.144  0.1880  0.3868 -0.4318
  742TMC3    C210962   0.571   4.721  15.055 -0.5743 -0.4188 -0.4174
  742TMC3    C310963   0.609   4.709  14.927 -0.7512  0.3879 -0.0771
  742TMC3    C410964   0.799   0.068  15.103 -0.2605 -0.1853 -0.2582
  742TMC3    C510965   0.823   0.066  14.974  0.1815 -0.2061 -0.6782
  742TMC3    C610966   0.731   0.020  14.885  0.2572 -0.0526  0.4714
  742TMC3     C10967   0.651   0.004  15.284 -0.5059  0.4265  0.4929
  742TMC3     O10968   0.536   4.692  15.311 -0.2013  0.1143  0.3288
  742TMC3     H10969   0.481   4.674  15.094  0.6382 -1.0698  1.6180
  742TMC3    H110970   0.871   0.103  15.176 -3.9399 -0.6986  3.6196
  742TMC3    H210971   0.757   0.014  14.780  1.2469  0.5097  0.6786
  742TMC3    C710972   0.952   0.092  14.921 -0.0331 -0.3708 -0.4616
  742TMC3    C810973   0.533   4.628  14.837 -0.5248  0.0464  0.4285
  742TMC3    O110974   0.996   4.719  14.851 -0.1600 -0.0609  0.0039
  742TMC3    O210975   0.592   4.541  14.776  0.4421 -0.4661  0.2053
  743MPD2     C10976   2.788   0.355   1.476 -0.0062  0.2971  0.6359
  743MPD2    C110977   2.885   0.302   1.393 -0.2206 -0.5845 -0.3193
  743MPD2    C210978   3.018   0.326   1.430 -0.0992  0.0752  0.3921
  743MPD2    C310979   3.054   0.397   1.544  0.3069  0.1604  1.2102
  743MPD2    C410980   2.952   0.444   1.622 -0.1338 -0.2913  0.1057
  743MPD2    C510981   2.820   0.426   1.588 -0.4356 -0.4147  0.0530
  743MPD2     H10982   3.096   0.289   1.365  0.6599 -1.3559  2.1300
  743MPD2    H110983   2.969   0.507   1.709 -1.3650  1.0983 -0.6645
  743MPD2    H210984   2.684   0.337   1.454  0.1561 -0.8233  0.7914
  743MPD2    H310985   2.742   0.473   1.647  0.6248  1.0646  0.2973
  743MPD2     N10986   3.193   0.401   1.577  0.4079  0.0665 -0.4006
  743MPD2    H510987   3.258   0.374   1.504  1.0111 -1.5923  0.7408
  743MPD2    N110988   2.848   0.248   1.270  0.0463  0.4531 -0.3161
  743MPD2    H710989   2.753   0.272   1.241 -0.2748  0.0950  0.4459
  744TMC3    C110990   2.867   0.132   1.050 -0.1422  0.4277  0.2617
  744TMC3    C210991   2.743   0.184   1.017 -0.7676  0.1298  0.4517
  744TMC3    C310992   2.694   0.162   0.895 -0.1569 -0.3263 -0.0303
  744TMC3    C410993   2.947   0.075   0.962  0.6389  0.2568  0.0142
  744TMC3    C510994   2.903   0.074   0.833  0.2226  0.7781  0.3501
  744TMC3    C610995   2.772   0.106   0.796  0.6250  0.0515  0.3482
  744TMC3     C10996   2.926   0.181   1.178 -0.1364 -0.3308  0.3620
  744TMC3     O10997   3.036   0.134   1.201 -0.3722 -0.1448  0.2610
  744TMC3     H10998   2.673   0.207   1.097 -0.5091 -3.4799  1.6764
  744TMC3    H110999   3.038   0.022   0.987 -0.7916 -2.4294 -0.5227
  744TMC3    H211000   2.735   0.123   0.695 -1.2657  2.5612  1.4401
  744TMC3    C711001   3.010   0.065   0.738  0.0226  0.1412  0.4591
  744TMC3    C811002   2.574   0.245   0.859 -0.9025  0.8386 -0.6645
  744TMC3    O111003   3.127   0.097   0.761 -0.1111 -0.1101 -0.1836
  744TMC3    O211004   2.533   0.341   0.920  0.1668 -0.3286  0.3172
  745TMC3    C111005   1.536   4.537  14.283  0.5151 -0.6730  0.1876
  745TMC3    C211006   1.456   4.543  14.389  0.6077 -0.3421 -0.1396
  745TMC3    C311007   1.325   4.555  14.366 -0.6548 -0.3176 -0.5374
  745TMC3    C411008   1.490   4.526  14.153  1.1220 -0.0679  0.1128
  745TMC3    C511009   1.355   4.526  14.133  0.7029 -1.0718 -0.1581
  745TMC3    C611010   1.270   4.544  14.243  0.9498 -0.2063  0.5868
  745TMC3     C11011   1.654   4.614  14.310 -0.6777  0.1031  0.1740
  745TMC3     O11012   1.716   4.586  14.412  0.4358  0.2068 -0.8275
  745TMC3     H11013   1.488   4.584  14.484  0.1035 -1.5287  0.5434
  745TMC3    H111014   1.558   4.507  14.071  1.3351  0.6582  0.1214
  745TMC3    H211015   1.163   4.556  14.234  0.5625 -2.7532  1.8691
  745TMC3    C711016   1.296   4.498  14.006  0.7211 -0.6286  0.0143
  745TMC3    C811017   1.279   4.650  14.461  0.2983  0.5467 -0.4491
  745TMC3    O111018   1.174   4.488  14.006 -0.4678 -0.5221 -0.1699
  745TMC3    O211019   1.266   4.601  14.572  0.5545  0.1541 -0.9773
  746TMC3    C111020   3.680   1.260  11.176  0.0171  0.3889  0.3071
  746TMC3    C211021   3.794   1.195  11.120 -0.1051 -0.2058  0.0064
  746TMC3    C311022   3.774   1.075  11.058  0.3226  0.9079  0.1305
  746TMC3    C411023   3.555   1.204  11.175  0.1746  0.3412  0.0418
  746TMC3    C511024   3.540   1.085  11.115  0.7458  0.1223  0.1639
  746TMC3    C611025   3.645   1.021  11.054 -0.1866 -0.2176  0.5564
  746TMC3     C11026   3.671   1.398  11.221  0.7306  0.3662  0.0258
  746TMC3     O11027   3.572   1.441  11.280  0.7964  0.1324  1.1947
  746TMC3     H11028   3.894   1.236  11.129  0.2066 -1.0067  0.2648
  746TMC3    H111029   3.478   1.238  11.243 -0.0448  0.1709 -0.1246
  746TMC3    H211030   3.624   0.920  11.021  0.9916  0.2401 -1.5524
  746TMC3    C711031   3.405   1.018  11.107  0.3324 -0.3219 -0.3428
  746TMC3    C811032   3.879   1.035  10.965 -0.9476  0.0561  0.4388
  746TMC3    O111033   3.407   0.895  11.093 -0.3423 -0.2335  0.2455
  746TMC3    O211034   3.886   0.924  10.912 -0.1864 -0.5165 -0.2814
  747TMC3    C111035   1.432   0.898  10.978 -0.0836 -0.0204  0.3488
  747TMC3    C211036   1.394   0.811  11.076 -0.8992 -0.6390  0.0468
  747TMC3    C311037   1.393   0.851  11.208  0.0809 -0.4118 -0.4039
  747TMC3    C411038   1.488   1.019  11.008 -0.2861 -1.0562  0.0776
  747TMC3    C511039   1.486   1.060  11.138 -0.0310  0.0799 -0.2813
  747TMC3    C611040   1.430   0.983  11.240 -0.1552  0.2567  0.0242
  747TMC3     C11041   1.399   0.883  10.840  0.3723 -0.1311 -0.2726
  747TMC3     O11042   1.360   0.979  10.775  0.4440  0.6172  0.6355
  747TMC3     H11043   1.350   0.715  11.054  0.6013 -1.6902  1.6003
  747TMC3    H111044   1.534   1.076  10.928 -0.5358 -1.8938 -0.6714
  747TMC3    H211045   1.457   1.005  11.342 -0.9981 -1.1874  0.5534
  747TMC3    C711046   1.586   1.153  11.179  0.8469  0.1895  0.5352
  747TMC3    C811047   1.283   0.798  11.296 -0.6945  0.0762  0.8343
  747TMC3    O111048   1.563   1.214  11.282 -0.6261  0.1603  0.1054
  747TMC3    O211049   1.252   0.679  11.290  0.2548  0.5551  0.6348
  748MPD2     C11050   2.126   2.214   1.428  0.3511 -0.2413  0.0524
  748MPD2    C111051   2.130   2.137   1.316 -0.0628 -0.8448  0.1673
  748MPD2    C211052   2.249   2.108   1.261 -0.5658 -0.1463 -0.0418
  748MPD2    C311053   2.364   2.156   1.316 -0.3660  0.6443  0.2070
  748MPD2    C411054   2.358   2.231   1.427 -0.1933 -0.5582 -0.3326
  748MPD2    C511055   2.241   2.260   1.489 -0.2016 -0.0706  1.2155
  748MPD2     H11056   2.242   2.058   1.165 -0.5131 -0.7025  0.2444
  748MPD2    H111057   2.455   2.251   1.471  0.3528 -1.1843 -1.2495
  748MPD2    H211058   2.030   2.243   1.468 -1.8340 -2.9742 -3.1423
  748MPD2    H311059   2.238   2.322   1.578  1.2972  2.2434 -0.3617
  748MPD2     N11060   2.496   2.133   1.256  0.5358  0.1664  0.1789
  748MPD2    H511061   2.580   2.161   1.304  0.3858  1.2281 -0.1818
  748MPD2    N111062   2.004   2.112   1.261  0.7958  0.1247  0.0691
  748MPD2    H711063   1.925   2.142   1.317  0.3203  0.1176 -0.5916
  749TMC3    C111064   2.653   2.058   1.103  0.1176  0.4806 -0.0324
  749TMC3    C211065   2.730   2.011   1.212 -0.4685  0.2148 -0.4571
  749TMC3    C311066   2.862   1.978   1.188  0.3494  0.5167 -0.4714
  749TMC3    C411067   2.709   2.074   0.985  0.3050 -0.1621 -0.4214
  749TMC3    C511068   2.839   2.038   0.965  0.0350 -0.6250  0.2765
  749TMC3    C611069   2.921   2.005   1.067 -0.2197 -0.4170 -0.3352
  749TMC3     C11070   2.516   2.083   1.125  0.1974 -0.0305 -0.2032
  749TMC3     O11071   2.438   2.062   1.035  0.8474  0.5808  0.4233
  749TMC3     H11072   2.683   1.972   1.301 -1.1486  1.3580 -0.3162
  749TMC3    H111073   2.655   2.123   0.905  0.1924 -0.4196 -0.5055
  749TMC3    H211074   3.028   1.991   1.058 -0.1195 -0.7723  1.3127
  749TMC3    C711075   2.894   2.119   0.856 -0.9468  0.3307  0.0455
  749TMC3    C811076   2.932   1.896   1.291 -0.4151 -0.4534  0.2006
  749TMC3    O111077   3.002   2.171   0.883 -0.6226 -0.7045 -0.1710
  749TMC3    O211078   2.905   1.924   1.406  0.3291 -0.9470 -0.2489
  750MPD2     C11079   3.998   3.152  11.523  0.4940  0.8039 -0.0801
  750MPD2    C111080   3.888   3.148  11.439  0.3657 -0.1686  0.0274
  750MPD2    C211081   3.860   3.029  11.373 -0.0973 -0.1739 -0.2221
  750MPD2    C311082   3.939   2.915  11.386 -0.1506  0.1099 -0.6398
  750MPD2    C411083   4.059   2.925  11.457 -0.1289  0.5474 -0.2237
  750MPD2    C511084   4.079   3.039  11.536  0.7929 -0.7901  0.3622
  750MPD2     H11085   3.776   3.024  11.305 -0.1301  0.8724 -0.2723
  750MPD2    H111086   4.120   2.836  11.464 -2.7744 -1.0617  2.1932
  750MPD2    H211087   4.033   3.242  11.572 -1.0846  0.4403  1.6837
  750MPD2    H311088   4.161   3.058  11.604 -0.0048 -0.1733  1.1472
  750MPD2     N11089   3.915   2.799  11.318 -0.5411 -0.3578 -0.2191
  750MPD2    H511090   3.980   2.723  11.333 -0.4655  0.2186  2.2940
  750MPD2    N111091   3.807   3.260  11.435 -0.2175  0.3844 -0.0552
  750MPD2    H711092   3.839   3.344  11.482 -0.7390  1.0784 -0.9381
  751TMC3    C111093   3.791   2.624  11.211 -0.8840  0.0971  0.5348
  751TMC3    C211094   3.666   2.566  11.219  0.1003 -0.0731  0.0152
  751TMC3    C311095   3.666   2.430  11.188  0.1655 -1.3858 -0.4343
  751TMC3    C411096   3.900   2.570  11.146  0.0640 -0.1146  0.0313
  751TMC3    C511097   3.894   2.433  11.124  0.1879 -0.4951  0.1798
  751TMC3    C611098   3.775   2.367  11.131  0.3030 -0.0786  0.2063
  751TMC3     C11099   3.795   2.760  11.256 -0.6192  0.0296  0.0481
  751TMC3     O11100   3.697   2.833  11.245  1.1270 -0.3804 -0.1528
  751TMC3     H11101   3.578   2.612  11.262 -0.7375  0.4272 -2.1895
  751TMC3    H111102   3.996   2.619  11.128  1.5614 -2.5098  1.4912
  751TMC3    H211103   3.768   2.265  11.094 -0.2498  1.0207 -2.7011
  751TMC3    C711104   4.002   2.368  11.051  0.0380  0.2113 -0.2777
  751TMC3    C811105   3.541   2.364  11.167 -0.3969 -0.1469  0.2970
  751TMC3    O111106   4.067   2.437  10.978  0.2002 -0.3151  0.1961
  751TMC3    O211107   3.526   2.285  11.077 -0.4035  0.5431  0.9070
  752TMC3    C111108   2.645   3.560  16.888  0.0131 -0.1985 -0.8401
  752TMC3    C211109   2.559   3.503  16.974 -0.3446  0.5122  0.7920
  752TMC3    C311110   2.557   3.532  17.105  0.2849 -0.5613  0.0870
  752TMC3    C411111   2.736   3.649  16.938  0.2893  0.0199 -0.4815
  752TMC3    C511112   2.735   3.671  17.078  0.0898  0.1588  0.3647
  752TMC3    C611113   2.646   3.617  17.163  0.2898 -0.2870 -0.2085
  752TMC3     C11114   2.657   3.506  16.756 -0.3195 -0.3031 -0.0075
  752TMC3     O11115   2.760   3.539  16.696  0.2634 -0.3185 -0.0042
  752TMC3     H11116   2.503   3.414  16.946  0.1409  1.0732 -2.0297
  752TMC3    H111117   2.815   3.681  16.871  0.3631 -3.1636 -1.8998
  752TMC3    H211118   2.648   3.641  17.269  0.7365  1.5608 -0.6261
  752TMC3    C711119   2.858   3.734  17.126  0.4250  0.1028  0.2148
  752TMC3    C811120   2.446   3.489  17.181 -0.1275 -0.1884  0.1408
  752TMC3    O111121   2.967   3.722  17.072 -0.1956  0.5991 -0.1269
  752TMC3    O211122   2.379   3.398  17.137 -0.5598  0.2710 -0.4827
  753TMC3    C111123   0.065   4.649  13.302  0.4204 -0.1163  0.0170
  753TMC3    C211124   0.003   4.579  13.403 -0.4607 -0.5550  0.0515
  753TMC3    C311125   4.692   4.448  13.374 -0.6957  0.3901 -0.7036
  753TMC3    C411126   0.079   4.594  13.178 -0.1064  0.1103 -0.0504
  753TMC3    C511127   0.043   4.458  13.156 -0.4353 -1.0683  0.6515
  753TMC3    C611128   4.712   4.380  13.256 -1.3599  0.3962  0.3424
  753TMC3     C11129   0.138   0.047  13.325 -0.4887 -0.0367 -1.1388
  753TMC3     O11130   0.127   0.137  13.240  0.0057  0.2017  0.3267
  753TMC3     H11131   4.694   4.623  13.497 -1.5993  2.0676 -1.5716
  753TMC3    H111132   0.126   4.657  13.103  2.4756 -0.1153  1.3746
  753TMC3    H211133   4.675   4.279  13.242 -2.0678  1.0662 -2.6990
  753TMC3    C711134   0.068   4.396  13.027 -0.0113 -0.1012 -0.1553
  753TMC3    C811135   4.637   4.373  13.486  0.1288 -0.1421  0.0816
  753TMC3    O111136   0.016   4.284  13.002  0.3755  0.6692  0.1585
  753TMC3    O211137   4.536   4.312  13.460  0.2716 -0.3023 -0.0207
  754MPD2     C11138   2.498   3.202  13.766  0.4374  0.0722 -0.1597
  754MPD2    C111139   2.564   3.087  13.742 -0.4121 -0.7902 -0.3696
  754MPD2    C211140   2.496   2.992  13.666  0.4346 -0.0602  0.2232
  754MPD2    C311141   2.369   3.023  13.615 -0.1621  0.0965  0.0823
  754MPD2    C411142   2.319   3.149  13.629  0.3971  0.6923 -0.8756
  754MPD2    C511143   2.383   3.238  13.709 -0.4163  0.4617  0.0741
  754MPD2     H11144   2.538   2.892  13.654 -0.0032 -0.3806  1.3965
  754MPD2    H111145   2.218   3.167  13.594 -0.0865 -0.9186 -0.2956
  754MPD2    H211146   2.537   3.282  13.827 -1.4029  1.8462 -1.3173
  754MPD2    H311147   2.341   3.329  13.749  0.2937  0.6551  0.3861
  754MPD2     N11148   2.289   2.925  13.555 -0.3376  0.4207  0.4321
  754MPD2    H511149   2.195   2.956  13.531 -0.8982 -0.4174  1.4930
  754MPD2    N111150   2.697   3.078  13.783  0.1309 -0.3033  0.4800
  754MPD2    H711151   2.744   3.155  13.830  1.4111 -1.5076  1.1791
  755MPD2     C11152   1.503   2.831  12.945 -0.0225 -0.5626  0.7344
  755MPD2    C111153   1.530   2.900  13.060 -0.3512  0.1301  0.1865
  755MPD2    C211154   1.646   2.869  13.133 -0.1491 -0.3468  0.3577
  755MPD2    C311155   1.737   2.775  13.087  0.5670 -0.5521  0.4460
  755MPD2    C411156   1.705   2.696  12.975  0.1986  0.2146  0.1652
  755MPD2    C511157   1.590   2.727  12.907  0.1536  0.2602 -0.4301
  755MPD2     H11158   1.683   2.928  13.215  0.8531 -2.0758  1.1439
  755MPD2    H111159   1.764   2.624  12.921  0.2529 -0.9404  1.7818
  755MPD2    H211160   1.409   2.837  12.891  0.6445  0.4824 -0.3065
  755MPD2    H311161   1.553   2.664  12.827 -1.7957 -1.2370  1.6558
  755MPD2     N11162   1.852   2.742  13.156 -0.0151 -0.5122 -0.1929
  755MPD2    H511163   1.901   2.664  13.113  0.1866 -1.0037  0.9426
  755MPD2    N111164   1.450   3.002  13.109 -0.4527  0.0827 -0.4495
  755MPD2    H711165   1.484   3.049  13.192  0.0596 -2.8491  0.9942
  756MPD2     C11166   4.097   3.536   9.558  0.6966 -0.1825 -0.1069
  756MPD2    C111167   4.027   3.467   9.655  0.1954  0.0848  0.6123
  756MPD2    C211168   3.984   3.341   9.637  0.0409 -0.0351 -0.1918
  756MPD2    C311169   4.020   3.283   9.515  0.1899  0.6912  1.2081
  756MPD2    C411170   4.092   3.352   9.415 -0.7349  0.6878  0.3222
  756MPD2    C511171   4.131   3.480   9.438  0.8109 -0.4460 -0.1386
  756MPD2     H11172   3.922   3.281   9.703  1.7990 -1.3398  0.2904
  756MPD2    H111173   4.108   3.305   9.318  0.4627 -0.3883  1.0483
  756MPD2    H211174   4.125   3.638   9.581 -0.2351 -0.5232  2.5113
  756MPD2    H311175   4.193   3.528   9.364 -0.2285 -1.6102 -1.7606
  756MPD2     N11176   3.973   3.151   9.503 -0.4879  0.7256  0.8162
  756MPD2    H511177   3.918   3.118   9.582  0.2038  0.6153  1.2477
  756MPD2    N111178   3.998   3.524   9.782  0.2361  0.4345 -0.5100
  756MPD2    H711179   3.941   3.472   9.847  0.6648  1.3553  0.6050
  757MPD2     C11180   3.387   2.359   9.118 -0.5425 -1.0303  0.4303
  757MPD2    C111181   3.410   2.347   9.254 -0.0920 -0.2210  0.0913
  757MPD2    C211182   3.498   2.436   9.313  0.3189  0.4152  0.3478
  757MPD2    C311183   3.560   2.533   9.234 -0.1656  0.4573 -0.2871
  757MPD2    C411184   3.528   2.558   9.103  0.1632 -0.1235  0.1723
  757MPD2    C511185   3.441   2.467   9.046  0.6164 -0.0539 -0.7240
  757MPD2     H11186   3.515   2.427   9.420  6.6899  2.4901 -0.4728
  757MPD2    H111187   3.576   2.628   9.036 -0.1585  0.0847  0.1537
  757MPD2    H211188   3.322   2.296   9.060 -1.7660  0.7400 -0.1188
  757MPD2    H311189   3.428   2.475   8.939  1.1085  1.3636 -0.6684
  757MPD2     N11190   3.659   2.609   9.302 -0.3524 -0.0245  0.2054
  757MPD2    H511191   3.661   2.590   9.402 -0.8137  1.0318  0.4173
  757MPD2    N111192   3.343   2.244   9.313 -0.1421 -0.1184  0.3510
  757MPD2    H711193   3.301   2.177   9.249  2.4360 -0.1529 -1.3099
  758MPD2     C11194   3.403   2.272  15.536 -0.3009  0.5193  0.1699
  758MPD2    C111195   3.485   2.303  15.644 -0.1581  0.1762  0.1025
  758MPD2    C211196   3.431   2.292  15.773  0.0028 -0.1318 -0.4901
  758MPD2    C311197   3.300   2.256  15.794 -0.4544  0.2335 -0.1228
  758MPD2    C411198   3.216   2.232  15.689 -0.4161 -0.3638  0.0004
  758MPD2    C511199   3.269   2.241  15.559 -0.0850 -0.0596  0.6254
  758MPD2     H11200   3.494   2.310  15.860 -0.1869  2.7987 -0.9466
  758MPD2    H111201   3.112   2.220  15.717 -0.1351 -3.5123 -0.3598
  758MPD2    H211202   3.443   2.284  15.435  0.2735 -0.5907  0.2647
  758MPD2    H311203   3.203   2.238  15.474 -0.7989 -1.7767  1.2525
  758MPD2     N11204   3.243   2.259  15.926  0.0997 -0.1323 -0.2602
  758MPD2    H511205   3.142   2.253  15.931  0.2036 -1.7444 -0.2364
  758MPD2    N111206   3.626   2.335  15.620  0.2595 -0.1492 -0.1214
  758MPD2    H711207   3.656   2.310  15.526 -0.4628 -0.4485 -0.2715
  759MPD2     C11208   2.669   0.101  10.608  0.3380 -0.0320 -0.2353
  759MPD2    C111209   2.548   0.126  10.554  0.3718  0.0198  0.4497
  759MPD2    C211210   2.539   0.226  10.453 -1.2977 -0.2034  0.0766
  759MPD2    C311211   2.653   0.289  10.404 -0.7436  0.3627  0.0541
  759MPD2    C411212   2.774   0.254  10.456 -0.0465  0.9477 -1.1432
  759MPD2    C511213   2.778   0.159  10.552  0.0534  0.3397  0.2242
  759MPD2     H11214   2.441   0.248  10.413 -0.7443  0.6322 -0.8200
  759MPD2    H111215   2.866   0.305  10.430 -0.7223  1.7925 -1.8397
  759MPD2    H211216   2.688   0.029  10.687  2.5318 -1.2868 -1.9285
  759MPD2    H311217   2.877   0.134  10.587  1.5669  3.2002 -1.9913
  759MPD2     N11218   2.638   0.395  10.306 -0.0475  0.2457 -0.1337
  759MPD2    H511219   2.544   0.422  10.279 -0.7739 -0.1686  1.9887
  759MPD2    N111220   2.431   0.051  10.586  0.3845  0.9459 -0.0401
  759MPD2    H711221   2.355   0.070  10.522 -0.0057  0.2918  0.2296
  760MPD2     C11222   2.079   3.099  11.789  0.2177 -0.3972  0.8513
  760MPD2    C111223   2.153   3.023  11.703 -0.7092  0.1586 -0.3340
  760MPD2    C211224   2.145   2.891  11.700 -0.0103 -0.4450 -0.0678
  760MPD2    C311225   2.038   2.823  11.767 -0.4603  0.0299  0.2955
  760MPD2    C411226   1.951   2.900  11.844 -0.1943 -0.1964  0.2553
  760MPD2    C511227   1.979   3.036  11.857 -0.3253 -0.1092 -0.4169
  760MPD2     H11228   2.220   2.838  11.643 -0.5987  0.4031 -1.6325
  760MPD2    H111229   1.874   2.843  11.895 -0.6028 -1.6738 -2.0332
  760MPD2    H211230   2.101   3.202  11.811 -0.2852 -0.0116 -0.4412
  760MPD2    H311231   1.914   3.091  11.924 -0.2764 -0.5294 -0.0254
  760MPD2     N11232   2.028   2.681  11.769  0.1166 -0.2298 -0.0842
  760MPD2    H511233   1.951   2.647  11.825  0.4544 -0.6858  0.1103
  760MPD2    N111234   2.273   3.070  11.652  0.4263 -0.4196  0.0978
  760MPD2    H711235   2.352   3.006  11.640 -0.1907 -1.3349  0.9621
  761MPD2     C11236   3.032   2.385  11.206  1.1565 -0.2560 -0.4193
  761MPD2    C111237   3.113   2.359  11.098 -0.0967 -0.5504 -0.3598
  761MPD2    C211238   3.255   2.358  11.113  0.2733 -0.5143  0.0695
  761MPD2    C311239   3.306   2.388  11.236  0.6956  0.5890 -0.3356
  761MPD2    C411240   3.224   2.412  11.345  0.3911  0.1516  0.7309
  761MPD2    C511241   3.091   2.407  11.323 -0.4482 -0.5187  0.5040
  761MPD2     H11242   3.318   2.335  11.029  0.4740  1.3210 -0.2883
  761MPD2    H111243   3.269   2.443  11.439  0.3020 -1.6950  1.3969
  761MPD2    H211244   2.924   2.389  11.202  1.1809 -1.3978 -1.8109
  761MPD2    H311245   3.027   2.432  11.406  0.4141  2.4024  0.2675
  761MPD2     N11246   3.447   2.397  11.261  0.0121 -0.0390  0.4400
  761MPD2    H511247   3.474   2.451  11.342 -0.1282  1.6103 -0.6182
  761MPD2    N111248   3.058   2.326  10.971  0.0805  0.1230  0.0975
  761MPD2    H711249   2.957   2.321  10.979 -0.0651  0.5478 -1.5432
  762MPD2     C11250   3.657   2.292  10.785 -0.7573 -0.2635 -0.0786
  762MPD2    C111251   3.616   2.161  10.759  0.1897  0.5424  0.0446
  762MPD2    C211252   3.714   2.062  10.728  0.4655  0.0005 -0.0643
  762MPD2    C311253   3.849   2.097  10.724  0.2542  0.2491 -0.8044
  762MPD2    C411254   3.879   2.227  10.742 -0.6827 -0.0564  0.5898
  762MPD2    C511255   3.792   2.319  10.790 -0.3452  0.3520 -0.0436
  762MPD2     H11256   3.696   1.955  10.718  0.9296 -0.2383  1.6238
  762MPD2    H111257   3.982   2.263  10.744 -0.3477 -1.0807  1.5649
  762MPD2    H211258   3.596   2.376  10.816 -0.0104 -0.1805  1.1710
  762MPD2    H311259   3.820   2.420  10.818 -1.0994  0.3155  0.8229
  762MPD2     N11260   3.943   2.002  10.674 -0.8544  0.1662  0.3028
  762MPD2    H511261   3.916   1.905  10.665  0.1753 -0.1139  0.2157
  762MPD2    N111262   3.478   2.140  10.765 -0.0891  1.1833 -0.5534
  762MPD2    H711263   3.415   2.217  10.785 -0.9653 -0.0777  1.5063
  763MPD2     C11264   0.213   2.341  16.552  0.5644 -0.1074 -0.0859
  763MPD2    C111265   0.093   2.386  16.489  0.8875  0.3175 -0.8410
  763MPD2    C211266   4.717   2.431  16.581  0.6356  0.9363 -0.3674
  763MPD2    C311267   0.005   2.438  16.720  0.0338 -0.9240 -0.5016
  763MPD2    C411268   0.127   2.385  16.773 -0.1995  0.0246  0.2558
  763MPD2    C511269   0.227   2.345  16.686 -0.8085  0.7509  0.0397
  763MPD2     H11270   4.620   2.460  16.542  0.1783 -0.8674 -0.5767
  763MPD2    H111271   0.138   2.366  16.879  0.8571  1.7851  0.4585
  763MPD2    H211272   0.304   2.312  16.501  0.6864 -1.2302  0.7893
  763MPD2    H311273   0.311   2.296  16.734 -0.1818  1.0440 -0.7650
  763MPD2     N11274   4.630   2.479  16.809  0.3224  0.2116 -0.2672
  763MPD2    H511275   4.654   2.461  16.906 -0.3233  0.8329  0.0092
  763MPD2    N111276   0.079   2.404  16.348 -0.6342 -0.0186  0.5006
  763MPD2    H711277   4.723   2.453  16.307 -0.2327 -0.1030 -0.3803
  764MPD2     C11278   3.257   4.685  17.249  1.0909  0.1565 -0.1784
  764MPD2    C111279   3.177   4.585  17.206  0.5091 -0.1088 -0.0285
  764MPD2    C211280   3.103   4.510  17.302  0.8553 -0.5286 -0.0044
  764MPD2    C311281   3.104   4.533  17.437  0.0826  0.2633  0.1056
  764MPD2    C411282   3.193   4.632  17.478  0.7937 -0.5620  0.2617
  764MPD2    C511283   3.263   4.705  17.385  0.0055  0.2018  0.5448
  764MPD2     H11284   3.033   4.437  17.264 -0.5028  0.7306  0.0818
  764MPD2    H111285   3.206   4.659  17.582 -1.4164 -1.5157  0.7964
  764MPD2    H211286   3.324   0.020  17.187  1.2318  4.2625  3.7642
  764MPD2    H311287   3.332   0.061  17.411 -0.1163  0.5279 -0.1447
  764MPD2     N11288   3.029   4.459  17.525  0.6538 -0.4265 -0.5368
  764MPD2    H511289   2.971   4.384  17.489  1.4520 -0.7831 -1.0864
  764MPD2    N111290   3.148   4.553  17.070  0.0464 -0.4405  0.4152
  764MPD2    H711291   3.094   4.470  17.047 -0.9621  0.0991  0.8318
  765MPD2     C11292   2.756   1.894  16.177  0.1315 -0.5821  0.7903
  765MPD2    C111293   2.833   1.972  16.102  0.1046 -0.9626 -0.2039
  765MPD2    C211294   2.953   1.925  16.048 -0.3727 -0.0586 -0.9241
  765MPD2    C311295   3.001   1.809  16.105  0.3158  0.0343 -0.1472
  765MPD2    C411296   2.925   1.726  16.182 -0.1661  0.2108 -0.2985
  765MPD2    C511297   2.798   1.772  16.214 -0.2439 -0.0112  0.0656
  765MPD2     H11298   3.015   1.982  15.979  0.7186  0.0547  0.1581
  765MPD2    H111299   2.952   1.628  16.220 -0.6892  0.2468  0.1733
  765MPD2    H211300   2.662   1.935  16.211 -0.2777  0.6854 -1.8687
  765MPD2    H311301   2.735   1.713  16.280  0.5835 -1.1614 -0.1624
  765MPD2     N11302   3.121   1.775  16.049  0.6962  0.2392 -0.3504
  765MPD2    H511303   3.148   1.834  15.970  1.1767  0.5352  0.0364
  765MPD2    N111304   2.779   2.098  16.063 -0.0691 -0.2373  0.4403
  765MPD2    H711305   2.682   2.117  16.086  0.4108  0.1911  2.0985
  766MPD2     C11306   2.346   2.054  15.534  0.6977 -0.5710 -0.2509
  766MPD2    C111307   2.478   2.092  15.535  0.1606  0.5738 -0.1815
  766MPD2    C211308   2.554   2.068  15.423 -0.2383  0.2660  0.9922
  766MPD2    C311309   2.507   2.005  15.308  0.9876 -0.2998 -0.1241
  766MPD2    C411310   2.378   1.969  15.314  0.0742 -0.7435 -0.3046
  766MPD2    C511311   2.298   1.993  15.422 -0.2925 -0.6820  0.4664
  766MPD2     H11312   2.656   2.105  15.417  0.0705 -0.2901  2.9304
  766MPD2    H111313   2.337   1.909  15.233  1.7788  1.0947 -2.5180
  766MPD2    H211314   2.274   2.082  15.610  0.4185 -1.8133 -0.0608
  766MPD2    H311315   2.191   1.976  15.413 -0.0228 -0.6188 -3.1012
  766MPD2     N11316   2.572   1.986  15.188 -0.2282  0.2359 -0.3673
  766MPD2    H511317   2.521   1.947  15.110  1.0260  0.3961 -1.2735
  766MPD2    N111318   2.533   2.165  15.639  0.1020  0.1581  0.3891
  766MPD2    H711319   2.633   2.176  15.639  0.2928 -1.5265 -0.6101
  767MPD2     C11320   2.172   2.323  15.257 -0.1702  0.2429  0.1858
  767MPD2    C111321   2.292   2.322  15.193 -1.4567 -0.3391 -0.6336
  767MPD2    C211322   2.306   2.263  15.068  0.5942 -0.3471 -0.1861
  767MPD2    C311323   2.200   2.201  15.012 -0.3031  0.0786  0.4216
  767MPD2    C411324   2.074   2.204  15.077  0.2238 -0.4287 -0.0544
  767MPD2    C511325   2.069   2.263  15.200  0.8260 -0.3898  0.9452
  767MPD2     H11326   2.398   2.256  15.010 -1.2386  1.3222 -3.3071
  767MPD2    H111327   1.980   2.161  15.044 -0.1475  0.7585 -0.5354
  767MPD2    H211328   2.153   2.373  15.351  0.4844  0.4317  0.2175
  767MPD2    H311329   1.976   2.278  15.254  1.5657  0.3251  2.0193
  767MPD2     N11330   2.227   2.131  14.893  0.0276 -0.3564 -0.0768
  767MPD2    H511331   2.322   2.137  14.859 -0.0822  1.3874 -0.1231
  767MPD2    N111332   2.399   2.376  15.269  0.3623 -0.1581 -0.2690
  767MPD2    H711333   2.366   2.417  15.355  1.2292  2.1087 -1.0343
  768MPD2     C11334   3.035   0.137  11.079 -0.5978 -0.2763  0.6545
  768MPD2    C111335   3.076   0.266  11.058  0.4137 -0.1599  0.1789
  768MPD2    C211336   3.189   0.317  11.103  0.8582 -0.0506  0.2623
  768MPD2    C311337   3.285   0.233  11.161  0.1861 -0.5508 -0.3196
  768MPD2    C411338   3.251   0.098  11.177  0.6191  0.6755  0.0236
  768MPD2    C511339   3.133   0.048  11.123  1.1775  0.6075 -0.2809
  768MPD2     H11340   3.216   0.421  11.094 -0.1655  0.1276 -0.7555
  768MPD2    H111341   3.322   0.030  11.224 -0.0255 -0.0673 -0.0699
  768MPD2    H211342   2.941   0.095  11.045 -1.2333  0.4964  1.4635
  768MPD2    H311343   3.124   4.663  11.123  1.8863  0.5586 -3.3154
  768MPD2     N11344   3.416   0.282  11.207  0.1397  0.1245  0.1182
  768MPD2    H511345   3.461   0.210  11.262 -2.7480 -1.5518  0.3071
  768MPD2    N111346   2.986   0.362  11.002 -0.3468 -0.4211 -0.2404
  768MPD2    H711347   3.019   0.456  11.022 -0.3781 -0.1971 -1.2495
  769MPD2     C11348   4.232   3.445  14.828  0.1009  0.4533 -0.2808
  769MPD2    C111349   4.168   3.563  14.854 -0.4407 -0.6695  0.1159
  769MPD2    C211350   4.169   3.615  14.986  0.6166  1.0294 -0.1031
  769MPD2    C311351   4.220   3.538  15.087  0.3484 -0.4152  0.1445
  769MPD2    C411352   4.273   3.418  15.048  0.0766 -0.2174 -0.1562
  769MPD2    C511353   4.293   3.374  14.922  0.5883  0.1434 -0.1131
  769MPD2     H11354   4.121   3.710  15.010 -0.6485  1.3151 -3.6662
  769MPD2    H111355   4.299   3.341  15.119  0.3561  1.0348  1.0912
  769MPD2    H211356   4.252   3.393  14.735  2.9035  1.3417 -0.1696
  769MPD2    H311357   4.339   3.276  14.912  3.9809  1.4813  2.3442
  769MPD2     N11358   4.205   3.576  15.221 -0.4577 -0.4335 -0.2447
  769MPD2    H511359   4.151   3.661  15.227  0.8352  0.3399  0.4411
  769MPD2    N111360   4.118   3.630  14.734  0.1114 -0.5740 -0.2113
  769MPD2    H711361   4.126   3.578  14.647  0.2309 -0.1506 -0.4542
  770MPD2     C11362   3.868   3.311  15.095  0.5721  0.9678 -0.0217
  770MPD2    C111363   3.789   3.270  14.988  0.3403  0.3472 -0.3234
  770MPD2    C211364   3.718   3.360  14.911 -0.1339  0.5151 -0.2614
  770MPD2    C311365   3.732   3.499  14.936  0.4335  0.1289 -0.5067
  770MPD2    C411366   3.820   3.538  15.033 -0.3526  0.5329 -0.0207
  770MPD2    C511367   3.883   3.444  15.113 -0.0603 -0.2437 -0.5163
  770MPD2     H11368   3.656   3.330  14.828  0.8752 -1.1683 -0.3997
  770MPD2    H111369   3.847   3.642  15.051 -0.5414  0.8692 -1.6290
  770MPD2    H211370   3.926   3.243  15.156  0.2622 -2.0867 -3.1460
  770MPD2    H311371   3.939   3.473  15.200  0.8289 -1.5855 -0.6330
  770MPD2     N11372   3.666   3.585  14.846  0.9355  0.1891 -0.5372
  770MPD2    H511373   3.617   3.548  14.766 -0.1896  0.9348 -0.1971
  770MPD2    N111374   3.793   3.135  14.959 -0.0427 -0.0897 -0.5684
  770MPD2    H711375   3.863   3.074  15.000 -0.3896 -1.1744 -1.5872
  771MPD2     C11376   0.091   1.409  13.932  0.1646 -0.2640 -0.3777
  771MPD2    C111377   0.173   1.491  13.859  0.6655 -0.2573 -0.1139
  771MPD2    C211378   0.177   1.475  13.722 -1.0458  0.0965 -0.2636
  771MPD2    C311379   0.092   1.387  13.655  0.1749  0.1608 -0.3533
  771MPD2    C411380   0.013   1.307  13.734  0.4937  0.3920 -0.3589
  771MPD2    C511381   0.013   1.314  13.867 -0.3532  0.6499 -0.1600
  771MPD2     H11382   0.246   1.532  13.661  0.6859  1.3246  2.8345
  771MPD2    H111383   4.670   1.240  13.681  0.4730  0.2731 -0.1833
  771MPD2    H211384   0.084   1.424  14.039  2.1807  0.0224 -0.2846
  771MPD2    H311385   4.676   1.250  13.930  0.7670  0.2814  0.5613
  771MPD2     N11386   0.102   1.387  13.512 -0.1134 -0.2724  0.4361
  771MPD2    H511387   0.166   1.454  13.471 -1.0119  0.4013  0.1282
  771MPD2    N111388   0.256   1.593  13.922 -0.1083 -0.2027 -0.1931
  771MPD2    H711389   0.299   1.663  13.861  0.0968  0.0424  0.2344
  772MPD2     C11390   4.641   2.220  14.027 -0.2601 -0.1392 -0.2425
  772MPD2    C111391   4.650   2.091  13.987  0.1306  0.2299 -0.0763
  772MPD2    C211392   4.549   2.024  13.922  0.1829 -0.1797 -0.2032
  772MPD2    C311393   4.431   2.088  13.903  1.0277 -0.5565  0.0930
  772MPD2    C411394   4.422   2.221  13.947 -0.2323 -0.5948  0.1914
  772MPD2    C511395   4.531   2.288  14.006 -0.2800  0.0418 -0.4376
  772MPD2     H11396   4.568   1.925  13.882  1.2002  0.4548 -1.2974
  772MPD2    H111397   4.329   2.275  13.931  1.0685  1.1372 -1.5186
  772MPD2    H211398   0.004   2.272  14.066 -1.0873  1.2545 -0.2650
  772MPD2    H311399   4.531   2.393  14.032  1.2465  0.8304 -3.6177
  772MPD2     N11400   4.327   2.023  13.831  0.2760  0.5069  0.6198
  772MPD2    H511401   4.255   2.087  13.799 -0.4764  0.7984  2.9093
  772MPD2    N111402   0.041   2.014  14.020 -0.1985 -0.3873 -0.0243
  772MPD2    H711403   0.044   1.915  13.997 -3.6242 -0.5706  0.3894
  773MPD2     C11404   3.584   2.703   0.517 -0.3711 -0.9314  0.5572
  773MPD2    C111405   3.531   2.619   0.418  0.2959  0.0460  0.3181
  773MPD2    C211406   3.559   2.484   0.419 -0.1535  0.1542  0.6369
  773MPD2    C311407   3.637   2.431   0.522  0.2232  0.5860  0.4397
  773MPD2    C411408   3.674   2.502   0.633  0.1393 -0.0399 -0.1161
  773MPD2    C511409   3.647   2.641   0.624 -0.2530  0.8590  0.2403
  773MPD2     H11410   3.546   2.416   0.336 -1.2994 -2.4439  2.9474
  773MPD2    H111411   3.724   2.464   0.721  0.5376  2.9533  0.9312
  773MPD2    H211412   3.563   2.808   0.529  2.0277 -0.2765 -0.9076
  773MPD2    H311413   3.665   2.702   0.712  2.8510  1.7396 -0.9969
  773MPD2     N11414   3.678   2.294   0.517 -0.0528 -0.0352  0.8356
  773MPD2    H511415   3.649   2.254   0.428  1.7975  1.2746 -0.3628
  773MPD2    N111416   3.448   2.671   0.314  0.3661  0.2852  0.0664
  773MPD2    H711417   3.402   2.605   0.252 -0.0024 -0.6983  1.3931
  774MPD2     C11418   3.363   2.324  13.933 -0.3580  0.2481  0.1558
  774MPD2    C111419   3.238   2.332  13.875 -0.2609 -0.0869  0.0775
  774MPD2    C211420   3.176   2.453  13.856  0.0802 -0.2369  0.3801
  774MPD2    C311421   3.246   2.565  13.880  0.7132 -0.1317  0.2125
  774MPD2    C411422   3.369   2.567  13.943 -0.1720 -0.3461  0.7827
  774MPD2    C511423   3.428   2.441  13.966 -0.1377 -0.6990  0.2955
  774MPD2     H11424   3.078   2.466  13.811  0.6237 -0.3829 -0.8373
  774MPD2    H111425   3.430   2.655  13.964 -1.2020  0.1908  1.5312
  774MPD2    H211426   3.404   2.227  13.960  2.2751  0.7496 -2.0711
  774MPD2    H311427   3.524   2.438  14.016  0.0271  0.2241  0.0336
  774MPD2     N11428   3.181   2.681  13.834  0.2450  0.1724  0.5187
  774MPD2    H511429   3.092   2.668  13.788 -0.0395 -1.1622  1.4575
  774MPD2    N111430   3.189   2.209  13.840  0.6691  0.5233 -0.1497
  774MPD2    H711431   3.243   2.125  13.861  0.6161  0.6099  0.3466
  775MPD2     C11432   4.486   3.406  15.822  0.1045 -0.3070  0.5115
  775MPD2    C111433   4.479   3.532  15.875  0.2756  0.7359 -0.0300
  775MPD2    C211434   4.544   3.641  15.818 -0.4529  0.3620 -0.4022
  775MPD2    C311435   4.615   3.625  15.701 -0.1370 -0.0995  0.4985
  775MPD2    C411436   4.614   3.500  15.645 -0.1676 -0.3860  0.2025
  775MPD2    C511437   4.550   3.395  15.704  0.2096  0.2854 -0.3163
  775MPD2     H11438   4.542   3.740  15.861 -0.0579 -1.3774  3.6200
  775MPD2    H111439   4.669   3.480  15.554 -0.4030  0.7115 -0.1834
  775MPD2    H211440   4.430   3.322  15.862  3.3398 -1.8785  1.7866
  775MPD2    H311441   4.559   3.297  15.658 -1.7306 -0.9035  1.8039
  775MPD2     N11442   4.694   3.728  15.644  0.0619 -0.2403  0.0479
  775MPD2    H511443   0.014   3.704  15.556 -0.4604  0.7283 -0.4629
  775MPD2    N111444   4.408   3.538  16.000 -0.2631  0.0734  0.2867
  775MPD2    H711445   4.373   3.451  16.038  2.0606 -1.3143 -0.7746
  776MPD2     C11446   3.874   3.772  11.034  0.0804  0.0235  0.3654
  776MPD2    C111447   3.881   3.796  11.172  0.9576 -0.3721 -0.1714
  776MPD2    C211448   3.950   3.907  11.226  0.0360 -0.1847 -0.4613
  776MPD2    C311449   4.002   3.995  11.136  0.2745  0.1833 -1.6486
  776MPD2    C411450   3.994   3.968  10.998 -0.6840 -0.0283  0.0362
  776MPD2    C511451   3.931   3.858  10.945  0.8539 -0.0594  1.3992
  776MPD2     H11452   3.958   3.912  11.334  0.0674 -1.7663 -0.3922
  776MPD2    H111453   4.041   4.033  10.925 -3.6180  0.9489 -0.9654
  776MPD2    H211454   3.824   3.686  10.991 -0.6555  1.1804 -1.0948
  776MPD2    H311455   3.927   3.840  10.838  3.3052  0.2018  1.2724
  776MPD2     N11456   4.069   4.114  11.171  0.2863 -0.2537  0.3350
  776MPD2    H511457   4.102   4.176  11.098 -0.5767  0.1235  0.2694
  776MPD2    N111458   3.804   3.711  11.254 -0.1158  0.6982 -0.8186
  776MPD2    H711459   3.763   3.640  11.195  1.2847  0.5796 -1.6670
  777MPD2     C11460   3.416   1.095   0.540 -0.1194 -0.1083  0.8784
  777MPD2    C111461   3.467   1.023   0.642  0.1983 -0.0260  0.4994
  777MPD2    C211462   3.527   0.897   0.620 -0.1830 -0.7315 -0.2875
  777MPD2    C311463   3.548   0.859   0.483  0.4306  0.5805 -0.5637
  777MPD2    C411464   3.500   0.942   0.382 -0.6216  0.2568  0.9202
  777MPD2    C511465   3.436   1.054   0.412 -0.1937  0.1826  0.2840
  777MPD2     H11466   3.575   0.835   0.694 -2.0014 -1.5502  0.1961
  777MPD2    H111467   3.485   0.917   0.278 -2.0016  0.2033  1.1369
  777MPD2    H211468   3.366   1.188   0.563 -1.8520 -1.6991  3.5336
  777MPD2    H311469   3.386   1.118   0.340 -2.3394 -1.5178  0.2582
  777MPD2     N11470   3.592   0.728   0.464  0.0279 -0.4384 -0.2710
  777MPD2    H511471   3.601   0.669   0.546  0.2183 -0.2347 -0.1458
  777MPD2    N111472   3.473   1.084   0.771 -0.0608  0.0038 -0.2718
  777MPD2    H711473   3.434   1.178   0.776  1.1869  0.5090 -0.2152
  778MPD2     C11474   0.469   2.003  14.836  0.3885 -0.1617 -0.4806
  778MPD2    C111475   0.518   1.881  14.811  0.2310 -0.1258 -0.0546
  778MPD2    C211476   0.645   1.869  14.758 -0.5508  0.4922  0.0361
  778MPD2    C311477   0.723   1.977  14.720 -0.5407 -0.7218 -0.5789
  778MPD2    C411478   0.672   2.105  14.754  0.3466 -0.1801  0.0679
  778MPD2    C511479   0.546   2.114  14.811  0.3131  0.1617  0.1563
  778MPD2     H11480   0.686   1.768  14.756  2.9270  1.9242  0.5296
  778MPD2    H111481   0.728   2.197  14.740  1.1608 -0.5681  0.8297
  778MPD2    H211482   0.365   2.019  14.862  1.2198  0.8043  2.1915
  778MPD2    H311483   0.506   2.207  14.850  1.4835  0.1350  1.3991
  778MPD2     N11484   0.838   1.956  14.635  0.1617 -0.4223  0.1507
  778MPD2    H511485   0.877   1.865  14.612  2.7087  1.0354 -1.2933
  778MPD2    N111486   0.450   1.765  14.853  0.3005 -1.0667 -0.6208
  778MPD2    H711487   0.489   1.676  14.822  0.9734 -0.4559 -1.4845
  779MPD2     C11488   4.491   0.405  14.432  0.3478  0.6169  0.1468
  779MPD2    C111489   4.609   0.436  14.370 -0.1043 -0.1324  0.0704
  779MPD2    C211490   4.648   0.564  14.366 -0.1814 -0.0622 -0.2537
  779MPD2    C311491   4.568   0.666  14.411  0.1834 -0.4767  0.2781
  779MPD2    C411492   4.442   0.642  14.464 -1.0678  0.0110  0.0939
  779MPD2    C511493   4.403   0.510  14.474 -0.1454 -0.7004 -0.1045
  779MPD2     H11494   0.015   0.596  14.316 -0.4286 -0.8487 -1.1862
  779MPD2    H111495   4.376   0.722  14.495 -1.0325  0.5046 -1.0846
  779MPD2    H211496   4.435   0.312  14.433 -1.1436  1.4806 -2.4623
  779MPD2    H311497   4.306   0.490  14.517 -0.2804 -2.6874 -1.3144
  779MPD2     N11498   4.621   0.797  14.384 -0.1786  0.5960  0.1392
  779MPD2    H511499   4.710   0.798  14.335 -0.4982  0.0111 -0.4544
  779MPD2    N111500   4.693   0.332  14.316  0.0869  0.3021  0.4948
  779MPD2    H711501   0.068   0.354  14.309 -0.5947  3.0375 -0.3257
  780MPD2     C11502   4.340   0.135   1.377  0.9943 -0.3361  0.2583
  780MPD2    C111503   4.255   0.163   1.265  0.3153  0.6680  0.3730
  780MPD2    C211504   4.312   0.164   1.139 -0.6574  0.0301  0.4784
  780MPD2    C311505   4.444   0.123   1.118  0.2675  0.7691  0.3050
  780MPD2    C411506   4.525   0.095   1.229  0.0666  0.0108  0.4740
  780MPD2    C511507   4.470   0.103   1.354 -0.8115 -0.0122  0.6517
  780MPD2     H11508   4.242   0.184   1.058 -0.2707  2.4026  0.7378
  780MPD2    H111509   4.628   0.061   1.225  0.1400  0.1901  0.8401
  780MPD2    H211510   4.289   0.133   1.473 -0.5167  3.1205 -0.4584
  780MPD2    H311511   4.533   0.070   1.436  1.8273  0.1983 -1.2964
  780MPD2     N11512   4.491   0.118   0.985  0.1846 -0.1930  0.3589
  780MPD2    H511513   4.418   0.104   0.916 -0.5594  1.5566  0.8016
  780MPD2    N111514   4.117   0.195   1.283 -0.4086 -0.1306 -0.3546
  780MPD2    H711515   4.079   0.196   1.377 -2.3806 -2.2864 -1.1217
  781MPD2     C11516   1.376   1.677  11.915  0.6475 -0.7459 -0.1747
  781MPD2    C111517   1.476   1.673  12.007 -0.6209  0.6447  0.1954
  781MPD2    C211518   1.600   1.677  11.961 -0.5009 -0.3523  0.8726
  781MPD2    C311519   1.634   1.694  11.824 -0.5127  0.4909  0.1964
  781MPD2    C411520   1.529   1.699  11.733  0.4673  0.0328  0.2890
  781MPD2    C511521   1.400   1.690  11.781  0.0145 -0.6015 -0.5677
  781MPD2     H11522   1.678   1.667  12.037 -0.0527 -2.0441  0.1811
  781MPD2    H111523   1.545   1.707  11.626 -0.0113 -2.4129  0.0346
  781MPD2    H211524   1.273   1.676  11.949  0.8985 -2.7292  0.5074
  781MPD2    H311525   1.314   1.707  11.718 -0.1362  2.3230  0.4510
  781MPD2     N11526   1.768   1.685  11.774 -0.3960  0.0270  0.5106
  781MPD2    H511527   1.781   1.695  11.674 -0.8581 -2.0954  0.2519
  781MPD2    N111528   1.447   1.680  12.144  0.5717  0.6760 -0.4637
  781MPD2    H711529   1.348   1.666  12.164  1.1307 -0.2855  1.5898
  782MPD2     C11530   4.331   2.622  10.432  0.1676  0.2205  0.6334
  782MPD2    C111531   4.457   2.606  10.479  0.1297 -0.8704 -0.6179
  782MPD2    C211532   4.523   2.720  10.537 -0.2039 -0.7272 -0.1654
  782MPD2    C311533   4.460   2.846  10.530 -0.5246  0.6065 -0.3984
  782MPD2    C411534   4.334   2.852  10.481 -0.5499  0.4208 -0.0167
  782MPD2    C511535   4.270   2.745  10.426 -0.0465  0.3047 -0.2252
  782MPD2     H11536   4.618   2.715  10.589  0.6606  1.7268 -1.5170
  782MPD2    H111537   4.283   2.947  10.470 -1.6349 -0.1119  0.4497
  782MPD2    H211538   4.275   2.536  10.396 -2.9343  0.9028  3.7857
  782MPD2    H311539   4.173   2.760  10.381  0.6780  1.1647 -1.5034
  782MPD2     N11540   4.520   2.957  10.594 -0.0735  0.2418 -0.2628
  782MPD2    H511541   4.602   2.933  10.650  0.4705  2.3707 -0.1123
  782MPD2    N111542   4.495   2.472  10.499  0.3799 -0.3106  0.6680
  782MPD2    H711543   4.422   2.403  10.482  3.1609 -3.1101  0.0663
  783MPD2     C11544   4.090   2.020  11.076  0.3636 -0.1351  0.3796
  783MPD2    C111545   4.109   2.147  11.039 -0.6095  0.5206  0.0853
  783MPD2    C211546   4.200   2.172  10.941  1.0575  0.0185  0.7184
  783MPD2    C311547   4.288   2.079  10.894  0.1582 -0.0984  0.0691
  783MPD2    C411548   4.276   1.954  10.954  0.6044 -0.3933 -0.4831
  783MPD2    C511549   4.177   1.927  11.038  0.0627  0.2730 -0.4381
  783MPD2     H11550   4.200   2.271  10.898  0.0636 -0.5524 -0.5798
  783MPD2    H111551   4.348   1.877  10.929  1.1595 -0.5484  1.5976
  783MPD2    H211552   4.017   1.991  11.150 -0.9022  3.2877  0.4836
  783MPD2    H311553   4.174   1.825  11.075 -1.2289 -0.3030 -2.1389
  783MPD2     N11554   4.387   2.115  10.803  0.4069 -0.1711  0.1530
  783MPD2    H511555   4.389   2.212  10.773 -0.2890  0.1512  1.1566
  783MPD2    N111556   4.014   2.237  11.084 -0.7137 -0.3988  0.0667
  783MPD2    H711557   3.947   2.210  11.155  1.8807  0.5904  2.9079
  784MPD2     C11558   0.320   3.756   1.135 -0.6331 -0.3490 -0.0648
  784MPD2    C111559   0.408   3.844   1.078  0.1592 -0.3441 -0.0523
  784MPD2    C211560   0.363   3.972   1.063  0.4479  0.0273  0.0521
  784MPD2    C311561   0.240   4.020   1.110  0.3761  0.7812  0.0595
  784MPD2    C411562   0.166   3.930   1.179 -0.5428 -0.2668 -0.9132
  784MPD2    C511563   0.204   3.800   1.189 -0.6965 -0.3388  0.0497
  784MPD2     H11564   0.424   4.051   1.019 -1.1373  0.0285 -2.1120
  784MPD2    H111565   0.088   3.954   1.251  1.1826  0.1714  0.8134
  784MPD2    H211566   0.334   3.648   1.137  1.0604 -0.1423 -0.6575
  784MPD2    H311567   0.152   3.727   1.250  0.2695 -0.1588  1.0917
  784MPD2     N11568   0.195   4.153   1.097  0.2527 -0.1023  0.0470
  784MPD2    H511569   0.262   4.213   1.050  0.1969  0.4565  0.6776
  784MPD2    N111570   0.537   3.807   1.040  0.2564 -0.3603 -0.0121
  784MPD2    H711571   0.593   3.887   1.012 -1.4775  0.9824  0.3316
  785MPD2     C11572   2.003   1.078  10.537  0.5948  0.5910 -0.0405
  785MPD2    C111573   1.952   1.194  10.593  0.4378  0.6434 -0.3580
  785MPD2    C211574   1.809   1.212  10.573 -0.4232 -0.0897 -0.0130
  785MPD2    C311575   1.736   1.139  10.487  0.5774  0.3045  0.3630
  785MPD2    C411576   1.798   1.033  10.423 -1.1749 -0.1408 -0.1001
  785MPD2    C511577   1.927   0.998  10.454 -0.1933  0.2064  0.6725
  785MPD2     H11578   1.762   1.293  10.626 -1.6760  0.9471 -2.6857
  785MPD2    H111579   1.742   0.970  10.354 -3.4464  1.1039  0.6079
  785MPD2    H211580   2.105   1.052  10.563  0.7780 -0.8374 -2.1528
  785MPD2    H311581   1.975   0.916  10.403  1.3891 -0.1484  2.7319
  785MPD2     N11582   1.604   1.187  10.469 -0.0314  0.1481 -0.0062
  785MPD2    H511583   1.579   1.262  10.533 -0.3493 -1.3785  1.6397
  785MPD2    N111584   2.044   1.291  10.655  0.2885  0.2226 -0.5384
  785MPD2    H711585   2.143   1.272  10.647  0.4790  1.3636 -0.8588
  786MPD2     C11586   0.109   4.501  14.594  0.1821  0.8062 -0.1567
  786MPD2    C111587   0.240   4.469  14.573  0.6760 -0.0760 -0.2993
  786MPD2    C211588   0.337   4.527  14.655  0.0922  0.4354  0.9191
  786MPD2    C311589   0.303   4.621  14.751  0.3418 -0.4407 -0.2642
  786MPD2    C411590   0.165   4.648  14.773  0.2395  0.0672  0.5355
  786MPD2    C511591   0.065   4.590  14.692 -0.0056 -1.0916  0.6455
  786MPD2     H11592   0.438   4.494  14.638  0.7151  2.1165  1.3856
  786MPD2    H111593   0.124   4.710  14.853 -0.6413  2.2471 -1.5937
  786MPD2    H211594   0.031   4.468  14.527  1.1910  0.7376 -1.3053
  786MPD2    H311595   4.685   4.618  14.693  0.5874  1.1108  1.1353
  786MPD2     N11596   0.398   4.667  14.837  0.4147  0.5438  0.2856
  786MPD2    H511597   0.377   0.016  14.905  0.2540  2.2525 -1.6050
  786MPD2    N111598   0.283   4.384  14.466  0.2772 -0.4624  0.2896
  786MPD2    H711599   0.379   4.354  14.461  0.6049  1.0510 -2.2263
  787MPD2     C11600   0.778   4.281  14.632 -0.4622  0.2894 -0.6937
  787MPD2    C111601   0.769   4.172  14.543 -0.1084  0.8386  0.1715
  787MPD2    C211602   0.835   4.051  14.578 -0.5355  0.1561  0.1764
  787MPD2    C311603   0.896   4.034  14.696 -0.0319 -0.6882 -0.1814
  787MPD2    C411604   0.900   4.135  14.788 -0.3077 -0.4038  0.5007
  787MPD2    C511605   0.847   4.259  14.750  0.5266  0.7211 -0.8825
  787MPD2     H11606   0.838   3.966  14.512 -1.5821 -0.2703  0.6692
  787MPD2    H111607   0.948   4.126  14.884 -1.3612 -1.6388  0.9206
  787MPD2    H211608   0.723   4.373  14.615  0.4663  0.8135 -0.8482
  787MPD2    H311609   0.869   4.343  14.815  1.4328 -0.0567 -0.1765
  787MPD2     N11610   0.957   3.912  14.721 -0.0713  0.0694 -0.3020
  787MPD2    H511611   0.984   3.861  14.637  1.3009 -0.2490  0.3303
  787MPD2    N111612   0.679   4.182  14.438  0.3999 -0.1523  0.4364
  787MPD2    H711613   0.646   4.276  14.419  1.8487  0.3038  0.1609
  788MPD2     C11614   2.708   2.819   0.506 -0.1206  0.0583  0.1553
  788MPD2    C111615   2.612   2.736   0.447 -0.5764 -0.2820  0.1675
  788MPD2    C211616   2.545   2.787   0.336  0.6803  0.1396 -0.4128
  788MPD2    C311617   2.582   2.910   0.284  0.4432  0.3461  0.1548
  788MPD2    C411618   2.683   2.985   0.343  0.1006  0.8507  0.2929
  788MPD2    C511619   2.744   2.940   0.457 -0.8127 -0.0156 -0.5447
  788MPD2     H11620   2.474   2.720   0.290 -0.0824  1.1182 -0.6375
  788MPD2    H111621   2.723   3.077   0.303 -1.5428  1.2843 -0.3603
  788MPD2    H211622   2.766   2.778   0.588 -2.0970  0.1621  1.5985
  788MPD2    H311623   2.825   2.990   0.508  1.5248 -0.8762 -3.3520
  788MPD2     N11624   2.510   2.970   0.177  0.6226  0.3573 -0.1539
  788MPD2    H511625   2.536   3.059   0.137  0.0056 -0.2971 -1.9935
  788MPD2    N111626   2.579   2.610   0.502  0.1499 -0.5628  0.5048
  788MPD2    H711627   2.510   2.560   0.446  1.5614 -1.9782  0.0075
  789MPD2     C11628   2.639   2.463  16.385  0.8010 -0.0189  0.5298
  789MPD2    C111629   2.581   2.346  16.422 -0.3584  0.6567  0.5120
  789MPD2    C211630   2.446   2.333  16.443 -0.2837  0.0756  0.1295
  789MPD2    C311631   2.360   2.446  16.453 -0.0149 -0.9070  0.1333
  789MPD2    C411632   2.421   2.570  16.421 -0.1662 -0.3072 -0.3343
  789MPD2    C511633   2.555   2.575  16.385  0.2274  1.1305 -0.4098
  789MPD2     H11634   2.403   2.235  16.460  0.8947 -0.3447  0.6555
  789MPD2    H111635   2.371   2.665  16.413  0.3470  0.1875  2.6002
  789MPD2    H211636   2.742   2.470  16.352  0.5588  0.9718 -0.0128
  789MPD2    H311637   2.592   2.669  16.346  2.4510  0.5050  0.1915
  789MPD2     N11638   2.227   2.442  16.499  0.2711  0.5859  0.3293
  789MPD2    H511639   2.187   2.533  16.518  4.1891  1.8737  2.2602
  789MPD2    N111640   2.651   2.226  16.416 -0.1650  0.2318 -0.1030
  789MPD2    H711641   2.597   2.140  16.422 -0.1911  0.3131  0.8077
  790MPD2     C11642   3.599   4.495  13.293  0.8706  0.6323  0.3287
  790MPD2    C111643   3.660   4.379  13.323  0.2135  0.3942 -0.5864
  790MPD2    C211644   3.669   4.286  13.219 -0.4731 -0.0631  0.1493
  790MPD2    C311645   3.615   4.301  13.096 -0.7002 -0.4063  0.4819
  790MPD2    C411646   3.567   4.427  13.058  0.3349  0.4115 -0.0221
  790MPD2    C511647   3.560   4.521  13.161  0.4349  0.6982  0.3795
  790MPD2     H11648   3.700   4.186  13.249  2.9519  0.5233 -1.4373
  790MPD2    H111649   3.543   4.444  12.954 -0.8185  0.8680  0.3201
  790MPD2    H211650   3.604   4.579  13.361 -1.4111 -1.3914  3.0047
  790MPD2    H311651   3.522   4.620  13.140  0.0986  0.9478  2.1231
  790MPD2     N11652   3.615   4.188  13.016  0.2330 -0.5172 -0.1411
  790MPD2    H511653   3.646   4.100  13.056  2.2892  0.6149  0.7383
  790MPD2    N111654   3.708   4.361  13.454 -0.4862 -0.4377 -0.2966
  790MPD2    H711655   3.667   4.415  13.530  0.3393  1.5185 -1.2352
  791MPD2     C11656   2.964   3.985  12.701 -0.1699 -0.4511 -0.3642
  791MPD2    C111657   3.036   3.880  12.752  0.2987 -0.4412 -0.0126
  791MPD2    C211658   2.973   3.764  12.776 -0.2943 -0.3655 -0.9523
  791MPD2    C311659   2.838   3.749  12.734 -0.4596 -0.3209 -0.5072
  791MPD2    C411660   2.768   3.856  12.676 -0.1924 -0.1936  0.1553
  791MPD2    C511661   2.838   3.970  12.656 -0.0057 -0.2816  0.2004
  791MPD2     H11662   3.027   3.679  12.816  1.1197  0.9692  0.0100
  791MPD2    H111663   2.664   3.848  12.647 -0.4137  0.2055  0.8454
  791MPD2    H211664   3.011   4.082  12.690  0.0635 -1.0539 -4.5424
  791MPD2    H311665   2.792   4.051  12.601  0.6613 -0.0115  0.0429
  791MPD2     N11666   2.786   3.619  12.762  0.0227  0.1246  0.5202
  791MPD2    H511667   2.836   3.559  12.826 -0.1603  0.4788  0.9962
  791MPD2    N111668   3.173   3.905  12.775 -0.2806 -0.6043 -0.0330
  791MPD2    H711669   3.208   3.989  12.729  0.9752 -0.8513  0.4880
  792MPD2     C11670   4.394   3.429  11.279 -0.5242  0.0949  0.7630
  792MPD2    C111671   4.303   3.502  11.204 -0.1072 -0.3814  0.9103
  792MPD2    C211672   4.186   3.444  11.168  0.1180  0.3073 -0.0983
  792MPD2    C311673   4.162   3.305  11.177 -0.4107 -0.6384 -0.8348
  792MPD2    C411674   4.263   3.236  11.241  0.0746 -0.4948  0.3175
  792MPD2    C511675   4.376   3.297  11.290  0.9463  0.1855 -0.1576
  792MPD2     H11676   4.108   3.504  11.123  0.2817  0.2639 -0.4425
  792MPD2    H111677   4.251   3.130  11.261  0.2176 -0.4011  0.8850
  792MPD2    H211678   4.473   3.478  11.334  0.8804 -0.3780 -0.8344
  792MPD2    H311679   4.445   3.247  11.357 -0.8326 -2.5117 -0.3191
  792MPD2     N11680   4.043   3.243  11.144  0.2304  1.0283 -0.1859
  792MPD2    H511681   4.038   3.142  11.154 -2.5139  1.0993 -0.7803
  792MPD2    N111682   4.332   3.638  11.171  0.1460  0.1013  0.0856
  792MPD2    H711683   4.414   3.677  11.218  1.7671  0.4787 -3.0509
  793MPD2     C11684   3.530   3.480  10.371  1.5606  0.2974  0.0152
  793MPD2    C111685   3.664   3.464  10.399  0.0543 -0.0502  0.1196
  793MPD2    C211686   3.693   3.401  10.518 -0.0807 -0.3612  0.9822
  793MPD2    C311687   3.600   3.353  10.601  0.3888 -0.1815 -0.1581
  793MPD2    C411688   3.463   3.356  10.566 -0.4111  0.7009  1.1328
  793MPD2    C511689   3.433   3.408  10.441  0.7650 -0.2789 -0.0933
  793MPD2     H11690   3.795   3.394  10.552  0.3482  0.6590 -0.1442
  793MPD2    H111691   3.385   3.309  10.626 -1.5296  0.4948 -0.4925
  793MPD2    H211692   3.497   3.510  10.272 -1.7711 -2.6202  0.2273
  793MPD2    H311693   3.328   3.420  10.420  0.3900 -0.3179  1.8105
  793MPD2     N11694   3.639   3.303  10.723  0.1359 -0.4687 -0.2393
  793MPD2    H511695   3.739   3.301  10.742  0.1604 -1.6793 -0.5093
  793MPD2    N111696   3.774   3.503  10.314 -0.2812  0.1898 -0.0504
  793MPD2    H711697   3.861   3.467  10.351  0.6952  4.1720  1.4675
  794MPD2     C11698   3.303   3.382  17.518  0.3240 -0.0327 -0.1445
  794MPD2    C111699   3.312   3.270  17.442  0.2754  0.0053  0.3561
  794MPD2    C211700   3.304   3.281  17.302 -0.0800 -0.7274 -0.3540
  794MPD2    C311701   3.288   3.404  17.244  0.7905 -0.1193 -0.1375
  794MPD2    C411702   3.290   3.520  17.317 -0.3114 -0.2390  0.4146
  794MPD2    C511703   3.289   3.509  17.454 -0.2586 -0.6560  0.1353
  794MPD2     H11704   3.304   3.187  17.249 -0.4588 -0.6230 -0.5342
  794MPD2    H111705   3.283   3.621  17.280 -2.1346 -0.8088 -0.7745
  794MPD2    H211706   3.308   3.388  17.626  1.3552 -2.1685 -0.0760
  794MPD2    H311707   3.297   3.599  17.514 -0.4239 -0.5071 -0.0629
  794MPD2     N11708   3.267   3.427  17.102  0.3705 -0.2664  0.0709
  794MPD2    H511709   3.266   3.523  17.072 -0.6956  0.1294  1.3592
  794MPD2    N111710   3.301   3.145  17.511 -0.6096  0.0059 -0.4773
  794MPD2    H711711   3.283   3.062  17.456  0.9394 -0.3916 -0.3772
  795MPD2     C11712   1.428   0.820  13.250  0.0487  0.0729 -0.3842
  795MPD2    C111713   1.399   0.687  13.237  0.0445 -0.1882 -1.4074
  795MPD2    C211714   1.466   0.586  13.306  0.1936  0.5883  0.4637
  795MPD2    C311715   1.577   0.626  13.375  0.0988 -0.3601  0.0902
  795MPD2    C411716   1.591   0.755  13.401  0.0638 -0.2843 -1.0406
  795MPD2    C511717   1.517   0.855  13.341  0.7217  1.1148  0.9262
  795MPD2     H11718   1.451   0.481  13.283  0.8213  0.2603  1.5788
  795MPD2    H111719   1.665   0.784  13.475 -0.3378  1.7572 -1.4404
  795MPD2    H211720   1.371   0.896  13.196  1.7747  2.6899  1.4561
  795MPD2    H311721   1.537   0.957  13.370  0.3392  0.6844  2.7180
  795MPD2     N11722   1.668   0.531  13.429  0.5579  0.0435 -0.7835
  795MPD2    H511723   1.632   0.437  13.440  1.4457 -0.0072  1.7429
  795MPD2    N111724   1.303   0.640  13.139  0.5946 -0.4224 -0.1130
  795MPD2    H711725   1.286   0.540  13.136 -0.3829 -0.1160 -4.1911
  796MPD2     C11726   0.603   1.873  16.408 -0.8692  0.2461  0.5240
  796MPD2    C111727   0.705   1.898  16.503 -0.4692 -0.0176  0.4261
  796MPD2    C211728   0.730   2.025  16.537  0.1550  0.7136 -1.5588
  796MPD2    C311729   0.670   2.135  16.475 -0.3536  0.5569  0.4173
  796MPD2    C411730   0.567   2.119  16.386  0.0201 -0.1329 -0.0306
  796MPD2    C511731   0.538   1.987  16.357 -0.4120  0.1103  0.7531
  796MPD2     H11732   0.809   2.047  16.607 -1.2702 -1.7069  0.8328
  796MPD2    H111733   0.520   2.199  16.330 -0.3334  0.9658  1.8606
  796MPD2    H211734   0.566   1.775  16.382 -1.1268  0.4181  0.2372
  796MPD2    H311735   0.462   1.962  16.284 -0.6747  0.2691  0.9705
  796MPD2     N11736   0.700   2.268  16.521  0.4548 -0.0633 -0.3629
  796MPD2    H511737   0.763   2.269  16.600 -0.2194  0.3854  0.1687
  796MPD2    N111738   0.764   1.782  16.562  0.2538 -0.0832 -0.1006
  796MPD2    H711739   0.747   1.699  16.507  1.8110 -2.2927  2.7409
  797MPD2     C11740   1.460   0.714   0.204 -0.0236 -0.6359  0.6223
  797MPD2    C111741   1.560   0.799   0.175  0.4183 -0.0885 -0.0426
  797MPD2    C211742   1.531   0.923   0.125 -0.2037 -1.0071 -0.2022
  797MPD2    C311743   1.402   0.967   0.093  0.5556 -0.1041  0.5426
  797MPD2    C411744   1.300   0.875   0.106  0.0006  0.1634 -0.2695
  797MPD2    C511745   1.331   0.755   0.162 -0.1235 -0.2838 -0.0458
  797MPD2     H11746   1.614   0.992   0.119 -1.9286  1.3230  2.9350
  797MPD2    H111747   1.195   0.894   0.088  0.2325 -1.1712 -3.0509
  797MPD2    H211748   1.469   0.623   0.262 -0.3400 -0.1538  1.4395
  797MPD2    H311749   1.246   0.691   0.183 -0.1837 -0.6787 -1.5000
  797MPD2     N11750   1.376   1.093   0.036 -0.4845  0.3195  0.3127
  797MPD2    H511751   1.278   1.117   0.022 -0.4746  1.1757  1.7277
  797MPD2    N111752   1.696   0.773   0.198 -0.4583 -0.4221 -0.1784
  797MPD2    H711753   1.760   0.845   0.164 -0.8087 -0.5326 -1.0813
  798MPD2     C11754   1.877   1.409   0.416 -0.3483  0.6501  0.5593
  798MPD2    C111755   1.810   1.331   0.326 -0.6064  0.4709  0.2320
  798MPD2    C211756   1.861   1.212   0.286  0.0243  0.5688 -0.4968
  798MPD2    C311757   1.982   1.157   0.338  0.5338  0.0418 -0.4914
  798MPD2    C411758   2.053   1.236   0.421  0.3023 -0.9627  0.0051
  798MPD2    C511759   1.995   1.353   0.465 -0.4921 -1.5799  0.7178
  798MPD2     H11760   1.816   1.174   0.195 -0.5483 -1.7980  0.7788
  798MPD2    H111761   2.154   1.228   0.460  0.7176  0.7012 -0.6906
  798MPD2    H211762   1.845   1.507   0.451  2.3807  1.7062  0.1148
  798MPD2    H311763   2.053   1.410   0.537  3.0185 -4.1015 -0.1154
  798MPD2     N11764   2.026   1.033   0.286  0.1854 -0.2565 -0.7320
  798MPD2    H511765   1.958   0.997   0.219 -1.5835  0.2368  0.8038
  798MPD2    N111766   1.687   1.365   0.269 -0.2848  0.7835 -0.3874
  798MPD2    H711767   1.661   1.299   0.197  2.8640 -0.5611 -0.2662
  799MPD2     C11768   0.660   3.590  14.802 -0.3935 -0.4034 -0.1783
  799MPD2    C111769   0.617   3.485  14.729  0.8328 -0.4062 -0.0087
  799MPD2    C211770   0.559   3.522  14.609  0.2623 -0.2704  0.0410
  799MPD2    C311771   0.560   3.653  14.565 -0.4463 -0.5310  0.5007
  799MPD2    C411772   0.614   3.752  14.639 -0.2377 -0.2333 -0.1035
  799MPD2    C511773   0.660   3.720  14.761  0.1875 -0.2708 -0.2959
  799MPD2     H11774   0.514   3.445  14.549 -1.5538  0.5152  0.3965
  799MPD2    H111775   0.615   3.854  14.603  1.8369  0.0487  0.7310
  799MPD2    H211776   0.706   3.576  14.900 -1.2123  0.5664  0.3446
  799MPD2    H311777   0.715   3.786  14.826 -0.5534  1.3674 -1.3502
  799MPD2     N11778   0.505   3.690  14.442 -0.8687 -0.4071  0.7895
  799MPD2    H511779   0.534   3.784  14.419 -0.0072 -0.3119  2.2599
  799MPD2    N111780   0.627   3.352  14.761 -0.4054 -0.0557  0.0593
  799MPD2    H711781   0.590   3.291  14.689  1.2130  0.9683 -1.6388
  800MPD2     C11782   1.524   0.347  14.653 -0.1745  0.1735 -0.2987
  800MPD2    C111783   1.531   0.340  14.520  0.5466 -0.6484 -0.2380
  800MPD2    C211784   1.477   0.235  14.452  0.8068 -0.0917  1.3562
  800MPD2    C311785   1.401   0.136  14.508  0.1515  0.1679  0.2249
  800MPD2    C411786   1.376   0.149  14.644  0.4899  0.4947  0.2304
  800MPD2    C511787   1.457   0.243  14.714  0.0368  0.4171  0.2983
  800MPD2     H11788   1.494   0.222  14.345 -0.4534  1.0136  1.0316
  800MPD2    H111789   1.326   0.072  14.701  1.8067 -0.9024 -0.4953
  800MPD2    H211790   1.575   0.426  14.707  0.0883 -0.2750  0.1039
  800MPD2    H311791   1.435   0.255  14.820  0.4255  1.9742  0.2089
  800MPD2     N11792   1.348   0.039  14.424 -1.2892  0.2931 -0.1437
  800MPD2    H511793   1.364   0.049  14.325  0.9216  2.7469  0.4703
  800MPD2    N111794   1.621   0.431  14.460 -0.2018 -0.0378 -0.1555
  800MPD2    H711795   1.681   0.490  14.517 -2.1345 -0.5009  2.3617
  801MPD2     C11796   1.518   0.842  14.059  0.0146  0.1771 -0.5868
  801MPD2    C111797   1.578   0.823  14.181  0.4137 -0.3459 -0.3938
  801MPD2    C211798   1.505   0.786  14.295 -0.2736  0.5047 -0.0477
  801MPD2    C311799   1.374   0.757  14.278 -0.8354  0.9702 -0.6332
  801MPD2    C411800   1.316   0.770  14.158  0.5559 -0.1130 -0.0420
  801MPD2    C511801   1.383   0.824  14.046 -0.0025 -0.3435 -0.1047
  801MPD2     H11802   1.560   0.766  14.386 -0.5437 -0.4687 -0.1023
  801MPD2    H111803   1.213   0.745  14.135  0.9548 -1.1097 -0.7367
  801MPD2    H211804   1.575   0.874  13.973  0.9854  0.7205  0.2486
  801MPD2    H311805   1.325   0.847  13.958 -0.9361 -0.9153  0.3575
  801MPD2     N11806   1.297   0.706  14.382  0.0800 -0.5493 -0.2231
  801MPD2    H511807   1.205   0.675  14.352 -1.2540  2.1711  1.0632
  801MPD2    N111808   1.716   0.810  14.202  0.3688  0.0682  0.7875
  801MPD2    H711809   1.738   0.785  14.298  1.7127 -0.0393  0.4485
  802MPD2     C11810   4.691   0.605  17.269 -0.7531 -0.6347  0.2429
  802MPD2    C111811   0.060   0.618  17.365  0.0698  0.8002 -0.3489
  802MPD2    C211812   0.155   0.525  17.377  0.8262  0.5985  0.4709
  802MPD2    C311813   0.157   0.414  17.303  0.0019 -0.3816 -0.2510
  802MPD2    C411814   0.061   0.393  17.215 -0.3813 -0.4580 -0.0778
  802MPD2    C511815   4.681   0.484  17.202 -0.0820  0.0441 -0.3007
  802MPD2     H11816   0.231   0.545  17.451  1.4273 -0.6687  0.2078
  802MPD2    H111817   0.065   0.311  17.144 -2.1759  0.0887 -0.8098
  802MPD2    H211818   4.615   0.681  17.254 -0.4485  0.1141  2.5409
  802MPD2    H311819   4.606   0.477  17.124 -1.1113 -0.6228  0.7251
  802MPD2     N11820   0.272   0.341  17.312  0.7917  0.2991 -0.7180
  802MPD2    H511821   0.340   0.383  17.375 -0.9440  1.3868  0.4387
  802MPD2    N111822   0.071   0.727  17.454 -0.0685 -0.9315  0.1648
  802MPD2    H711823   0.151   0.725  17.516 -0.0741  0.9739  0.2229
  803MPD2     C11824   1.994   3.619  11.902  0.0215 -0.3217 -0.0832
  803MPD2    C111825   2.003   3.620  12.039 -0.1588  0.2410 -0.7430
  803MPD2    C211826   1.939   3.524  12.114 -0.5833  0.0454 -0.2341
  803MPD2    C311827   1.883   3.412  12.053 -0.5349  0.1681  0.0283
  803MPD2    C411828   1.878   3.409  11.915 -0.3580 -0.9798  0.2742
  803MPD2    C511829   1.930   3.514  11.840 -0.3403 -0.0056 -0.1164
  803MPD2     H11830   1.935   3.529  12.222  0.2039 -1.5964 -0.1230
  803MPD2    H111831   1.843   3.322  11.859 -0.0920 -0.1833 -1.1221
  803MPD2    H211832   2.047   3.682  11.832 -1.1388 -1.4654 -1.9930
  803MPD2    H311833   1.933   3.510  11.731  2.4533  3.6130 -0.1607
  803MPD2     N11834   1.824   3.318  12.136  0.8202 -0.4334 -0.6624
  803MPD2    H511835   1.843   3.326  12.236 -1.7369  1.4276 -0.3035
  803MPD2    N111836   2.082   3.718  12.106  0.5056 -0.1193  0.2004
  803MPD2    H711837   2.081   3.715  12.207  2.1513 -0.4211  0.2152
  804MPD2     C11838   1.483   0.308  16.804  0.2427 -0.8448 -0.5155
  804MPD2    C111839   1.424   0.286  16.925  0.8906  0.5166 -0.0082
  804MPD2    C211840   1.469   0.357  17.032 -0.5631  0.2847  0.2808
  804MPD2    C311841   1.583   0.434  17.024  0.2699  0.7570  0.7391
  804MPD2    C411842   1.636   0.454  16.897 -0.8269 -0.8105  0.3036
  804MPD2    C511843   1.580   0.400  16.790 -0.2407 -0.4865  0.4877
  804MPD2     H11844   1.419   0.336  17.126 -0.1650 -0.7524  0.2636
  804MPD2    H111845   1.726   0.511  16.877 -1.8037  0.3197 -0.9335
  804MPD2    H211846   1.441   0.254  16.720 -1.5890  1.1779 -0.9058
  804MPD2    H311847   1.628   0.403  16.693 -0.2696  2.7020  0.5828
  804MPD2     N11848   1.648   0.488  17.141 -0.3492 -0.6190  0.1174
  804MPD2    H511849   1.596   0.473  17.227 -1.4355  5.4138  0.5431
  804MPD2    N111850   1.326   0.192  16.949  0.4285  0.0444 -0.6047
  804MPD2    H711851   1.301   0.179  17.047  1.0063 -1.5048 -0.6591
  805MPD2     C11852   0.202   3.361  15.492  0.3509  0.1836  0.2265
  805MPD2    C111853   0.249   3.481  15.451  0.2433  0.4037  0.4019
  805MPD2    C211854   0.359   3.538  15.513  0.4298  0.1382 -0.3981
  805MPD2    C311855   0.431   3.472  15.606 -0.3892 -0.7073 -0.5085
  805MPD2    C411856   0.380   3.360  15.654  0.7017 -0.4039 -0.8196
  805MPD2    C511857   0.270   3.300  15.588  0.4783 -0.0067 -0.0703
  805MPD2     H11858   0.392   3.635  15.478  1.0954 -0.1308 -0.5190
  805MPD2    H111859   0.427   3.311  15.738  0.6581 -0.9984 -1.1485
  805MPD2    H211860   0.111   3.311  15.462  1.3490 -1.1224 -0.5867
  805MPD2    H311861   0.237   3.201  15.618 -1.2579 -0.2388 -2.7273
  805MPD2     N11862   0.542   3.540  15.657  0.3314  0.3312 -0.4729
  805MPD2    H511863   0.570   3.628  15.615 -0.4669  0.9746  0.3336
  805MPD2    N111864   0.199   3.555  15.335 -0.4344 -0.2869 -0.2770
  805MPD2    H711865   0.252   3.640  15.317 -2.8794  0.8840 -1.9349
  806MPD2     C11866   0.827   2.646   0.236  0.1963 -0.3817 -0.2896
  806MPD2    C111867   0.776   2.753   0.305  0.2334  0.3553 -0.1873
  806MPD2    C211868   0.864   2.856   0.333 -0.4922 -0.2599  0.0616
  806MPD2    C311869   0.992   2.866   0.278 -0.1097 -0.4249  0.1459
  806MPD2    C411870   1.039   2.756   0.206  0.1230 -0.1137 -0.1113
  806MPD2    C511871   0.959   2.638   0.194 -0.0023  0.6261 -1.3562
  806MPD2     H11872   0.826   2.932   0.400  0.5965  0.3294  0.0093
  806MPD2    H111873   1.139   2.751   0.163 -0.8195 -1.1612 -2.1986
  806MPD2    H211874   0.759   2.563   0.220  0.8089 -1.0228  0.3708
  806MPD2    H311875   0.990   2.549   0.140 -0.0036 -1.5829  2.2745
  806MPD2     N11876   1.073   2.975   0.306  0.1536 -0.1869 -0.1867
  806MPD2    H511877   1.014   3.051   0.339  0.7896  1.4034 -2.6930
  806MPD2    N111878   0.645   2.743   0.368  0.5461 -0.3563 -0.0375
  806MPD2    H711879   0.614   2.647   0.378 -2.0614  0.3716 -1.0073
  807MPD2     C11880   0.411   2.173   0.726 -0.3774 -0.3794 -1.1986
  807MPD2    C111881   0.403   2.267   0.827 -0.1737 -0.4644 -0.2377
  807MPD2    C211882   0.356   2.233   0.950  0.2361  0.1632 -0.1147
  807MPD2    C311883   0.317   2.108   0.989 -0.1900  0.1377  0.1336
  807MPD2    C411884   0.319   2.013   0.885  0.4433 -0.1848 -0.1947
  807MPD2    C511885   0.367   2.050   0.759  0.0079  0.0076  0.0886
  807MPD2     H11886   0.351   2.311   1.025  1.9718 -0.9178  1.1464
  807MPD2    H111887   0.280   1.915   0.907 -0.4093  0.5307  1.4217
  807MPD2    H211888   0.447   2.187   0.624  2.3538  0.8772 -0.0623
  807MPD2    H311889   0.362   1.972   0.684 -0.0373 -1.5553  1.7318
  807MPD2     N11890   0.267   2.094   1.121  0.6511  0.0303 -0.3340
  807MPD2    H511891   0.264   2.179   1.177  1.1415 -1.4946  1.9720
  807MPD2    N111892   0.443   2.398   0.792 -0.0497  0.6464  0.0706
  807MPD2    H711893   0.450   2.468   0.865 -2.9096 -0.4011  1.3731
  808MPD2     C11894   1.747   3.677   9.571 -0.5681 -0.3577  0.2473
  808MPD2    C111895   1.681   3.740   9.671 -0.5606 -0.2219  0.1517
  808MPD2    C211896   1.744   3.845   9.719 -0.1294 -0.0418 -0.3634
  808MPD2    C311897   1.867   3.897   9.678 -0.0785  0.0692  0.5526
  808MPD2    C411898   1.936   3.820   9.589  0.7214  0.3892 -0.5757
  808MPD2    C511899   1.879   3.713   9.538 -0.5216 -0.4759  0.6071
  808MPD2     H11900   1.684   3.885   9.799  1.1548 -0.5552  0.8585
  808MPD2    H111901   2.029   3.848   9.539  0.9476  3.0481  1.3061
  808MPD2    H211902   1.702   3.591   9.521 -1.3730  0.5663 -0.6148
  808MPD2    H311903   1.938   3.662   9.463  2.7335 -0.9830  3.5611
  808MPD2     N11904   1.909   4.025   9.721 -0.2351 -0.3980  0.5459
  808MPD2    H511905   2.002   4.052   9.691 -0.1176  0.0662  1.3299
  808MPD2    N111906   1.551   3.702   9.709 -0.1937  0.4843 -1.0682
  808MPD2    H711907   1.514   3.737   9.797  0.4847  0.4587 -0.7768
  809MPD2     C11908   2.611   4.624   9.448  0.2079 -0.6049  0.4043
  809MPD2    C111909   2.567   4.494   9.472  0.2343 -1.1029 -0.0270
  809MPD2    C211910   2.442   4.470   9.526  0.2194 -0.0206  0.4504
  809MPD2    C311911   2.356   4.581   9.547  0.7416  0.5159  0.2096
  809MPD2    C411912   2.402   4.711   9.520 -0.5450  0.0159  0.3062
  809MPD2    C511913   2.527   0.008   9.465  1.5354 -0.3715  0.1468
  809MPD2     H11914   2.415   4.370   9.560 -2.4617  0.3984 -0.3832
  809MPD2    H111915   2.359   0.076   9.563  2.3623  2.2113 -1.3170
  809MPD2    H211916   2.713   4.640   9.416 -0.3531  0.3926 -0.8770
  809MPD2    H311917   2.568   0.107   9.447 -0.0349  0.2874  0.1385
  809MPD2     N11918   2.226   4.558   9.598 -0.2465  0.0104  0.2247
  809MPD2    H511919   2.175   4.641   9.627  0.3828  1.3254 -2.3830
  809MPD2    N111920   2.649   4.381   9.458 -0.0454  0.7767  0.8840
  809MPD2    H711921   2.638   4.302   9.521 -3.4520  0.8164  0.3173
  810MPD2     C11922   1.459   3.176   9.729  0.6410  0.5312 -0.3339
  810MPD2    C111923   1.441   3.117   9.856 -0.4816  0.0162  1.0970
  810MPD2    C211924   1.506   3.175   9.962 -0.5719  0.1868  0.5449
  810MPD2    C311925   1.591   3.282   9.935  0.1397  0.0218 -0.3151
  810MPD2    C411926   1.612   3.332   9.811 -0.2603 -1.1332 -0.0724
  810MPD2    C511927   1.541   3.283   9.709  0.1298  0.0262 -0.1165
  810MPD2     H11928   1.483   3.158  10.067  0.9026  0.1496  0.8697
  810MPD2    H111929   1.668   3.423   9.791 -0.4734 -0.8702  0.5284
  810MPD2    H211930   1.419   3.138   9.636  0.1583 -1.3825  0.6487
  810MPD2    H311931   1.560   3.321   9.609  2.3819 -0.6417  0.0609
  810MPD2     N11932   1.652   3.360  10.037  0.4653 -0.1734 -0.6042
  810MPD2    H511933   1.688   3.453  10.017 -0.1953  0.2006 -0.0813
  810MPD2    N111934   1.367   2.994   9.873  0.3035 -0.6113 -0.0331
  810MPD2    H711935   1.325   2.957   9.788 -2.3866 -0.3423  1.1940
  811MPD2     C11936   0.675   2.828   9.719  0.1818 -0.8257 -0.3036
  811MPD2    C111937   0.783   2.910   9.753 -0.1101  0.0978  0.2999
  811MPD2    C211938   0.769   3.046   9.735 -0.3195 -0.4727 -0.3948
  811MPD2    C311939   0.650   3.103   9.691 -0.0308 -0.4586  0.0569
  811MPD2    C411940   0.548   3.019   9.653  0.6000  0.1707  0.7054
  811MPD2    C511941   0.561   2.885   9.662 -0.0088  1.0391 -0.1088
  811MPD2     H11942   0.856   3.108   9.756 -1.1100  0.7794 -0.8704
  811MPD2    H111943   0.457   3.058   9.610  1.9749  2.3624 -0.2431
  811MPD2    H211944   0.679   2.720   9.717 -1.2628 -0.8773 -0.3948
  811MPD2    H311945   0.480   2.822   9.628  0.0430  1.2688 -0.6637
  811MPD2     N11946   0.645   3.246   9.678  0.0058  0.3204 -0.1865
  811MPD2    H511947   0.729   3.295   9.706  0.8624 -0.5802 -1.1634
  811MPD2    N111948   0.910   2.858   9.794  0.4965  0.4646 -0.1478
  811MPD2    H711949   0.990   2.920   9.802 -0.1421  1.2174  0.4113
  812MPD2     C11950   0.106   3.701  12.085  0.2002  0.2027  0.2264
  812MPD2    C111951   4.719   3.736  12.159  0.0786  0.1743 -0.0101
  812MPD2    C211952   4.663   3.639  12.242 -0.5667  0.3204 -0.1495
  812MPD2    C311953   4.710   3.510  12.245  0.4673 -0.2154  0.0855
  812MPD2    C411954   0.092   3.478  12.162 -0.8614  0.1354  0.5837
  812MPD2    C511955   0.146   3.570  12.083 -0.0889 -0.1506 -0.4958
  812MPD2     H11956   4.582   3.662  12.310 -1.1739 -0.4810 -0.6077
  812MPD2    H111957   0.143   3.383  12.168  0.8102  1.0171  0.6313
  812MPD2    H211958   0.156   3.776  12.026  3.2069 -4.0534 -2.6602
  812MPD2    H311959   0.232   3.556  12.018  0.5514 -2.4515  0.8579
  812MPD2     N11960   4.658   3.423  12.343 -0.1111  0.5557  0.6038
  812MPD2    H511961   4.578   3.457  12.396 -0.9779 -0.0934 -0.2871
  812MPD2    N111962   4.673   3.870  12.145  0.5726 -1.0059 -0.0137
  812MPD2    H711963   0.002   3.929  12.082 -0.8560 -1.7649 -1.9551
  813MPD2     C11964   3.300   1.502  12.715 -0.4490 -0.2127 -0.6921
  813MPD2    C111965   3.372   1.411  12.784  0.4424 -0.7266  0.4454
  813MPD2    C211966   3.327   1.377  12.913  0.7206  0.5930  0.0202
  813MPD2    C311967   3.226   1.448  12.971  0.6196  0.5526 -0.0189
  813MPD2    C411968   3.170   1.555  12.911 -0.2274  0.5765  0.6112
  813MPD2    C511969   3.206   1.582  12.784 -0.4479 -0.8941  0.7883
  813MPD2     H11970   3.386   1.300  12.961  0.9991 -0.7521 -2.4723
  813MPD2    H111971   3.089   1.618  12.947 -1.6812 -1.3142  0.6344
  813MPD2    H211972   3.325   1.526  12.613  0.4517 -0.1402 -0.4526
  813MPD2    H311973   3.146   1.657  12.732  1.4862 -0.1181 -0.3497
  813MPD2     N11974   3.188   1.419  13.101 -0.2641 -0.1809  0.1773
  813MPD2    H511975   3.142   1.485  13.163  0.0787  0.5254 -0.3293
  813MPD2    N111976   3.479   1.352  12.714  0.2162 -1.1740 -0.2531
  813MPD2    H711977   3.502   1.391  12.624 -1.6680 -0.0681 -0.2603
  814MPD2     C11978   4.394   2.131  12.211 -0.8392  0.0920  0.6183
  814MPD2    C111979   4.388   2.194  12.085 -0.7259 -0.2024  0.4131
  814MPD2    C211980   4.466   2.308  12.059  0.3390 -0.3275  0.2845
  814MPD2    C311981   4.543   2.354  12.161 -0.3318 -0.1067 -0.4762
  814MPD2    C411982   4.556   2.290  12.284  0.0316  0.8232 -0.6432
  814MPD2    C511983   4.480   2.176  12.311  0.3440  0.4327 -0.4885
  814MPD2     H11984   4.471   2.352  11.960  0.8930  0.0820  0.4913
  814MPD2    H111985   4.620   2.331  12.360  0.8861  1.0465 -1.4842
  814MPD2    H211986   4.330   2.047  12.233  0.9563 -1.1083  1.2543
  814MPD2    H311987   4.481   2.137  12.412  0.5301 -0.9646 -1.0299
  814MPD2     N11988   4.616   2.474  12.147 -0.7270 -0.3200 -1.0487
  814MPD2    H511989   4.672   2.496  12.228  1.8437 -1.1317 -2.5986
  814MPD2    N111990   4.307   2.143  11.980 -0.0228  0.1136  0.7264
  814MPD2    H711991   4.310   2.201  11.897  0.1632 -1.1557 -0.1499
  815MPD2     C11992   4.549   0.752  11.825  0.2151 -1.0455 -0.5583
  815MPD2    C111993   4.580   0.631  11.874  0.3735 -0.4507 -0.4580
  815MPD2    C211994   4.482   0.570  11.957 -0.7757 -0.1223 -0.0204
  815MPD2    C311995   4.369   0.635  11.998 -0.2381 -0.4588  0.3138
  815MPD2    C411996   4.348   0.758  11.953  0.8056  0.2108  0.5199
  815MPD2    C511997   4.430   0.814  11.861  0.4854 -0.0471  0.0660
  815MPD2     H11998   4.499   0.481  12.017  0.5757 -0.0625 -0.3276
  815MPD2    H111999   4.257   0.814  11.974 -1.7212 -3.7052  0.1477
  815MPD2    H212000   4.610   0.806  11.753 -0.5699  0.3801 -0.1498
  815MPD2    H312001   4.397   0.910  11.824  1.5677  0.1482 -0.3774
  815MPD2     N12002   4.290   0.571  12.101  0.1114  0.0694 -0.0985
  815MPD2    H512003   4.324   0.483  12.136  2.2213  1.1573  0.5527
  815MPD2    N112004   4.685   0.556  11.823  0.0225  0.3311  0.3695
  815MPD2    H712005   0.021   0.595  11.751 -0.5616  0.8484  0.1640
  816MPD2     C12006   4.054   4.339  17.227 -0.3079 -0.6601  0.1054
  816MPD2    C112007   4.143   4.439  17.186  0.3246  0.7183  0.4400
  816MPD2    C212008   4.238   4.419  17.085  0.0928  0.3196  0.0690
  816MPD2    C312009   4.262   4.295  17.035 -0.5383  0.1345  0.5984
  816MPD2    C412010   4.170   4.191  17.072  0.3427  0.1739 -0.9027
  816MPD2    C512011   4.070   4.215  17.164  0.3747 -0.1144  0.5452
  816MPD2     H12012   4.303   4.499  17.050 -0.6245  0.5033 -0.8125
  816MPD2    H112013   4.174   4.092  17.028 -1.7615  0.6720 -2.2246
  816MPD2    H212014   3.986   4.348  17.311  0.8704 -0.8417  1.0863
  816MPD2    H312015   4.005   4.130  17.180 -0.4947  0.8989  2.4246
  816MPD2     N12016   4.360   4.286  16.935 -0.6714  0.6406  0.0829
  816MPD2    H512017   4.418   4.369  16.927  1.4355 -0.7648  0.4300
  816MPD2    N112018   4.143   4.569  17.240  0.1429  0.5109 -0.1649
  816MPD2    H712019   4.210   4.633  17.198 -0.3010 -0.1029 -1.8186
  817MPD2     C12020   4.398   1.196  10.373 -0.5599  0.3146  0.3667
  817MPD2    C112021   4.523   1.199  10.328  0.0335 -0.3705  0.2358
  817MPD2    C212022   4.571   1.304  10.261  0.4103  0.9323 -0.1093
  817MPD2    C312023   4.491   1.413  10.229 -0.3126  0.5789 -0.3553
  817MPD2    C412024   4.364   1.415  10.284  0.3237 -0.3475  0.0948
  817MPD2    C512025   4.318   1.304  10.351 -0.0414  0.6991 -0.0476
  817MPD2     H12026   4.672   1.289  10.225  0.0954 -0.1291 -0.5364
  817MPD2    H112027   4.298   1.500  10.273  1.0464  0.6536  3.5562
  817MPD2    H212028   4.370   1.110  10.433  1.9899 -1.5652 -1.1212
  817MPD2    H312029   4.217   1.312  10.392  0.0425  2.1495 -0.1129
  817MPD2     N12030   4.547   1.511  10.138 -0.2055 -0.0556  0.1993
  817MPD2    H512031   4.643   1.502  10.108  0.1359 -0.5555  1.4374
  817MPD2    N112032   4.616   1.095  10.347  0.2675  1.0759 -0.3759
  817MPD2    H712033   4.707   1.090  10.300 -0.5453 -0.5463 -1.7636
  818MPD2     C12034   3.345   0.378  10.780  0.5275 -0.2363 -0.0081
  818MPD2    C112035   3.262   0.410  10.681  0.2153 -0.3413  0.1516
  818MPD2    C212036   3.193   0.312  10.611  0.5480  0.4022 -0.6861
  818MPD2    C312037   3.212   0.181  10.639  0.4394  0.0013  0.1269
  818MPD2    C412038   3.299   0.145  10.741  0.0134  0.0860 -0.1161
  818MPD2    C512039   3.360   0.245  10.809 -0.1494 -0.4058 -0.3772
  818MPD2     H12040   3.137   0.341  10.523  1.4231 -1.9750 -2.0419
  818MPD2    H112041   3.310   0.043  10.775  1.6324  0.9830  1.9999
  818MPD2    H212042   3.399   0.458  10.828  0.3224  0.4658 -0.9422
  818MPD2    H312043   3.428   0.218  10.889 -0.4737  1.7680  0.6378
  818MPD2     N12044   3.159   0.082  10.554  0.7270 -0.2030  0.7625
  818MPD2    H512045   3.171   4.713  10.593  2.4761 -0.1913  0.2424
  818MPD2    N112046   3.228   0.541  10.636 -0.2984  0.0837  0.3999
  818MPD2    H712047   3.177   0.534  10.549  0.1717 -0.4514  0.1634
  819MPD2     C12048   1.042   3.524  15.568  0.0186  0.2480  0.4368
  819MPD2    C112049   1.024   3.398  15.616 -0.0750  0.2759 -0.1433
  819MPD2    C212050   1.133   3.332  15.683 -0.5297 -0.0063  0.1349
  819MPD2    C312051   1.258   3.393  15.693  0.1187  1.1611  0.3200
  819MPD2    C412052   1.272   3.527  15.658 -0.6405  0.5908 -0.3942
  819MPD2    C512053   1.167   3.589  15.592  0.2305  0.0937  0.0726
  819MPD2     H12054   1.123   3.229  15.713 -1.5858  0.2646  0.6998
  819MPD2    H112055   1.365   3.583  15.662 -0.3628  0.2945 -2.5611
  819MPD2    H212056   0.981   3.554  15.484 -0.3217 -0.4877  0.4214
  819MPD2    H312057   1.187   3.689  15.556  0.6589 -0.7492 -1.9914
  819MPD2     N12058   1.374   3.326  15.729  0.7868 -0.0273  0.3986
  819MPD2    H512059   1.460   3.380  15.721  1.7103 -1.2441  1.9998
  819MPD2    N112060   0.902   3.341  15.592  0.6673  0.8091  0.0156
  819MPD2    H712061   0.838   3.384  15.526  0.9143 -0.1154 -0.8235
  820MPD2     C12062   0.234   3.152  14.872  0.2188 -0.3178 -0.4992
  820MPD2    C112063   0.293   3.260  14.938  0.7061 -0.0686  0.2723
  820MPD2    C212064   0.367   3.241  15.053 -0.7463  0.3014  0.1699
  820MPD2    C312065   0.376   3.117  15.115  0.2758 -0.2705 -0.4590
  820MPD2    C412066   0.304   3.014  15.059  0.1058  0.0126  0.1503
  820MPD2    C512067   0.237   3.034  14.935 -0.3403 -0.2727 -0.1391
  820MPD2     H12068   0.409   3.330  15.098 -0.1396 -1.3884  2.9913
  820MPD2    H112069   0.310   2.912  15.093  1.6429  0.2135  0.4856
  820MPD2    H212070   0.177   3.162  14.781 -0.6547 -3.4620 -0.3034
  820MPD2    H312071   0.169   2.957  14.900 -1.7070  0.4346  0.9466
  820MPD2     N12072   0.458   3.096  15.229 -0.7154 -0.3911 -0.7905
  820MPD2    H512073   0.460   3.002  15.267 -0.4678 -0.1849 -0.2933
  820MPD2    N112074   0.256   3.389  14.889 -0.1593 -0.3383  0.8084
  820MPD2    H712075   0.183   3.400  14.819 -0.0587 -1.8479  0.4566
  821MPD2     C12076   1.253   4.327  13.782  0.3222 -0.4898  0.1449
  821MPD2    C112077   1.350   4.427  13.782  0.6187  0.3808 -0.8428
  821MPD2    C212078   1.432   4.449  13.673  0.5550  0.3410  0.0646
  821MPD2    C312079   1.405   4.380  13.556 -0.6563 -0.6400 -0.3777
  821MPD2    C412080   1.309   4.281  13.552 -0.3150 -0.4085  0.2592
  821MPD2    C512081   1.232   4.256  13.666 -0.1283 -0.7221  0.3717
  821MPD2     H12082   1.509   4.526  13.674  1.6009 -0.6767 -1.7717
  821MPD2    H112083   1.304   4.222  13.461  0.8414  0.1016 -0.1329
  821MPD2    H212084   1.211   4.292  13.876  2.0742 -0.2484  1.0103
  821MPD2    H312085   1.154   4.182  13.667  1.1578 -2.0920 -1.0577
  821MPD2     N12086   1.499   4.389  13.447  0.3845 -0.7979  0.5964
  821MPD2    H512087   1.493   4.311  13.383 -3.7812 -1.7490  2.1353
  821MPD2    N112088   1.379   4.495  13.900  0.2988  0.4540 -0.2220
  821MPD2    H712089   1.458   4.558  13.903  2.2271 -1.9626 -0.7853
  822MPD2     C12090   2.117   4.555  15.727  0.4002  0.2343 -0.1030
  822MPD2    C112091   2.049   4.483  15.819  0.4865  0.2371  0.2914
  822MPD2    C212092   1.952   4.549  15.887  0.3966 -0.1793  0.9528
  822MPD2    C312093   1.932   4.687  15.874  0.2777  0.3873  0.2376
  822MPD2    C412094   1.998   0.040  15.782 -1.0415  0.4360 -0.3226
  822MPD2    C512095   2.096   4.687  15.719  0.0818  0.1412 -0.4155
  822MPD2     H12096   1.898   4.495  15.963  1.1821 -0.0360  1.6086
  822MPD2    H112097   1.981   0.146  15.767  1.7280  1.1558  1.7646
  822MPD2    H212098   2.196   4.512  15.666 -0.0443  2.0391 -1.9910
  822MPD2    H312099   2.151   0.019  15.644  0.1532 -0.7624 -1.0424
  822MPD2     N12100   1.838   0.023  15.961  1.0056 -0.6125 -0.0269
  822MPD2    H512101   1.812   4.677  16.030  0.4877  0.5432  0.9367
  822MPD2    N112102   2.078   4.348  15.849  0.5202  0.3071  0.4771
  822MPD2    H712103   2.028   4.311  15.929 -1.2707  0.3270 -0.6305
  823MPD2     C12104   1.560   4.673  16.736  0.4018 -0.6039  0.4776
  823MPD2    C112105   1.572   4.631  16.606 -0.2563 -0.0398  0.0286
  823MPD2    C212106   1.535   4.501  16.563 -0.9792 -0.1780  0.5560
  823MPD2    C312107   1.503   4.416  16.665  0.4432 -0.1207  0.4775
  823MPD2    C412108   1.481   4.457  16.790  0.3096 -0.0485 -0.5770
  823MPD2    C512109   1.515   4.584  16.823  0.3802 -0.7233  0.2830
  823MPD2     H12110   1.557   4.461  16.464  0.9898 -2.3966  1.8936
  823MPD2    H112111   1.444   4.395  16.871 -0.6080  1.9680  0.5658
  823MPD2    H212112   1.595   0.047  16.768 -2.3286  1.4412 -2.7634
  823MPD2    H312113   1.509   4.623  16.924 -0.0370  3.7028 -1.4248
  823MPD2     N12114   1.475   4.275  16.642  0.3594 -0.6608 -0.3321
  823MPD2    H512115   1.439   4.224  16.722 -0.2486  1.2515  0.6026
  823MPD2    N112116   1.616   0.006  16.516 -0.0265 -0.2962 -0.8834
  823MPD2    H712117   1.649   0.087  16.569  2.4897 -1.0574 -1.3120
  824MPD2     C12118   2.186   3.452  15.714  0.1472  0.3049 -0.5389
  824MPD2    C112119   2.266   3.561  15.700 -0.0665  0.0232  0.1286
  824MPD2    C212120   2.396   3.542  15.657 -0.1853  0.0595  0.2702
  824MPD2    C312121   2.439   3.413  15.625  0.2340 -0.1607 -0.4070
  824MPD2    C412122   2.358   3.305  15.646 -0.0402  0.2093 -0.2273
  824MPD2    C512123   2.234   3.320  15.697 -0.1699 -0.4623 -0.5462
  824MPD2     H12124   2.464   3.625  15.643 -0.5417  0.4552  0.8723
  824MPD2    H112125   2.384   3.201  15.626  0.3117  0.7603 -2.6316
  824MPD2    H212126   2.087   3.463  15.757 -0.0331 -0.5864 -0.7153
  824MPD2    H312127   2.167   3.236  15.716  0.1829 -0.5062  0.4845
  824MPD2     N12128   2.567   3.408  15.558  0.1474 -0.0754 -0.6025
  824MPD2    H512129   2.610   3.495  15.529  0.5990 -0.4380 -1.0140
  824MPD2    N112130   2.210   3.680  15.754 -0.4942  0.5350 -0.1509
  824MPD2    H712131   2.114   3.678  15.785 -0.2030  0.6237  0.7501
  825MPD2     C12132   3.104   3.467  14.848 -0.0961 -0.5898 -0.2083
  825MPD2    C112133   3.080   3.524  14.970 -0.0519  0.2906  0.1247
  825MPD2    C212134   3.146   3.642  15.003 -0.1500  0.0665 -0.1354
  825MPD2    C312135   3.238   3.705  14.915  0.6028 -0.0033 -0.0934
  825MPD2    C412136   3.249   3.641  14.789 -0.3295 -0.4994  0.3317
  825MPD2    C512137   3.193   3.523  14.761 -0.1912  0.1701  0.1485
  825MPD2     H12138   3.126   3.686  15.100 -2.9047  1.0169 -1.1552
  825MPD2    H112139   3.317   3.682  14.716 -0.8457 -0.5717 -0.1937
  825MPD2    H212140   3.050   3.379  14.815  0.1039 -0.5726 -0.5768
  825MPD2    H312141   3.212   3.471  14.667  3.1062  0.0757  0.8759
  825MPD2     N12142   3.295   3.834  14.925 -0.8311 -0.6289  0.1204
  825MPD2    H512143   3.347   3.871  14.845  0.4313 -2.9814 -0.1696
  825MPD2    N112144   2.992   3.456  15.059  0.9128  0.4870  0.5997
  825MPD2    H712145   2.971   3.363  15.024  1.4587  0.3965  0.5138
  826MPD2     C12146   2.450   3.825  14.337 -0.1275  0.6257  0.6690
  826MPD2    C112147   2.351   3.837  14.242 -0.0756  0.0255  0.1460
  826MPD2    C212148   2.240   3.922  14.274 -1.0926  0.7324 -0.3607
  826MPD2    C312149   2.246   4.011  14.381 -0.2129  0.1009 -0.3330
  826MPD2    C412150   2.340   3.988  14.471 -0.0372  0.0721 -0.5410
  826MPD2    C512151   2.444   3.903  14.448  0.1989  0.4236 -0.2943
  826MPD2     H12152   2.163   3.929  14.199 -1.3879 -0.4296 -0.1543
  826MPD2    H112153   2.356   4.052  14.557  4.6300 -1.5114 -0.2491
  826MPD2    H212154   2.544   3.774  14.320 -0.9401 -0.5418 -0.3145
  826MPD2    H312155   2.519   3.895  14.526 -1.3446 -0.2066  1.1329
  826MPD2     N12156   2.164   4.124  14.397 -0.3789  0.8218  0.1288
  826MPD2    H512157   2.189   4.190  14.470  1.6742 -0.4870  0.6118
  826MPD2    N112158   2.369   3.765  14.128  0.0197 -0.2618 -0.2057
  826MPD2    H712159   2.450   3.704  14.119  0.2473  0.0654 -0.3697
  827MPD2     C12160   4.018   4.420   9.899 -0.3398 -0.0414  0.0817
  827MPD2    C112161   3.919   4.368   9.982  0.0116  0.1492 -0.3874
  827MPD2    C212162   3.799   4.353   9.920 -0.2204 -0.1039 -0.5946
  827MPD2    C312163   3.770   4.385   9.788  0.2136  0.9662 -0.4892
  827MPD2    C412164   3.863   4.449   9.720  0.3324 -0.6846 -0.5638
  827MPD2    C512165   3.991   4.464   9.768  0.0266  0.1211 -0.1819
  827MPD2     H12166   3.713   4.324   9.980 -0.0013 -1.0093 -0.7149
  827MPD2    H112167   3.861   4.486   9.618 -1.5577  1.2635  0.1672
  827MPD2    H212168   4.121   4.433   9.932 -0.4695 -0.7075  0.7505
  827MPD2    H312169   4.073   4.512   9.716  1.8988 -2.0235  0.8308
  827MPD2     N12170   3.636   4.356   9.736 -0.4254  0.1135  0.5504
  827MPD2    H512171   3.568   4.308   9.794 -1.4788 -0.0835 -0.8591
  827MPD2    N112172   3.950   4.349  10.118  0.1116 -0.1139 -0.0805
  827MPD2    H712173   4.040   4.383  10.152  1.1971  0.0081 -3.0894
  828MPD2     C12174   2.198   0.159  12.616 -0.1049  0.0632  0.0686
  828MPD2    C112175   2.150   0.082  12.511 -0.5615  0.5451  0.7410
  828MPD2    C212176   2.228   0.063  12.407  0.2047 -0.6803  0.6679
  828MPD2    C312177   2.361   0.106  12.402 -0.3563 -0.0382  0.3223
  828MPD2    C412178   2.411   0.181  12.510 -0.3890  0.1565 -0.5699
  828MPD2    C512179   2.328   0.209  12.611 -0.3133 -0.0616  0.2742
  828MPD2     H12180   2.197   0.001  12.323 -0.6350 -0.1234  0.5685
  828MPD2    H112181   2.516   0.206  12.504 -0.8553  2.3987  0.5301
  828MPD2    H212182   2.138   0.184  12.703  0.1689 -2.6263  1.0299
  828MPD2    H312183   2.367   0.255  12.701  0.7061 -1.0603  0.3513
  828MPD2     N12184   2.441   0.086  12.286  0.2308  0.0483 -0.3529
  828MPD2    H512185   2.533   0.128  12.297  1.1420 -2.1385  0.2891
  828MPD2    N112186   2.023   0.028  12.516  0.1902 -0.7086  0.1121
  828MPD2    H712187   1.969   0.077  12.587 -0.5617  0.6302 -1.3657
  829MPD2     C12188   1.538   4.702  11.673 -0.6650 -0.6231  0.2976
  829MPD2    C112189   1.450   4.644  11.763  0.6277  0.3777  0.0543
  829MPD2    C212190   1.486   4.625  11.895  1.1233  0.4137  0.1535
  829MPD2    C312191   1.610   4.663  11.935  0.6441  0.4022 -0.1889
  829MPD2    C412192   1.700   4.702  11.841  0.0345  0.3541  1.3187
  829MPD2    C512193   1.664   4.722  11.715  0.4872 -0.2552 -0.6321
  829MPD2     H12194   1.399   4.606  11.958  0.1067 -1.1941 -1.7225
  829MPD2    H112195   1.802   0.005  11.867 -0.1250  0.6903  1.6014
  829MPD2    H212196   1.511   0.003  11.571 -0.5485  0.3380  0.5078
  829MPD2    H312197   1.735   0.047  11.649  0.5266 -1.5132 -1.5306
  829MPD2     N12198   1.643   4.671  12.065  0.2286  0.3870 -0.1689
  829MPD2    H512199   1.738   4.702  12.085  0.4541  1.1623 -2.3963
  829MPD2    N112200   1.315   4.634  11.729  0.1217 -0.0976 -0.3232
  829MPD2    H712201   1.295   4.693  11.649  0.0968 -0.0913 -0.3123
  830MPD2     C12202   2.122   2.964  15.457  0.6431 -0.3839 -0.4354
  830MPD2    C112203   2.023   3.066  15.469 -0.3424  0.3221  0.1588
  830MPD2    C212204   2.042   3.183  15.400 -0.3103 -0.0977  0.4770
  830MPD2    C312205   2.148   3.188  15.310  0.2335 -0.0520  0.0348
  830MPD2    C412206   2.245   3.094  15.294 -0.0916 -0.0060 -0.1117
  830MPD2    C512207   2.232   2.978  15.371 -0.3401  0.5543 -0.6153
  830MPD2     H12208   1.963   3.257  15.403  0.6725  1.0220 -1.3655
  830MPD2    H112209   2.339   3.103  15.241  0.0864 -0.1214  0.1831
  830MPD2    H212210   2.112   2.874  15.515 -2.5015  0.2534  0.0203
  830MPD2    H312211   2.313   2.907  15.372 -1.1865 -0.4216 -3.2848
  830MPD2     N12212   2.156   3.308  15.235  0.1137 -0.2628 -0.3856
  830MPD2    H512213   2.073   3.367  15.238  0.0751 -0.3750  0.5475
  830MPD2    N112214   1.920   3.040  15.563  0.2198 -0.1054 -0.4825
  830MPD2    H712215   1.927   2.953  15.615  1.7642 -0.3307 -1.0726
  831MPD2     C12216   2.028   4.616  16.368  0.4194  0.0103  0.1188
  831MPD2    C112217   2.069   4.543  16.264 -0.0748  0.0988  0.0713
  831MPD2    C212218   1.986   4.437  16.233  0.0024 -0.1166 -0.2782
  831MPD2    C312219   1.878   4.389  16.309  0.4364  0.6285 -0.2149
  831MPD2    C412220   1.849   4.466  16.422 -0.5238  0.3313 -0.2457
  831MPD2    C512221   1.926   4.571  16.450  0.1158  0.2493 -0.2074
  831MPD2     H12222   2.005   4.381  16.142 -0.6388  1.8318 -1.6289
  831MPD2    H112223   1.758   4.441  16.476 -0.9236 -1.2652 -1.6547
  831MPD2    H212224   2.081   4.707  16.392 -1.2502  0.7549  1.0231
  831MPD2    H312225   1.890   4.630  16.533 -0.5984 -1.0281  0.3795
  831MPD2     N12226   1.781   4.297  16.251 -0.4386  0.3042  0.0390
  831MPD2    H512227   1.695   4.280  16.303 -0.1976 -0.2889  0.2426
  831MPD2    N112228   2.181   4.579  16.191  0.3002 -0.6334  0.1865
  831MPD2    H712229   2.229   4.667  16.210  1.0581 -1.0858  0.3556
  832MPD2     C12230   0.471   0.738  17.229  0.1187 -0.2650  0.3387
  832MPD2    C112231   0.431   0.867  17.207  0.2066  0.5023 -0.1944
  832MPD2    C212232   0.336   0.892  17.107 -0.4645 -0.6361  0.5216
  832MPD2    C312233   0.285   0.786  17.030 -0.6089 -0.0122  0.4097
  832MPD2    C412234   0.323   0.654  17.056 -0.1168  0.6158  0.6348
  832MPD2    C512235   0.419   0.637  17.155  0.1402  0.0664  0.5969
  832MPD2     H12236   0.284   0.987  17.113  1.7751  0.6698 -0.8256
  832MPD2    H112237   0.273   0.573  17.005 -0.9089  0.1444  2.1612
  832MPD2    H212238   0.538   0.711  17.310  0.5374  1.0330  0.4272
  832MPD2    H312239   0.446   0.537  17.185 -1.2097 -0.4535  0.0665
  832MPD2     N12240   0.169   0.795  16.946  0.5958  0.6738  0.9350
  832MPD2    H512241   0.119   0.710  16.920 -0.3638  1.5565 -0.1370
  832MPD2    N112242   0.481   0.973  17.290 -0.4844 -0.1052 -0.2448
  832MPD2    H712243   0.531   0.946  17.374  2.6180  1.2511 -1.6998
  833MPD2     C12244   2.386   2.141  12.726  0.4499  0.2246  0.3491
  833MPD2    C112245   2.353   2.215  12.615  0.4426  0.2048  0.6307
  833MPD2    C212246   2.416   2.192  12.491 -0.2373 -0.6364  0.0212
  833MPD2    C312247   2.518   2.100  12.482  0.0562  0.0073 -0.0026
  833MPD2    C412248   2.550   2.019  12.590 -0.4680  0.3884 -0.2206
  833MPD2    C512249   2.490   2.044  12.712 -1.0359 -0.1454  0.2925
  833MPD2     H12250   2.381   2.238  12.399 -2.7551 -1.2550  0.6824
  833MPD2    H112251   2.628   1.944  12.585 -1.7282 -0.9162 -0.5177
  833MPD2    H212252   2.330   2.149  12.819 -1.7057 -1.6766 -0.7761
  833MPD2    H312253   2.510   1.991  12.804 -1.2168 -3.4556 -1.5774
  833MPD2     N12254   2.591   2.074  12.367 -0.0861 -0.3981  0.0701
  833MPD2    H512255   2.645   1.988  12.365 -1.6915 -1.3678 -1.9504
  833MPD2    N112256   2.268   2.324  12.629 -0.5951 -0.3473  0.0086
  833MPD2    H712257   2.214   2.329  12.715  1.9208  1.6453  1.4492
  834MPD2     C12258   2.537   1.470  11.557 -0.2720 -0.0263 -0.5501
  834MPD2    C112259   2.578   1.584  11.484 -0.1769  0.3256  0.0271
  834MPD2    C212260   2.612   1.703  11.555 -0.1766 -1.4827 -0.4076
  834MPD2    C312261   2.607   1.718  11.696 -0.1134  0.3411  0.1838
  834MPD2    C412262   2.561   1.606  11.759 -0.7944  0.1402  0.3425
  834MPD2    C512263   2.530   1.487  11.691  0.4804 -0.0947 -0.0104
  834MPD2     H12264   2.638   1.794  11.503  0.4309 -0.5816  1.4436
  834MPD2    H112265   2.543   1.595  11.866 -4.9456  0.2742 -0.3389
  834MPD2    H212266   2.519   1.374  11.509  0.4039 -0.4214 -0.0111
  834MPD2    H312267   2.528   1.401  11.756 -0.8336 -0.3767 -0.4330
  834MPD2     N12268   2.637   1.838  11.763  0.2014 -0.4990 -0.3281
  834MPD2    H512269   2.651   1.916  11.701  0.7732 -0.2004  0.1816
  834MPD2    N112270   2.581   1.563  11.342  0.2492  0.4424 -0.5474
  834MPD2    H712271   2.535   1.478  11.310 -2.4605  1.7432 -0.0861
  835MPD2     C12272   3.117   4.658  11.624 -0.1380 -0.0471 -0.3343
  835MPD2    C112273   3.036   0.049  11.633  0.6195  0.3016 -0.0253
  835MPD2    C212274   3.048   0.125  11.754 -0.5941  0.5499  0.2812
  835MPD2    C312275   3.121   0.084  11.863 -0.0166 -0.1412 -0.2929
  835MPD2    C412276   3.194   4.692  11.849 -0.1129 -0.2274 -0.2076
  835MPD2    C512277   3.187   4.620  11.729 -0.7326 -0.0750 -0.0123
  835MPD2     H12278   2.990   0.216  11.763  0.7955  1.4509  0.1439
  835MPD2    H112279   3.250   4.652  11.933 -0.9868 -0.2097  0.3804
  835MPD2    H212280   3.131   4.596  11.536 -1.5727 -0.7642 -0.0587
  835MPD2    H312281   3.244   4.528  11.725 -0.6940 -0.0127 -0.9801
  835MPD2     N12282   3.133   0.165  11.974 -0.5142 -0.4100 -0.0284
  835MPD2    H512283   3.205   0.138  12.040 -0.1914 -1.7310 -0.9350
  835MPD2    N112284   2.953   0.099  11.529 -0.1309 -0.2340 -0.2989
  835MPD2    H712285   2.893   0.177  11.555  0.2214 -0.0634 -0.0118
  836MPD2     C12286   2.563   0.338  11.913  0.1376 -0.3222 -0.3187
  836MPD2    C112287   2.574   0.350  12.048  0.2180  0.2324  0.2568
  836MPD2    C212288   2.461   0.375  12.121  0.6391  0.6511 -0.0417
  836MPD2    C312289   2.334   0.387  12.064 -0.2854 -0.2035 -0.4521
  836MPD2    C412290   2.324   0.363  11.932 -0.2360  0.7842  0.5270
  836MPD2    C512291   2.436   0.343  11.855  0.4343 -0.0872 -0.1649
  836MPD2     H12292   2.459   0.388  12.229 -1.3771  0.9042 -0.1055
  836MPD2    H112293   2.229   0.370  11.880 -0.3602 -2.7093  0.2384
  836MPD2    H212294   2.647   0.310  11.851  0.4495  0.1044 -0.0922
  836MPD2    H312295   2.431   0.328  11.748 -1.8114 -2.9454  0.3179
  836MPD2     N12296   2.209   0.401  12.135  0.0752 -0.2807 -0.2180
  836MPD2    H512297   2.130   0.390  12.073  1.4425 -1.0178 -1.8369
  836MPD2    N112298   2.703   0.347  12.105 -0.1443 -0.5425  0.5637
  836MPD2    H712299   2.784   0.321  12.049 -0.2755 -1.3222  0.7420
  837MPD2     C12300   1.067   3.901   9.802 -0.8639 -0.2105 -0.7397
  837MPD2    C112301   0.945   3.937   9.745  0.3120  0.4368  0.1800
  837MPD2    C212302   0.923   4.070   9.709  0.0663  0.1623 -0.4371
  837MPD2    C312303   1.028   4.165   9.713  0.5047 -0.4740 -0.3754
  837MPD2    C412304   1.143   4.136   9.770 -0.3161 -0.7277 -0.5665
  837MPD2    C512305   1.162   4.000   9.801 -0.0124  0.5167 -0.4155
  837MPD2     H12306   0.826   4.102   9.674  0.4663 -0.2185 -1.8782
  837MPD2    H112307   1.221   4.211   9.776  0.2651 -1.3721 -0.0590
  837MPD2    H212308   1.096   3.800   9.829  2.3907  0.1785 -2.8570
  837MPD2    H312309   1.263   3.981   9.835 -0.0373 -2.3380 -1.9104
  837MPD2     N12310   0.976   4.289   9.678  0.4343  0.3106 -0.2227
  837MPD2    H512311   0.877   4.288   9.652  0.1638  1.3006  0.7987
  837MPD2    N112312   0.843   3.844   9.715  0.1446 -0.7309 -0.1178
  837MPD2    H712313   0.754   3.884   9.687 -0.8297 -1.4779  1.8862
  838MPD2     C12314   4.031   3.244  12.060  0.2938 -0.3025 -0.3966
  838MPD2    C112315   4.020   3.104  12.064  0.6323  0.2087  0.1730
  838MPD2    C212316   3.922   3.043  12.145  0.1277  0.3013 -0.0713
  838MPD2    C312317   3.825   3.124  12.200 -0.1553 -0.1343 -0.3929
  838MPD2    C412318   3.838   3.263  12.185  0.8644  0.4634 -0.2522
  838MPD2    C512319   3.946   3.323  12.127 -0.6261 -0.2850 -0.5225
  838MPD2     H12320   3.919   2.935  12.150 -2.9224  0.2456 -3.2145
  838MPD2    H112321   3.776   3.340  12.229  0.3993 -0.4650  0.7193
  838MPD2    H212322   4.109   3.296  12.004 -0.6273  0.8695 -0.6003
  838MPD2    H312323   3.967   3.429  12.125 -0.2953 -0.3399  0.1306
  838MPD2     N12324   3.725   3.061  12.283 -0.3018  0.1192 -0.8076
  838MPD2    H512325   3.738   2.962  12.301  0.2742 -0.1686 -2.8357
  838MPD2    N112326   4.120   3.027  11.997  0.5679 -0.1369 -0.7875
  838MPD2    H712327   4.124   2.929  12.024 -2.2943 -0.3275 -1.0299
  839MPD2     C12328   3.887   2.271  11.899  0.8546 -0.4791 -0.7130
  839MPD2    C112329   3.902   2.340  11.784 -0.6203 -0.2305 -0.2148
  839MPD2    C212330   4.012   2.421  11.769 -0.3324  1.1813  0.2771
  839MPD2    C312331   4.094   2.453  11.876  0.1563 -0.1842  1.3023
  839MPD2    C412332   4.071   2.384  11.990 -0.1167  0.7710 -0.4394
  839MPD2    C512333   3.968   2.294  12.004  0.0113 -0.1673 -0.3208
  839MPD2     H12334   4.020   2.458  11.668  0.4328 -1.7714 -0.7129
  839MPD2    H112335   4.118   2.397  12.087  2.2772 -0.5134 -1.4279
  839MPD2    H212336   3.800   2.210  11.918 -0.5164  1.3472 -1.0783
  839MPD2    H312337   3.959   2.247  12.101 -0.1216 -1.6675 -1.0684
  839MPD2     N12338   4.189   2.560  11.872  0.0681  0.1288 -0.3012
  839MPD2    H512339   4.221   2.599  11.960 -1.9520 -2.1543  1.4233
  839MPD2    N112340   3.817   2.323  11.676  0.0308 -1.0706  0.1588
  839MPD2    H712341   3.853   2.339  11.582 -0.4453 -0.7939  0.0237
  840MPD2     C12342   4.436   4.661  10.313 -0.6751 -0.0776 -0.3832
  840MPD2    C112343   4.370   4.650  10.431 -0.0092  0.0565 -0.1232
  840MPD2    C212344   4.408   0.007  10.537  0.3628  0.0627  0.2984
  840MPD2    C312345   4.519   0.097  10.522  0.4827  0.0960  0.1986
  840MPD2    C412346   4.599   0.092  10.406  0.1275 -0.3385  0.5728
  840MPD2    C512347   4.559   0.005  10.303 -0.2406  0.5478 -0.0248
  840MPD2     H12348   4.339   0.002  10.620 -0.7780 -1.3521 -0.7352
  840MPD2    H112349   4.691   0.148  10.395  0.4486 -0.6227  1.7772
  840MPD2    H212350   4.397   4.606  10.228  0.5063 -2.2559  0.4618
  840MPD2    H312351   4.618   4.719  10.213  0.7604 -0.4447  0.7333
  840MPD2     N12352   4.547   0.196  10.620  0.6722  0.9989 -0.5341
  840MPD2    H512353   4.624   0.258  10.596  1.8812 -0.8902 -1.4701
  840MPD2    N112354   4.250   4.565  10.428 -0.8231 -0.0307 -0.7827
  840MPD2    H712355   4.240   4.516  10.339  1.8315 -1.5343 -0.2331
  841MPD2     C12356   3.566   0.754  14.969  0.0733 -0.0637  0.3998
  841MPD2    C112357   3.627   0.626  14.959 -0.0809  0.6543  0.4182
  841MPD2    C212358   3.744   0.618  14.892  0.3236 -0.0839  0.2448
  841MPD2    C312359   3.817   0.728  14.852 -0.1769  0.6109  0.1818
  841MPD2    C412360   3.752   0.854  14.858 -0.2653 -0.6194  0.3426
  841MPD2    C512361   3.627   0.861  14.912  0.4060 -0.6012  0.9663
  841MPD2     H12362   3.794   0.522  14.896 -1.6927 -1.1188  0.4021
  841MPD2    H112363   3.797   0.946  14.823  0.0762 -0.6021  0.8340
  841MPD2    H212364   3.472   0.766  15.022 -0.6731 -0.5616 -0.8268
  841MPD2    H312365   3.579   0.958  14.921 -0.3277 -0.8571 -0.1601
  841MPD2     N12366   3.950   0.715  14.817 -0.2424 -0.4093 -0.1728
  841MPD2    H512367   3.989   0.628  14.782  1.8812  0.2230  0.6241
  841MPD2    N112368   3.576   0.504  15.017 -0.4475  0.1414 -0.4311
  841MPD2    H712369   3.645   0.429  15.017 -2.8416 -2.0645  0.6721
  842MPD2     C12370   4.534   1.252  16.901  0.0621 -0.0715  0.1730
  842MPD2    C112371   4.415   1.173  16.883  0.3524  0.1120 -0.8035
  842MPD2    C212372   4.391   1.074  16.977 -0.0361  0.0778  0.1415
  842MPD2    C312373   4.482   1.061  17.085  1.3569 -0.3264  0.1278
  842MPD2    C412374   4.585   1.142  17.104  0.0695 -0.1363  0.4934
  842MPD2    C512375   4.615   1.238  17.009 -0.2182  0.7017  0.3539
  842MPD2     H12376   4.315   0.999  16.956  0.1422  0.2017 -0.9482
  842MPD2    H112377   4.651   1.128  17.188 -2.2895 -0.0355  2.3618
  842MPD2    H212378   4.561   1.336  16.838  0.3068 -0.2884 -0.0110
  842MPD2    H312379   4.697   1.307  17.023 -0.5836  0.8455  1.7077
  842MPD2     N12380   4.465   0.957  17.182  0.2864  0.1634  0.1682
  842MPD2    H512381   4.542   0.940  17.247  0.6765 -0.5709 -0.4807
  842MPD2    N112382   4.335   1.200  16.770 -0.4226 -0.2396  0.2062
  842MPD2    H712383   4.359   1.287  16.723 -0.3780  0.5747  1.7362
  843MPD2     C12384   1.074   1.757  17.657  0.3047 -0.3537 -0.4860
  843MPD2    C112385   1.135   1.734   0.080  0.4231 -0.0985  0.1386
  843MPD2    C212386   1.238   1.819   0.133 -0.1005 -0.2895 -0.3307
  843MPD2    C312387   1.276   1.924   0.061 -0.0453 -0.7656 -0.0183
  843MPD2    C412388   1.217   1.943  17.634 -0.0024 -0.5319  0.1140
  843MPD2    C512389   1.116   1.868  17.585  0.7768  0.2460  0.3395
  843MPD2     H12390   1.290   1.801   0.226 -1.7776  0.2503  0.6980
  843MPD2    H112391   1.252   2.017  17.563 -0.5631 -0.4824 -0.1157
  843MPD2    H212392   1.007   1.683  17.615 -0.1359  1.1420 -2.4775
  843MPD2    H312393   1.084   1.872  17.481  0.4285  0.1866  0.4458
  843MPD2     N12394   1.389   2.014   0.095  0.1308  0.2437 -0.0589
  843MPD2    H512395   1.412   2.081   0.023  0.2488 -1.3728 -1.5462
  843MPD2    N112396   1.100   1.616   0.149 -0.6311  0.1018  0.1613
  843MPD2    H712397   1.031   1.559   0.100 -0.3890  1.9637 -2.3883
  844MPD2     C12398   0.046   0.755  16.256 -0.6063  0.0437  0.6545
  844MPD2    C112399   0.119   0.656  16.313  0.2289  0.0592 -0.0502
  844MPD2    C212400   0.192   0.690  16.424 -0.9430  0.4249  0.6228
  844MPD2    C312401   0.190   0.814  16.487 -0.1942  0.1411  0.1752
  844MPD2    C412402   0.110   0.906  16.421 -0.2845  0.0358 -0.2739
  844MPD2    C512403   0.036   0.879  16.312 -0.1912  0.1802  0.1230
  844MPD2     H12404   0.255   0.618  16.475  0.3784  1.3938  0.3528
  844MPD2    H112405   0.104   1.012  16.445  2.6947 -0.3432  2.1717
  844MPD2    H212406   4.719   0.738  16.162 -2.2401  0.8623  1.3878
  844MPD2    H312407   4.706   0.957  16.260  1.5040  0.4220 -1.2575
  844MPD2     N12408   0.281   0.851  16.587 -0.1228 -0.0270  0.2131
  844MPD2    H512409   0.330   0.786  16.647  1.1311  1.6066  0.9785
  844MPD2    N112410   0.146   0.537  16.241 -0.0456 -0.4998  0.3510
  844MPD2    H712411   0.115   0.536  16.144 -0.4512  0.0534  0.4727
  845MPD2     C12412   0.360   1.756  16.861  0.3803 -0.3409 -0.9518
  845MPD2    C112413   0.399   1.683  16.967 -0.4852  1.0294 -0.2039
  845MPD2    C212414   0.452   1.553  16.956  0.3163 -0.5006  0.3686
  845MPD2    C312415   0.485   1.506  16.825  0.2310  0.4865 -0.7577
  845MPD2    C412416   0.445   1.587  16.716 -0.3040  0.2753  0.0503
  845MPD2    C512417   0.380   1.704  16.734  0.4518 -1.1531 -0.1417
  845MPD2     H12418   0.495   1.496  17.037 -1.1556  0.3882  1.7747
  845MPD2    H112419   0.477   1.575  16.613 -0.6673 -0.1932 -0.0059
  845MPD2    H212420   0.319   1.855  16.876  1.4986 -0.2570  1.4977
  845MPD2    H312421   0.371   1.778  16.655 -1.0044 -0.7085  0.4492
  845MPD2     N12422   0.549   1.385  16.789 -0.1965  0.7758  0.1375
  845MPD2    H512423   0.551   1.357  16.691  0.2718  0.1749  0.3200
  845MPD2    N112424   0.371   1.743  17.093 -0.1999  0.5412  0.0843
  845MPD2    H712425   0.333   1.836  17.080 -2.1741 -0.1543  0.9895
  846MPD2     C12426   1.692   1.749  14.043 -0.9313 -0.0778  0.7822
  846MPD2    C112427   1.644   1.880  14.036 -0.2487 -0.2642 -0.4963
  846MPD2    C212428   1.635   1.954  14.150 -0.5281  0.5711 -0.2628
  846MPD2    C312429   1.683   1.907  14.270 -0.2305 -0.4128 -0.4682
  846MPD2    C412430   1.742   1.784  14.273 -0.1165 -0.0267  0.2596
  846MPD2    C512431   1.744   1.701  14.163 -0.7046 -0.4888 -0.2264
  846MPD2     H12432   1.608   2.058  14.139  1.4422  1.3274  2.4000
  846MPD2    H112433   1.793   1.747  14.361  2.0225 -1.4532 -1.5689
  846MPD2    H212434   1.688   1.683  13.957  0.5554  1.2700 -0.3033
  846MPD2    H312435   1.796   1.606  14.167 -0.5401 -0.4124 -0.5306
  846MPD2     N12436   1.677   1.988  14.389 -0.2319 -0.4596 -0.0691
  846MPD2    H512437   1.602   2.055  14.378  1.0453  1.0560  0.5990
  846MPD2    N112438   1.598   1.944  13.916 -0.1343  1.0353 -0.1243
  846MPD2    H712439   1.560   2.037  13.929  0.0155  0.8779  1.4559
  847MPD2     C12440   2.023   2.693  14.151  0.7785  0.0856  0.6423
  847MPD2    C112441   2.036   2.772  14.265 -0.0042 -0.0669 -0.2958
  847MPD2    C212442   2.074   2.702  14.373  0.6600 -0.2424 -0.2123
  847MPD2    C312443   2.091   2.566  14.383 -0.3222  0.2816  0.3536
  847MPD2    C412444   2.094   2.492  14.267 -0.4930  0.4234 -0.5492
  847MPD2    C512445   2.052   2.560  14.159 -0.1878 -0.6055  0.0307
  847MPD2     H12446   2.082   2.760  14.464 -3.5345  0.0066 -0.0068
  847MPD2    H112447   2.122   2.387  14.262 -2.7848 -0.2391  0.6849
  847MPD2    H212448   1.987   2.729  14.055  0.3408  1.6684  1.4005
  847MPD2    H312449   2.058   2.510  14.063 -0.0361 -0.8984  0.1949
  847MPD2     N12450   2.103   2.509  14.512 -0.4116  0.0702 -0.1784
  847MPD2    H512451   2.092   2.580  14.583  1.8111  1.6802 -1.4248
  847MPD2    N112452   2.012   2.907  14.277  0.1029  0.1282  0.4152
  847MPD2    H712453   2.031   2.948  14.368 -0.0542  0.9941  0.0602
  848MPD2     C12454   4.583   1.177  16.278 -0.4361 -0.4106 -0.3977
  848MPD2    C112455   4.630   1.234  16.396 -0.1492 -0.0328  0.1987
  848MPD2    C212456   4.671   1.367  16.395  0.4221  0.2362  0.7270
  848MPD2    C312457   4.671   1.442  16.273  0.0417  0.6139  1.0698
  848MPD2    C412458   4.637   1.379  16.160  0.5244  0.0518 -0.1121
  848MPD2    C512459   4.585   1.250  16.158  0.0838 -0.0527 -0.3682
  848MPD2     H12460   4.709   1.414  16.485  0.5585  0.0391  0.7711
  848MPD2    H112461   4.633   1.438  16.069 -0.3379  1.3150  0.7531
  848MPD2    H212462   4.535   1.079  16.281 -0.8891 -0.1573  0.7093
  848MPD2    H312463   4.558   1.208  16.062 -0.8210 -0.7015  0.1703
  848MPD2     N12464   4.711   1.579  16.269  0.1664 -0.8304 -0.2376
  848MPD2    H512465   4.703   1.626  16.180 -1.6067 -0.2017  0.2425
  848MPD2    N112466   4.624   1.166  16.520 -0.6354  0.0558 -0.6336
  848MPD2    H712467   4.688   1.199  16.592 -0.8913  1.1877 -0.9112
  849MPD2     C12468   4.313   1.319  13.607  0.3513 -0.4528  0.1633
  849MPD2    C112469   4.287   1.184  13.641  0.2752  0.2357  0.0106
  849MPD2    C212470   4.226   1.164  13.759 -0.3352  0.0097 -0.4698
  849MPD2    C312471   4.202   1.269  13.847  0.5146  0.2399 -0.0734
  849MPD2    C412472   4.237   1.398  13.818 -0.0811  0.2863 -0.6177
  849MPD2    C512473   4.284   1.427  13.690  0.6969 -0.6835 -1.0039
  849MPD2     H12474   4.214   1.061  13.791  1.1746  0.7927  2.5496
  849MPD2    H112475   4.237   1.479  13.890 -2.8548  1.8280 -2.3505
  849MPD2    H212476   4.364   1.346  13.515  0.1242 -0.4764  0.0298
  849MPD2    H312477   4.308   1.525  13.651 -2.0697  0.9465  1.3822
  849MPD2     N12478   4.149   1.257  13.979  0.5658  0.2652  0.8293
  849MPD2    H512479   4.132   1.334  14.043  3.1508  1.2756  0.3218
  849MPD2    N112480   4.337   1.078  13.561 -0.0926  0.1501 -0.0384
  849MPD2    H712481   4.364   1.104  13.466  1.4461  2.3664  0.9852
  850MPD2     C12482   1.719   4.126  14.635 -0.3240  0.2522  0.1765
  850MPD2    C112483   1.737   4.131  14.772  0.1328  0.6892  0.5405
  850MPD2    C212484   1.853   4.084  14.831  0.1392  0.2107 -0.1431
  850MPD2    C312485   1.961   4.038  14.763 -0.5568  0.3524  0.3300
  850MPD2    C412486   1.939   4.022  14.622  0.5109  0.3889  0.0687
  850MPD2    C512487   1.819   4.064  14.565 -0.1703 -0.1149  0.8577
  850MPD2     H12488   1.854   4.102  14.938 -1.1535  1.5741 -0.3628
  850MPD2    H112489   2.003   3.968  14.553  2.7021 -0.1508  2.5457
  850MPD2    H212490   1.626   4.157  14.588 -0.7879 -0.5273  0.5627
  850MPD2    H312491   1.799   4.041  14.461  2.4095 -0.6288  0.4748
  850MPD2     N12492   2.079   3.994  14.826 -0.1026 -0.4617  0.5620
  850MPD2    H512493   2.162   3.980  14.770  0.9006  0.4579  1.8237
  850MPD2    N112494   1.638   4.178  14.860 -0.2275  0.0981  0.0798
  850MPD2    H712495   1.656   4.166  14.959 -2.3959  1.3708  0.6142
  851MPD2     C12496   1.802   4.118  15.541 -0.1001 -0.1954  0.6598
  851MPD2    C112497   1.776   4.121  15.410 -0.4756  0.0771 -0.2695
  851MPD2    C212498   1.848   4.028  15.338 -0.0361 -0.7739  0.1464
  851MPD2    C312499   1.929   3.932  15.387  0.4780 -0.4097  0.2522
  851MPD2    C412500   1.947   3.941  15.520 -0.2901 -0.1743  0.6165
  851MPD2    C512501   1.886   4.030  15.598  0.2997  0.2615  0.0433
  851MPD2     H12502   1.838   4.035  15.230  0.5051  0.7158  0.1809
  851MPD2    H112503   2.016   3.873  15.569  1.7005  0.4292 -1.4013
  851MPD2    H212504   1.748   4.188  15.604 -1.9196 -0.3166 -0.7691
  851MPD2    H312505   1.919   4.039  15.701 -0.7956 -1.7618  0.5602
  851MPD2     N12506   1.990   3.847  15.296  0.2692 -0.6815 -0.2527
  851MPD2    H512507   1.972   3.861  15.197  1.0955 -0.0981 -0.3211
  851MPD2    N112508   1.678   4.207  15.353 -0.8150  0.1458 -0.4653
  851MPD2    H712509   1.643   4.286  15.406  0.1722  0.3219 -0.0892
  852MPD2     C12510   1.378   1.565   9.799  0.3312 -0.9668  0.4890
  852MPD2    C112511   1.471   1.499   9.870  0.3936 -0.4732 -0.2556
  852MPD2    C212512   1.602   1.486   9.832 -0.0714 -0.4999  0.5513
  852MPD2    C312513   1.646   1.547   9.714  0.7088 -0.2386  0.3326
  852MPD2    C412514   1.556   1.629   9.645  0.0219 -0.4002  0.4934
  852MPD2    C512515   1.420   1.630   9.683 -0.1122  0.5763 -0.8732
  852MPD2     H12516   1.670   1.429   9.894 -0.6034 -1.6134  0.1062
  852MPD2    H112517   1.582   1.688   9.557 -0.2574  1.8684  1.9334
  852MPD2    H212518   1.278   1.577   9.839  0.7546  0.8178  1.0344
  852MPD2    H312519   1.347   1.685   9.624 -1.7697  0.3463  0.9725
  852MPD2     N12520   1.782   1.537   9.679 -0.4630  0.4583  0.5609
  852MPD2    H512521   1.833   1.471   9.736 -0.3034  1.7238  1.8769
  852MPD2    N112522   1.443   1.445  10.004 -0.2692 -0.2013 -0.0605
  852MPD2    H712523   1.516   1.388  10.046  0.4355 -0.6159 -1.8362
  853MPD2     C12524   4.004   1.685  12.279  0.0012 -0.1792 -0.5191
  853MPD2    C112525   3.867   1.691  12.257 -0.2188 -0.0726 -0.5192
  853MPD2    C212526   3.808   1.666  12.134 -0.7356 -0.0984 -0.5625
  853MPD2    C312527   3.884   1.629  12.022 -0.2531  0.1428  0.4686
  853MPD2    C412528   4.024   1.632  12.046  0.4679 -0.3483  0.0120
  853MPD2    C512529   4.080   1.655  12.171  0.0184 -1.6466 -0.4617
  853MPD2     H12530   3.701   1.676  12.122 -0.7092 -1.0565 -1.6083
  853MPD2    H112531   4.089   1.622  11.959  1.1233 -0.6870  0.5404
  853MPD2    H212532   4.057   1.707  12.371 -0.1357 -0.7762 -0.2950
  853MPD2    H312533   4.186   1.651  12.191 -0.0683 -1.2623  0.0626
  853MPD2     N12534   3.828   1.609  11.895  0.1415 -0.4399 -0.1783
  853MPD2    H512535   3.892   1.583  11.820 -0.5396 -2.3238 -0.1218
  853MPD2    N112536   3.800   1.744  12.371  0.2700 -0.5022  0.0348
  853MPD2    H712537   3.843   1.727  12.461  0.2459 -0.1539  0.1095
  854MPD2     C12538   0.253   1.272  12.613 -0.8041  0.2070  0.4464
  854MPD2    C112539   0.280   1.386  12.683  0.5119  0.0390  0.0580
  854MPD2    C212540   0.411   1.407  12.732  0.0876  0.6139  0.1499
  854MPD2    C312541   0.508   1.315  12.701 -0.6585 -0.4355 -0.7084
  854MPD2    C412542   0.478   1.203  12.627 -0.7254 -0.0598  0.2558
  854MPD2    C512543   0.348   1.174  12.597 -0.8263  0.4161 -0.0806
  854MPD2     H12544   0.426   1.505  12.775 -0.8518  1.4513 -1.4607
  854MPD2    H112545   0.554   1.131  12.599 -0.6111 -1.1045  3.2296
  854MPD2    H212546   0.157   1.260  12.564  0.1329  0.9984 -1.5829
  854MPD2    H312547   0.322   1.078  12.552 -0.8756 -0.1973  1.2735
  854MPD2     N12548   0.646   1.331  12.730  0.5097  0.4165 -0.4268
  854MPD2    H512549   0.701   1.249  12.707 -1.2322 -0.7688 -0.3915
  854MPD2    N112550   0.180   1.480  12.720  0.7220 -0.5922  0.1620
  854MPD2    H712551   0.206   1.563  12.773 -0.9457  0.8518 -1.2825
  855MPD2     C12552   0.855   1.670  13.509  0.0231 -0.2588 -0.0009
  855MPD2    C112553   0.958   1.587  13.459  0.6099 -0.0342 -0.0800
  855MPD2    C212554   1.003   1.595  13.333 -0.1744 -0.1737 -0.4212
  855MPD2    C312555   0.945   1.687  13.245  0.0132 -1.0359  0.6364
  855MPD2    C412556   0.834   1.759  13.287  0.3900  1.0072 -0.2152
  855MPD2    C512557   0.783   1.746  13.419 -0.1975 -0.6658 -0.6732
  855MPD2     H12558   1.076   1.524  13.298 -0.5065 -1.5093  1.6246
  855MPD2    H112559   0.780   1.822  13.217 -2.5185  0.5700  1.6534
  855MPD2    H212560   0.819   1.671  13.611 -0.0721 -2.5095 -0.0158
  855MPD2    H312561   0.689   1.793  13.446  1.9472  2.4065  1.3893
  855MPD2     N12562   0.977   1.683  13.108 -0.0341 -0.0179  0.4810
  855MPD2    H512563   0.916   1.738  13.049  1.8731  0.3987 -1.1183
  855MPD2    N112564   1.010   1.484  13.547  0.3091 -0.6068  0.1257
  855MPD2    H712565   1.084   1.432  13.502  2.2825  0.2306  2.4057
  856MPD2     C12566   2.585   2.241  14.235 -0.0968 -0.3420  0.4897
  856MPD2    C112567   2.644   2.357  14.219  0.6003  0.3440 -0.3305
  856MPD2    C212568   2.568   2.455  14.165 -0.1213  0.3383  0.5545
  856MPD2    C312569   2.441   2.437  14.126  0.3770  0.4036  0.1801
  856MPD2    C412570   2.384   2.314  14.159  0.4882 -0.0353 -0.1500
  856MPD2    C512571   2.457   2.213  14.212 -0.5889 -0.3018 -0.5204
  856MPD2     H12572   2.621   2.545  14.137 -1.3397  0.2660 -1.9785
  856MPD2    H112573   2.278   2.300  14.141  0.5742  1.1716 -1.6520
  856MPD2    H212574   2.631   2.155  14.281 -0.5126  0.2909  2.0912
  856MPD2    H312575   2.416   2.115  14.233 -3.2072  0.6519 -1.2603
  856MPD2     N12576   2.355   2.534  14.061 -0.4960 -0.1699  0.0326
  856MPD2    H512577   2.268   2.496  14.026  0.7141 -1.5348 -1.4632
  856MPD2    N112578   2.778   2.397  14.256  0.2911  0.2100 -0.2772
  856MPD2    H712579   2.810   2.486  14.217  2.3244 -0.4748 -0.1581
  857MPD2     C12580   4.238   4.384  12.715 -0.1555 -0.1320 -0.1790
  857MPD2    C112581   4.371   4.374  12.687  0.3744  0.4642  0.0549
  857MPD2    C212582   4.452   4.486  12.699  0.1350 -0.5370  0.1662
  857MPD2    C312583   4.398   4.613  12.730  0.4260 -0.6494 -0.0594
  857MPD2    C412584   4.262   4.618  12.757  0.1995  0.2171 -0.1069
  857MPD2    C512585   4.179   4.506  12.755  0.3943 -0.0784  0.3525
  857MPD2     H12586   4.559   4.472  12.706  0.4196  1.4929 -0.1599
  857MPD2    H112587   4.218   4.716  12.771 -1.8750 -0.7677  0.3406
  857MPD2    H212588   4.176   4.295  12.713 -0.2097 -0.0917 -0.3888
  857MPD2    H312589   4.073   4.512  12.773 -0.0567  0.8824 -2.6033
  857MPD2     N12590   4.483   0.003  12.729  0.3270  0.1835 -0.0988
  857MPD2    H512591   4.579   4.702  12.709  0.2812  0.1135 -0.2308
  857MPD2    N112592   4.424   4.244  12.659 -0.1276  0.6099 -0.9054
  857MPD2    H712593   4.357   4.167  12.664 -0.9746  1.5593  2.3550
  858MPD2     C12594   4.302   3.174  16.763 -0.2643  0.6368  0.0191
  858MPD2    C112595   4.409   3.127  16.840  0.3821  0.2106  0.4630
  858MPD2    C212596   4.507   3.215  16.891  0.4454  0.1448  1.1969
  858MPD2    C312597   4.508   3.346  16.854  0.1141  0.3135 -0.2444
  858MPD2    C412598   4.391   3.395  16.793  0.4262 -0.4370 -0.4271
  858MPD2    C512599   4.289   3.315  16.746  0.1580  0.4665  0.0754
  858MPD2     H12600   4.591   3.179  16.949 -0.1419 -1.9355  0.7626
  858MPD2    H112601   4.376   3.499  16.769  1.9331 -0.6876 -2.4564
  858MPD2    H212602   4.222   3.115  16.719  0.6704  0.1779 -1.0727
  858MPD2    H312603   4.207   3.352  16.685  0.2701  0.5611 -0.0189
  858MPD2     N12604   4.604   3.443  16.885 -1.0960  0.1820  0.4794
  858MPD2    H512605   4.579   3.541  16.877  0.2529  0.4943  0.0326
  858MPD2    N112606   4.398   2.998  16.887  0.0577 -0.1386 -0.0588
  858MPD2    H712607   4.325   2.946  16.840 -1.2045  1.0103  0.6489
  859MPD2     C12608   3.749   0.934  15.358  0.2877  0.5665  0.1132
  859MPD2    C112609   3.870   0.964  15.422  0.2808  0.2660  1.1203
  859MPD2    C212610   3.930   0.864  15.500  0.3457  0.8824  0.4755
  859MPD2    C312611   3.865   0.744  15.519  0.8359  0.0840  0.2799
  859MPD2    C412612   3.744   0.722  15.456  0.0360  0.1097  0.0601
  859MPD2    C512613   3.683   0.811  15.372  0.7335  0.1708 -0.2876
  859MPD2     H12614   4.032   0.870  15.536 -0.1054  2.1792  1.5465
  859MPD2    H112615   3.695   0.626  15.473  1.4732 -0.7622 -0.7843
  859MPD2    H212616   3.691   1.018  15.322  0.2942 -0.1338 -1.5688
  859MPD2    H312617   3.591   0.783  15.323 -0.0958  1.1663  0.7105
  859MPD2     N12618   3.915   0.634  15.585  0.4521  0.3080 -0.0909
  859MPD2    H512619   3.850   0.556  15.587  0.9807 -0.1959 -3.2584
  859MPD2    N112620   3.932   1.091  15.393  0.4726  0.4191  0.1825
  859MPD2    H712621   3.907   1.127  15.302 -1.1691  1.6277  1.1268
  860MPD2     C12622   1.561   0.746  11.505  0.4389  0.1381 -0.0256
  860MPD2    C112623   1.573   0.850  11.591 -0.7316 -0.0135 -0.6766
  860MPD2    C212624   1.494   0.861  11.700  0.4469  0.3775  0.1265
  860MPD2    C312625   1.400   0.768  11.729  0.9772 -0.5498 -0.4829
  860MPD2    C412626   1.390   0.657  11.652 -0.0219  0.5553  0.1681
  860MPD2    C512627   1.471   0.649  11.545 -0.3336  0.4397  0.0496
  860MPD2     H12628   1.504   0.950  11.760 -0.0319  1.0932 -0.8490
  860MPD2    H112629   1.324   0.572  11.664 -1.2151  1.5927  0.9876
  860MPD2    H212630   1.619   0.729  11.415  0.5462  1.1038 -0.1327
  860MPD2    H312631   1.459   0.560  11.485  2.0738 -0.5465  1.0192
  860MPD2     N12632   1.323   0.793  11.845 -0.0957  0.1019  0.4956
  860MPD2    H512633   1.316   0.883  11.889  0.0340 -0.3722  1.4837
  860MPD2    N112634   1.664   0.958  11.568  0.0618  0.4396  0.3419
  860MPD2    H712635   1.673   1.030  11.638  0.0128 -0.4590  1.2780
  861MPD2     C12636   0.790   4.217  11.029  0.2814  0.3307 -0.1028
  861MPD2    C112637   0.664   4.228  11.095  0.1924 -0.5507  0.0743
  861MPD2    C212638   0.552   4.288  11.030  0.4107 -0.0297  1.0968
  861MPD2    C312639   0.555   4.316  10.888 -0.0887 -0.2759  0.4793
  861MPD2    C412640   0.670   4.292  10.829 -0.1507  0.3386  0.1286
  861MPD2    C512641   0.784   4.251  10.891  0.3169  0.9481 -0.6167
  861MPD2     H12642   0.464   4.288  11.093 -0.5808  2.6430 -0.2968
  861MPD2    H112643   0.692   4.309  10.725  0.6750  2.2968  0.6125
  861MPD2    H212644   0.877   4.169  11.072  0.6285  0.9924 -0.0577
  861MPD2    H312645   0.871   4.226  10.831  0.4260  0.0666 -0.0888
  861MPD2     N12646   0.443   4.347  10.813  0.2868 -0.1690  0.0581
  861MPD2    H512647   0.455   4.333  10.714  0.7480  1.0403 -0.0473
  861MPD2    N112648   0.643   4.196  11.233 -0.0005  0.6413 -0.4767
  861MPD2    H712649   0.553   4.220  11.274 -0.8070 -2.0478 -0.6600
  862MPD2     C12650   0.146   4.407  10.146 -0.4493 -0.0785 -0.2063
  862MPD2    C112651   0.246   4.373  10.239  0.4694 -0.5290  0.2072
  862MPD2    C212652   0.312   4.251  10.227  0.2449 -0.9311 -0.0781
  862MPD2    C312653   0.271   4.164  10.132  1.2754  0.0755 -1.1841
  862MPD2    C412654   0.174   4.203  10.043  0.9159 -0.8335  0.5803
  862MPD2    C512655   0.116   4.329  10.042 -0.0903  0.3244  0.8435
  862MPD2     H12656   0.393   4.239  10.298  0.7596 -0.7174 -0.6372
  862MPD2    H112657   0.129   4.131   9.975 -0.4166  0.0327  0.5409
  862MPD2    H212658   0.092   4.500  10.154 -1.3939 -0.5257 -1.5046
  862MPD2    H312659   0.036   4.350   9.973 -0.0023 -0.7524  0.4150
  862MPD2     N12660   0.286   4.026  10.150  0.8880  0.3607  0.0209
  862MPD2    H512661   0.239   3.968  10.082 -0.1601  2.5574 -1.1450
  862MPD2    N112662   0.286   4.446  10.354  0.7728 -0.0006  0.7579
  862MPD2    H712663   0.367   4.420  10.409  2.7564 -0.8684 -2.5688
  863MPD2     C12664   3.437   2.727  16.625 -0.1503  0.9003  0.4439
  863MPD2    C112665   3.413   2.591  16.632  0.1986 -0.3346 -0.6267
  863MPD2    C212666   3.496   2.511  16.711  0.4252 -0.7942 -0.5253
  863MPD2    C312667   3.581   2.572  16.801 -0.2530 -0.2392 -0.1076
  863MPD2    C412668   3.607   2.709  16.790 -0.3420  0.6177 -0.9726
  863MPD2    C512669   3.538   2.785  16.697 -0.4924  0.0450 -0.2370
  863MPD2     H12670   3.464   2.408  16.724 -1.1288 -0.2747 -0.2866
  863MPD2    H112671   3.688   2.763  16.839  0.7359  0.9673 -3.1391
  863MPD2    H212672   3.381   2.785  16.552  0.6395  0.6150 -0.3803
  863MPD2    H312673   3.567   2.888  16.680 -2.3206  0.5158 -0.5006
  863MPD2     N12674   3.640   2.495  16.911 -0.2548  0.0938 -0.1206
  863MPD2    H512675   3.684   2.544  16.988  1.5582 -0.0341 -1.0682
  863MPD2    N112676   3.322   2.541  16.530  0.1134 -0.1723 -0.4604
  863MPD2    H712677   3.279   2.612  16.472  0.6635  2.9433  2.8811
  864MPD2     C12678   3.581   3.913  17.271 -0.1843  0.4693 -0.4657
  864MPD2    C112679   3.651   3.824  17.195 -0.6248  0.4262 -0.2697
  864MPD2    C212680   3.712   3.871  17.080  0.2843  0.0427 -0.5679
  864MPD2    C312681   3.717   4.007  17.050  1.2393  0.4903 -0.3784
  864MPD2    C412682   3.643   4.095  17.127 -0.3418  0.1867 -0.0439
  864MPD2    C512683   3.580   4.048  17.237  0.4521  0.3772 -0.1627
  864MPD2     H12684   3.755   3.803  17.007  2.3934 -0.7846  1.4395
  864MPD2    H112685   3.647   4.204  17.128 -2.4694  0.2508  1.3148
  864MPD2    H212686   3.530   3.888  17.364 -1.4609  1.0013 -1.0248
  864MPD2    H312687   3.539   4.119  17.307 -1.5948  0.6052 -1.5795
  864MPD2     N12688   3.786   4.056  16.937  0.6745  0.5473  0.6192
  864MPD2    H512689   3.783   4.155  16.918  0.6336  0.5123  0.4325
  864MPD2    N112690   3.654   3.683  17.229  0.2444  0.0539 -0.0873
  864MPD2    H712691   3.610   3.659  17.317  2.8475  1.2862  1.5493
  865MPD2     C12692   4.053   4.157  16.107  0.1432 -0.2445 -0.2191
  865MPD2    C112693   4.027   4.087  16.229 -0.5072 -0.7289  0.1369
  865MPD2    C212694   3.938   4.141  16.325  0.3337  0.2746 -0.1687
  865MPD2    C312695   3.882   4.268  16.307  0.2224  0.2581  0.6001
  865MPD2    C412696   3.908   4.333  16.187  0.2741 -0.9046 -0.8575
  865MPD2    C512697   3.991   4.281  16.093 -0.1435 -0.0100  0.0961
  865MPD2     H12698   3.904   4.081  16.409 -1.4317  2.3956  0.6469
  865MPD2    H112699   3.853   4.422  16.158  1.5237 -0.3038 -1.3926
  865MPD2    H212700   4.108   4.119  16.022  0.6385 -0.0321  0.0073
  865MPD2    H312701   4.002   4.329  15.997  0.4397  1.2507  0.7964
  865MPD2     N12702   3.791   4.334  16.399 -0.3850 -0.9916 -0.3218
  865MPD2    H512703   3.732   4.399  16.348  0.0982  0.7509  1.3260
  865MPD2    N112704   4.072   3.956  16.231  0.3080 -0.4618  0.5593
  865MPD2    H712705   4.119   3.926  16.146 -0.1655  0.0786  0.1004
  866MPD2     C12706   1.005   4.306  11.597 -0.4987  0.0435  0.0363
  866MPD2    C112707   1.030   4.325  11.459 -0.2030  0.3710  0.5028
  866MPD2    C212708   0.942   4.402  11.378  0.4970  0.7326 -0.1126
  866MPD2    C312709   0.823   4.453  11.434  0.2409 -0.1510  0.1262
  866MPD2    C412710   0.796   4.424  11.566 -0.1868  0.2731  0.4534
  866MPD2    C512711   0.881   4.343  11.637  0.5677 -0.2684 -0.5275
  866MPD2     H12712   0.968   4.419  11.274  1.9989  2.0901  0.4903
  866MPD2    H112713   0.703   4.460  11.609 -1.1455 -2.2534  0.4966
  866MPD2    H212714   1.050   4.224  11.652  0.9420  0.7647 -0.0756
  866MPD2    H312715   0.843   4.311  11.734  2.2331  2.7263  1.1008
  866MPD2     N12716   0.728   4.529  11.355 -0.5830 -0.0164 -0.0206
  866MPD2    H512717   0.642   4.566  11.394 -1.4326 -0.9877 -0.9651
  866MPD2    N112718   1.142   4.262  11.402 -0.0060 -0.8881 -0.0995
  866MPD2    H712719   1.204   4.219  11.470 -0.3467 -0.5452  0.4269
  867MPD2     C12720   2.866   3.822  16.482  0.3089 -0.0285 -0.0721
  867MPD2    C112721   2.949   3.824  16.590 -0.1799  0.3817 -0.4323
  867MPD2    C212722   3.005   3.947  16.626  0.4845 -0.6753 -0.7298
  867MPD2    C312723   2.964   4.061  16.562 -0.1663 -0.1795  0.4270
  867MPD2    C412724   2.888   4.054  16.450 -0.3136 -0.5330 -0.9710
  867MPD2    C512725   2.841   3.938  16.411 -0.0005  0.5482  0.5151
  867MPD2     H12726   3.081   3.948  16.703 -0.8554  1.5206  0.5713
  867MPD2    H112727   2.863   4.141  16.391  0.2563 -0.1065 -0.5900
  867MPD2    H212728   2.817   3.733  16.444 -1.4472  1.2175 -0.7213
  867MPD2    H312729   2.783   3.920  16.322  0.3343  0.5079  0.3069
  867MPD2     N12730   3.006   4.194  16.592  0.2976  0.0532  0.2759
  867MPD2    H512731   2.959   4.273  16.549 -1.7407 -1.6759 -0.7333
  867MPD2    N112732   2.971   3.703  16.653  0.1862 -0.1969 -0.6606
  867MPD2    H712733   2.908   3.625  16.637 -1.6977  1.5839 -1.9034
  868MPD2     C12734   0.098   3.096  13.204  0.6205 -0.0487 -0.0340
  868MPD2    C112735   0.122   3.011  13.310  0.3791 -0.2884 -0.4551
  868MPD2    C212736   0.083   3.037  13.440  0.5936 -0.7123  0.3877
  868MPD2    C312737   0.009   3.153  13.458  0.5433  0.5140 -0.5363
  868MPD2    C412738   4.695   3.225  13.347  0.1277 -0.1029 -0.6318
  868MPD2    C512739   0.020   3.205  13.226 -0.0938  0.5711 -0.1575
  868MPD2     H12740   0.114   2.976  13.525  0.1386 -0.8872  0.4292
  868MPD2    H112741   4.639   3.317  13.353  0.8378  0.6632 -5.3226
  868MPD2    H212742   0.136   3.071  13.105  3.6768  2.1999  0.5629
  868MPD2    H312743   4.714   3.261  13.138  2.1265  0.8261 -0.7447
  868MPD2     N12744   4.707   3.191  13.594  0.0113  0.3144  0.7031
  868MPD2    H512745   0.002   3.115  13.659 -1.1340 -2.1346 -1.7738
  868MPD2    N112746   0.193   2.896  13.274  0.4938 -0.3302  0.5548
  868MPD2    H712747   0.233   2.887  13.182  1.6478  1.7563  0.8390
  869MPD2     C12748   1.152   0.598   1.799  0.1889 -0.1360 -0.4383
  869MPD2    C112749   1.020   0.638   1.832 -0.0340  0.6258  0.5819
  869MPD2    C212750   0.963   0.739   1.761 -0.1781  0.2232  0.6611
  869MPD2    C312751   1.031   0.798   1.653 -0.9629 -1.0075 -0.4470
  869MPD2    C412752   1.156   0.752   1.624 -0.6992  0.1497  0.1455
  869MPD2    C512753   1.225   0.657   1.705  0.0639 -0.2287  0.0468
  869MPD2     H12754   0.857   0.761   1.767 -0.0117  0.9427  0.9209
  869MPD2    H112755   1.217   0.784   1.540  0.7664 -0.5798  0.9295
  869MPD2    H212756   1.199   0.508   1.836 -0.9071 -1.9856 -3.6086
  869MPD2    H312757   1.327   0.626   1.687 -0.2352 -0.7639 -0.7520
  869MPD2     N12758   0.974   0.892   1.559 -0.4107 -0.0519 -0.6001
  869MPD2    H512759   1.034   0.903   1.478 -0.9927  1.1464 -0.8729
  869MPD2    N112760   0.944   0.578   1.928  0.5385  0.1288 -0.2824
  869MPD2    H712761   0.845   0.597   1.939  0.5900  1.1052 -1.5006
  870MPD2     C12762   4.576   0.436   1.326 -0.0329 -0.1536 -0.9775
  870MPD2    C112763   4.708   0.419   1.343 -0.7620  0.7001  0.1479
  870MPD2    C212764   0.076   0.480   1.258  0.2362  0.6039 -0.2665
  870MPD2    C312765   0.023   0.574   1.171  0.3445  0.1496  0.3528
  870MPD2    C412766   4.615   0.584   1.161 -0.5661  0.0684 -0.0652
  870MPD2    C512767   4.529   0.516   1.232 -0.7055 -0.2727  0.0222
  870MPD2     H12768   0.183   0.469   1.269  0.2298  1.1265  0.3100
  870MPD2    H112769   4.560   0.647   1.092 -0.6769  0.2025  0.1436
  870MPD2    H212770   4.513   0.372   1.386 -1.7953 -1.2978 -4.0627
  870MPD2    H312771   4.422   0.521   1.218 -0.7219  1.5026  0.8433
  870MPD2     N12772   0.109   0.639   1.082 -0.8804  0.3505  0.1075
  870MPD2    H512773   0.204   0.604   1.075 -1.0172 -0.5435  2.7761
  870MPD2    N112774   0.017   0.343   1.455 -0.7378  0.4272  0.6282
  870MPD2    H712775   4.659   0.313   1.506 -0.3463 -1.2540  0.2926
  871MPD2     C12776   1.495   3.684  16.059 -0.0063 -0.3739 -0.0888
  871MPD2    C112777   1.517   3.656  16.194 -0.7356 -0.0549  0.2219
  871MPD2    C212778   1.574   3.541  16.232 -0.3352 -0.3784 -0.1400
  871MPD2    C312779   1.638   3.463  16.132 -0.1757 -0.0867 -0.5284
  871MPD2    C412780   1.625   3.491  15.998 -0.4132  0.2565  0.1244
  871MPD2    C512781   1.546   3.598  15.962  0.6312  0.9256 -0.0617
  871MPD2     H12782   1.586   3.517  16.337  0.4840 -1.8067 -0.5619
  871MPD2    H112783   1.665   3.426  15.921 -0.7271 -0.5038  0.6028
  871MPD2    H212784   1.448   3.777  16.029 -0.9008 -1.1088 -0.9396
  871MPD2    H312785   1.531   3.619  15.857  0.3185  0.7323 -0.0544
  871MPD2     N12786   1.712   3.353  16.184 -0.0978 -0.3961  0.4054
  871MPD2    H512787   1.705   3.350  16.286  1.3530  0.0570  0.5099
  871MPD2    N112788   1.476   3.757  16.287 -0.4701 -0.5224 -0.3177
  871MPD2    H712789   1.436   3.845  16.257 -1.4882 -1.1731 -0.8663
  872MPD2     C12790   2.505   1.769  13.674 -0.0410  0.4367 -0.1833
  872MPD2    C112791   2.587   1.760  13.784 -0.4278 -0.1139  0.6091
  872MPD2    C212792   2.547   1.713  13.905 -0.9804  0.7548  0.1460
  872MPD2    C312793   2.413   1.672  13.927 -0.0872 -0.0700  0.2946
  872MPD2    C412794   2.326   1.678  13.817  0.1006  0.0530  0.3723
  872MPD2    C512795   2.379   1.720  13.697  0.1148  0.9156  0.0557
  872MPD2     H12796   2.624   1.707  13.981  0.1954  0.0924 -1.1057
  872MPD2    H112797   2.219   1.661  13.825  0.2543 -1.0280  0.1022
  872MPD2    H212798   2.534   1.799  13.574 -0.0768  0.5807 -0.1502
  872MPD2    H312799   2.312   1.722  13.612 -0.6173 -1.9119  0.5560
  872MPD2     N12800   2.365   1.621  14.051  0.1995  0.0923 -0.4417
  872MPD2    H512801   2.265   1.604  14.058  0.6571 -1.2403  2.9965
  872MPD2    N112802   2.727   1.798  13.774 -0.1576  0.3306  0.0009
  872MPD2    H712803   2.764   1.825  13.865 -0.6943  0.3110  0.2262
  873MPD2     C12804   3.569   1.463   0.707 -0.1839  0.7540  0.3213
  873MPD2    C112805   3.624   1.436   0.831 -0.5102 -0.4560  0.3168
  873MPD2    C212806   3.720   1.340   0.838 -0.5557 -0.2151 -0.5987
  873MPD2    C312807   3.761   1.267   0.724  0.0485  0.5114  0.3925
  873MPD2    C412808   3.705   1.296   0.604  0.3031  0.4081  0.7439
  873MPD2    C512809   3.606   1.388   0.600  0.5886  0.2625 -0.3234
  873MPD2     H12810   3.773   1.311   0.928  0.5702 -2.4169 -1.9687
  873MPD2    H112811   3.706   1.227   0.520  0.3969  0.7268  0.4853
  873MPD2    H212812   3.485   1.530   0.690 -0.8622 -0.2280 -0.1845
  873MPD2    H312813   3.529   1.400   0.524 -0.8616  0.9188  1.2382
  873MPD2     N12814   3.853   1.158   0.725 -0.5746 -0.2529 -0.2192
  873MPD2    H512815   3.883   1.125   0.633  1.7516  1.6371 -0.1424
  873MPD2    N112816   3.588   1.522   0.936  0.3353  0.6341  0.3185
  873MPD2    H712817   3.527   1.598   0.909 -0.2942  0.1997  0.5195
  874MPD2     C12818   4.088   1.662  16.111 -0.1870  0.3852  0.0698
  874MPD2    C112819   4.163   1.615  16.220  1.1040  0.0652 -0.1161
  874MPD2    C212820   4.276   1.683  16.255  0.9267  0.0651  0.4221
  874MPD2    C312821   4.315   1.791  16.184 -0.4369  0.2746  0.2184
  874MPD2    C412822   4.245   1.834  16.075 -0.1984 -0.5800  0.0111
  874MPD2    C512823   4.130   1.768  16.039  0.4659  0.2353  0.2068
  874MPD2     H12824   4.341   1.644  16.332  0.7703 -2.9573 -0.9665
  874MPD2    H112825   4.262   1.922  16.015 -1.0157 -1.8219 -2.0457
  874MPD2    H212826   3.996   1.613  16.083  0.2855 -0.6639  0.3438
  874MPD2    H312827   4.083   1.795  15.945  1.7470 -1.6571 -0.9803
  874MPD2     N12828   4.440   1.846  16.219  0.0135 -0.0486 -0.2417
  874MPD2    H512829   4.497   1.805  16.292  1.8762 -0.1366 -1.7331
  874MPD2    N112830   4.118   1.498  16.284  0.1419 -0.2273 -0.0695
  874MPD2    H712831   4.041   1.446  16.240  0.8143  0.5123 -2.1193
  875MPD2     C12832   0.579   0.227  14.550  0.4048  0.2682 -0.2303
  875MPD2    C112833   0.449   0.208  14.598  0.0257  0.4203 -0.2842
  875MPD2    C212834   0.425   0.237  14.728  0.4987  0.3662  0.2368
  875MPD2    C312835   0.515   0.310  14.799 -0.2727  0.3874  0.7749
  875MPD2    C412836   0.637   0.344  14.740  0.2486  0.2343  0.8362
  875MPD2    C512837   0.674   0.285  14.625  0.5007 -0.0544  0.4010
  875MPD2     H12838   0.327   0.222  14.773  1.4370 -1.5180  1.6369
  875MPD2    H112839   0.707   0.397  14.804  1.5864 -0.1578 -0.3019
  875MPD2    H212840   0.608   0.201  14.449 -1.6332  1.6142 -1.1703
  875MPD2    H312841   0.772   0.296  14.581 -0.9180 -1.0474 -3.0446
  875MPD2     N12842   0.501   0.352  14.934 -0.3522  0.0115  0.2065
  875MPD2    H512843   0.582   0.397  14.976 -0.8949  1.5631 -0.4267
  875MPD2    N112844   0.353   0.134  14.527  0.3847  0.1348 -0.4696
  875MPD2    H712845   0.257   0.126  14.557  1.0107 -1.0225  1.2014
  876MPD2     C12846   3.938   1.179  16.091 -0.0671  0.1696  0.2352
  876MPD2    C112847   4.070   1.195  16.067  0.3536 -0.0048  0.0123
  876MPD2    C212848   4.158   1.105  16.122 -0.0448 -0.1438 -0.7116
  876MPD2    C312849   4.118   1.009  16.211 -0.1612 -0.2790  0.3845
  876MPD2    C412850   3.983   0.995  16.237 -0.5220  0.7225 -0.0984
  876MPD2    C512851   3.896   1.077  16.172 -0.1485 -0.0962 -0.6895
  876MPD2     H12852   4.262   1.117  16.095 -0.0477  2.3607  0.3189
  876MPD2    H112853   3.933   0.915  16.290  0.5188  1.7043  2.3794
  876MPD2    H212854   3.858   1.239  16.048  0.8878  1.6000  0.4396
  876MPD2    H312855   3.791   1.058  16.190 -0.5013  0.2872 -2.3419
  876MPD2     N12856   4.221   0.920  16.263 -0.3856 -0.1060 -0.5927
  876MPD2    H512857   4.314   0.926  16.223 -0.2653  1.4428 -0.0448
  876MPD2    N112858   4.109   1.308  15.988 -0.3299 -0.2162 -0.1636
  876MPD2    H712859   4.035   1.358  15.939 -0.1989  0.5753  0.4528
  877MPD2     C12860   3.904   1.778  15.423  0.0388  0.2295  0.0521
  877MPD2    C112861   4.044   1.767  15.412  0.0911  0.4523  0.4684
  877MPD2    C212862   4.097   1.799  15.295  0.7302 -0.0306 -0.0884
  877MPD2    C312863   4.018   1.830  15.182  0.2891  0.1818  0.2198
  877MPD2    C412864   3.884   1.849  15.201 -0.2229  0.3057 -0.3764
  877MPD2    C512865   3.830   1.828  15.318 -0.4619  0.2853 -0.2461
  877MPD2     H12866   4.205   1.803  15.292  0.5956  0.8518 -3.3403
  877MPD2    H112867   3.820   1.875  15.118  0.5734 -1.0618 -1.4256
  877MPD2    H212868   3.855   1.770  15.519  0.1382 -0.7905  0.0172
  877MPD2    H312869   3.722   1.834  15.332 -0.3069 -1.7978  1.8901
  877MPD2     N12870   4.075   1.852  15.054 -0.4591 -0.7430  0.2537
  877MPD2    H512871   4.014   1.890  14.983  1.7378 -1.7969 -2.1893
  877MPD2    N112872   4.123   1.737  15.528 -0.4339 -0.3519  0.4170
  877MPD2    H712873   4.224   1.740  15.515 -0.5014  0.0094 -0.0461
  878MPD2     C12874   3.752   0.775  13.111  0.1866  0.5733  0.6264
  878MPD2    C112875   3.854   0.828  13.039  0.1272  0.4344 -0.0348
  878MPD2    C212876   3.982   0.813  13.089  0.3062 -0.0497  0.8697
  878MPD2    C312877   4.018   0.733  13.195  0.4978 -0.0289  0.2887
  878MPD2    C412878   3.911   0.669  13.257 -0.4012  0.1626  0.7814
  878MPD2    C512879   3.781   0.707  13.227 -0.0562  0.3857  0.4631
  878MPD2     H12880   4.071   0.857  13.045 -1.3627  2.2295 -0.2217
  878MPD2    H112881   3.923   0.616  13.350  2.1145 -2.0838 -0.7967
  878MPD2    H212882   3.645   0.787  13.099  0.1749 -1.7613 -1.6781
  878MPD2    H312883   3.696   0.654  13.267 -1.2620  0.6934 -1.6492
  878MPD2     N12884   4.146   0.729  13.247 -0.2397  0.3039 -0.0132
  878MPD2    H512885   4.200   0.805  13.206 -0.1266 -1.6979 -3.5828
  878MPD2    N112886   3.814   0.922  12.937 -0.7411  0.1372  0.5382
  878MPD2    H712887   3.720   0.903  12.905 -1.2685 -0.3314  2.4031
  879MPD2     C12888   4.139   2.527  17.094  0.4053  0.1715  0.0579
  879MPD2    C112889   4.163   2.405  17.143  0.0692 -0.6096 -0.0283
  879MPD2    C212890   4.141   2.294  17.059 -0.2280 -0.1554 -0.4715
  879MPD2    C312891   4.104   2.316  16.924 -0.3943  0.2694  0.1709
  879MPD2    C412892   4.082   2.442  16.875  0.3055 -0.0409 -0.7649
  879MPD2    C512893   4.098   2.545  16.967  0.3533  0.6096 -0.4972
  879MPD2     H12894   4.178   2.197  17.091  1.1583  0.9003  1.1320
  879MPD2    H112895   4.049   2.466  16.775  0.4398 -3.9046 -1.7695
  879MPD2    H212896   4.150   2.614  17.159  0.3827 -0.0337  0.3357
  879MPD2    H312897   4.077   2.647  16.939 -0.6270  0.3510 -0.7055
  879MPD2     N12898   4.097   2.211  16.829 -0.1018 -0.3290  0.4813
  879MPD2    H512899   4.081   2.241  16.733 -0.8022  1.1193  1.0491
  879MPD2    N112900   4.198   2.393  17.280  0.3266  0.3898  0.0388
  879MPD2    H712901   4.236   2.475  17.327 -0.9397  1.4833 -0.8506
  880MPD2     C12902   0.701   4.392   0.661  0.3060 -0.1340  0.1045
  880MPD2    C112903   0.603   4.495   0.647  0.0554 -0.7957 -0.0938
  880MPD2    C212904   0.504   4.522   0.732 -0.3868 -0.5006 -0.3618
  880MPD2    C312905   0.502   4.448   0.848 -0.2241 -0.6015 -0.0892
  880MPD2    C412906   0.594   4.351   0.874 -0.0473 -0.5102 -0.0716
  880MPD2    C512907   0.690   4.325   0.779 -0.3197 -0.3638  0.7861
  880MPD2     H12908   0.427   4.596   0.713  0.2740  0.1447 -0.5088
  880MPD2    H112909   0.604   4.295   0.966  2.4756  0.2418  0.1138
  880MPD2    H212910   0.777   4.366   0.588  0.8197  2.1035 -0.1358
  880MPD2    H312911   0.754   4.241   0.806  1.6097  1.7645  2.9152
  880MPD2     N12912   0.397   4.468   0.939  0.2072  0.1293  0.6038
  880MPD2    H512913   0.404   4.408   1.020 -0.7108  1.0905  1.3877
  880MPD2    N112914   0.596   4.576   0.531 -0.3999  0.3025  0.2066
  880MPD2    H712915   0.517   4.638   0.527 -0.4624  0.2738  1.0063
  881MPD2     C12916   0.749   4.353  17.306 -0.1931 -0.5801  0.0655
  881MPD2    C112917   0.826   4.468  17.328 -0.3061 -0.1637 -0.3266
  881MPD2    C212918   0.779   4.558  17.424 -0.5560 -0.1370 -0.0103
  881MPD2    C312919   0.684   4.519  17.514  0.5103 -0.0046 -0.0574
  881MPD2    C412920   0.624   4.393  17.508 -0.0185  0.1209  0.4116
  881MPD2    C512921   0.665   4.311  17.407 -0.2381 -0.0316 -0.8950
  881MPD2     H12922   0.831   4.652  17.439 -0.0243 -0.6035  1.0184
  881MPD2    H112923   0.568   4.352  17.591 -1.1765  1.7595  0.4383
  881MPD2    H212924   0.789   4.287  17.230 -0.6027 -0.2840 -0.4055
  881MPD2    H312925   0.643   4.205  17.406  1.5864 -0.4027 -1.6763
  881MPD2     N12926   0.661   4.590  17.637 -0.0045  0.4590  0.3415
  881MPD2    H512927   0.619   4.545   0.021 -1.0167 -1.7260 -1.3864
  881MPD2    N112928   0.919   4.494  17.227 -0.3327  0.0984 -0.1113
  881MPD2    H712929   0.934   4.418  17.162  0.8894  1.0940 -0.9754
  882MPD2     C12930   4.171   2.171  14.258 -0.1699 -0.2585  0.3924
  882MPD2    C112931   4.107   2.102  14.365  0.1184  0.6071 -0.1093
  882MPD2    C212932   3.986   2.036  14.341  0.5667  0.1649  0.1819
  882MPD2    C312933   3.941   2.033  14.211 -0.5719  0.0210 -0.0884
  882MPD2    C412934   4.007   2.095  14.111  0.8090 -0.0766  0.4244
  882MPD2    C512935   4.122   2.172  14.133  0.4067 -0.4591  0.1262
  882MPD2     H12936   3.937   1.985  14.423  1.1128 -1.3049 -0.3871
  882MPD2    H112937   3.980   2.096  14.006  2.8185  2.1096 -0.0799
  882MPD2    H212938   4.263   2.229  14.259 -0.0731 -0.4514  4.6791
  882MPD2    H312939   4.167   2.234  14.056 -1.2073 -0.6235 -0.9728
  882MPD2     N12940   3.819   1.967  14.194 -0.1218  0.2277 -0.1813
  882MPD2    H512941   3.786   1.931  14.283 -0.0012  0.0706 -0.2004
  882MPD2    N112942   4.181   2.078  14.482 -0.0373  0.2670 -0.1517
  882MPD2    H712943   4.270   2.126  14.474  0.2594 -0.1847  0.4665
  883MPD2     C12944   1.065   1.919  16.403  0.4434  0.3790 -0.0965
  883MPD2    C112945   1.163   1.866  16.317  0.0172  0.5415 -0.8152
  883MPD2    C212946   1.298   1.873  16.357 -0.4311  0.4079 -0.1886
  883MPD2    C312947   1.334   1.926  16.484  0.9535 -0.8289  0.6349
  883MPD2    C412948   1.242   1.991  16.553  0.6933 -0.1191  0.3415
  883MPD2    C512949   1.110   1.982  16.515 -0.3565  0.2373 -0.2001
  883MPD2     H12950   1.377   1.827  16.298 -2.1746 -0.2217 -2.0326
  883MPD2    H112951   1.256   2.028  16.654 -0.8427 -2.3479  1.3635
  883MPD2    H212952   0.961   1.904  16.380  1.5623 -3.1178 -2.9275
  883MPD2    H312953   1.036   2.025  16.581  0.6014  0.3044  0.8220
  883MPD2     N12954   1.464   1.903  16.528 -0.0741  0.1466 -0.2181
  883MPD2    H512955   1.531   1.871  16.459 -2.1774 -1.1166 -1.6985
  883MPD2    N112956   1.117   1.820  16.192 -0.3244 -0.1494 -0.7791
  883MPD2    H712957   1.024   1.849  16.165  0.0395 -0.9245 -2.8868
  884MPD2     C12958   3.438   2.398  15.011 -0.0367  0.6650  0.0900
  884MPD2    C112959   3.394   2.530  14.991 -0.4130 -1.0561  0.8826
  884MPD2    C212960   3.266   2.566  15.038  0.5767 -0.4410  0.5051
  884MPD2    C312961   3.184   2.472  15.112 -0.6654  0.2474 -0.1957
  884MPD2    C412962   3.236   2.345  15.124 -0.4075  0.0481 -1.2915
  884MPD2    C512963   3.360   2.310  15.082 -0.8248  0.1474  0.3892
  884MPD2     H12964   3.219   2.663  15.030 -1.9852 -1.6897  0.5971
  884MPD2    H112965   3.190   2.265  15.181  0.8848 -1.6413 -2.6369
  884MPD2    H212966   3.539   2.366  14.988 -0.9923 -1.6196 -0.8792
  884MPD2    H312967   3.402   2.212  15.104 -0.3142 -0.2274 -2.2286
  884MPD2     N12968   3.054   2.508  15.171  0.1719  0.6293  0.1258
  884MPD2    H512969   3.018   2.601  15.152 -2.0041 -0.4915 -1.2318
  884MPD2    N112970   3.463   2.627  14.916 -0.0405 -0.1198  0.4009
  884MPD2    H712971   3.409   2.711  14.897 -0.6319 -0.4811  0.4853
  885MPD2     C12972   1.118   2.129   0.337 -0.3731 -0.6022  0.8867
  885MPD2    C112973   1.225   2.217   0.369  0.5306  0.8566  0.6859
  885MPD2    C212974   1.262   2.309   0.270  0.7060 -0.9919  0.3514
  885MPD2    C312975   1.204   2.302   0.144  0.1226 -0.0324  0.2617
  885MPD2    C412976   1.110   2.209   0.117  0.1685 -0.7544  0.4738
  885MPD2    C512977   1.062   2.123   0.210 -0.3466  0.4711 -0.1228
  885MPD2     H12978   1.327   2.394   0.289 -0.5602  0.3467 -1.3508
  885MPD2    H112979   1.064   2.217   0.020 -1.4743  0.3256  1.3494
  885MPD2    H212980   1.087   2.063   0.418 -0.9766  0.3234  1.4117
  885MPD2    H312981   0.981   2.056   0.182  0.9420  0.4707 -3.7649
  885MPD2     N12982   1.251   2.396   0.052 -0.1048  0.4195 -0.6147
  885MPD2    H512983   1.332   2.448   0.082 -0.6089  0.1293  1.2229
  885MPD2    N112984   1.284   2.219   0.501 -0.3002 -0.2014 -0.2839
  885MPD2    H712985   1.244   2.170   0.580 -0.4543  1.4227  0.6609
  886MPD2     C12986   2.920   1.165  15.938  0.1605  0.9208 -0.0338
  886MPD2    C112987   2.913   1.132  15.806  0.0273  0.1856  0.0478
  886MPD2    C212988   2.915   1.225  15.712 -0.2324  0.0696  0.8738
  886MPD2    C312989   2.950   1.357  15.738  0.1817  0.4512 -0.8130
  886MPD2    C412990   2.969   1.394  15.870  0.3083  0.1234 -0.0435
  886MPD2    C512991   2.945   1.298  15.968 -0.2890 -0.0447  0.3161
  886MPD2     H12992   2.891   1.202  15.608  4.0170  1.6669 -0.4425
  886MPD2    H112993   2.991   1.498  15.889 -1.1274  0.2091  1.1331
  886MPD2    H212994   2.893   1.098  16.019 -1.9344  2.1278  0.2665
  886MPD2    H312995   2.950   1.328  16.072  1.3219 -0.7893  0.4508
  886MPD2     N12996   2.957   1.456  15.636  0.5754 -0.0514  0.1040
  886MPD2    H512997   2.990   1.550  15.655 -0.6884  0.0748  1.6465
  886MPD2    N112998   2.880   1.004  15.762 -0.7976 -0.2697 -0.4283
  886MPD2    H712999   2.866   0.985  15.663  0.2839 -1.3182 -0.3841
  887MPD2     C13000   3.380   1.054  15.458 -0.3707 -0.3888 -0.0241
  887MPD2    C113001   3.329   1.030  15.585 -0.0868 -0.6440  0.4833
  887MPD2    C213002   3.338   1.138  15.673 -0.1411 -0.6808  0.6207
  887MPD2    C313003   3.392   1.261  15.638 -0.5629  0.2781  0.2487
  887MPD2    C413004   3.453   1.277  15.515  0.2184 -0.2754  0.4297
  887MPD2    C513005   3.442   1.165  15.429 -0.9038  0.5820 -0.3946
  887MPD2     H13006   3.279   1.123  15.763 -0.6528 -2.7003 -0.0275
  887MPD2    H113007   3.496   1.370  15.481  0.3928 -0.1994  0.8564
  887MPD2    H213008   3.366   0.983  15.377 -1.1963 -1.2218  0.8581
  887MPD2    H313009   3.469   1.174  15.325 -0.3338 -1.7428 -0.4458
  887MPD2     N13010   3.394   1.368  15.733 -0.7265 -0.3694  0.7258
  887MPD2    H513011   3.349   1.364  15.824 -0.8896  2.3980  0.7732
  887MPD2    N113012   3.251   0.918  15.616  0.7927  0.1669  0.3617
  887MPD2    H713013   3.191   0.935  15.696  0.9379 -0.7437  0.6643
  888MPD2     C13014   0.633   1.094  15.039 -1.2186 -0.5848 -0.0666
  888MPD2    C113015   0.531   1.127  15.119 -0.2532  0.0049  0.3879
  888MPD2    C213016   0.532   1.257  15.179 -0.6092 -0.4162 -0.1817
  888MPD2    C313017   0.634   1.343  15.149  0.0234 -0.6445 -0.3725
  888MPD2    C413018   0.729   1.310  15.054  0.1535 -0.6278  0.0504
  888MPD2    C513019   0.729   1.182  15.008 -0.6092 -0.0699  0.0017
  888MPD2     H13020   0.446   1.292  15.236 -0.6232 -1.5848  0.5237
  888MPD2    H113021   0.795   1.382  15.008 -0.9745  1.8255  2.2783
  888MPD2    H213022   0.642   0.995  14.996  2.6370 -0.1937 -0.1547
  888MPD2    H313023   0.806   1.160  14.935 -0.9245  3.6337 -1.4630
  888MPD2     N13024   0.628   1.481  15.184  0.1558 -0.5345 -0.3633
  888MPD2    H513025   0.545   1.518  15.228 -0.3882  0.2617 -2.0419
  888MPD2    N113026   0.426   1.029  15.131  0.1735 -0.0550  0.8546
  888MPD2    H713027   0.448   0.940  15.087  0.9827 -0.2039  1.5413
  889MPD2     C13028   4.663   0.855  12.611  0.3839 -0.2642  0.3180
  889MPD2    C113029   4.713   0.782  12.719 -0.1861 -0.2008  0.7324
  889MPD2    C213030   0.076   0.853  12.802 -1.1165  0.1321  0.3589
  889MPD2    C313031   0.069   0.996  12.812  0.3949 -0.1571  0.1969
  889MPD2    C413032   4.713   1.065  12.722  0.2701  0.3304  0.2326
  889MPD2    C513033   4.659   0.996  12.615  0.5294 -0.1179 -0.0239
  889MPD2     H13034   0.111   0.793  12.885 -0.2293 -1.7144 -1.3594
  889MPD2    H113035   4.719   1.173  12.717 -0.6712  0.2507 -2.5449
  889MPD2    H213036   4.586   0.810  12.550  1.6996 -2.7759  0.5354
  889MPD2    H313037   4.608   1.055  12.540 -0.9431  0.2867  1.3087
  889MPD2     N13038   0.137   1.059  12.919 -0.0986  0.8594  0.0400
  889MPD2    H513039   0.203   1.005  12.974 -2.1523  0.1678  1.8294
  889MPD2    N113040   4.717   0.640  12.721 -0.0263  0.1864 -0.0983
  889MPD2    H713041   0.052   0.603  12.796  1.4499 -0.4852 -1.5813
  890MPD2     C13042   3.910   2.381  14.621  0.9998 -0.7257 -0.0206
  890MPD2    C113043   4.043   2.385  14.643 -0.5460 -0.8871  1.0374
  890MPD2    C213044   4.095   2.346  14.758 -1.1317  0.2876  0.9357
  890MPD2    C313045   4.021   2.299  14.865  0.0666 -0.1906  0.3022
  890MPD2    C413046   3.884   2.299  14.842  0.9935  0.4755  0.8312
  890MPD2    C513047   3.831   2.324  14.720  0.3003 -0.3684  0.2671
  890MPD2     H13048   4.202   2.355  14.775 -0.8976 -1.0870  0.1319
  890MPD2    H113049   3.813   2.284  14.923 -0.4200  1.2574 -0.2595
  890MPD2    H213050   3.863   2.431  14.536 -0.7105 -2.6652 -0.2241
  890MPD2    H313051   3.723   2.321  14.714  0.1969  2.3091  0.8625
  890MPD2     N13052   4.087   2.257  14.982  0.2113 -0.5057 -0.0214
  890MPD2    H513053   4.189   2.256  14.976  0.1901  1.1323 -0.6104
  890MPD2    N113054   4.117   2.464  14.550  0.5526 -0.0396 -0.2470
  890MPD2    H713055   4.061   2.527  14.493  1.0938  0.5040 -0.1786
  891MPD2     C13056   2.455   1.019  16.631 -0.0187  0.6649  0.5425
  891MPD2    C113057   2.387   0.996  16.746 -0.4444  0.8971  0.1221
  891MPD2    C213058   2.448   0.965  16.862 -0.2082 -0.4337 -0.6384
  891MPD2    C313059   2.586   0.953  16.864 -0.0236 -0.1848  0.3138
  891MPD2    C413060   2.655   0.979  16.752  0.0183  0.1998 -0.1482
  891MPD2    C513061   2.589   0.998  16.635  0.5457  0.2306  0.6018
  891MPD2     H13062   2.393   0.944  16.953 -1.7785 -0.2455 -1.5500
  891MPD2    H113063   2.763   0.979  16.741  0.0742 -1.9587  0.4888
  891MPD2    H213064   2.398   1.051  16.544 -2.9482  0.7763  2.5049
  891MPD2    H313065   2.647   1.024  16.547 -1.2133 -0.6742 -0.8275
  891MPD2     N13066   2.652   0.927  16.984  0.5142 -0.0173  0.0842
  891MPD2    H513067   2.599   0.908  17.069  0.1257  0.3306 -0.0756
  891MPD2    N113068   2.250   1.031  16.747  0.4744  0.4096  0.1155
  891MPD2    H713069   2.219   1.075  16.661 -2.6775 -3.0776 -0.5211
  892MPD2     C13070   3.358   2.033  14.822  0.2149  0.5152 -0.1673
  892MPD2    C113071   3.257   2.010  14.735 -0.7108 -0.0045 -0.5411
  892MPD2    C213072   3.292   1.984  14.601 -0.2506  0.4721  0.2106
  892MPD2    C313073   3.425   1.972  14.565 -0.3134 -0.1875  0.3477
  892MPD2    C413074   3.518   2.022  14.656  0.0520  0.3574  0.5047
  892MPD2    C513075   3.486   2.047  14.784 -0.3224  0.6015 -0.0856
  892MPD2     H13076   3.211   1.957  14.534 -0.3747  0.8013  0.2243
  892MPD2    H113077   3.622   2.038  14.630 -0.0946 -1.2687 -1.0561
  892MPD2    H213078   3.349   2.058  14.927 -0.1756  0.0484 -0.0891
  892MPD2    H313079   3.559   2.079  14.858  0.0486 -1.2601  0.3544
  892MPD2     N13080   3.471   1.915  14.445  0.0243  0.7704  0.1075
  892MPD2    H513081   3.571   1.908  14.431 -0.1984 -1.3590 -0.5253
  892MPD2    N113082   3.126   2.011  14.772  0.1739  0.6142 -0.0470
  892MPD2    H713083   3.062   1.991  14.696  0.4729 -1.3677  0.2295
  893MPD2     C13084   4.353   0.885   1.204  0.1152 -0.6360  0.5499
  893MPD2    C113085   4.364   0.851   1.340 -0.7348  0.0905  0.3329
  893MPD2    C213086   4.260   0.869   1.438  0.5584 -0.1673 -0.7468
  893MPD2    C313087   4.137   0.910   1.394  0.7573 -0.2348  0.3382
  893MPD2    C413088   4.135   0.951   1.265  0.2075  0.5744 -0.7206
  893MPD2    C513089   4.238   0.952   1.173  0.4141  0.1534 -0.9726
  893MPD2     H13090   4.274   0.857   1.545 -0.7380 -2.2789 -0.8011
  893MPD2    H113091   4.042   0.986   1.223 -0.6908 -1.2595 -0.2791
  893MPD2    H213092   4.423   0.865   1.123 -1.0356 -3.5242  0.2392
  893MPD2    H313093   4.220   0.991   1.074 -0.8642  0.0085 -0.7968
  893MPD2     N13094   4.019   0.918   1.478 -0.4764 -0.2889 -0.0911
  893MPD2    H513095   3.938   0.944   1.422  0.9423 -0.1672 -2.0840
  893MPD2    N113096   4.494   0.829   1.383  0.2413  0.3758 -0.9219
  893MPD2    H713097   4.571   0.828   1.317  0.0403 -0.1950 -1.1556
  894MPD2     C13098   1.907   3.446   0.737  0.0770 -0.2681  0.0117
  894MPD2    C113099   1.963   3.324   0.706  0.3336 -0.5349  0.7159
  894MPD2    C213100   2.103   3.333   0.681  0.3899 -0.6207  0.0615
  894MPD2    C313101   2.182   3.448   0.687  0.0564  0.1144 -0.2165
  894MPD2    C413102   2.115   3.569   0.706  0.0443  0.9080 -0.1769
  894MPD2    C513103   1.982   3.568   0.731  0.9155  0.3276  0.1574
  894MPD2     H13104   2.153   3.241   0.651 -0.3938 -1.5694  1.6645
  894MPD2    H113105   2.174   3.660   0.701  2.4971 -0.6667 -0.0503
  894MPD2    H213106   1.800   3.451   0.754  0.4506 -0.5576  2.4796
  894MPD2    H313107   1.940   3.664   0.759 -0.3162 -0.3117  0.4991
  894MPD2     N13108   2.316   3.431   0.662  0.4804  0.3439 -0.3179
  894MPD2    H513109   2.343   3.339   0.628 -1.5193 -1.1544  2.1773
  894MPD2    N113110   1.890   3.208   0.689  0.1682 -0.6067 -0.4013
  894MPD2    H713111   1.949   3.125   0.679 -0.2472 -0.9445 -0.0715
  895MPD2     C13112   2.417   1.349  13.679  0.0712 -0.3386 -0.0611
  895MPD2    C113113   2.383   1.231  13.623 -0.1006 -0.0972 -0.3412
  895MPD2    C213114   2.479   1.131  13.609  0.1600 -0.2096 -0.3990
  895MPD2    C313115   2.611   1.164  13.622  0.5469 -0.6677 -0.1234
  895MPD2    C413116   2.647   1.283  13.685 -0.1357  0.3748  0.2915
  895MPD2    C513117   2.547   1.368  13.711 -0.0160  0.3701  0.3943
  895MPD2     H13118   2.455   1.035  13.565  2.1872 -1.2187  0.6425
  895MPD2    H113119   2.750   1.316  13.692 -0.1278  1.1932 -3.4245
  895MPD2    H213120   2.352   1.434  13.695  0.3983 -0.5205  2.2055
  895MPD2    H313121   2.561   1.460  13.765 -0.7220  1.0033 -0.4852
  895MPD2     N13122   2.709   1.075  13.568  0.4065 -0.9353 -0.4816
  895MPD2    H513123   2.671   1.003  13.508 -1.9543 -1.8218  2.0919
  895MPD2    N113124   2.256   1.207  13.573 -0.4814 -0.1815  0.6343
  895MPD2    H713125   2.240   1.117  13.528  1.4904 -0.8268  1.2166
  896MPD2     C13126   4.318   3.649   1.253 -0.2252 -0.7427  0.6609
  896MPD2    C113127   4.206   3.729   1.237  0.2063  0.3325 -0.3170
  896MPD2    C213128   4.076   3.684   1.243  0.2940 -0.1453 -0.9671
  896MPD2    C313129   4.051   3.552   1.257  0.5924  0.2949 -0.0911
  896MPD2    C413130   4.161   3.470   1.281 -0.2620  0.0895 -0.0095
  896MPD2    C513131   4.290   3.517   1.280  0.3931 -0.2883 -0.1309
  896MPD2     H13132   3.991   3.750   1.228 -1.1438 -1.4563  1.4986
  896MPD2    H113133   4.147   3.364   1.302  0.5997  0.2414  1.3276
  896MPD2    H213134   4.421   3.683   1.251 -0.3957 -0.2801 -0.6103
  896MPD2    H313135   4.380   3.458   1.295  2.1620  1.9682 -1.6932
  896MPD2     N13136   3.920   3.505   1.256 -0.5095  0.0430 -0.1584
  896MPD2    H513137   3.842   3.563   1.225 -0.1044  0.1998 -0.8932
  896MPD2    N113138   4.229   3.872   1.215  0.0980 -0.2350 -0.2045
  896MPD2    H713139   4.328   3.889   1.200  0.3324 -0.8761  0.6175
  897MPD2     C13140   0.975   0.104  10.153 -0.1986 -0.0438  1.1026
  897MPD2    C113141   1.044   0.103  10.276  0.3468 -0.0400  0.0032
  897MPD2    C213142   0.978   0.148  10.390 -0.5420  0.3568  0.3546
  897MPD2    C313143   0.846   0.192  10.382  0.0103  0.2278  0.0785
  897MPD2    C413144   0.787   0.188  10.258 -0.4531  0.1433 -0.4815
  897MPD2    C513145   0.848   0.149  10.144  0.2019 -0.2560 -0.0312
  897MPD2     H13146   1.034   0.174  10.479  0.2279 -0.8169  0.2132
  897MPD2    H113147   0.688   0.226  10.234 -0.5177  1.2772  1.5472
  897MPD2    H213148   1.024   0.082  10.059 -2.0086  1.6102 -0.2310
  897MPD2    H313149   0.796   0.162  10.050  1.7580 -0.6243 -0.9417
  897MPD2     N13150   0.776   0.261  10.487  0.0609 -0.1306  0.2338
  897MPD2    H513151   0.685   0.299  10.464  0.1947 -0.5253 -0.9197
  897MPD2    N113152   1.182   0.060  10.270 -0.9840  0.3562 -0.1950
  897MPD2    H713153   1.228   0.048  10.181 -1.2443  0.6966 -0.3753
  898MPD2     C13154   2.447   1.577  17.410  0.0141  0.3097 -0.3375
  898MPD2    C113155   2.562   1.596  17.338 -0.0814 -0.2757 -0.3342
  898MPD2    C213156   2.562   1.703  17.251 -0.1327 -0.5066  0.4482
  898MPD2    C313157   2.466   1.798  17.248  0.2463 -0.3813 -0.0030
  898MPD2    C413158   2.359   1.784  17.327 -0.3918 -0.2959  0.7946
  898MPD2    C513159   2.351   1.672  17.397 -0.0199 -0.3790 -0.0376
  898MPD2     H13160   2.645   1.712  17.183  0.8754  1.0094  1.8713
  898MPD2    H113161   2.281   1.858  17.341 -0.4303 -0.3900  1.0796
  898MPD2    H213162   2.428   1.497  17.480 -0.3377  0.3493 -0.3899
  898MPD2    H313163   2.262   1.660  17.459  0.4050 -0.8582  0.4765
  898MPD2     N13164   2.476   1.897  17.151 -0.1745  0.3370  0.3177
  898MPD2    H513165   2.567   1.905  17.106 -0.3485 -2.2331 -0.4783
  898MPD2    N113166   2.679   1.512  17.333  0.2846 -0.2528 -0.2734
  898MPD2    H713167   2.758   1.542  17.277  0.3063  0.6390  0.2290
  899MPD2     C13168   3.488   1.746  17.217  0.0802  0.0986  0.1005
  899MPD2    C113169   3.523   1.854  17.296  0.2568 -0.3240  0.0978
  899MPD2    C213170   3.472   1.875  17.421  0.2008 -0.3191 -0.2179
  899MPD2    C313171   3.393   1.766  17.473  0.2057 -0.3458 -0.1823
  899MPD2    C413172   3.360   1.657  17.394 -0.1672 -0.7183 -0.5340
  899MPD2    C513173   3.403   1.649  17.266 -0.1051 -0.0529 -1.1765
  899MPD2     H13174   3.500   1.954  17.490 -2.6478 -1.5403  2.3572
  899MPD2    H113175   3.294   1.587  17.444 -2.7021  1.0827 -1.3171
  899MPD2    H213176   3.530   1.721  17.120 -0.9875  2.3256 -0.9346
  899MPD2    H313177   3.380   1.565  17.202 -0.8521 -1.5345  1.0513
  899MPD2     N13178   3.345   1.759  17.612 -0.2618 -0.0989 -0.5419
  899MPD2    H513179   3.276   1.687  17.631 -1.4299  0.5457 -2.2396
  899MPD2    N113180   3.614   1.948  17.232 -0.6465  0.2884 -0.1552
  899MPD2    H713181   3.635   1.934  17.134  0.2900  0.1646  0.0622
  900MPD2     C13182   3.830   3.735  12.435 -0.6230 -0.0224 -0.0786
  900MPD2    C113183   3.763   3.625  12.470 -0.0034  0.5031  0.6050
  900MPD2    C213184   3.626   3.631  12.483 -0.0416  0.4825 -0.3381
  900MPD2    C313185   3.556   3.753  12.457 -0.2320 -0.4598 -0.5050
  900MPD2    C413186   3.634   3.865  12.421  0.2609 -0.0783 -0.0961
  900MPD2    C513187   3.766   3.851  12.405 -0.2409 -0.6468 -0.3605
  900MPD2     H13188   3.558   3.549  12.501  2.1961 -1.2166  0.3963
  900MPD2    H113189   3.584   3.960  12.410  2.3533  1.0900  0.4100
  900MPD2    H213190   3.938   3.731  12.441 -0.8279 -0.2137  3.0347
  900MPD2    H313191   3.829   3.938  12.387 -1.0834 -0.3253 -1.7523
  900MPD2     N13192   3.415   3.743  12.456  0.4584 -0.9205  0.3194
  900MPD2    H513193   3.375   3.650  12.452  1.5973 -1.4907  1.7266
  900MPD2    N113194   3.841   3.511  12.495  0.1067  0.2263  0.0686
  900MPD2    H713195   3.939   3.514  12.468  0.0229 -2.9134 -0.6128
  901MPD2     C13196   4.038   2.497  12.908 -0.6830 -0.7111  0.5573
  901MPD2    C113197   4.105   2.520  12.789  0.1357 -0.1234 -0.5783
  901MPD2    C213198   4.103   2.649  12.739  0.1390 -0.2394  0.3107
  901MPD2    C313199   4.035   2.754  12.793 -0.8983 -0.1804  0.4207
  901MPD2    C413200   3.959   2.724  12.905 -0.2798 -0.2879 -0.4797
  901MPD2    C513201   3.969   2.600  12.958 -0.1761 -0.0739 -0.0301
  901MPD2     H13202   4.156   2.664  12.646  1.4771  0.7840  1.2217
  901MPD2    H113203   3.889   2.793  12.951 -0.3522 -0.9414  0.3984
  901MPD2    H213204   4.023   2.402  12.956 -0.8763 -0.5091  0.8963
  901MPD2    H313205   3.915   2.581  13.050 -0.6207  0.4300 -0.1864
  901MPD2     N13206   4.021   2.880  12.722 -0.2082 -0.5586 -0.2210
  901MPD2    H513207   4.085   2.892  12.644 -1.9480  2.2479 -1.2399
  901MPD2    N113208   4.168   2.411  12.732  0.1064 -0.1864  0.2189
  901MPD2    H713209   4.155   2.321  12.777  2.5420  0.6950  2.7223
  902MPD2     C13210   2.741   1.492  12.933 -0.4289 -1.1269  0.2772
  902MPD2    C113211   2.630   1.498  12.847 -0.4977 -0.2978 -0.0717
  902MPD2    C213212   2.625   1.409  12.742 -0.3521  0.2198  0.0937
  902MPD2    C313213   2.725   1.312  12.726  0.5913 -0.9174  0.2339
  902MPD2    C413214   2.831   1.319  12.817  0.4150 -0.0968 -0.9036
  902MPD2    C513215   2.844   1.409  12.924 -0.4825  0.1852 -0.2498
  902MPD2     H13216   2.538   1.390  12.680 -1.1695  0.0130  1.3085
  902MPD2    H113217   2.913   1.247  12.812  0.5614  0.1024 -1.3314
  902MPD2    H213218   2.745   1.560  13.017 -2.2562 -0.3888 -0.2377
  902MPD2    H313219   2.927   1.415  12.993  0.0570 -1.5375 -0.7344
  902MPD2     N13220   2.731   1.213  12.625 -0.0989  0.5358  0.8460
  902MPD2    H513221   2.798   1.138  12.634 -2.0988 -1.3753 -0.1101
  902MPD2    N113222   2.522   1.591  12.860 -0.2652 -0.1918 -0.4598
  902MPD2    H713223   2.519   1.651  12.942 -1.8725  0.0562 -0.6984
  903MPD2     C13224   2.658   1.067  11.727 -0.4242  0.0719 -0.7479
  903MPD2    C113225   2.572   1.069  11.832  0.2512 -0.5064 -0.1531
  903MPD2    C213226   2.439   1.071  11.810  0.6215 -0.1581  0.0895
  903MPD2    C313227   2.387   1.086  11.676  0.1226 -0.1017  0.0810
  903MPD2    C413228   2.473   1.091  11.576 -0.2441 -0.1075 -0.1883
  903MPD2    C513229   2.606   1.081  11.601 -0.3551 -0.4388  0.7711
  903MPD2     H13230   2.368   1.074  11.891 -1.7696  0.3242 -2.0110
  903MPD2    H113231   2.442   1.108  11.473 -0.1136  4.1641  0.5137
  903MPD2    H213232   2.763   1.044  11.731 -0.4111  0.3729  0.9097
  903MPD2    H313233   2.678   1.063  11.522 -1.4979 -2.5215  0.2292
  903MPD2     N13234   2.242   1.102  11.669  0.1709 -0.0832 -0.2755
  903MPD2    H513235   2.191   1.117  11.755  0.1745  1.9857 -0.6341
  903MPD2    N113236   2.621   1.064  11.961  0.0533  0.0648 -0.2678
  903MPD2    H713237   2.722   1.060  11.969  0.1497  1.8913 -0.7144
  904MPD2     C13238   2.424   0.719  13.785 -0.0983  0.4624 -0.0581
  904MPD2    C113239   2.425   0.620  13.886 -0.9782 -0.1372 -0.1646
  904MPD2    C213240   2.546   0.592  13.945 -0.4339 -0.4320 -0.1256
  904MPD2    C313241   2.660   0.659  13.922 -0.4301  0.6467 -0.1502
  904MPD2    C413242   2.651   0.762  13.827  0.3987  0.1395  0.4510
  904MPD2    C513243   2.536   0.791  13.764 -0.4062 -0.8995  0.8120
  904MPD2     H13244   2.539   0.510  14.015 -0.0003  0.2533  0.7247
  904MPD2    H113245   2.735   0.828  13.815 -0.7798  1.4387 -0.6741
  904MPD2    H213246   2.342   0.744  13.719 -1.9159 -2.6597  1.0012
  904MPD2    H313247   2.525   0.871  13.692  1.4210 -1.4410 -0.0603
  904MPD2     N13248   2.786   0.631  13.989  0.0066  0.2502  0.1823
  904MPD2    H513249   2.786   0.562  14.064 -1.0300  0.0936  0.0378
  904MPD2    N113250   2.317   0.539  13.912 -0.2568 -0.2659 -0.8186
  904MPD2    H713251   2.333   0.459  13.973 -1.6765  1.1380  1.4298
  905MPD2     C13252   2.135   0.738  13.201 -0.0907 -0.3119 -0.2105
  905MPD2    C113253   2.202   0.771  13.320  0.9192  0.0747  0.2158
  905MPD2    C213254   2.339   0.807  13.319 -0.0702 -0.2734  0.0979
  905MPD2    C313255   2.402   0.800  13.196 -0.5058 -0.2610  0.5349
  905MPD2    C413256   2.339   0.754  13.081  0.4130 -0.1815 -0.6172
  905MPD2    C513257   2.202   0.728  13.081 -0.3511  0.1119 -0.3011
  905MPD2     H13258   2.398   0.815  13.409 -0.7190  0.7135  0.4298
  905MPD2    H113259   2.408   0.736  12.999  0.5473 -4.7459  0.4926
  905MPD2    H213260   2.030   0.712  13.205  0.1890 -1.7518 -2.3565
  905MPD2    H313261   2.150   0.693  12.992  0.2390 -1.4249 -0.0440
  905MPD2     N13262   2.542   0.817  13.193 -0.7403  0.0512 -0.0391
  905MPD2    H513263   2.600   0.779  13.119 -0.0483  2.1689 -0.5932
  905MPD2    N113264   2.120   0.773  13.435  0.4657 -0.1772 -0.1755
  905MPD2    H713265   2.027   0.731  13.428  1.5197 -2.4878 -0.1965
  906MPD2     C13266   4.410   0.489  11.425  0.5801  0.4888  0.0173
  906MPD2    C113267   4.370   0.399  11.330 -0.0707  0.6388  0.1488
  906MPD2    C213268   4.291   0.290  11.365 -0.1386  0.3608 -0.4231
  906MPD2    C313269   4.246   0.282  11.496  0.0022  0.2978  0.3270
  906MPD2    C413270   4.299   0.357  11.596  0.8205 -0.0270  0.6260
  906MPD2    C513271   4.384   0.456  11.561  0.0792 -0.4652 -0.8160
  906MPD2     H13272   4.262   0.222  11.285  0.0416 -2.4605  1.8900
  906MPD2    H113273   4.275   0.348  11.701  3.1013 -1.5467  1.0364
  906MPD2    H213274   4.459   0.584  11.415  1.0873  0.3145  0.8201
  906MPD2    H313275   4.411   0.520  11.645 -1.0493  0.2019 -0.9566
  906MPD2     N13276   4.141   0.190  11.524 -0.4026 -0.4893 -0.2484
  906MPD2    H513277   4.122   0.153  11.617 -1.2054 -0.5928 -0.4482
  906MPD2    N113278   4.414   0.408  11.193  0.5774 -0.0658  0.2843
  906MPD2    H713279   4.368   0.342  11.130 -0.1534  1.7159 -1.0440
  907MPD2     C13280   3.290   4.474  15.504 -0.3882  0.0540  0.8554
  907MPD2    C113281   3.331   4.345  15.467  0.4882 -0.4385  0.2053
  907MPD2    C213282   3.383   4.265  15.569 -0.3587 -0.0574 -0.3091
  907MPD2    C313283   3.397   4.321  15.696 -0.0507 -0.1693  0.3774
  907MPD2    C413284   3.365   4.452  15.724 -0.1971 -0.3494 -0.3482
  907MPD2    C513285   3.305   4.527  15.630  0.1115  0.0646 -0.5468
  907MPD2     H13286   3.408   4.161  15.554  0.5265  0.3224 -1.5281
  907MPD2    H113287   3.377   4.505  15.817 -2.1547  0.5525 -0.6112
  907MPD2    H213288   3.227   4.537  15.443  0.8414  0.8829  0.4348
  907MPD2    H313289   3.258   4.618  15.664  0.4978  0.2816 -0.5908
  907MPD2     N13290   3.459   4.236  15.794 -0.4362  0.0961 -0.1782
  907MPD2    H513291   3.491   4.144  15.766  1.2450  0.1362  1.6715
  907MPD2    N113292   3.310   4.276  15.342  0.6390 -0.3567 -0.3085
  907MPD2    H713293   3.335   4.178  15.337 -0.7283 -0.7601  0.6933
  908MPD2     C13294   1.707   4.585   9.582  0.0124 -0.5004  0.3198
  908MPD2    C113295   1.644   4.485   9.659  0.0887 -0.2996  0.2612
  908MPD2    C213296   1.608   4.516   9.789  0.0945 -0.0655  0.1223
  908MPD2    C313297   1.631   4.640   9.840 -0.6292  1.0557 -1.0228
  908MPD2    C413298   1.678   0.018   9.761  0.4396  0.6570 -0.0776
  908MPD2    C513299   1.724   4.715   9.636  0.0144 -0.1034 -0.1089
  908MPD2     H13300   1.569   4.436   9.851 -0.8574  1.6079  1.6733
  908MPD2    H113301   1.686   0.123   9.789 -3.7193  0.5641  1.4806
  908MPD2    H213302   1.737   4.569   9.479  2.0502  0.6075  0.7530
  908MPD2    H313303   1.780   0.064   9.578  0.0519  0.3675  0.5213
  908MPD2     N13304   1.589   4.667   9.977 -0.4442 -0.0385 -0.5656
  908MPD2    H513305   1.561   4.585  10.031 -0.7646 -0.2296 -1.0168
  908MPD2    N113306   1.613   4.362   9.596 -0.0217 -0.0263 -1.2573
  908MPD2    H713307   1.670   4.340   9.516  1.7713 -2.1751  0.6202
  909MPD2     C13308   1.539   2.834  11.970 -0.0978 -0.0006 -0.3253
  909MPD2    C113309   1.514   2.953  11.906 -0.9896 -0.7669 -0.5244
  909MPD2    C213310   1.404   3.027  11.948 -0.3972 -1.0268  0.2072
  909MPD2    C313311   1.329   2.990  12.057  0.3239  0.7788  0.0606
  909MPD2    C413312   1.359   2.869  12.116  0.4145 -0.5769 -0.3112
  909MPD2    C513313   1.457   2.788  12.066  1.0473 -0.4561  0.1604
  909MPD2     H13314   1.375   3.115  11.892 -0.1115 -0.8816  0.2836
  909MPD2    H113315   1.312   2.838  12.209  3.5931 -0.0601  1.4506
  909MPD2    H213316   1.626   2.776  11.940  0.5551  1.0397 -0.4493
  909MPD2    H313317   1.491   2.698  12.116  0.3689 -0.8853 -0.1480
  909MPD2     N13318   1.221   3.078  12.087  1.1809  0.3683 -0.1031
  909MPD2    H513319   1.210   3.160  12.028 -1.7478  1.1181  1.4783
  909MPD2    N113320   1.581   3.012  11.804 -0.0703 -0.3358  0.1627
  909MPD2    H713321   1.560   3.109  11.782 -0.3858  0.2302  3.0599
  910MPD2     C13322   2.689   0.221  15.864  0.3591  0.3890 -0.2662
  910MPD2    C113323   2.789   0.184  15.774 -0.6688 -0.5595 -0.1218
  910MPD2    C213324   2.815   0.266  15.667 -0.5533  0.0570 -0.4237
  910MPD2    C313325   2.758   0.393  15.650  0.1605 -0.4724  0.8880
  910MPD2    C413326   2.668   0.429  15.744  1.2103 -0.3878  0.0747
  910MPD2    C513327   2.636   0.349  15.854  0.3898 -0.1003 -0.1173
  910MPD2     H13328   2.894   0.233  15.601  0.3055 -1.5862  1.4485
  910MPD2    H113329   2.611   0.520  15.738  3.7216  1.2945  1.5578
  910MPD2    H213330   2.669   0.149  15.942 -1.3833 -0.9833 -1.9465
  910MPD2    H313331   2.557   0.376  15.924  1.5887 -0.0901  1.2243
  910MPD2     N13332   2.787   0.488  15.546  0.0860 -0.1170  0.2147
  910MPD2    H513333   2.733   0.573  15.551  0.9670  0.4557  0.0584
  910MPD2    N113334   2.852   0.064  15.774  0.1299  0.3986 -0.1416
  910MPD2    H713335   2.906   0.046  15.690  0.5002  1.4939 -0.1313
  911MPD2     C13336   0.556   0.744  16.277 -0.6059 -0.0172 -0.1067
  911MPD2    C113337   0.585   0.872  16.326 -0.0893  0.1000 -0.6696
  911MPD2    C213338   0.518   0.986  16.278  0.3505  0.3313 -0.0342
  911MPD2    C313339   0.415   0.957  16.191  0.1907  0.2777 -0.8345
  911MPD2    C413340   0.380   0.834  16.150  0.4160  0.4832  0.2000
  911MPD2    C513341   0.447   0.722  16.198 -0.3321  0.0942  0.2219
  911MPD2     H13342   0.537   1.086  16.314  0.6053 -0.1146  1.0751
  911MPD2    H113343   0.291   0.813  16.092  1.3595  0.3706 -1.2046
  911MPD2    H213344   0.614   0.662  16.319  0.2079 -0.7887 -2.7864
  911MPD2    H313345   0.409   0.623  16.176 -0.1243  0.5558 -2.1632
  911MPD2     N13346   0.329   1.059  16.142 -0.1449 -0.1224  0.1631
  911MPD2    H513347   0.252   1.024  16.087 -0.7675  0.0162  0.9451
  911MPD2    N113348   0.691   0.878  16.413 -0.3745 -0.3597 -0.6911
  911MPD2    H713349   0.718   0.782  16.429  3.2138  0.3626 -2.4420
  912MPD2     C13350   4.723   0.852  15.569 -0.7773 -0.0682 -0.4973
  912MPD2    C113351   0.047   0.862  15.693 -0.1714  0.0733  0.1543
  912MPD2    C213352   0.094   0.744  15.755  0.0406 -0.0299  0.4666
  912MPD2    C313353   0.108   0.624  15.691 -0.5749 -0.3626 -0.4604
  912MPD2    C413354   0.076   0.613  15.559 -0.4731  0.8708  0.1167
  912MPD2    C513355   0.007   0.726  15.506 -0.3219  0.1015  0.2714
  912MPD2     H13356   0.137   0.764  15.853 -2.0803 -1.8074  1.7792
  912MPD2    H113357   0.085   0.521  15.502  4.2826  1.1616  0.4207
  912MPD2    H213358   4.681   0.939  15.520 -0.9817 -0.2035 -0.5636
  912MPD2    H313359   4.682   0.719  15.410  0.5420  0.0200 -0.1610
  912MPD2     N13360   0.142   0.504  15.763  0.2820 -0.4237 -0.8483
  912MPD2    H513361   0.153   0.417  15.711 -0.2864  0.5772 -2.6749
  912MPD2    N113362   0.057   0.997  15.740 -0.0587 -0.0043  0.4680
  912MPD2    H713363   0.032   1.075  15.680 -0.7148 -0.2431  0.4315
  913MPD2     C13364   0.976   1.399  10.558  0.0826 -0.2958 -0.1295
  913MPD2    C113365   1.078   1.486  10.591  0.0184  0.0359  0.0313
  913MPD2    C213366   1.083   1.608  10.519 -0.2271  0.0882 -0.2666
  913MPD2    C313367   0.989   1.631  10.423 -0.0050 -0.6090 -0.1652
  913MPD2    C413368   0.897   1.543  10.391 -0.3116 -0.1173 -0.4297
  913MPD2    C513369   0.889   1.426  10.451  0.3312 -0.5927 -0.5299
  913MPD2     H13370   1.164   1.677  10.538 -0.0273 -0.1261 -0.3420
  913MPD2    H113371   0.823   1.568  10.317  0.4875  1.2581 -0.7601
  913MPD2    H213372   0.956   1.310  10.617 -1.3482 -1.4790 -2.3676
  913MPD2    H313373   0.797   1.370  10.435  1.2186 -2.0742 -0.3915
  913MPD2     N13374   0.990   1.749  10.352  0.4075 -0.1567 -0.7487
  913MPD2    H513375   0.918   1.760  10.281 -0.4343  1.1425  0.2972
  913MPD2    N113376   1.146   1.458  10.713 -0.1286  0.3155 -0.0086
  913MPD2    H713377   1.142   1.359  10.738 -1.4237  0.1650 -0.7766
  914MPD2     C13378   3.556   2.432  12.134  0.7089 -0.4827 -0.1466
  914MPD2    C113379   3.605   2.519  12.225 -0.2534 -0.6792 -0.0311
  914MPD2    C213380   3.706   2.476  12.311 -0.1881 -0.8143  0.1266
  914MPD2    C313381   3.757   2.350  12.304 -0.2432 -0.6434  0.1782
  914MPD2    C413382   3.708   2.259  12.209  0.4105  0.0785  0.4336
  914MPD2    C513383   3.607   2.310  12.123 -0.3331  0.7611 -0.3352
  914MPD2     H13384   3.750   2.542  12.385 -1.1137  0.7980 -0.7605
  914MPD2    H113385   3.748   2.161  12.189  0.4868  0.1267  0.3496
  914MPD2    H213386   3.478   2.458  12.064  1.1792  0.6250 -0.2569
  914MPD2    H313387   3.573   2.240  12.047  0.7793 -0.3595  0.2020
  914MPD2     N13388   3.870   2.318  12.379 -0.5660  0.6996 -0.0106
  914MPD2    H513389   3.926   2.395  12.415 -0.4770  1.0916 -0.9952
  914MPD2    N113390   3.557   2.651  12.249 -0.4082 -1.1590  0.1333
  914MPD2    H713391   3.624   2.703  12.305 -0.7370 -1.4023  0.7506
  915MPD2     C13392   1.157   2.087  15.989  0.7703  0.6767 -0.1990
  915MPD2    C113393   1.028   2.137  15.974  0.4873  0.4376  0.2950
  915MPD2    C213394   0.965   2.222  16.069 -0.2218  0.0829 -0.2224
  915MPD2    C313395   1.037   2.261  16.177  0.5249  0.3769 -0.2812
  915MPD2    C413396   1.167   2.217  16.196  0.3169  0.5873  0.2278
  915MPD2    C513397   1.219   2.130  16.102  0.9682 -0.3359 -0.4359
  915MPD2     H13398   0.868   2.266  16.052  0.0659  0.7244 -0.2082
  915MPD2    H113399   1.227   2.249  16.280 -1.5948  1.2089  1.3675
  915MPD2    H213400   1.205   2.011  15.927  0.1235  0.2450 -0.1696
  915MPD2    H313401   1.316   2.083  16.120  1.1208  0.6231  1.2794
  915MPD2     N13402   0.984   2.358  16.264  0.0876  0.1508 -0.5388
  915MPD2    H513403   1.049   2.380  16.338  0.4730 -0.8424 -0.5869
  915MPD2    N113404   0.953   2.131  15.855 -0.0807  0.3887  0.0999
  915MPD2    H713405   0.858   2.166  15.860 -0.8806 -1.4925 -1.6329
  916MPD2     C13406   4.451   0.627  15.795  0.0691 -0.0569 -1.0745
  916MPD2    C113407   4.470   0.540  15.892  0.3584  0.6987  0.3555
  916MPD2    C213408   4.485   0.413  15.855 -0.1740 -0.1035 -0.2233
  916MPD2    C313409   4.496   0.377  15.721  0.5388 -0.0335  0.0354
  916MPD2    C413410   4.480   0.468  15.621  0.0713  0.3533  0.9528
  916MPD2    C513411   4.459   0.600  15.661  0.2730  0.2982  0.0724
  916MPD2     H13412   4.503   0.337  15.930  1.1676  2.4440  2.0414
  916MPD2    H113413   4.499   0.456  15.515 -0.5735  1.0998  0.7460
  916MPD2    H213414   4.454   0.733  15.818 -0.8897  0.5481 -3.7861
  916MPD2    H313415   4.448   0.679  15.588 -0.2919  0.2032  0.0544
  916MPD2     N13416   4.532   0.245  15.688  0.0664  0.0221 -0.0179
  916MPD2    H513417   4.511   0.169  15.753  1.4842  0.3149  0.7783
  916MPD2    N113418   4.473   0.587  16.023  0.0441 -0.0575  0.1437
  916MPD2    H713419   4.463   0.688  16.031 -3.2979 -0.3126 -0.4749
  917MPD2     C13420   0.391   2.595  10.997 -0.6285 -0.0183 -0.3231
  917MPD2    C113421   0.409   2.711  11.074  0.0553 -0.7836  0.2711
  917MPD2    C213422   0.520   2.791  11.052 -0.0338  0.5021 -0.4894
  917MPD2    C313423   0.612   2.760  10.954 -0.3051 -0.2066 -1.3009
  917MPD2    C413424   0.588   2.657  10.871 -0.3578  0.2544  0.4972
  917MPD2    C513425   0.484   2.572  10.901  0.0271  0.4547  0.3144
  917MPD2     H13426   0.525   2.879  11.115  0.9549 -1.5469  2.3145
  917MPD2    H113427   0.659   2.625  10.796 -0.2391  1.2305  0.2010
  917MPD2    H213428   0.305   2.530  11.009 -0.8761  0.9654  2.9686
  917MPD2    H313429   0.457   2.496  10.829 -2.2844  0.3974  1.2387
  917MPD2     N13430   0.717   2.862  10.934 -0.0221 -0.4259 -0.2694
  917MPD2    H513431   0.700   2.948  10.984 -0.1662 -1.2958  1.1842
  917MPD2    N113432   0.306   2.735  11.170 -0.8622 -0.0555 -0.2051
  917MPD2    H713433   0.245   2.659  11.197  0.2133 -1.4510 -1.7344
  918MPD2     C13434   0.413   3.189  12.049 -0.5026  0.1069  1.0212
  918MPD2    C113435   0.437   3.054  12.037 -0.9419  0.8207  0.1343
  918MPD2    C213436   0.385   2.983  11.933 -0.8272  0.3385 -0.1938
  918MPD2    C313437   0.319   3.053  11.834  0.6008  0.1397  0.9626
  918MPD2    C413438   0.309   3.190  11.835  0.0150  0.4960  0.4265
  918MPD2    C513439   0.355   3.254  11.948 -0.3710  0.2244 -0.2335
  918MPD2     H13440   0.388   2.875  11.924 -4.0162 -0.0108  2.7346
  918MPD2    H113441   0.256   3.256  11.767  1.6818  2.1760  0.7579
  918MPD2    H213442   0.459   3.244  12.131 -1.9723  1.5653  0.8571
  918MPD2    H313443   0.360   3.362  11.950 -0.2411  0.2201 -0.3994
  918MPD2     N13444   0.258   3.000  11.722 -0.4007 -0.4168  0.7757
  918MPD2    H513445   0.218   3.069  11.659 -0.8834  0.6119  2.1959
  918MPD2    N113446   0.506   2.980  12.138  0.0414  0.1431 -0.7344
  918MPD2    H713447   0.520   2.882  12.113  2.4399 -0.0606  1.3904
  919MPD2     C13448   1.068   1.778  11.721  0.2953 -0.2762 -0.2646
  919MPD2    C113449   1.025   1.652  11.669 -0.4036 -0.1925 -0.5264
  919MPD2    C213450   1.016   1.632  11.530  0.4213 -0.8666 -0.0346
  919MPD2    C313451   1.041   1.741  11.451  0.1713 -0.2681 -0.0551
  919MPD2    C413452   1.084   1.862  11.499  0.2235  0.2010 -0.1160
  919MPD2    C513453   1.108   1.878  11.636  0.2465  0.6736  0.6284
  919MPD2     H13454   0.972   1.537  11.505 -0.2165 -0.1785 -1.5187
  919MPD2    H113455   1.101   1.946  11.433 -0.2575 -0.8674 -1.6146
  919MPD2    H213456   1.082   1.808  11.824  0.6057 -0.5946 -0.2133
  919MPD2    H313457   1.134   1.976  11.675 -1.2563  1.6702 -0.9150
  919MPD2     N13458   1.010   1.737  11.317 -0.1676  0.0152 -0.4358
  919MPD2    H513459   1.004   1.827  11.270  0.9729  0.7026  0.7544
  919MPD2    N113460   0.987   1.541  11.746 -0.1190 -0.1508  0.5619
  919MPD2    H713461   0.960   1.459  11.693 -1.3689 -0.4450  1.6386
  920MPD2     C13462   0.898   2.195  10.444  0.1039 -0.2392  0.2389
  920MPD2    C113463   0.780   2.124  10.468  0.4604  0.4769  0.1662
  920MPD2    C213464   0.786   2.016  10.547  0.0219  0.0100 -0.1489
  920MPD2    C313465   0.891   1.984  10.624 -0.6454 -0.8750 -0.4593
  920MPD2    C413466   1.007   2.056  10.602 -0.2867  0.0241 -0.4126
  920MPD2    C513467   1.009   2.160  10.514  0.0272  0.1751  0.0908
  920MPD2     H13468   0.692   1.969  10.573  0.5174  0.2712  2.1191
  920MPD2    H113469   1.096   2.022  10.653  0.2562  1.3958 -0.4333
  920MPD2    H213470   0.918   2.268  10.366 -1.4380  0.4563  0.4969
  920MPD2    H313471   1.093   2.228  10.502 -0.8720  0.9287 -1.9552
  920MPD2     N13472   0.882   1.880  10.715  0.0150 -0.7539  0.7070
  920MPD2    H513473   0.789   1.840  10.707 -0.6104  0.8679 -0.1221
  920MPD2    N113474   0.653   2.150  10.406  0.0137  0.7304 -0.4571
  920MPD2    H713475   0.570   2.095  10.425  1.4205 -1.8722 -1.8199
  921MPD2     C13476   1.495   0.984  17.131 -0.7259 -0.1878 -0.2428
  921MPD2    C113477   1.522   0.999  16.998  0.2861  0.0055  0.8782
  921MPD2    C213478   1.421   0.976  16.904 -0.5231  0.0222  0.0824
  921MPD2    C313479   1.293   0.963  16.943  0.8012 -0.6409  0.5240
  921MPD2    C413480   1.254   0.955  17.077 -0.3484 -0.3172  0.1491
  921MPD2    C513481   1.362   0.962  17.170 -0.1671  0.6974 -0.5246
  921MPD2     H13482   1.441   0.974  16.797 -1.3043  0.9647 -0.0742
  921MPD2    H113483   1.153   0.944  17.112  0.0185  0.6725  1.5033
  921MPD2    H213484   1.578   1.003  17.197 -1.9802  2.1237  0.6799
  921MPD2    H313485   1.337   0.942  17.273  0.8564 -0.5798 -0.5242
  921MPD2     N13486   1.203   0.970  16.837  0.5006  0.8591 -0.2667
  921MPD2    H513487   1.226   0.949  16.740  2.1383 -0.4052  0.4061
  921MPD2    N113488   1.648   1.043  16.970 -0.0273  0.1995 -0.4618
  921MPD2    H713489   1.717   1.047  17.045  1.6573  2.3777 -2.1157
  922MPD2     C13490   1.876   3.425  17.576 -0.3667 -0.0080 -0.0013
  922MPD2    C113491   1.842   3.485  17.458  0.1295 -0.1643 -0.6251
  922MPD2    C213492   1.743   3.426  17.382 -0.0232 -0.3881 -0.7537
  922MPD2    C313493   1.688   3.305  17.427  0.7808  0.1707 -0.3825
  922MPD2    C413494   1.720   3.248  17.551 -0.1340  0.6017  0.3539
  922MPD2    C513495   1.814   3.310  17.625 -0.0441  0.7274  0.0136
  922MPD2     H13496   1.718   3.481  17.293 -2.6190 -1.3424 -0.6126
  922MPD2    H113497   1.694   3.145  17.575  0.4932  0.1720 -0.8124
  922MPD2    H213498   1.956   3.466  17.636  0.0121 -1.1775  0.2827
  922MPD2    H313499   1.847   3.252   0.013  0.0548 -0.7901 -1.0561
  922MPD2     N13500   1.595   3.248  17.341  0.0860 -0.0096 -0.0491
  922MPD2    H513501   1.571   3.298  17.256 -0.0915 -0.4966 -0.2811
  922MPD2    N113502   1.916   3.594  17.412  0.5381 -0.5227 -0.3783
  922MPD2    H713503   1.911   3.623  17.314 -3.7251  0.8928  0.2329
  923MPD2     C13504   4.227   0.591   9.251  0.6058  0.5262 -0.7881
  923MPD2    C113505   4.154   0.595   9.363 -0.4308 -0.0929  0.6750
  923MPD2    C213506   4.216   0.619   9.486  0.3768 -0.1309 -0.6340
  923MPD2    C313507   4.350   0.639   9.492 -0.6504 -0.2758 -0.4852
  923MPD2    C413508   4.418   0.650   9.373 -0.2506  0.3958 -0.1887
  923MPD2    C513509   4.352   0.635   9.255  0.9794 -0.1505 -0.2728
  923MPD2     H13510   4.161   0.594   9.576  0.3304 -2.2940 -1.2413
  923MPD2    H113511   4.524   0.672   9.364 -0.5203  1.6681 -0.2487
  923MPD2    H213512   4.181   0.555   9.160 -0.5248  1.0811 -0.4470
  923MPD2    H313513   4.402   0.646   9.160  0.7484  0.6515 -0.3032
  923MPD2     N13514   4.418   0.669   9.617 -0.1829  0.6545 -0.2364
  923MPD2    H513515   4.515   0.698   9.620 -0.2338  0.5691  2.3394
  923MPD2    N113516   4.017   0.568   9.356 -0.3939  0.1854  0.5166
  923MPD2    H713517   3.981   0.536   9.267  1.4139 -2.0090  0.5663
  924MPD2     C13518   3.789   3.623  15.529  0.2057 -0.8937  0.8281
  924MPD2    C113519   3.678   3.607  15.606  0.2604 -0.2709 -0.4313
  924MPD2    C213520   3.674   3.676  15.722 -0.1955  0.7189 -0.5546
  924MPD2    C313521   3.766   3.779  15.756 -0.3279  0.3507  0.1428
  924MPD2    C413522   3.877   3.789  15.669  0.1082 -0.3588 -0.5292
  924MPD2    C513523   3.891   3.705  15.563 -0.3514 -0.3164 -0.7828
  924MPD2     H13524   3.600   3.655  15.797  0.9811  2.1295  0.9939
  924MPD2    H113525   3.961   3.857  15.678  0.9735 -1.1922 -2.2026
  924MPD2    H213526   3.808   3.554  15.448 -1.0031  0.3922 -0.5561
  924MPD2    H313527   3.970   3.724  15.492  0.5882 -2.1622 -0.2145
  924MPD2     N13528   3.755   3.856  15.875 -0.0483 -0.5848 -0.1469
  924MPD2    H513529   3.678   3.819  15.930  0.4805 -1.7252 -0.1515
  924MPD2    N113530   3.571   3.531  15.560  0.6166 -0.2005 -0.2846
  924MPD2    H713531   3.576   3.500  15.463 -0.4212  0.1842 -0.4573
  925MPD2     C13532   2.502   1.442  14.898  0.1808  0.0688 -0.2140
  925MPD2    C113533   2.378   1.430  14.843 -0.0476 -0.7013  0.3721
  925MPD2    C213534   2.263   1.417  14.921 -0.2652  0.2411  0.1329
  925MPD2    C313535   2.274   1.429  15.056  0.0333  0.9395  0.2569
  925MPD2    C413536   2.396   1.448  15.116 -0.6222 -0.0441 -0.1576
  925MPD2    C513537   2.508   1.448  15.037  0.4556 -0.2430  0.7259
  925MPD2     H13538   2.168   1.403  14.871 -0.4071  1.1994  0.1262
  925MPD2    H113539   2.403   1.455  15.224 -2.7307  4.1199 -0.2679
  925MPD2    H213540   2.591   1.446  14.835  0.5501  1.2587  0.3760
  925MPD2    H313541   2.609   1.452  15.077 -0.0232  0.9939  1.7845
  925MPD2     N13542   2.162   1.420  15.143  0.2401  0.7603  0.2267
  925MPD2    H513543   2.181   1.417  15.242 -2.5306  0.2535  0.7379
  925MPD2    N113544   2.365   1.455  14.704  0.2476 -0.5746 -0.1165
  925MPD2    H713545   2.267   1.446  14.678 -0.6439  2.0510  2.3356
  926MPD2     C13546   0.864   4.597  13.118  1.0591  0.7297 -0.1750
  926MPD2    C113547   0.902   0.005  13.144 -0.5172 -1.1616  0.4904
  926MPD2    C213548   0.957   0.071  13.039  0.3587  0.3796  0.1028
  926MPD2    C313549   0.983   0.008  12.915 -0.1626  0.0679  0.3292
  926MPD2    C413550   0.945   4.602  12.895 -0.6015  0.1207 -0.7936
  926MPD2    C513551   0.881   4.540  12.999  0.1042  0.2382  0.3325
  926MPD2     H13552   0.993   0.170  13.066  3.0262  0.1870 -2.7096
  926MPD2    H113553   0.964   4.547  12.803 -0.6930 -0.6036 -0.3720
  926MPD2    H213554   0.824   4.524  13.188  0.0022  1.4295 -0.0656
  926MPD2    H313555   0.853   4.435  12.992  0.2307  0.1904  0.5389
  926MPD2     N13556   1.055   0.066  12.810 -0.0388  0.4412  0.0504
  926MPD2    H513557   1.080   0.008  12.731 -0.1247  0.3159  0.1150
  926MPD2    N113558   0.889   0.070  13.275 -0.3648  0.8071 -0.1857
  926MPD2    H713559   0.934   0.160  13.289 -1.7181  1.6010 -0.9597
  927MPD2     C13560   0.287   1.980   0.404  0.5136  0.5042 -0.6531
  927MPD2    C113561   0.282   2.119   0.387 -0.2454  0.3102  0.4548
  927MPD2    C213562   0.375   2.189   0.311  0.5262 -0.2743  0.4920
  927MPD2    C313563   0.477   2.111   0.248 -0.0051 -0.4656 -0.5403
  927MPD2    C413564   0.469   1.971   0.259 -0.0315  0.0260 -0.4153
  927MPD2    C513565   0.382   1.904   0.342  0.2589 -0.2963  0.5761
  927MPD2     H13566   0.383   2.297   0.300  0.1021 -0.0855  2.0516
  927MPD2    H113567   0.542   1.910   0.207  0.5438  1.0910 -0.8484
  927MPD2    H213568   0.216   1.927   0.467 -0.6147 -0.8778 -3.0617
  927MPD2    H313569   0.386   1.797   0.360 -3.0593 -0.3041  1.1555
  927MPD2     N13570   0.571   2.173   0.166 -0.6176 -0.0392 -0.4577
  927MPD2    H513571   0.559   2.272   0.149 -3.1450 -0.0663  1.2248
  927MPD2    N113572   0.185   2.187   0.464 -0.6706 -0.2862 -0.0137
  927MPD2    H713573   0.144   2.135   0.541  1.4718 -1.0641  0.6072
  928MPD2     C13574   2.985   4.712   0.372  0.1247 -0.3147 -0.5127
  928MPD2    C113575   3.037   0.047   0.489  0.2508  0.9993  0.0207
  928MPD2    C213576   3.153   0.115   0.468  0.2991 -0.8387  0.4577
  928MPD2    C313577   3.223   0.115   0.346  0.4289  0.1754 -0.5783
  928MPD2    C413578   3.171   0.054   0.239 -0.2952  0.0522  0.8879
  928MPD2    C513579   3.049   4.714   0.256 -0.0010 -0.3132 -0.0899
  928MPD2     H13580   3.192   0.169   0.553 -1.3937  0.9253  0.1229
  928MPD2    H113581   3.228   0.051   0.147  0.2355  3.2813  1.1044
  928MPD2    H213582   2.887   4.666   0.365  0.6982 -1.6851  0.4637
  928MPD2    H313583   3.000   4.666   0.171 -0.4882 -0.7414  0.4321
  928MPD2     N13584   3.346   0.179   0.320 -0.1242 -0.3494  0.3434
  928MPD2    H513585   3.378   0.189   0.224  0.7806  2.4231  0.9136
  928MPD2    N113586   2.969   0.024   0.610  0.0951 -0.3913 -0.0704
  928MPD2    H713587   2.878   4.704   0.600 -0.0114 -0.3427  0.7120
  929MPD2     C13588   3.399   4.723   9.745  0.3244  0.0284  0.4499
  929MPD2    C113589   3.406   4.655   9.864  0.5736  0.0504  0.2605
  929MPD2    C213590   3.289   4.615   9.926 -0.4460  0.8019  0.8147
  929MPD2    C313591   3.168   4.673   9.894 -0.8645  0.6841 -0.1888
  929MPD2    C413592   3.159   0.031   9.780 -0.0091 -0.4190  0.1123
  929MPD2    C513593   3.269   0.053   9.713  0.6288  1.2012  0.0523
  929MPD2     H13594   3.301   4.571  10.025 -1.9516 -2.3017 -0.3937
  929MPD2    H113595   3.075   0.088   9.742 -0.0260 -1.0413 -0.7832
  929MPD2    H213596   3.479   0.037   9.681 -0.1654 -0.7255 -0.6088
  929MPD2    H313597   3.268   0.120   9.628 -2.4656  0.9446 -0.1026
  929MPD2     N13598   3.054   4.656   9.975 -0.2933  0.3455 -0.0412
  929MPD2    H513599   2.974   4.718   9.967 -1.0864 -0.8171 -1.1157
  929MPD2    N113600   3.523   4.640   9.940  0.0454  0.1124 -0.5092
  929MPD2    H713601   3.518   4.586  10.026 -1.1791 -0.2084 -0.7864
  930MPD2     C13602   0.844   2.936  14.657  0.1027  0.6152 -0.2471
  930MPD2    C113603   0.774   3.016  14.571 -0.8547 -0.5972 -0.0797
  930MPD2    C213604   0.671   2.962  14.501 -0.6315 -0.3720 -0.4544
  930MPD2    C313605   0.648   2.828  14.495 -0.3939 -0.5591  0.1300
  930MPD2    C413606   0.713   2.745  14.591 -0.2331  0.1508  0.7168
  930MPD2    C513607   0.814   2.804  14.663 -0.3540  0.3938 -0.1424
  930MPD2     H13608   0.603   3.026  14.445  0.5263 -0.3275 -1.8084
  930MPD2    H113609   0.705   2.639  14.608  0.8662 -0.0665 -0.1267
  930MPD2    H213610   0.924   2.975  14.718  0.8781  0.5492 -1.2099
  930MPD2    H313611   0.884   2.745  14.721 -1.1177  0.5770  0.9646
  930MPD2     N13612   0.561   2.759  14.400 -0.3577 -0.1052  0.7007
  930MPD2    H513613   0.545   2.663  14.428  0.3140 -0.5336 -0.3779
  930MPD2    N113614   0.830   3.146  14.540  0.2627  0.2722 -0.3368
  930MPD2    H713615   0.925   3.167  14.567  0.7722 -0.5412 -1.4843
  931MPD2     C13616   4.394   2.354   1.118 -0.2759 -0.3071 -0.2906
  931MPD2    C113617   4.500   2.278   1.063 -0.2068  0.0726 -1.0225
  931MPD2    C213618   4.524   2.158   1.110 -0.3611  0.0065  0.2140
  931MPD2    C313619   4.448   2.108   1.220  0.2069  0.2561 -0.7251
  931MPD2    C413620   4.348   2.185   1.271 -0.0545 -0.9617 -0.5204
  931MPD2    C513621   4.320   2.306   1.222  0.6222  0.4973  0.1199
  931MPD2     H13622   4.607   2.094   1.080 -1.3491 -1.8304  1.4010
  931MPD2    H113623   4.286   2.151   1.353 -0.7898  0.1644 -0.5921
  931MPD2    H213624   4.375   2.453   1.078  1.2006  0.0337 -0.1697
  931MPD2    H313625   4.247   2.376   1.262  1.1344  0.3015  1.4282
  931MPD2     N13626   4.464   1.983   1.281 -0.2339  0.5158 -0.6643
  931MPD2    H513627   4.384   1.961   1.340  0.2605  1.3853  0.3349
  931MPD2    N113628   4.571   2.339   0.959 -0.3856  0.3456  0.0740
  931MPD2    H713629   4.536   2.429   0.928  2.4573  1.9242  1.5322
  932MPD2     C13630   2.365   1.035  10.930 -0.6514  0.4126  0.8942
  932MPD2    C113631   2.448   1.110  11.010  0.0084 -0.4086  0.3797
  932MPD2    C213632   2.545   1.042  11.092  0.3353  0.5927 -0.0063
  932MPD2    C313633   2.552   0.909  11.098 -1.0219 -0.4941  0.0227
  932MPD2    C413634   2.467   0.833  11.023  0.0593 -0.1360 -0.2545
  932MPD2    C513635   2.374   0.900  10.943 -0.4683  0.4165 -0.3159
  932MPD2     H13636   2.616   1.101  11.149 -0.0905  0.5297  0.5957
  932MPD2    H113637   2.471   0.724  11.022 -3.4998 -0.2664 -1.2205
  932MPD2    H213638   2.290   1.071  10.860 -0.4537 -0.9016 -0.0047
  932MPD2    H313639   2.295   0.844  10.894 -0.8055  0.2391  0.4305
  932MPD2     N13640   2.658   0.840  11.167  0.6872 -0.0699  0.3359
  932MPD2    H513641   2.656   0.738  11.165  0.5401 -0.0637  0.0346
  932MPD2    N113642   2.459   1.250  11.022 -0.2279  0.3800  0.0137
  932MPD2    H713643   2.523   1.285  11.093 -0.2419 -2.8508  1.6035
  933MPD2     C13644   2.344   0.148   0.585  0.6219 -0.1890  0.0078
  933MPD2    C113645   2.406   0.240   0.674 -0.1068 -0.0476 -0.1659
  933MPD2    C213646   2.364   0.372   0.692 -0.5508 -0.6880 -0.4429
  933MPD2    C313647   2.249   0.411   0.629  0.2171  0.3211  0.2455
  933MPD2    C413648   2.193   0.332   0.528  0.4196 -0.0195  0.0331
  933MPD2    C513649   2.245   0.202   0.503  0.1098 -0.1331  0.4708
  933MPD2     H13650   2.408   0.438   0.766 -0.3584  0.0410 -1.2121
  933MPD2    H113651   2.122   0.378   0.460  1.5638 -1.0512 -1.8832
  933MPD2    H213652   2.375   0.045   0.571 -1.7932 -0.8507 -0.5269
  933MPD2    H313653   2.193   0.137   0.434 -0.3473 -0.0413  0.7312
  933MPD2     N13654   2.186   0.528   0.669 -0.0458 -0.6934  0.3158
  933MPD2    H513655   2.224   0.567   0.755 -1.2583  2.9621 -0.8357
  933MPD2    N113656   2.512   0.189   0.749  0.1223 -0.0317 -0.9271
  933MPD2    H713657   2.533   0.092   0.726 -2.3041 -0.7511 -0.0512
  934MPD2     C13658   3.612   3.670   1.548  0.9182  0.0528 -0.0218
  934MPD2    C113659   3.678   3.543   1.560 -0.4974  0.5579 -1.2228
  934MPD2    C213660   3.603   3.431   1.544 -0.4972 -0.3219  0.0486
  934MPD2    C313661   3.472   3.441   1.511  0.6070 -0.4296 -0.1902
  934MPD2    C413662   3.413   3.560   1.494 -0.1766 -0.0480  0.3025
  934MPD2    C513663   3.482   3.677   1.510  0.1224  0.0386  0.5014
  934MPD2     H13664   3.654   3.336   1.549 -0.1551 -0.1591 -0.4154
  934MPD2    H113665   3.306   3.571   1.479 -0.3129 -0.7596  0.7809
  934MPD2    H213666   3.665   3.759   1.580  1.9027 -0.8398  0.8294
  934MPD2    H313667   3.428   3.772   1.508  1.1686  0.5857 -1.3703
  934MPD2     N13668   3.390   3.329   1.496  0.1027  0.6283  0.3384
  934MPD2    H513669   3.296   3.346   1.461  0.0431  0.1484  0.2703
  934MPD2    N113670   3.819   3.532   1.590 -0.3538  0.0981 -0.0386
  934MPD2    H713671   3.856   3.441   1.614  3.4562  1.3091 -1.4622
  935MPD2     C13672   3.627   2.344   1.625  0.5367  0.2178 -0.2729
  935MPD2    C113673   3.546   2.360   1.512 -0.4904 -0.9290 -0.4680
  935MPD2    C213674   3.470   2.478   1.493  0.0658  0.1274 -0.1773
  935MPD2    C313675   3.462   2.579   1.593  0.6103  0.3731  1.0273
  935MPD2    C413676   3.535   2.555   1.706 -0.0067  0.1961 -0.6131
  935MPD2    C513677   3.624   2.453   1.709 -0.4937 -0.1004 -0.1382
  935MPD2     H13678   3.425   2.506   1.398 -1.5846 -1.2804  0.1796
  935MPD2    H113679   3.543   2.631   1.783  2.8603 -0.9065  0.1726
  935MPD2    H213680   3.689   2.261   1.659 -0.2985  0.6804  2.3826
  935MPD2    H313681   3.685   2.454   1.799 -0.3324 -2.9381 -0.2209
  935MPD2     N13682   3.389   2.702   1.589 -0.5493  0.3430 -0.0809
  935MPD2    H513683   3.407   2.769   1.663  0.1028  0.8172 -0.6693
  935MPD2    N113684   3.562   2.270   1.399  1.1137  0.1047 -0.1244
  935MPD2    H713685   3.513   2.296   1.315 -1.6914 -1.1633  1.1285
  936MPD2     C13686   2.640   4.567  12.685 -0.1640  1.3149  0.1471
  936MPD2    C113687   2.723   4.542  12.795  0.3785  0.4824  0.7768
  936MPD2    C213688   2.797   4.639  12.849  0.0103 -0.0396  0.0204
  936MPD2    C313689   2.795   0.044  12.792 -0.4344  0.2115  0.3817
  936MPD2    C413690   2.725   0.066  12.672 -0.8321 -0.3056 -0.0443
  936MPD2    C513691   2.657   4.685  12.617 -0.2607 -0.0118  0.2600
  936MPD2     H13692   2.852   4.623  12.941  0.7867  2.9955  0.0815
  936MPD2    H113693   2.732   0.160  12.620 -0.2276 -1.9049 -2.8294
  936MPD2    H213694   2.576   4.489  12.646  1.1279 -0.3728  1.3733
  936MPD2    H313695   2.603   4.704  12.525 -0.4795  0.4556  0.4862
  936MPD2     N13696   2.866   0.159  12.838 -0.3835 -1.2961 -0.1591
  936MPD2    H513697   2.865   0.246  12.787  2.0043 -2.0008 -1.3847
  936MPD2    N113698   2.720   4.419  12.866 -0.0970 -0.1653 -0.0016
  936MPD2    H713699   2.791   4.414  12.939  1.7792 -2.4707 -1.9762
  937MPD2     C13700   0.930   0.838  11.652 -0.1658  0.1618  0.4950
  937MPD2    C113701   0.959   0.966  11.606  1.2652  0.0749 -0.1504
  937MPD2    C213702   1.067   0.979  11.520 -0.4112 -0.1034 -0.9037
  937MPD2    C313703   1.134   0.866  11.473  0.0719 -0.0126  0.2212
  937MPD2    C413704   1.110   0.745  11.529  0.1584 -0.4468 -0.4993
  937MPD2    C513705   1.003   0.726  11.616 -0.0268  0.9884  0.3700
  937MPD2     H13706   1.093   1.079  11.487  0.4316 -0.6107 -1.8008
  937MPD2    H113707   1.166   0.657  11.499 -0.0886  0.1417 -2.7189
  937MPD2    H213708   0.848   0.816  11.720 -1.2773 -0.9433 -1.1942
  937MPD2    H313709   0.980   0.629  11.659 -0.8776  1.0400  0.0245
  937MPD2     N13710   1.230   0.896  11.378 -0.0955 -0.2566  0.4407
  937MPD2    H513711   1.243   0.995  11.362 -0.4443 -0.4043 -0.7368
  937MPD2    N113712   0.931   1.084  11.677  0.1312  0.2267 -0.0411
  937MPD2    H713713   0.968   1.173  11.644  0.3398  0.1115 -0.1160
  938MPD2     C13714   2.838   2.280   0.369  0.7704 -0.2401 -0.8836
  938MPD2    C113715   2.907   2.338   0.476  0.7032  0.0695  0.1746
  938MPD2    C213716   2.909   2.269   0.599  0.5315  0.1877 -0.0794
  938MPD2    C313717   2.856   2.143   0.615  0.3828  0.2405 -0.3107
  938MPD2    C413718   2.789   2.088   0.504 -0.3878  0.7904 -1.3726
  938MPD2    C513719   2.784   2.157   0.385 -0.3171  0.4985  0.3915
  938MPD2     H13720   2.958   2.314   0.684  2.6047  0.3731 -1.3696
  938MPD2    H113721   2.742   1.991   0.508 -1.6993  1.5323  0.9692
  938MPD2    H213722   2.810   2.321   0.273  0.8758  2.0519  0.0678
  938MPD2    H313723   2.731   2.114   0.300  0.2274  1.0988 -0.2503
  938MPD2     N13724   2.841   2.077   0.738 -0.1027  0.0260 -0.1902
  938MPD2    H513725   2.789   1.989   0.735  1.1305 -0.7811  1.8725
  938MPD2    N113726   2.976   2.462   0.465 -0.3182  0.1775 -0.6324
  938MPD2    H713727   3.033   2.488   0.545 -1.5917  2.4886 -0.4930
  939MPD2     C13728   4.397   3.722   0.762  0.0506 -0.4399 -0.4966
  939MPD2    C113729   4.351   3.843   0.723  0.3017 -0.5355  0.6762
  939MPD2    C213730   4.430   3.927   0.644 -0.5548 -0.8671  0.0232
  939MPD2    C313731   4.547   3.888   0.585 -0.3328 -0.2877 -0.4238
  939MPD2    C413732   4.589   3.760   0.618  0.8259 -0.3202 -0.7280
  939MPD2    C513733   4.516   3.681   0.703 -0.1762  0.0169 -0.2069
  939MPD2     H13734   4.389   4.022   0.611 -0.7948 -0.9776 -0.0014
  939MPD2    H113735   4.676   3.709   0.578  0.9753 -0.9215  0.3797
  939MPD2    H213736   4.339   3.645   0.813  1.4957 -0.9019  0.4478
  939MPD2    H313737   4.547   3.579   0.724 -0.6810 -0.2585 -0.8128
  939MPD2     N13738   4.629   3.979   0.504 -0.5187 -0.0689 -0.2172
  939MPD2    H513739   4.592   4.068   0.473 -0.4794 -0.9877 -2.9193
  939MPD2    N113740   4.220   3.867   0.759 -0.3179 -0.1217  0.1474
  939MPD2    H713741   4.178   3.785   0.802 -0.0678 -0.0551  0.5174
  940MPD2     C13742   3.581   4.701  14.100  0.0117  0.1545 -0.5077
  940MPD2    C113743   3.650   4.594  14.058 -0.1484  0.5322 -0.0262
  940MPD2    C213744   3.698   4.582  13.929 -0.6654  0.9913  0.0614
  940MPD2    C313745   3.680   4.691  13.842  0.0813 -0.3602  0.0287
  940MPD2    C413746   3.608   0.072  13.881 -0.1690 -0.0508  0.3016
  940MPD2    C513747   3.561   0.081  14.010 -0.4715  0.4481  0.4322
  940MPD2     H13748   3.762   4.499  13.902 -0.2122  1.9693 -1.8503
  940MPD2    H113749   3.579   0.154  13.816 -2.5757 -1.0375  0.1191
  940MPD2    H213750   3.539   4.716  14.199 -1.1131  0.4306 -1.0149
  940MPD2    H313751   3.505   0.167  14.044 -0.1347  1.5970 -1.8758
  940MPD2     N13752   3.744   4.699  13.718  0.2273  0.0827  1.0493
  940MPD2    H513753   3.704   0.055  13.669 -0.2239 -0.4537  0.5493
  940MPD2    N113754   3.684   4.484  14.146  0.0133  0.5580  0.4549
  940MPD2    H713755   3.717   4.402  14.096  0.6865  0.4909  1.0161
  941MPD2     C13756   3.726   3.247   9.091  0.0748 -0.0376 -0.5590
  941MPD2    C113757   3.664   3.268   9.217  0.0959 -0.3463 -0.3571
  941MPD2    C213758   3.579   3.171   9.262 -0.2526 -0.0898 -0.4764
  941MPD2    C313759   3.564   3.057   9.195  1.1184 -0.3377  0.2006
  941MPD2    C413760   3.628   3.029   9.075  0.5770  0.8664  0.5107
  941MPD2    C513761   3.711   3.126   9.027  0.0884 -0.0775 -0.2746
  941MPD2     H13762   3.535   3.182   9.360  1.0514 -1.8508  0.3220
  941MPD2    H113763   3.608   2.943   9.012 -1.5084  2.2622 -0.7258
  941MPD2    H213764   3.804   3.311   9.051 -0.6359  0.4994 -1.1068
  941MPD2    H313765   3.750   3.106   8.927 -1.4669  1.0215 -1.0977
  941MPD2     N13766   3.485   2.948   9.243  0.2115  0.0458  0.4540
  941MPD2    H513767   3.470   2.867   9.184  1.2861 -0.0151  0.2702
  941MPD2    N113768   3.685   3.383   9.307 -0.4141  0.7214  0.5063
  941MPD2    H713769   3.635   3.387   9.396  0.7625 -0.1303  1.2098
  942MPD2     C13770   1.800   0.248   9.349 -0.7540  0.4168 -0.4522
  942MPD2    C113771   1.782   0.124   9.305 -0.2412 -0.4477  0.3199
  942MPD2    C213772   1.886   0.042   9.262  0.1239 -0.3391  0.3924
  942MPD2    C313773   2.013   0.094   9.273  0.4764  0.5337  0.8757
  942MPD2    C413774   2.031   0.225   9.319  0.4132 -0.0652 -0.3731
  942MPD2    C513775   1.925   0.304   9.360  0.2980  1.2384  0.5690
  942MPD2     H13776   1.872   4.662   9.234 -0.1812 -0.1438 -0.1740
  942MPD2    H113777   2.133   0.261   9.323 -0.3321  2.0975 -0.4420
  942MPD2    H213778   1.721   0.312   9.386 -0.0407  1.2357 -0.3350
  942MPD2    H313779   1.953   0.398   9.407  2.2452 -0.0471  1.9852
  942MPD2     N13780   2.129   0.025   9.226  0.6051  0.0149 -0.0394
  942MPD2    H513781   2.212   0.084   9.221 -1.1461  2.6073  1.3776
  942MPD2    N113782   1.657   0.069   9.293  0.7564  0.1629  0.5106
  942MPD2    H713783   1.652   4.696   9.262  3.4863  0.5724 -1.1514
  943MPD2     C13784   1.787   2.812   9.139  0.1906  0.5854 -0.0734
  943MPD2    C113785   1.664   2.793   9.202 -0.0043  0.2305 -0.0418
  943MPD2    C213786   1.571   2.706   9.144 -0.2892  0.2126  0.3313
  943MPD2    C313787   1.609   2.627   9.034 -0.0061 -0.3064 -0.1221
  943MPD2    C413788   1.723   2.663   8.966 -0.1626 -0.4134  0.0803
  943MPD2    C513789   1.814   2.759   9.018  0.2786 -0.3940 -0.5280
  943MPD2     H13790   1.486   2.679   9.206  0.5207 -1.1683  0.8552
  943MPD2    H113791   1.752   2.610   8.876  0.6201 -1.2424  0.8232
  943MPD2    H213792   1.870   2.863   9.185  0.1371 -0.5551  1.3022
  943MPD2    H313793   1.909   2.780   8.970  1.0588  1.5129  1.8128
  943MPD2     N13794   1.532   2.523   8.973 -0.5323 -0.4103 -0.4682
  943MPD2    H513795   1.558   2.487   8.882  1.0826  1.2602 -0.6780
  943MPD2    N113796   1.649   2.845   9.331  0.0308 -1.1099  0.2268
  943MPD2    H713797   1.732   2.883   9.375  0.8989 -0.8218 -1.6488
  944MPD2     C13798   2.095   2.417  11.248 -0.7549 -0.2588 -0.4218
  944MPD2    C113799   2.003   2.461  11.154  1.3204  0.4492 -0.0183
  944MPD2    C213800   1.880   2.503  11.194 -0.5601 -0.4178 -1.3258
  944MPD2    C313801   1.846   2.488  11.325 -0.4537  0.6402 -0.0987
  944MPD2    C413802   1.931   2.427  11.417 -0.2235  0.0840 -0.1978
  944MPD2    C513803   2.058   2.400  11.375  0.1154  0.2142  0.0860
  944MPD2     H13804   1.815   2.550  11.121  0.9466  1.5955 -1.3930
  944MPD2    H113805   1.902   2.406  11.519 -2.4081 -0.5547 -0.9485
  944MPD2    H213806   2.197   2.391  11.222 -0.1008  1.3496  0.5288
  944MPD2    H313807   2.121   2.354  11.450  1.1434 -2.2969 -2.3636
  944MPD2     N13808   1.718   2.537  11.366  0.0989 -0.0508 -0.8578
  944MPD2    H513809   1.662   2.588  11.298 -0.5357 -1.8305 -1.6773
  944MPD2    N113810   2.052   2.477  11.028 -0.5891  0.2233  0.2554
  944MPD2    H713811   2.147   2.446  11.010  1.0594  2.8251  4.5771
    1TCq1    O113812   3.729   3.701  13.957 -0.3496  0.7848  0.6370
    1TCq1    C113813   3.776   3.794  13.873 -0.0351  0.7605  0.2272
    1TCq1    O213814   3.712   3.850  13.782 -1.0933 -0.2689 -0.0115
    1TCq1    C213815   3.918   3.816  13.896  0.5652  0.6984  0.3001
    1TCq1    C313816   3.984   3.764  13.794  0.2176 -0.2649 -0.1217
    1TCq1    C413817   4.112   3.720  13.804 -0.1726 -0.7570  0.1143
    1TCq1    C513818   4.173   3.711  13.923 -0.1306  0.6281  0.3619
    1TCq1    C613819   4.099   3.759  14.036 -0.5181 -0.1801 -0.5942
    1TCq1    C713820   3.972   3.813  14.023 -0.0350  0.5529  1.0402
    1TCq1    C813821   4.174   3.800  14.155  0.5483 -0.2394  0.4380
    1TCq1    O413822   4.278   3.745  14.180 -0.2152 -0.4186 -0.5662
    1TCq1    C913823   4.182   3.682  13.691  0.0989 -1.6384  0.0082
    1TCq1    O513824   4.131   3.706  13.580  0.0632 -0.1058  0.8165
    1TCq1    O613825   4.283   3.609  13.712 -0.0326  0.3073  0.1824
    1TCq1    H113826   3.788   3.667  14.028 -0.6891 -1.4609 -0.1526
    1TCq1    H213827   3.943   3.768  13.694  0.3181  1.3376 -0.1058
    1TCq1    H313828   4.280   3.696  13.938 -0.0551  0.2011 -0.6697
    1TCq1    H413829   3.913   3.837  14.111 -3.0720  1.5136 -1.2434
    2MPD2     C13830   4.176   4.106  14.564  0.3938 -0.3845  0.2981
    2MPD2    C113831   4.128   4.182  14.462  0.8241  0.3024 -0.0227
    2MPD2    C213832   4.113   4.119  14.336  0.2068 -0.0240 -0.1569
    2MPD2    C313833   4.157   3.986  14.317  0.6330  0.0201  0.1494
    2MPD2    C413834   4.215   3.916  14.420 -0.3741 -0.1584  0.2591
    2MPD2    C513835   4.217   3.974  14.544 -0.0794  0.4611 -0.2461
    2MPD2     H13836   4.062   4.164  14.252  0.1860 -0.8994 -0.6214
    2MPD2    H113837   4.243   3.812  14.404  0.2639  0.1105 -0.3565
    2MPD2    H213838   4.194   4.149  14.662 -1.3616 -1.8294  1.2462
    2MPD2    H313839   4.263   3.927  14.630 -0.6431  0.0480 -0.1725
    2MPD2     N13840   4.122   3.919  14.198 -0.6887  0.2368  0.5006
    2MPD2    H513841   4.060   3.970  14.135 -0.3538  1.6758  1.3274
    2MPD2    N113842   4.084   4.313  14.487 -0.2020  0.1302  0.1128
    2MPD2    H713843   4.084   4.351  14.581 -1.7274  0.8296 -0.1709
    3TMC2    C113844   4.084   4.539  14.445 -0.5734 -0.2483  0.1016
    3TMC2    C213845   4.199   4.549  14.522 -0.1247  0.2306 -0.4394
    3TMC2    C313846   4.279   4.657  14.496  0.2553  0.4342  0.4808
    3TMC2    C413847   4.065   4.627  14.345 -0.3337 -0.1039 -0.1398
    3TMC2    C513848   4.156   0.001  14.309 -0.0296 -0.4234 -0.2471
    3TMC2    C613849   4.259   0.025  14.394 -0.8417 -0.5027  0.2402
    3TMC2     C13850   4.070   4.407  14.393 -0.3990 -0.0658  0.2491
    3TMC2     O13851   4.069   4.392  14.274  0.0517 -0.5057 -0.4488
    3TMC2     H13852   4.225   4.470  14.592 -2.2150  0.3817  0.5127
    3TMC2    H113853   3.978   4.614  14.281  0.4945  1.2725 -1.5550
    3TMC2    H213854   4.322   0.113  14.392 -0.0211 -1.0179  2.8040
    3TMC2    C713855   4.188   4.721  14.165 -0.2623 -0.1949  0.1331
    3TMC2    C813856   4.360   4.711  14.603 -0.1480  0.1694  1.0011
    3TMC2    O113857   4.102   4.683  14.087 -0.2818 -0.1793  0.0798
    3TMC2    O213858   4.373   0.107  14.627 -0.6178  0.1916  0.0573
    3TMC2    O513859   4.378   4.608  14.695  0.4162  0.4234 -0.1637
    3TMC2    H513860   4.397   4.523  14.650  0.1949 -0.5372  1.5599
    4MPD2     C13861   4.658   0.885  13.152 -0.3397  0.3326 -0.4997
    4MPD2    C113862   4.607   0.755  13.149  0.0646  0.1157  0.3899
    4MPD2    C213863   4.661   0.661  13.240 -0.4673 -0.0663 -0.6574
    4MPD2    C313864   0.011   0.695  13.351  0.6186 -0.4075  0.6462
    4MPD2    C413865   0.060   0.824  13.350 -0.2704 -0.2506 -0.3079
    4MPD2    C513866   0.025   0.911  13.250  0.2535 -0.2133  0.5558
    4MPD2     H13867   4.635   0.556  13.234 -1.2995  0.0838  0.2939
    4MPD2    H113868   0.127   0.866  13.423 -1.4648 -0.0216  0.6515
    4MPD2    H213869   4.636   0.957  13.074  1.4504  0.2772 -1.0496
    4MPD2    H313870   0.069   1.009  13.259  0.3653  0.0895 -3.0303
    4MPD2     N13871   0.047   0.599  13.451  0.5094 -0.3726  0.3328
    4MPD2    H513872   0.023   0.502  13.433 -2.4915  0.5721 -0.6712
    4MPD2    N113873   4.523   0.716  13.043 -0.1773  0.0559  0.6599
    4MPD2    H713874   4.507   0.616  13.039 -0.8973  0.1922  0.1433
    5TCq2    C113875   0.114   0.632  13.570  0.6447  0.4393  0.1257
    5TCq2    O213876   0.158   0.743  13.610  0.3403  0.1327 -1.2391
    5TCq2    C213877   0.147   0.514  13.645 -0.1516 -0.5989  0.1855
    5TCq2    C313878   0.233   0.538  13.751 -0.1150  0.6205 -0.8815
    5TCq2    C413879   0.252   0.433  13.839  0.9940  0.0825 -0.2076
    5TCq2    C513880   0.185   0.314  13.821  0.0586 -0.1506 -0.3969
    5TCq2    C613881   0.103   0.304  13.712 -0.7411  0.8725  0.4686
    5TCq2    C713882   0.086   0.397  13.618 -0.1220  0.8905  0.3214
    5TCq2    C813883   0.004   0.200  13.716  1.2238 -0.1631 -0.5805
    5TCq2    O413884   4.696   0.159  13.609  0.1195 -0.6407 -0.0693
    5TCq2    C913885   0.347   0.434  13.948  0.1833  0.5540 -0.7225
    5TCq2    O513886   0.415   0.538  13.956 -0.8505 -0.2018  0.3090
    5TCq2    O613887   0.366   0.335  14.019 -0.3306  0.2738  0.0536
    5TCq2    H213888   0.281   0.634  13.767 -0.8561  0.9857 -0.8277
    5TCq2    H313889   0.198   0.220  13.875 -1.1661  0.3189  0.7341
    5TCq2    H413890   0.014   0.377  13.539  0.2402  3.8291 -0.7153
    6MPD1     C13891   2.912   1.529  12.267 -0.7878  0.3745  0.7772
    6MPD1    C113892   2.904   1.476  12.393 -0.0039 -0.4467 -0.7108
    6MPD1    C213893   2.998   1.381  12.435  0.0487  0.0110  0.0391
    6MPD1    C313894   3.096   1.342  12.351 -0.0294 -0.0273 -1.1512
    6MPD1    C413895   3.102   1.393  12.224 -1.0899  0.5669  0.2254
    6MPD1    C513896   3.008   1.488  12.186  0.2245 -0.0588 -0.5536
    6MPD1     H13897   3.004   1.358  12.541  0.8961 -0.4795 -0.1181
    6MPD1    H113898   3.178   1.358  12.155 -0.3026 -0.6716  1.7023
    6MPD1    H213899   2.843   1.607  12.237 -0.9029  0.5822  1.5740
    6MPD1    H313900   3.014   1.536  12.089  1.2553 -1.1614 -1.0481
    6MPD1     N13901   3.193   1.238  12.382 -0.4997  0.7877 -0.4224
    6MPD1    H513902   3.245   1.196  12.305  2.5422 -0.0147  2.0903
    6MPD1    N113903   2.823   1.534  12.492  0.1815  0.1780  0.8493
    6MPD1    H613904   2.731   1.567  12.466  0.3995  1.3166  1.5507
    6MPD1    H713905   2.805   1.472  12.571 -1.7858  0.3081  0.5090
    7MPD2     C13906   3.574   0.603  12.886  0.5882  0.5270 -0.7518
    7MPD2    C113907   3.635   0.669  12.782 -0.5952  0.6671  0.3064
    7MPD2    C213908   3.773   0.648  12.759  0.1885 -0.2726  0.0370
    7MPD2    C313909   3.843   0.571  12.848 -0.5310  0.5819  0.6839
    7MPD2    C413910   3.785   0.506  12.955  0.2522  0.2991  0.7379
    7MPD2    C513911   3.649   0.512  12.960  0.6750  0.0271 -0.4594
    7MPD2     H13912   3.825   0.688  12.674  1.5363  1.1043  1.5217
    7MPD2    H113913   3.836   0.443  13.027  1.9169  2.1873  1.2146
    7MPD2    H213914   3.466   0.604  12.897  0.7428 -0.1999  0.9622
    7MPD2    H313915   3.608   0.449  13.039  1.1173  0.7145  0.3253
    7MPD2     N13916   3.980   0.553  12.819 -0.0557 -0.5891  0.5511
    7MPD2    H513917   4.009   0.589  12.729 -2.1474 -0.2732 -0.0036
    7MPD2    N113918   3.573   0.757  12.692 -0.1370  0.1825 -0.6916
    7MPD2    H713919   3.624   0.768  12.605 -0.4835 -1.5256 -1.1077
    8TMC3    C113920   4.204   0.543  12.841 -0.4567 -0.1318 -0.0463
    8TMC3    C213921   4.292   0.608  12.920  0.4622  0.1170  0.2496
    8TMC3    C313922   4.363   0.718  12.872  0.0606 -0.6358  0.5979
    8TMC3    C413923   4.191   0.578  12.713 -0.0926 -0.2748  0.1957
    8TMC3    C513924   4.252   0.693  12.663  0.3535 -0.9452  0.5629
    8TMC3    C613925   4.335   0.761  12.747  1.1221  0.0531 -0.1577
    8TMC3     C13926   4.081   0.502  12.900 -0.3406  0.3901 -0.2641
    8TMC3     O13927   4.087   0.472  13.018 -0.2065 -0.3130  0.6605
    8TMC3     H13928   4.290   0.581  13.024  2.9851  0.5393  0.3851
    8TMC3    H113929   4.147   0.508  12.644 -0.5110  1.7354 -1.5672
    8TMC3    H213930   4.391   0.842  12.700  1.3869 -0.1659 -0.2217
    8TMC3    C713931   4.157   0.754  12.578 -0.4454 -0.1478 -0.2599
    8TMC3    C813932   4.458   0.790  12.946 -0.1061 -0.0837  0.9210
    8TMC3    O113933   4.046   0.708  12.587 -0.4197  0.3141  0.0573
    8TMC3    O213934   4.458   0.909  12.939 -0.6128  0.2238 -0.0680
    9TMC3    C113935   3.319   1.079  12.495 -0.1171  0.0535 -0.0225
    9TMC3    C213936   3.419   1.106  12.404 -0.0494 -0.3605 -0.2846
    9TMC3    C313937   3.515   1.015  12.402 -0.0706  0.1264 -0.5043
    9TMC3    C413938   3.323   0.979  12.593 -0.0588 -0.1517  0.1627
    9TMC3    C513939   3.414   0.882  12.580  0.3266 -0.1939 -0.4187
    9TMC3    C613940   3.513   0.901  12.484  0.0413 -0.3843 -0.7199
    9TMC3     C13941   3.196   1.160  12.492  0.3942 -0.4134  0.2219
    9TMC3     O13942   3.137   1.171  12.598 -0.6433 -0.0102  0.4533
    9TMC3     H13943   3.427   1.195  12.343  2.2231  0.7147  1.5901
    9TMC3    H113944   3.235   0.962  12.654 -1.4714  2.7313 -1.1139
    9TMC3    H213945   3.585   0.824  12.460  1.2037  0.4065  0.1843
    9TMC3    C713946   3.441   0.800  12.695 -0.2317 -1.0008 -0.4854
    9TMC3    C813947   3.642   1.059  12.345 -0.1016  0.2000  0.6684
    9TMC3    O113948   3.366   0.795  12.789 -0.1460 -0.0700  0.1417
    9TMC3    O213949   3.657   1.178  12.315 -0.4814  0.2687  0.4399
   10MPD2     C13950   4.162   1.053  12.372  0.0437  0.5366 -0.4189
   10MPD2    C113951   4.105   0.942  12.429 -0.2253 -0.1256 -0.5653
   10MPD2    C213952   3.969   0.927  12.431  0.2911  0.0839 -0.0403
   10MPD2    C313953   3.885   1.016  12.379  0.2158  0.2385 -0.3746
   10MPD2    C413954   3.941   1.130  12.321  0.1168  0.0879  0.0436
   10MPD2    C513955   4.078   1.148  12.321 -0.9309 -0.5160  0.7989
   10MPD2     H13956   3.923   0.834  12.462  0.5355 -0.6614 -1.9132
   10MPD2    H113957   3.881   1.204  12.269  0.2106 -1.4080 -2.2265
   10MPD2    H213958   4.268   1.076  12.372  0.0664  0.4513  0.5460
   10MPD2    H313959   4.118   1.233  12.267 -0.2589 -1.7824 -0.7159
   10MPD2     N13960   3.749   0.978  12.380 -0.3595  0.0523 -0.7210
   10MPD2    H513961   3.723   0.881  12.392  0.3657  0.0527  0.8374
   10MPD2    N113962   4.199   0.859  12.497 -0.0554 -0.4896 -0.7349
   10MPD2    H713963   4.295   0.889  12.501  0.0998 -1.2246  1.0635
   11MPD2     C13964   4.325   4.687  13.908  0.3467 -0.0011  0.3895
   11MPD2    C113965   4.372   0.049  14.010 -0.1248 -0.4532  0.2289
   11MPD2    C213966   4.490   0.119  13.983  0.4574 -0.1101 -0.0042
   11MPD2    C313967   4.561   0.102  13.863  0.3246  0.5959  0.0146
   11MPD2    C413968   4.519   0.007  13.772  0.3233 -1.5887  0.8886
   11MPD2    C513969   4.405   4.665  13.802  0.6985  0.4585 -0.1011
   11MPD2     H13970   4.523   0.199  14.049  2.6177 -0.1851 -1.0122
   11MPD2    H113971   4.560   4.703  13.676 -0.3881 -1.3305  0.5167
   11MPD2    H213972   4.240   4.621  13.909 -0.8379  1.5450  1.3710
   11MPD2    H313973   4.366   4.600  13.724 -0.9674  0.8421  0.4130
   11MPD2     N13974   4.669   0.187  13.838  0.5519 -0.0110 -0.4923
   11MPD2    H513975   4.696   0.250  13.913  1.0382  0.5283 -1.1244
   11MPD2    N113976   4.305   0.063  14.134 -0.0626 -0.3501  0.1488
   11MPD2    H713977   4.358   0.109  14.208  0.3180  1.5210 -1.2899
    1MPD1     C13978   0.862   1.006  17.354  0.0575 -0.4146 -0.0647
    1MPD1    C113979   0.967   1.022  17.444  0.0667 -0.6109 -0.2473
    1MPD1    C213980   1.070   1.097  17.402  0.3481  0.0956 -0.0518
    1MPD1    C313981   1.073   1.166  17.279 -0.5139  0.0773  0.2606
    1MPD1    C413982   0.959   1.165  17.202  0.5139 -0.0121  0.4183
    1MPD1    C513983   0.859   1.077  17.232  0.6234 -0.1297  0.5225
    1MPD1     H13984   1.158   1.111  17.464  0.0833  0.1177  0.3162
    1MPD1    H113985   0.953   1.215  17.106  1.7360 -0.5160  0.0809
    1MPD1    H213986   0.784   0.935  17.377 -0.9334 -0.6843 -4.1569
    1MPD1    H313987   0.771   1.071  17.171  0.5683 -0.2378  0.6132
    1MPD1     N13988   1.185   1.245  17.239 -0.0115  0.1815  1.1130
    1MPD1    H513989   1.169   1.314  17.167 -2.0726  0.4420  1.7994
    1MPD1    N113990   0.967   0.945  17.562  0.3106 -0.7437  0.0785
    1MPD1    H613991   1.015   0.993  17.638 -2.7078  2.5900 -0.1466
    1MPD1    H713992   0.873   0.937  17.600 -0.1788  2.2071 -0.5721
    2MPD1     C13993   1.990   1.909  17.351  0.9217 -0.8264  0.1351
    2MPD1    C113994   1.958   1.902  17.221 -0.5753 -0.9117  0.0748
    2MPD1    C213995   1.871   1.810  17.179 -0.6167 -0.0297 -0.5978
    2MPD1    C313996   1.836   1.708  17.267 -0.3715  0.7783 -0.1944
    2MPD1    C413997   1.873   1.711  17.398 -0.2532  0.5230  0.3821
    2MPD1    C513998   1.956   1.809  17.438  0.4186 -0.1642  0.5543
    2MPD1     H13999   1.824   1.812  17.082  1.0016  0.0322 -1.3764
    2MPD1    H114000   1.831   1.643  17.472  3.0261 -0.3250  1.4923
    2MPD1    H214001   2.046   1.989  17.399 -2.7497  1.8442 -0.0188
    2MPD1    H314002   1.973   1.829  17.543  0.2251 -0.6783  0.6856
    2MPD1     N14003   1.750   1.613  17.212  0.1421 -0.0838  0.1108
    2MPD1    H514004   1.730   1.621  17.113 -1.4271  3.9210  0.7551
    2MPD1    N114005   1.993   1.998  17.129 -0.4659  0.0099 -0.3135
    2MPD1    H614006   2.083   2.044  17.140 -0.2966 -1.0259  2.7564
    2MPD1    H714007   1.990   1.956  17.036 -1.5975 -1.2217  0.2770
    3TMC3    C114008   1.613   1.413  17.197  0.3101 -0.2331  0.1072
    3TMC3    C214009   1.589   1.447  17.067 -0.8201  0.1344  0.1190
    3TMC3    C314010   1.470   1.399  17.010 -0.1508  0.6309 -0.3210
    3TMC3    C414011   1.524   1.342  17.279 -0.0543  0.1503  0.4486
    3TMC3    C514012   1.405   1.310  17.226 -0.0968 -0.7663  0.2455
    3TMC3    C614013   1.387   1.321  17.090 -0.0369 -0.9303  0.1411
    3TMC3     C14014   1.718   1.487  17.272 -0.4314  0.0009 -0.0776
    3TMC3     O14015   1.752   1.447  17.382 -0.0348 -0.2161 -0.5096
    3TMC3     H14016   1.670   1.497  17.015 -0.4084  1.0881  1.6476
    3TMC3    H114017   1.550   1.326  17.383  3.1055 -0.3227 -0.4350
    3TMC3    H214018   1.310   1.276  17.030 -1.5527  0.2268  1.2148
    3TMC3    C714019   1.309   1.243  17.307 -0.1584  0.0190 -0.8608
    3TMC3    C814020   1.435   1.401  16.871 -0.1802 -0.5718  0.3807
    3TMC3    O114021   1.344   1.192  17.412  0.3960  0.7426  0.2536
    3TMC3    O214022   1.333   1.347  16.823 -0.1499  0.0064 -0.0927
    4MPD1     C14023   1.545   1.549  16.371 -0.0502  0.2300 -0.9110
    4MPD1    C114024   1.639   1.602  16.460 -0.9274  0.0398 -0.2696
    4MPD1    C214025   1.633   1.576  16.595  0.0145  0.9522  0.2004
    4MPD1    C314026   1.542   1.481  16.648  0.6022  1.0485 -0.3649
    4MPD1    C414027   1.462   1.419  16.550  0.3441  0.6036  0.0829
    4MPD1    C514028   1.461   1.456  16.418  0.2736 -0.7111 -0.3890
    4MPD1     H14029   1.686   1.640  16.664 -1.2386 -0.4691  2.4697
    4MPD1    H114030   1.384   1.350  16.577  0.5275  0.9883  1.6032
    4MPD1    H214031   1.538   1.575  16.266  1.3453 -0.4566 -1.1857
    4MPD1    H314032   1.394   1.410  16.347  0.0245  1.4609 -1.5571
    4MPD1     N14033   1.533   1.464  16.789 -0.3974  0.2120 -0.1636
    4MPD1    H514034   1.606   1.511  16.843 -0.3047  0.7067 -0.7239
    4MPD1    N114035   1.715   1.705  16.403 -0.1232  0.4299  0.0359
    4MPD1    H614036   1.799   1.721  16.459  1.2831  1.9553 -2.5423
    4MPD1    H714037   1.760   1.680  16.315 -1.6205  0.6005 -0.7684
    1TCq1    O114038   3.682   0.736  12.128 -0.0386  0.1423  0.2378
    1TCq1    C114039   3.642   0.644  12.037 -0.3328 -0.3186 -0.3191
    1TCq1    O214040   3.595   0.533  12.050 -0.1882 -0.3228 -0.1454
    1TCq1    C214041   3.634   0.716  11.910 -0.7064 -0.0865  0.7063
    1TCq1    C314042   3.587   0.637  11.805  0.0280 -0.0665  0.3793
    1TCq1    C414043   3.537   0.698  11.695 -0.0181  0.1339 -0.1356
    1TCq1    C514044   3.505   0.834  11.696  0.0054 -0.0097  0.0668
    1TCq1    C614045   3.537   0.901  11.812 -0.4131 -0.3014  0.2580
    1TCq1    C714046   3.609   0.852  11.916  0.1773  0.4441  0.3205
    1TCq1    C814047   3.497   1.041  11.835 -0.5283  0.3676  0.1113
    1TCq1    O414048   3.529   1.106  11.936 -0.3305  0.2610  0.2176
    1TCq1    C914049   3.475   0.611  11.585  0.5397 -0.3366  0.0082
    1TCq1    O514050   3.454   0.489  11.619 -0.1007 -0.0271 -0.2434
    1TCq1    O614051   3.415   0.669  11.489  0.1952 -0.1813  0.1551
    1TCq1    H114052   3.758   0.780  12.084 -0.7814  3.2115  1.9795
    1TCq1    H214053   3.612   0.531  11.811  1.7468  0.0836 -3.4330
    1TCq1    H314054   3.455   0.883  11.614  0.1846  0.9358  0.5278
    1TCq1    H414055   3.644   0.923  11.990 -0.3223  1.5789 -0.5352
    2MPD1     C14056   3.164   1.415  11.825 -0.6605  0.5248 -0.3666
    2MPD1    C114057   3.120   1.310  11.749  0.5417 -0.4692 -0.8961
    2MPD1    C214058   3.191   1.192  11.735  0.4318  0.0340 -0.0635
    2MPD1    C314059   3.320   1.193  11.772  0.4763  0.6785 -0.2176
    2MPD1    C414060   3.369   1.305  11.840 -0.5259 -0.5877 -0.0743
    2MPD1    C514061   3.294   1.419  11.861 -0.7142 -0.0644 -0.2981
    2MPD1     H14062   3.157   1.109  11.674  4.2202 -1.9234  0.4760
    2MPD1    H114063   3.472   1.314  11.871 -1.0016  0.7446  1.1372
    2MPD1    H214064   3.102   1.502  11.842 -1.6745  0.2270 -2.5699
    2MPD1    H314065   3.338   1.504  11.911 -0.8376 -0.2303  0.0965
    2MPD1     N14066   3.394   1.075  11.751 -0.7645 -0.1164 -0.0059
    2MPD1    H514067   3.356   0.997  11.699  0.9394  0.3689 -1.9687
    2MPD1    N114068   2.986   1.308  11.692 -0.8516 -0.0637  0.3954
    2MPD1    H614069   2.955   1.404  11.679 -0.5190  0.0015  0.1055
    2MPD1    H714070   2.964   1.259  11.606 -1.6197 -0.4044  0.7822
    1TCq1    O114071   1.041   4.002   0.402 -0.2907 -0.7150 -0.1431
    1TCq1    C114072   1.129   3.905   0.374 -0.1923 -0.5229  0.5470
    1TCq1    O214073   1.251   3.923   0.386  0.2191 -0.2279  0.0048
    1TCq1    C214074   1.073   3.778   0.338  0.1055  0.2635  0.6080
    1TCq1    C314075   0.941   3.768   0.350 -0.1750  0.1659  0.3763
    1TCq1    C414076   0.885   3.662   0.275  0.6159 -0.3915  0.0324
    1TCq1    C514077   0.965   3.578   0.204  0.1192  0.7070  0.6187
    1TCq1    C614078   1.100   3.596   0.201  0.4174  1.0743 -0.2821
    1TCq1    C714079   1.156   3.701   0.265  0.1956  0.6676 -0.3834
    1TCq1    C814080   1.192   3.495   0.156 -0.4639  0.1560  0.5035
    1TCq1    O414081   1.314   3.512   0.174  0.4773 -0.3073 -0.2462
    1TCq1    C914082   0.757   3.610   0.326 -0.1426  0.1893 -0.0505
    1TCq1    O514083   0.712   3.660   0.435  0.2207 -0.0201  0.6778
    1TCq1    O614084   0.722   3.495   0.283  0.3801 -0.1562  0.3357
    1TCq1    H114085   0.947   3.976   0.411 -0.4054  0.3252  1.5518
    1TCq1    H214086   0.885   3.809   0.434  1.3052  0.0184  1.4406
    1TCq1    H314087   0.916   3.501   0.145  0.2060  0.5678  0.7282
    1TCq1    H414088   1.264   3.712   0.265  0.2716 -0.2234  1.3495
    2MPD1     C14089   1.288   3.043  17.643 -0.3984  0.1393 -0.3466
    2MPD1    C114090   1.152   3.049  17.664 -0.9667 -0.2739  0.5734
    2MPD1    C214091   1.104   3.174   0.001 -0.3617  0.8550  0.7869
    2MPD1    C314092   1.186   3.278   0.044 -0.3506 -0.7394  0.5865
    2MPD1    C414093   1.322   3.268   0.020 -0.5140 -0.8311  1.0594
    2MPD1    C514094   1.374   3.149  17.671  0.3470  0.1473  0.1125
    2MPD1     H14095   0.998   3.186   0.024 -0.2041 -2.3381  3.2366
    2MPD1    H114096   1.395   3.343   0.048  0.4483 -0.9491 -1.1460
    2MPD1    H214097   1.341   2.957  17.602 -0.6582  0.1779 -0.7673
    2MPD1    H314098   1.481   3.139  17.662  0.4436  1.5931 -0.4570
    2MPD1     N14099   1.131   3.383   0.108 -0.3576 -1.0162  0.0151
    2MPD1    H514100   1.030   3.395   0.106 -0.5066 -1.9307  2.4663
    2MPD1    N114101   1.064   2.944  17.627 -0.1123 -0.5371 -0.1496
    2MPD1    H614102   0.976   2.948  17.678 -0.0859  2.7037 -0.3918
    2MPD1    H714103   1.095   2.850  17.653  0.0094 -0.0542  1.4356
    1MPD1     C14104   4.082   1.152  11.952 -0.6805 -0.1801  0.1484
    1MPD1    C114105   4.105   1.272  11.895  0.2890  0.1172 -0.1631
    1MPD1    C214106   4.233   1.320  11.902  1.1560  0.1873  0.0215
    1MPD1    C314107   4.336   1.246  11.963 -0.2004 -0.2560  0.9848
    1MPD1    C414108   4.314   1.121  12.013 -0.2545 -0.5671 -0.0389
    1MPD1    C514109   4.183   1.078  12.015 -0.6123  1.0272  0.2484
    1MPD1     H14110   4.257   1.410  11.847  0.5291  0.0985 -0.4077
    1MPD1    H114111   4.395   1.067  12.061 -1.1655 -3.7624 -2.0342
    1MPD1    H214112   3.981   1.112  11.949 -0.5735 -0.4407  0.0186
    1MPD1    H314113   4.157   0.989  12.071  1.4706  0.0164 -0.3810
    1MPD1     N14114   4.463   1.310  11.965  0.2542 -0.3683  0.1265
    1MPD1    H514115   4.465   1.407  11.934  0.2683 -0.6146 -0.6358
    1MPD1    N114116   4.005   1.330  11.820  0.2497  0.1153 -0.0811
    1MPD1    H614117   4.025   1.429  11.809 -0.8270  0.0626 -2.4465
    1MPD1    H714118   3.913   1.319  11.862 -0.4026 -2.2642 -2.1202
    2MPD1     C14119   4.146   1.738  11.374 -1.2044  0.1091  0.5662
    2MPD1    C114120   4.063   1.632  11.368  0.4818 -0.0891 -0.2541
    2MPD1    C214121   4.106   1.516  11.307 -0.3653 -0.4056 -1.1080
    2MPD1    C314122   4.239   1.505  11.251 -0.4610  1.3673  0.1138
    2MPD1    C414123   4.324   1.611  11.253 -0.3226 -0.0775 -0.7238
    2MPD1    C514124   4.278   1.727  11.321  0.1039  0.5097  0.4725
    2MPD1     H14125   4.038   1.433  11.325 -0.1566 -0.3890 -0.2257
    2MPD1    H114126   4.424   1.598  11.215  0.0756  0.5180  0.1189
    2MPD1    H214127   4.124   1.826  11.433 -2.1642  0.2346  0.0281
    2MPD1    H314128   4.341   1.814  11.312  0.1421  0.4595  0.2542
    2MPD1     N14129   4.297   1.381  11.208  0.6999 -0.7472  0.2750
    2MPD1    H514130   4.395   1.387  11.184  0.6513 -1.2644 -0.0414
    2MPD1    N114131   3.948   1.630  11.449 -0.0759  0.0081  0.4385
    2MPD1    H614132   3.877   1.572  11.405 -0.8903 -0.6865  2.6952
    2MPD1    H714133   3.913   1.724  11.467  1.6031  0.5618  0.8579
    3MPD1     C14134   4.234   0.443  10.680 -0.8736 -0.2792 -0.9473
    3MPD1    C114135   4.301   0.545  10.628 -0.5457  0.3339 -0.4327
    3MPD1    C214136   4.325   0.660  10.706  0.4203 -0.0804 -1.3489
    3MPD1    C314137   4.288   0.671  10.835 -0.0509  0.2901  0.4704
    3MPD1    C414138   4.205   0.572  10.881 -0.4064 -0.3218  0.1664
    3MPD1    C514139   4.180   0.461  10.808 -0.1438  0.1318  0.0457
    3MPD1     H14140   4.381   0.738  10.655  3.4016 -1.6661 -0.5146
    3MPD1    H114141   4.174   0.572  10.984  0.4552  1.2410  0.4248
    3MPD1    H214142   4.221   0.347  10.632 -1.6521 -1.1486  1.0384
    3MPD1    H314143   4.122   0.384  10.857  1.1356 -1.6899 -1.2416
    3MPD1     N14144   4.332   0.776  10.920  0.1754 -0.5445  0.5040
    3MPD1    H514145   4.388   0.848  10.877 -0.8152  0.3500  0.7009
    3MPD1    N114146   4.363   0.534  10.503  0.5677 -0.7249  0.0576
    3MPD1    H614147   4.388   0.615  10.447 -2.1843 -0.6050 -1.0332
    3MPD1    H714148   4.340   0.452  10.447  1.4991 -0.5508 -0.5732
    4MPD2     C14149   0.206   1.917  11.630  0.0849  0.0976 -0.0126
    4MPD2    C114150   0.184   1.783  11.624 -0.0302 -0.6621  0.2691
    4MPD2    C214151   0.240   1.704  11.520 -0.0031 -0.2964 -0.7985
    4MPD2    C314152   0.343   1.756  11.442  0.0742 -0.2138 -0.0555
    4MPD2    C414153   0.374   1.890  11.450 -0.1513 -0.2558 -0.2441
    4MPD2    C514154   0.295   1.964  11.538  0.1858  0.0773 -0.4029
    4MPD2     H14155   0.228   1.597  11.513  2.7346 -0.4962 -2.4641
    4MPD2    H114156   0.448   1.942  11.391 -1.1604  0.6970 -0.6645
    4MPD2    H214157   0.164   1.986  11.701  0.9567  0.9405 -0.3100
    4MPD2    H314158   0.319   2.069  11.539  2.0090 -0.3541  1.3322
    4MPD2     N14159   0.413   1.662  11.367  0.3120 -0.4957 -0.2909
    4MPD2    H514160   0.387   1.564  11.370 -0.2907 -0.2985  1.0107
    4MPD2    N114161   0.110   1.719  11.720  0.1619 -0.4432 -0.3891
    4MPD2    H714162   0.108   1.778  11.803  0.0004 -0.9869 -0.0060
    5TMC3    C114163   0.039   1.542  11.846 -1.1041  0.4723  0.2665
    5TMC3    C214164   4.660   1.457  11.865 -0.3815 -0.4377 -0.2919
    5TMC3    C314165   4.689   1.341  11.941  0.6485 -0.1877 -0.0103
    5TMC3    C414166   0.164   1.515  11.888 -0.1387  0.0275 -0.0202
    5TMC3    C514167   0.196   1.393  11.937 -0.1085  0.2861  0.2828
    5TMC3    C614168   0.094   1.301  11.969 -0.8324  0.0726  0.2423
    5TMC3     C14169   0.039   1.604  11.712  0.2369 -0.1235 -0.0889
    5TMC3     O14170   4.722   1.534  11.621 -0.1108 -0.2644  0.7831
    5TMC3     H14171   4.572   1.473  11.804 -0.8847  0.0215  0.5485
    5TMC3    H114172   0.241   1.585  11.857  2.1087 -1.4708  2.0984
    5TMC3    H214173   0.117   1.206  12.016  1.1121  0.3651 -0.0987
    5TMC3    C714174   0.318   1.343  11.884  0.5331  0.7056  0.4209
    5TMC3    C814175   4.582   1.253  11.985  0.4115  0.9918  0.8283
    5TMC3    O114176   0.393   1.431  11.841  0.3899  0.2114 -0.1641
    5TMC3    O214177   4.611   1.143  12.027 -0.3995 -0.2653  0.0385
    6TMC3    C114178   4.309   1.142  11.164 -0.4782  0.1646  0.6177
    6TMC3    C214179   4.252   1.031  11.110  0.1262  0.4600  0.3394
    6TMC3    C314180   4.331   0.925  11.081 -0.2276 -0.4613  0.1538
    6TMC3    C414181   4.441   1.144  11.190  1.0756 -0.2162 -0.1765
    6TMC3    C514182   4.522   1.044  11.149 -0.6505 -0.0475 -0.0406
    6TMC3    C614183   4.469   0.922  11.096 -0.0762 -0.1375 -0.1121
    6TMC3     C14184   4.228   1.265  11.201 -0.2563  0.3947  0.0480
    6TMC3     O14185   4.110   1.252  11.190  0.2787  1.1142  0.1511
    6TMC3     H14186   4.145   1.019  11.103 -0.1577  1.1312  3.6222
    6TMC3    H114187   4.488   1.234  11.228  0.1216  0.0967  0.2673
    6TMC3    H214188   4.522   0.829  11.082  0.4571  0.5913 -2.9211
    6TMC3    C714189   4.665   1.067  11.148 -0.0404  0.3745 -0.3323
    6TMC3    C814190   4.272   0.804  11.037 -0.4835 -0.1823 -0.5289
    6TMC3    O114191   4.707   1.180  11.171 -0.4208 -0.2408  0.0319
    6TMC3    O214192   4.158   0.786  11.073 -0.1262  0.2493 -0.1397
    7MPD2     C14193   0.543   0.979  11.581  0.1045 -0.6074  0.2508
    7MPD2    C114194   0.567   1.118  11.595  0.0570 -0.1755 -0.0070
    7MPD2    C214195   0.498   1.188  11.693  0.3597  0.4380  0.0472
    7MPD2    C314196   0.403   1.132  11.772  0.2298  0.6247  0.4525
    7MPD2    C414197   0.370   1.004  11.753  0.2541  0.1399  0.1870
    7MPD2    C514198   0.436   0.932  11.653 -0.2324  0.4422  0.4531
    7MPD2     H14199   0.508   1.296  11.706  0.1745  0.1990  2.2093
    7MPD2    H114200   0.287   0.957  11.804 -1.1355  0.6401 -1.6055
    7MPD2    H214201   0.585   0.919  11.502 -0.2288 -0.6273  0.0888
    7MPD2    H314202   0.405   0.830  11.638 -1.0642  0.6155  0.9807
    7MPD2     N14203   0.318   1.206  11.860  0.2352  0.2802  0.3038
    7MPD2    H514204   0.244   1.148  11.899 -1.1574  1.3528 -0.7426
    7MPD2    N114205   0.663   1.173  11.505 -0.8288 -0.4926  0.5022
    7MPD2    H714206   0.695   1.108  11.434  1.1834  1.0845 -0.0375
    8TMC3    C114207   0.703   1.361  11.371  0.5238 -0.1651  0.1793
    8TMC3    C214208   0.642   1.286  11.272 -0.7080  0.2070  0.2687
    8TMC3    C314209   0.545   1.348  11.192  0.0393 -0.3787  0.7925
    8TMC3    C414210   0.670   1.496  11.371  0.4796 -0.2413  0.0910
    8TMC3    C514211   0.584   1.557  11.287  0.2592  0.1190 -0.2170
    8TMC3    C614212   0.509   1.480  11.207  0.1543 -0.2371 -0.1757
    8TMC3     C14213   0.704   1.304  11.506 -0.9376  0.1833 -0.2696
    8TMC3     O14214   0.705   1.372  11.608  0.3306 -0.1195  0.4238
    8TMC3     H14215   0.661   1.179  11.265 -2.1705 -0.0343 -0.1427
    8TMC3    H114216   0.719   1.568  11.437 -0.5052  0.3329  0.1885
    8TMC3    H214217   0.451   1.526  11.129  1.3357  2.0818  0.3313
    8TMC3    C714218   0.533   1.689  11.301  0.2665  0.0350 -0.0114
    8TMC3    C814219   0.441   1.265  11.127 -0.4998  0.2216  0.6319
    8TMC3    O114220   0.605   1.787  11.321  0.2584  0.7451  0.0723
    8TMC3    O214221   0.335   1.314  11.104 -0.3018 -0.0958 -0.3769
    9MPD2     C14222   0.426   0.900  11.082 -0.1121  0.1723  0.0856
    9MPD2    C114223   0.377   1.025  11.106 -0.3509  0.3597  0.0728
    9MPD2    C214224   0.236   1.040  11.120 -0.5764 -0.9195 -0.4130
    9MPD2    C314225   0.152   0.929  11.123  0.2146 -0.5134  0.0288
    9MPD2    C414226   0.205   0.803  11.098  0.0912  0.1828  0.5339
    9MPD2    C514227   0.343   0.786  11.078  0.0411 -0.1531  0.8266
    9MPD2     H14228   0.194   1.137  11.142 -0.4620 -1.0603  0.4206
    9MPD2    H114229   0.134   0.721  11.103 -1.2597  1.2022 -2.0694
    9MPD2    H214230   0.532   0.889  11.063 -0.1115  2.6858 -1.3636
    9MPD2    H314231   0.377   0.686  11.055 -1.5897 -0.5520  0.1754
    9MPD2     N14232   0.016   0.948  11.148  0.3977 -0.0362 -0.1797
    9MPD2    H514233   4.689   0.861  11.135  0.3867 -0.1718  0.7458
    9MPD2    N114234   0.474   1.130  11.112 -0.2953  0.4112 -0.4387
    9MPD2    H714235   0.570   1.100  11.099 -0.0567 -0.3815  3.1325
    1MPD1     C14236   4.025   4.505  16.817 -0.8397 -0.1381 -0.4966
    1MPD1    C114237   4.100   4.553  16.711  0.0592  0.5648  0.3979
    1MPD1    C214238   4.038   4.629  16.615  0.0913  0.1434 -0.2178
    1MPD1    C314239   3.905   4.665  16.624 -0.6041  0.2664 -0.8680
    1MPD1    C414240   3.827   4.629  16.739  0.0543 -0.2851 -0.2793
    1MPD1    C514241   3.895   4.557  16.835  0.4788 -0.4642  0.0315
    1MPD1     H14242   4.096   4.652  16.526 -1.6656 -0.2736 -1.4736
    1MPD1    H114243   3.723   4.656  16.754  0.2338 -0.6099  1.5001
    1MPD1    H214244   4.071   4.446  16.895 -2.6141 -0.2857  0.4454
    1MPD1    H314245   3.831   4.530  16.918  1.4606  1.5448  1.4355
    1MPD1     N14246   3.836   0.021  16.530  0.1048  0.3110 -0.8579
    1MPD1    H514247   3.735   0.026  16.543 -0.0817 -0.4503 -1.9462
    1MPD1    N114248   4.235   4.525  16.691  0.2997 -0.7145 -0.0516
    1MPD1    H614249   4.249   4.432  16.729 -0.4054 -0.2794  1.2765
    1MPD1    H714250   4.270   4.549  16.598 -0.5263 -0.0617 -0.1988
    2MPD1     C14251   3.764   0.861  15.825  0.0989 -0.5176  0.2127
    2MPD1    C114252   3.653   0.777  15.822  1.0628 -1.2861  0.9004
    2MPD1    C214253   3.651   0.662  15.895  0.5635 -0.2674  0.3011
    2MPD1    C314254   3.749   0.623  15.978  0.5123  0.3650  0.4014
    2MPD1    C414255   3.857   0.706  15.987 -0.1243  0.5373  0.1427
    2MPD1    C514256   3.859   0.826  15.919  1.0891  0.1005  0.7570
    2MPD1     H14257   3.559   0.604  15.898 -0.0232  0.7558  2.1799
    2MPD1    H114258   3.940   0.692  16.055  0.8014  0.9686 -0.9022
    2MPD1    H214259   3.764   0.960  15.781 -0.1225 -0.4271  0.4202
    2MPD1    H314260   3.937   0.900  15.935 -0.3270  1.3491  2.0020
    2MPD1     N14261   3.734   0.506  16.048 -0.3073  0.4204  0.5051
    2MPD1    H514262   3.643   0.463  16.032 -0.1474  1.3607 -3.0923
    2MPD1    N114263   3.541   0.819  15.748 -0.4200  0.4950 -0.1220
    2MPD1    H614264   3.576   0.873  15.669  1.3118  1.5723  1.3534
    2MPD1    H714265   3.496   0.733  15.718  1.7622 -0.9492  0.7403
    3TCq2    C114266   3.821   0.458  16.139 -0.2190  0.0090  0.0842
    3TCq2    O214267   3.920   0.507  16.186 -0.3082  0.6678 -0.2259
    3TCq2    C214268   3.777   0.330  16.196  0.5152 -0.2653 -0.3592
    3TCq2    C314269   3.666   0.262  16.144  0.3485  0.1120 -0.6897
    3TCq2    C414270   3.624   0.149  16.205 -0.8314  0.4352  1.2507
    3TCq2    C514271   3.697   0.098  16.311  0.7001  0.3036 -0.6720
    3TCq2    C614272   3.816   0.158  16.350 -0.3232 -0.4440  0.3965
    3TCq2    C714273   3.863   0.274  16.286  0.1502 -0.5380 -0.2061
    3TCq2    C814274   3.905   0.079  16.426 -0.1576 -0.4212 -1.2772
    3TCq2    O414275   4.025   0.104  16.410  0.6765 -0.1150  0.2863
    3TCq2    C914276   3.508   0.080  16.151 -0.0104  0.1165 -0.0536
    3TCq2    O514277   3.494   0.096  16.028  0.5290  0.1202  0.1676
    3TCq2    O614278   3.457   4.706  16.218  0.5030  0.0327 -0.0224
    3TCq2    H214279   3.609   0.292  16.057 -0.8920  2.0940  0.8043
    3TCq2    H314280   3.663   4.722  16.338  0.1485  1.0721  1.4909
    3TCq2    H414281   3.952   0.328  16.318 -1.2210  2.2422 -1.1575
    1TCq1    O114282   1.642   3.890  13.100  0.1600 -0.2196  0.1015
    1TCq1    C114283   1.775   3.915  13.108 -0.7076 -0.6549 -0.0848
    1TCq1    O214284   1.827   4.028  13.095 -0.1342  0.1945 -0.5648
    1TCq1    C214285   1.837   3.812  13.187 -0.4242  0.7705 -1.2312
    1TCq1    C314286   1.823   3.685  13.146  0.1447 -0.7012 -1.1968
    1TCq1    C414287   1.925   3.600  13.179  0.4186  0.7811 -1.3664
    1TCq1    C514288   2.031   3.641  13.251 -0.0445  0.1640  0.1246
    1TCq1    C614289   2.038   3.771  13.299 -0.1560  0.3334  0.1054
    1TCq1    C714290   1.941   3.858  13.270  0.0122 -0.9738  0.2205
    1TCq1    C814291   2.161   3.814  13.355 -0.5260 -0.7494 -0.3650
    1TCq1    O414292   2.164   3.895  13.445 -0.3403  0.3150 -0.3851
    1TCq1    C914293   1.926   3.466  13.122 -0.1855  0.0672 -0.3537
    1TCq1    O514294   1.834   3.440  13.042 -0.0044 -0.3522  0.0588
    1TCq1    O614295   2.020   3.392  13.146 -0.2134 -0.2765  0.1478
    1TCq1    H114296   1.616   3.797  13.116 -0.7054 -0.2826 -1.6175
    1TCq1    H214297   1.750   3.656  13.072  0.5208 -1.5160 -1.2488
    1TCq1    H314298   2.115   3.573  13.260  0.7626  1.2513  0.8642
    1TCq1    H414299   1.961   3.961  13.299 -2.2743 -0.1690 -1.0865
    2MPD2     C14300   2.502   3.736  13.206  0.0166  0.6495  0.1359
    2MPD2    C114301   2.409   3.792  13.296  0.3006  0.5790  0.4243
    2MPD2    C214302   2.462   3.857  13.408 -0.4041 -0.0850 -0.2898
    2MPD2    C314303   2.599   3.876  13.425 -0.1520  0.3962  0.2806
    2MPD2    C414304   2.684   3.808  13.345  0.5603  0.6474 -0.4408
    2MPD2    C514305   2.635   3.747  13.230 -0.0469  0.1991  0.8885
    2MPD2     H14306   2.403   3.909  13.484  1.7958  0.6558  0.9176
    2MPD2    H114307   2.790   3.823  13.362  0.5114  0.0986  0.3241
    2MPD2    H214308   2.461   3.675  13.126  1.4953  0.4580 -0.4784
    2MPD2    H314309   2.698   3.682  13.171  2.2692  0.8934  2.6159
    2MPD2     N14310   2.649   3.949  13.535 -0.1073 -0.7444 -0.7791
    2MPD2    H514311   2.579   3.979  13.602  1.1262  1.4616 -0.4699
    2MPD2    N114312   2.269   3.764  13.278 -0.5032 -0.1283 -0.2989
    2MPD2    H714313   2.243   3.703  13.201 -2.0567  1.4341 -1.0226
    3TCq1    O114314   2.608   4.311  14.022 -0.2765  0.3158 -0.6047
    3TCq1    C114315   2.605   4.296  13.886 -0.4340  0.1333  0.6936
    3TCq1    O214316   2.520   4.347  13.814 -0.1066 -0.6265 -0.3151
    3TCq1    C214317   2.710   4.206  13.849 -0.4950  0.0323  0.2901
    3TCq1    C314318   2.835   4.223  13.907 -0.7199 -0.4480 -0.8896
    3TCq1    C414319   2.937   4.148  13.849 -0.0280 -0.4028  0.5673
    3TCq1    C514320   2.912   4.068  13.740 -0.0761 -0.3578  0.1026
    3TCq1    C614321   2.792   4.056  13.690 -0.4429  0.1569 -0.0891
    3TCq1    C714322   2.687   4.124  13.745  0.5560 -0.7278  0.3448
    3TCq1    C814323   2.783   3.978  13.563 -0.7893  0.1183  0.4181
    3TCq1    O414324   2.887   3.940  13.511 -0.7809  0.0693  0.4022
    3TCq1    C914325   3.076   4.173  13.900  0.2065 -0.5438 -0.4327
    3TCq1    O514326   3.092   4.237  14.008 -0.3375 -0.0055 -0.4012
    3TCq1    O614327   3.167   4.116  13.838 -0.0505 -0.1034  0.1651
    3TCq1    H114328   2.689   4.274  14.062 -0.5821  0.0669 -0.2190
    3TCq1    H214329   2.850   4.287  13.993  0.3709  0.0781 -1.4663
    3TCq1    H314330   2.995   4.004  13.711 -1.5212 -1.2766 -2.0169
    3TCq1    H414331   2.592   4.135  13.695 -0.4964 -1.8079  2.0898
    1MPD2     C14332   2.560   0.454  15.061  0.1884 -0.7904 -0.0147
    1MPD2    C114333   2.434   0.452  15.117 -0.3198  0.1706  1.2399
    1MPD2    C214334   2.396   0.345  15.200  0.2195  0.3927  0.1634
    1MPD2    C314335   2.478   0.235  15.198 -0.1595 -0.1587 -0.2593
    1MPD2    C414336   2.603   0.242  15.150  0.4212  0.1988 -0.2300
    1MPD2    C514337   2.646   0.352  15.083  0.1800 -0.2715 -0.2173
    1MPD2     H14338   2.295   0.338  15.239 -0.1968  0.8228 -0.8288
    1MPD2    H114339   2.675   0.162  15.163  1.2199  0.8683 -0.5597
    1MPD2    H214340   2.582   0.538  14.996  1.3892 -0.7791  0.4046
    1MPD2    H314341   2.745   0.351  15.038  0.5001  0.8025  0.4622
    1MPD2     N14342   2.443   0.104  15.233 -0.8103 -0.2630  0.1874
    1MPD2    H514343   2.513   0.030  15.226  0.1782  0.7331 -0.5263
    1MPD2    N114344   2.342   0.553  15.077  0.1825  0.1338  0.0188
    1MPD2    H714345   2.384   0.614  15.007  1.0826 -1.0772 -0.5006
    2TMC3    C114346   2.125   0.641  15.023  0.4060  0.0796  0.1793
    2TMC3    C214347   2.001   0.593  15.016  0.1044 -0.3787  0.3358
    2TMC3    C314348   1.938   0.598  14.890  0.1138  0.2307 -0.2272
    2TMC3    C414349   2.178   0.718  14.920 -0.1810  1.0071 -0.2557
    2TMC3    C514350   2.105   0.725  14.807  0.0863  0.3280 -0.2509
    2TMC3    C614351   1.990   0.664  14.784  0.2676 -0.0164 -0.0090
    2TMC3     C14352   2.210   0.571  15.117  0.1231 -0.1320 -0.2060
    2TMC3     O14353   2.139   0.505  15.195 -0.3058 -0.0820  0.1834
    2TMC3     H14354   1.955   0.551  15.105 -0.5307  1.5849  0.9511
    2TMC3    H114355   2.285   0.737  14.925 -0.4254  1.7868  1.8967
    2TMC3    H214356   1.931   0.672  14.693  0.1804 -1.4346 -0.0777
    2TMC3    C714357   2.164   0.793  14.688 -0.4038  0.2187 -0.0449
    2TMC3    C814358   1.869   0.481  14.841 -0.2612 -0.3920 -0.0057
    2TMC3    O114359   2.101   0.797  14.581  0.6770 -0.0201 -0.6046
    2TMC3    O214360   1.847   0.473  14.719  0.4355 -0.3157  0.2481
    3TCq1    O114361   3.171   1.007  14.594  0.1845  0.5358 -0.0245
    3TCq1    C114362   3.231   1.126  14.622 -0.7422  0.6342  1.2653
    3TCq1    O214363   3.318   1.174  14.553  0.1265 -0.1864 -0.4470
    3TCq1    C214364   3.126   1.207  14.678  0.2105 -0.5237  0.6363
    3TCq1    C314365   3.118   1.237  14.812 -0.2334 -0.8208  0.4085
    3TCq1    C414366   2.997   1.258  14.871  0.0221 -0.3325  0.1237
    3TCq1    C514367   2.882   1.250  14.806  0.0829  0.8694 -0.7490
    3TCq1    C614368   2.888   1.213  14.677  0.2988 -0.1898  0.4833
    3TCq1    C714369   3.012   1.199  14.615  0.6096  0.4626 -0.0372
    3TCq1    C814370   2.773   1.192  14.593  0.2959 -0.1091 -0.8995
    3TCq1    O414371   2.783   1.237  14.478 -0.2064  0.1928  0.2213
    3TCq1    C914372   2.989   1.298  15.010 -0.2736  0.8426  0.0936
    3TCq1    O514373   2.877   1.299  15.061 -0.0050 -0.3276 -0.2871
    3TCq1    O614374   3.096   1.306  15.076  0.1527  0.1468 -0.1336
    3TCq1    H114375   3.100   0.991  14.659 -0.9671  0.6566 -1.2396
    3TCq1    H214376   3.210   1.242  14.869 -1.1106 -1.1404  1.8299
    3TCq1    H314377   2.786   1.270  14.851 -0.1468 -3.0706  0.5007
    3TCq1    H414378   3.011   1.171  14.510 -1.2269 -0.0125  0.0974
    4MPD2     C14379   2.520   1.096  14.469 -0.1541  1.1410 -0.3256
    4MPD2    C114380   2.556   1.076  14.603 -0.0196 -0.5469  0.0959
    4MPD2    C214381   2.473   0.997  14.682 -0.4992  0.4351  0.3555
    4MPD2    C314382   2.359   0.938  14.633  0.1325 -0.1067 -0.6194
    4MPD2    C414383   2.328   0.954  14.499 -0.8031  0.3530 -0.1574
    4MPD2    C514384   2.412   1.030  14.420  0.3048 -0.3463 -0.4789
    4MPD2     H14385   2.504   0.984  14.785  1.1791 -1.0541 -0.3460
    4MPD2    H114386   2.248   0.908  14.441 -0.1569 -1.6106  0.4893
    4MPD2    H214387   2.574   1.156  14.397 -0.4039  1.4388 -0.2695
    4MPD2    H314388   2.375   1.060  14.323 -0.1337  1.1325  0.1417
    4MPD2     N14389   2.286   0.850  14.715  0.4099 -0.5502 -0.2807
    4MPD2    H514390   2.322   0.838  14.810 -0.3717  1.8486  0.3404
    4MPD2    N114391   2.674   1.121  14.662 -0.0763  0.6262  0.3967
    4MPD2    H714392   2.687   1.107  14.762  1.0844  3.0218  0.5737
    5TMC2    C114393   2.124   4.508  15.189  0.1966 -0.4288 -0.2419
    5TMC2    C214394   2.213   4.425  15.132  0.6153  0.4709  0.2306
    5TMC2    C314395   2.341   4.447  15.152  0.0578 -0.0404 -0.2348
    5TMC2    C414396   2.159   4.613  15.273 -0.7875  0.1893 -0.7338
    5TMC2    C514397   2.295   4.640  15.282  0.4159  0.3830 -0.2891
    5TMC2    C614398   2.386   4.560  15.217 -0.8183  0.2759 -0.0133
    5TMC2     C14399   2.007   4.535  15.104  0.1492  0.2814 -0.0170
    5TMC2     O14400   1.975   4.457  15.018 -0.7930 -0.1685  0.2876
    5TMC2     H14401   2.181   4.339  15.074  1.3727 -0.5599  1.3510
    5TMC2    H114402   2.093   4.668  15.338 -0.9294 -1.2301  0.3212
    5TMC2    H214403   2.493   4.577  15.227 -0.7132  0.0876 -0.8111
    5TMC2    C714404   2.313   0.064  15.275  0.9155 -0.2006  0.1461
    5TMC2    C814405   2.436   4.368  15.068 -0.7906 -0.0782  0.8291
    5TMC2    O114406   2.210   0.131  15.285  0.9259  0.0201  0.3341
    5TMC2    O214407   2.406   4.347  14.952  0.1287  0.3940  0.2299
    5TMC2    O514408   2.555   4.361  15.125  0.0766 -0.0955  0.4243
    5TMC2    H514409   2.562   4.370  15.223  0.4846 -0.2834  0.4133
    6MPD2     C14410   1.791   0.189  14.822 -0.8403  0.2995  0.3342
    6MPD2    C114411   1.870   0.245  14.923 -0.6288 -0.1791  0.1072
    6MPD2    C214412   1.916   0.159  15.022  0.3242  0.4733  0.2575
    6MPD2    C314413   1.905   0.021  15.017 -0.2269  0.2047 -0.5029
    6MPD2    C414414   1.829   4.690  14.910  0.5460  0.1085  0.5250
    6MPD2    C514415   1.768   0.053  14.815  0.4408 -0.4595  0.4596
    6MPD2     H14416   1.976   0.194  15.105  1.0335  2.3035 -1.0291
    6MPD2    H114417   1.812   4.584  14.894 -2.6399  0.4049  1.9189
    6MPD2    H214418   1.746   0.260  14.753 -0.1467 -0.6513 -1.0946
    6MPD2    H314419   1.713   0.011  14.732 -0.9489  3.5621 -0.6273
    6MPD2     N14420   1.985   4.667  15.109  0.0733 -0.0316  0.0755
    6MPD2    H514421   2.044   0.006  15.163  0.5428 -1.2042  0.9227
    6MPD2    N114422   1.900   0.383  14.929  0.0638 -0.4383 -0.7155
    6MPD2    H714423   1.958   0.413  15.007 -1.4253  0.1080  0.1795
  945NH4     N114424   0.795   3.307  16.663 -0.1601 -0.1246  0.2168
  945NH4     H214425   0.875   3.362  16.626 -0.1245 -0.0722  0.3710
  945NH4     H314426   0.810   3.208  16.638  1.6811 -0.2557  1.7808
  945NH4     H414427   0.703   3.342  16.630 -0.1512 -0.3928 -0.0814
  945NH4     H514428   0.797   3.303  16.767  2.1226 -1.5296  0.1307
  946SOD     NA14429   2.288   1.763   1.556 -0.5564 -0.0874 -0.2347
  947SOD     NA14430   0.223   2.024  15.146 -0.0876  0.1436  0.4386
  948SOD     NA14431   3.548   0.193   6.147  0.1056 -0.6988 -0.1399
  949SOD     NA14432   3.595   2.110  16.203 -0.3478  0.6160  0.2693
  950SOD     NA14433   1.323   2.005   1.390  0.0130  0.4275  0.0245
  951SOD     NA14434   0.850   2.434   1.850 -0.5427 -0.4348  0.0396
  952SOD     NA14435   1.366   3.074  14.962 -0.5054  0.3328 -0.2538
  953SOD     NA14436   2.673   2.564  10.768 -0.1839  0.1013 -0.1168
  954SOD     NA14437   3.562   2.010  13.508 -0.6808  0.1954  0.2016
  955SOD     NA14438   3.035   3.937  13.337  0.1219 -0.5425  0.4416
  956SOD     NA14439   3.591   3.383  12.821  0.4730 -0.0519 -0.3933
  957SOD     NA14440   3.341   0.680  11.022  0.4214 -0.2905  0.0485
  958SOD     NA14441   0.583   3.485   0.469  0.1769  0.2329 -0.4820
  959SOD     NA14442   1.366   2.420   9.581 -0.1605  0.0038  0.2323
  960SOD     NA14443   2.679   3.858  12.103 -0.0644  0.0639 -0.0957
  961SOD     NA14444   3.243   1.996  16.903 -0.0939  0.2405  0.6602
  962SOD     NA14445   3.696   2.891   7.176  0.5432 -0.0072  0.4533
  963SOD     NA14446   1.812   1.686   3.345  0.2292  0.5916  0.2089
  964SOD     NA14447   2.228   1.208  12.091 -0.0218 -0.4531  0.5007
  965SOD     NA14448   3.389   0.808  11.330 -0.1446 -0.4512  0.2804
  966SOD     NA14449   3.397   2.882   5.821  0.3284  0.0011  0.0123
  967SOD     NA14450   1.082   3.408  10.265  0.0042  0.0036 -0.2289
  968SOD     NA14451   3.309   4.177  14.006  0.3627  0.4091  0.1258
  969SOD     NA14452   1.963   4.128  12.951  0.3504  0.0576  0.1735
  970SOD     NA14453   0.117   4.601   0.014  0.0941 -0.1378 -0.5187
  971SOD     NA14454   3.545   3.622   9.944  0.4869  0.2388 -0.1907
  972SOD     NA14455   0.090   2.683  13.676  0.0919  0.1390  0.5505
  973SOD     NA14456   1.486   3.087  10.808  0.0208 -0.4710 -0.2325
  974SOD     NA14457   2.066   3.150   9.752 -0.7025  0.5377 -0.3919
  975SOD     NA14458   1.365   3.434  12.887 -0.1459  0.1216  0.2784
  976SOD     NA14459   0.595   1.650   5.232  0.5083 -0.4626 -0.0854
  977SOD     NA14460   2.933   2.895  12.928  0.1297 -0.3024  0.2020
  978SOD     NA14461   0.774   3.960   2.440  0.3967  0.0900  0.0662
  979SOD     NA14462   0.753   3.408  15.171 -0.2868 -0.7980 -0.4997
  980SOD     NA14463   4.500   4.453  14.905 -0.3578  0.3902  0.0630
  981SOD     NA14464   4.415   0.750   5.640 -0.2520 -0.2010  0.1732
  982SOD     NA14465   2.749   4.179  12.167 -0.5896 -0.4747  0.2904
  983SOD     NA14466   3.409   3.324   0.414  0.3045  0.7547  0.2501
  984SOD     NA14467   3.729   1.456   2.179 -0.4956  0.0406  0.4784
  985SOD     NA14468   2.877   2.738  10.545  0.0358  0.4007  0.6100
  986SOD     NA14469   0.962   4.482  13.798 -0.1085  0.1079 -0.0206
  987SOD     NA14470   2.856   1.229  15.276  0.1453 -0.4960  0.1237
  988SOD     NA14471   1.666   0.696   8.557  0.0577 -0.4862  0.7708
  989SOD     NA14472   1.918   3.227  13.032  0.6641  0.2207 -0.1791
  990SOD     NA14473   4.178   3.981  11.581 -0.1177  0.2237 -0.1197
  991SOD     NA14474   2.913   4.423  11.331 -0.0518 -0.2574  0.2795
  992SOD     NA14475   4.157   0.364  13.211  0.0073 -0.1404 -0.0851
  993SOD     NA14476   3.301   0.243  15.706 -0.3513 -0.2948 -0.1307
  994SOD     NA14477   0.542   1.271  13.949  0.0278 -0.4917  0.1909
  995SOD     NA14478   2.737   2.818  11.030 -0.2268 -0.0171  0.0678
  996SOD     NA14479   0.593   2.947  12.862 -0.2574 -0.9540 -0.4584
  997SOD     NA14480   4.107   0.997   8.755  0.1613 -0.2197 -0.2998
  998SOD     NA14481   2.553   1.997   7.360 -0.1260  0.3725  0.3977
  999SOD     NA14482   1.944   0.258   0.959 -0.1964 -0.7450  0.0791
 1000SOD     NA14483   1.599   2.988  10.229 -0.2495 -0.1459 -0.1786
 1001SOD     NA14484   2.568   0.643  14.222 -0.2376 -0.6330  0.0044
 1002SOD     NA14485   4.171   3.272  17.328  0.0373 -0.4059  0.0991
 1003SOD     NA14486   0.782   0.763   8.266 -0.2820  0.1095  0.1221
 1004SOD     NA14487   3.639   0.073  15.870 -0.0802  0.2069  0.0222
 1005SOD     NA14488   3.074   4.140   1.405 -0.2978 -0.1354 -0.4961
 1006SOD     NA14489   4.038   1.153  14.834 -0.3670 -0.0271 -0.1280
 1007SOD     NA14490   2.852   1.406   1.691  0.3838  0.0617  0.0529
 1008SOD     NA14491   4.264   1.978   0.745 -0.1136 -0.1486 -0.1804
 1009SOD     NA14492   4.272   4.689  10.850  0.1274  0.3152  0.1533
 1010SOD     NA14493   4.600   4.584   0.208 -0.0407  0.0847  0.5540
 1011SOL     OW14494   2.077   3.808   4.134  0.1408 -0.4104 -0.2705
 1011SOL    HW114495   1.992   3.805   4.176  0.0138 -1.4841 -0.6001
 1011SOL    HW214496   2.061   3.845   4.047 -0.1247 -2.0335 -0.9276
 1012SOL     OW14497   2.603   1.496   2.005  0.6118 -0.1497  0.4533
 1012SOL    HW114498   2.626   1.482   2.097 -2.4713  1.5529  1.4916
 1012SOL    HW214499   2.508   1.487   2.011  0.7390 -1.6289  0.2387
 1013SOL     OW14500   3.883   2.842  17.279  1.0532 -0.7052 -0.3558
 1013SOL    HW114501   3.894   2.856  17.373 -0.5001 -2.9852  0.1470
 1013SOL    HW214502   3.871   2.747  17.278 -1.2360 -0.4323  0.9237
 1014SOL     OW14503   0.147   0.887  11.451  0.0786 -0.2181 -0.0252
 1014SOL    HW114504   0.069   0.835  11.430 -0.2773  1.2689 -2.4731
 1014SOL    HW214505   0.204   0.841  11.389  1.4327  0.1727  0.9279
 1015SOL     OW14506   1.364   3.602  10.618  0.0433  0.5980 -0.6169
 1015SOL    HW114507   1.343   3.509  10.630  1.8218  0.2755  0.0817
 1015SOL    HW214508   1.341   3.611  10.526  1.3297 -1.7047 -1.1561
 1016SOL     OW14509   3.161   3.323  11.318  0.2755  0.2491 -0.0321
 1016SOL    HW114510   3.073   3.296  11.293  1.0057 -0.3608 -1.9543
 1016SOL    HW214511   3.173   3.254  11.384  1.2505 -1.0330 -1.5380
 1017SOL     OW14512   2.756   2.287   4.813  0.7512 -0.3555  0.7455
 1017SOL    HW114513   2.720   2.376   4.807 -0.5467 -0.9560 -0.1919
 1017SOL    HW214514   2.844   2.296   4.851  1.0582  0.1565 -0.0754
 1018SOL     OW14515   0.916   2.473  11.602 -0.3758  0.0055 -0.1152
 1018SOL    HW114516   0.896   2.438  11.689  0.7187 -1.1168 -0.3113
 1018SOL    HW214517   0.927   2.389  11.557  2.9397  0.1166  0.4937
 1019SOL     OW14518   2.476   0.086   5.540  0.1002  0.1190 -0.1756
 1019SOL    HW114519   2.545   0.096   5.475  1.7194 -0.9266  1.3739
 1019SOL    HW214520   2.457   4.716   5.541 -3.1437  0.7895 -0.8580
 1020SOL     OW14521   4.084   3.044   0.719  0.1013 -0.0892 -0.2296
 1020SOL    HW114522   4.051   3.039   0.809  0.9088  4.0752  0.3233
 1020SOL    HW214523   4.090   2.949   0.709 -0.3142 -0.2595  1.0399
 1021SOL     OW14524   3.788   1.454  14.539 -0.3924  0.0405 -0.0126
 1021SOL    HW114525   3.813   1.490  14.453 -1.2341  0.0582 -0.2471
 1021SOL    HW214526   3.798   1.532  14.594  0.1931 -0.6888  0.9122
 1022SOL     OW14527   4.525   0.326   1.646 -0.4307  0.5506  0.6361
 1022SOL    HW114528   4.523   0.409   1.694  0.7524 -0.0456  1.7246
 1022SOL    HW214529   4.436   0.292   1.659 -0.2061 -0.0655  0.5905
 1023SOL     OW14530   3.060   2.014  14.068 -0.2040  0.2197 -0.0510
 1023SOL    HW114531   3.055   1.927  14.028  1.4909 -0.0068  0.1966
 1023SOL    HW214532   2.967   2.031  14.064 -0.5831 -1.7693 -0.0689
 1024SOL     OW14533   4.365   0.255   8.628 -0.4802 -0.3995  0.0865
 1024SOL    HW114534   4.295   0.280   8.688 -0.4759 -1.3752  0.4902
 1024SOL    HW214535   4.429   0.324   8.648  2.2544 -2.5918 -1.0965
 1025SOL     OW14536   1.759   4.454   7.913 -0.3131  0.0742  0.0478
 1025SOL    HW114537   1.797   4.494   7.992 -2.2544 -0.8310  1.4488
 1025SOL    HW214538   1.775   4.519   7.845 -0.0925  0.3604  0.3680
 1026SOL     OW14539   3.595   1.407   9.950  0.1913 -0.8068  0.1874
 1026SOL    HW114540   3.534   1.453  10.008  0.3461  1.5148 -1.4828
 1026SOL    HW214541   3.672   1.446   9.991  1.4915 -0.5365 -2.5680
 1027SOL     OW14542   4.328   3.931   5.331  0.6197  0.6529  0.4084
 1027SOL    HW114543   4.333   3.847   5.286  1.6268  0.4639  0.8505
 1027SOL    HW214544   4.368   3.899   5.412  0.5480 -2.1751 -0.6857
 1028SOL     OW14545   1.757   4.556   2.717 -0.5656 -1.2302  0.7988
 1028SOL    HW114546   1.669   4.537   2.687 -0.3115  0.6397 -1.1763
 1028SOL    HW214547   1.758   4.492   2.788 -0.7350 -0.0193  1.9074
 1029SOL     OW14548   3.182   1.845  17.081 -0.4964  0.0227 -0.1711
 1029SOL    HW114549   3.221   1.763  17.111 -0.5758  0.4519  1.1277
 1029SOL    HW214550   3.115   1.867  17.146  0.4629  0.1118  0.7881
 1030SOL     OW14551   3.665   0.806   3.134 -0.3835 -0.5288  0.1217
 1030SOL    HW114552   3.632   0.767   3.053 -1.6854  0.3600  0.2256
 1030SOL    HW214553   3.743   0.855   3.107 -0.1314 -0.5689  0.7713
 1031SOL     OW14554   3.068   4.328  11.540  0.2900  0.5168  0.5542
 1031SOL    HW114555   3.079   4.325  11.635 -3.4001 -1.2292  0.9116
 1031SOL    HW214556   3.147   4.280  11.514 -0.8412 -1.3659  0.5860
 1032SOL     OW14557   1.212   3.442   5.154 -0.4146 -0.2339 -0.2150
 1032SOL    HW114558   1.175   3.482   5.233  1.7157 -0.4154  0.8959
 1032SOL    HW214559   1.144   3.457   5.089 -0.7892 -0.7212  0.0612
 1033SOL     OW14560   2.403   4.427   7.555 -0.6782 -0.1628  0.2215
 1033SOL    HW114561   2.468   4.413   7.487  0.3566  0.8465  0.9963
 1033SOL    HW214562   2.408   4.349   7.610  1.7089 -1.0082 -1.1893
 1034SOL     OW14563   1.863   1.578   2.368 -0.4500 -0.6119  0.3383
 1034SOL    HW114564   1.956   1.572   2.347 -0.8133 -0.6045 -1.2334
 1034SOL    HW214565   1.814   1.580   2.285  0.2605 -0.7839 -0.0806
 1035SOL     OW14566   4.030   1.917  17.416 -0.5885 -0.0578 -0.2174
 1035SOL    HW114567   4.070   1.980  17.356  0.4281  0.4145  0.9610
 1035SOL    HW214568   4.059   1.834  17.379  0.4904  1.2323 -2.2933
 1036SOL     OW14569   4.038   1.388   7.216  0.1287  0.0857 -0.2668
 1036SOL    HW114570   4.099   1.339   7.271  0.9727  0.3287 -0.9713
 1036SOL    HW214571   4.075   1.474   7.234 -0.3866  0.2665 -0.0941
 1037SOL     OW14572   4.551   0.444   6.824  0.1882 -0.3721  0.3172
 1037SOL    HW114573   4.646   0.458   6.829 -0.4416  3.1486  2.7195
 1037SOL    HW214574   4.520   0.534   6.816  0.7445 -0.1749  0.3542
 1038SOL     OW14575   3.662   3.328   5.004  0.2305  0.7380  0.0051
 1038SOL    HW114576   3.723   3.255   5.006 -1.2708 -0.5466 -0.8291
 1038SOL    HW214577   3.656   3.344   5.098  0.7422 -0.1075  0.1832
 1039SOL     OW14578   4.639   2.641  16.328  0.3254 -0.1072 -0.3756
 1039SOL    HW114579   4.553   2.665  16.364 -0.4223 -2.4402 -0.5742
 1039SOL    HW214580   4.684   2.723  16.348 -1.5838  0.4588  1.5803
 1040SOL     OW14581   4.076   1.449   3.537 -0.2790  0.5423 -0.9068
 1040SOL    HW114582   4.074   1.523   3.598  2.0901  0.0134 -0.1814
 1040SOL    HW214583   4.011   1.467   3.469 -0.9910  0.6345 -0.2052
 1041SOL     OW14584   3.336   3.091   8.697  0.0176 -0.1146 -0.0257
 1041SOL    HW114585   3.284   3.165   8.726  0.3285 -0.4361  1.3171
 1041SOL    HW214586   3.309   3.032   8.767  1.1414 -0.1038  0.4160
 1042SOL     OW14587   4.287   0.139   0.780 -0.4321  0.4227 -0.2813
 1042SOL    HW114588   4.218   0.090   0.825  0.6622 -1.3359 -0.5469
 1042SOL    HW214589   4.260   0.229   0.800  0.2129  0.9463 -1.7869
 1043SOL     OW14590   4.564   2.513   4.636  0.6540 -0.7808  0.5516
 1043SOL    HW114591   4.496   2.467   4.587 -0.0422  0.0575  0.7493
 1043SOL    HW214592   4.608   2.564   4.567 -2.1671  1.8347  0.6941
 1044SOL     OW14593   0.550   4.648   2.342  0.3285  0.5421  0.1830
 1044SOL    HW114594   0.613   4.690   2.401  4.0206 -3.5515 -0.8012
 1044SOL    HW214595   0.476   4.708   2.343  0.3751  0.6024  0.0303
 1045SOL     OW14596   4.407   0.842   3.822  0.9907 -0.2660 -0.6786
 1045SOL    HW114597   4.448   0.925   3.849  0.5760 -0.7632  1.4325
 1045SOL    HW214598   4.323   0.829   3.865 -0.2807  1.5921 -2.6222
 1046SOL     OW14599   0.114   1.474   0.843  0.0619  0.0031  0.5086
 1046SOL    HW114600   0.161   1.402   0.883  1.3052  1.3503  1.4468
 1046SOL    HW214601   0.104   1.534   0.917 -0.0178  2.2187 -1.2887
 1047SOL     OW14602   2.606   0.685  16.353  0.7993  0.7348 -0.6427
 1047SOL    HW114603   2.558   0.628  16.294 -0.9620  1.3363  0.2118
 1047SOL    HW214604   2.593   0.767  16.305 -0.4770  0.3049 -1.0207
 1048SOL     OW14605   0.808   3.702   6.875 -0.1877 -0.7173 -0.5886
 1048SOL    HW114606   0.812   3.797   6.888 -2.5667 -0.7704  0.5926
 1048SOL    HW214607   0.758   3.675   6.952  2.1036  0.6079  1.3328
 1049SOL     OW14608   0.961   1.801   4.886  0.3277  0.6432  0.3671
 1049SOL    HW114609   0.957   1.858   4.963 -2.3529  2.3408 -1.0096
 1049SOL    HW214610   0.984   1.860   4.814 -0.9060  1.4019  0.5820
 1050SOL     OW14611   0.134   2.510  14.153 -0.7088  0.0303 -0.3391
 1050SOL    HW114612   0.210   2.456  14.131  1.3955  2.5035  0.9086
 1050SOL    HW214613   0.099   2.458  14.226 -0.0514 -2.9364 -2.1285
 1051SOL     OW14614   1.143   3.234   8.606  0.2017  0.3262  0.5631
 1051SOL    HW114615   1.224   3.247   8.656 -0.4164  1.2153  1.3365
 1051SOL    HW214616   1.088   3.189   8.670  0.1412 -1.8246 -1.0219
 1052SOL     OW14617   3.195   3.365   0.523  0.0447 -0.4018 -0.1231
 1052SOL    HW114618   3.137   3.439   0.540 -0.4556 -0.5307 -1.2780
 1052SOL    HW214619   3.153   3.333   0.443 -1.5135  1.4470 -0.0325
 1053SOL     OW14620   4.031   3.076   8.648 -0.1233  0.1399 -0.0564
 1053SOL    HW114621   4.011   2.987   8.675  2.1390 -0.5412 -0.6069
 1053SOL    HW214622   3.994   3.081   8.560  0.7089 -0.5216 -0.4398
 1054SOL     OW14623   3.952   1.748   8.661  0.3492  0.2986 -0.2325
 1054SOL    HW114624   4.006   1.758   8.740 -0.3368  1.0020  0.1629
 1054SOL    HW214625   4.020   1.756   8.595 -0.0136 -0.4556 -0.7002
 1055SOL     OW14626   1.463   0.309   8.655 -0.2536 -0.0897  0.5480
 1055SOL    HW114627   1.468   0.222   8.616  1.3050  1.5419 -2.9527
 1055SOL    HW214628   1.378   0.300   8.698 -0.2312  0.4004  0.7027
 1056SOL     OW14629   2.693   1.722   4.422  0.1420 -0.0274  0.0457
 1056SOL    HW114630   2.660   1.712   4.332  3.2591  0.1563 -1.1230
 1056SOL    HW214631   2.667   1.812   4.441  2.3363  0.3611  1.2325
 1057SOL     OW14632   2.102   0.941  14.224 -0.2991 -0.0072 -0.0685
 1057SOL    HW114633   2.031   0.925  14.286  0.1529 -0.3818  0.3432
 1057SOL    HW214634   2.091   1.035  14.234 -0.8090  0.1866 -2.4642
 1058SOL     OW14635   1.050   3.288   5.347  0.1600 -0.1295  0.1984
 1058SOL    HW114636   1.139   3.286   5.311  0.2736  0.7995  0.4166
 1058SOL    HW214637   1.077   3.271   5.438 -1.6991 -0.0341  0.7638
 1059SOL     OW14638   1.603   1.794  16.957 -0.1770  0.0889 -0.2645
 1059SOL    HW114639   1.531   1.844  16.917 -1.4736 -0.1789  1.7619
 1059SOL    HW214640   1.647   1.865  17.004  0.5738 -0.0648 -0.7399
 1060SOL     OW14641   0.291   4.505   8.789 -0.5418 -0.5085  0.0430
 1060SOL    HW114642   0.313   4.477   8.877 -1.0013 -0.7915  0.0659
 1060SOL    HW214643   0.266   4.597   8.790  2.6792  0.3910 -0.5133
 1061SOL     OW14644   0.703   0.379   4.782 -0.2583  0.3942 -0.4500
 1061SOL    HW114645   0.778   0.321   4.765 -0.9493 -0.2500 -1.2828
 1061SOL    HW214646   0.643   0.316   4.821 -1.9403  1.3078 -1.5485
 1062SOL     OW14647   2.022   0.304  15.346  0.6566 -0.2702  0.5110
 1062SOL    HW114648   2.097   0.245  15.338  0.3984 -0.6877  1.2023
 1062SOL    HW214649   2.060   0.379  15.300  1.1157 -0.4363  0.6147
 1063SOL     OW14650   2.535   4.383   3.525  0.0876 -0.2800 -0.0100
 1063SOL    HW114651   2.571   4.298   3.551  4.3407  0.7607 -2.5114
 1063SOL    HW214652   2.441   4.363   3.528 -0.3331  1.2928 -3.4132
 1064SOL     OW14653   1.499   1.936   4.999  0.3468 -0.3089 -0.3213
 1064SOL    HW114654   1.496   1.872   5.071  0.8743  0.7074  0.6088
 1064SOL    HW214655   1.411   1.936   4.961 -0.1365 -1.3264  0.7659
 1065SOL     OW14656   4.488   4.319   6.520 -0.4845  0.0837  0.1658
 1065SOL    HW114657   4.558   4.357   6.467 -0.6932  1.3981  0.8336
 1065SOL    HW214658   4.407   4.362   6.491 -0.8533 -0.5169  0.3047
 1066SOL     OW14659   4.244   0.800   3.527 -0.4281 -0.2006  0.2862
 1066SOL    HW114660   4.180   0.778   3.596  0.1153 -1.4023  0.4073
 1066SOL    HW214661   4.234   0.731   3.462  1.8060 -0.9680  0.7794
 1067SOL     OW14662   2.918   0.851   6.097 -0.0123 -0.1516 -0.0626
 1067SOL    HW114663   2.895   0.868   6.188 -2.9940 -0.4311 -0.7659
 1067SOL    HW214664   2.878   0.764   6.102 -1.3354  0.5689  1.8916
 1068SOL     OW14665   0.147   4.403   6.213  0.7040  0.4026 -0.0748
 1068SOL    HW114666   0.222   4.381   6.158 -0.9908 -1.1267 -1.7498
 1068SOL    HW214667   0.117   4.483   6.170  0.2006  0.5974  0.6278
 1069SOL     OW14668   0.482   2.780   1.924  0.1586 -0.0498 -0.0691
 1069SOL    HW114669   0.492   2.691   1.888 -1.7291  0.0609 -0.8752
 1069SOL    HW214670   0.491   2.827   1.841  3.6540 -0.2126  0.2276
 1070SOL     OW14671   2.861   4.078  11.741 -0.2554 -0.6377 -0.2258
 1070SOL    HW114672   2.954   4.075  11.717 -0.2397 -0.2416 -0.2071
 1070SOL    HW214673   2.872   4.015  11.813 -0.2981  0.2461  0.5573
 1071SOL     OW14674   2.966   0.299   3.714  0.0321 -0.0375 -0.6042
 1071SOL    HW114675   2.912   0.319   3.637 -0.8941  0.3597  0.1472
 1071SOL    HW214676   3.027   0.236   3.675  1.4086  0.5086  0.6682
 1072SOL     OW14677   0.353   0.661  11.368  0.1611 -0.4730  0.6584
 1072SOL    HW114678   0.405   0.602  11.423  0.6682  0.3957  1.1149
 1072SOL    HW214679   0.276   0.605  11.362 -0.2044  0.0800  0.2527
 1073SOL     OW14680   0.346   4.025   7.293 -0.7027  1.1656  0.0414
 1073SOL    HW114681   0.305   4.035   7.207  2.3600  2.3259 -1.2880
 1073SOL    HW214682   0.264   4.019   7.343 -1.4650 -1.1473 -1.4772
 1074SOL     OW14683   3.652   2.953   2.900 -0.0537  0.1425 -0.2233
 1074SOL    HW114684   3.738   2.922   2.929 -0.5394 -1.3335 -0.3747
 1074SOL    HW214685   3.625   3.010   2.972 -1.5199 -1.3258  0.3748
 1075SOL     OW14686   0.498   3.937   6.348  0.0184  0.4130 -0.1045
 1075SOL    HW114687   0.410   3.899   6.348 -0.3456  1.2575  0.1182
 1075SOL    HW214688   0.493   3.986   6.266  0.1622 -0.9308 -0.9151
 1076SOL     OW14689   1.380   0.491  10.991 -0.4747 -1.0551 -0.0859
 1076SOL    HW114690   1.389   0.461  11.082  2.2840 -1.1165 -0.3545
 1076SOL    HW214691   1.439   0.427  10.950  0.4470 -1.6834  2.2240
 1077SOL     OW14692   0.876   3.493  12.813  0.4454 -0.6319 -0.3915
 1077SOL    HW114693   0.798   3.513  12.866 -0.2426 -1.4143 -1.1119
 1077SOL    HW214694   0.857   3.401  12.794 -0.7198  0.1548 -3.0149
 1078SOL     OW14695   2.492   2.598  11.285 -0.1721 -0.7369 -0.4813
 1078SOL    HW114696   2.570   2.592  11.230  1.3732  1.0100  1.5504
 1078SOL    HW214697   2.434   2.661  11.241  2.0237  0.0320 -2.2956
 1079SOL     OW14698   0.297   2.310  13.859  0.3064  0.2100  0.1636
 1079SOL    HW114699   0.389   2.321  13.882  0.8674 -1.7220 -1.1857
 1079SOL    HW214700   0.268   2.267  13.939  0.8089 -1.0403 -0.3259
 1080SOL     OW14701   0.030   3.711   5.099 -0.2370  0.0582 -0.3380
 1080SOL    HW114702   4.710   3.771   5.039  0.3619  1.4948  0.6658
 1080SOL    HW214703   0.120   3.735   5.077 -0.1724 -1.8352 -2.0359
 1081SOL     OW14704   0.283   0.730   3.821  0.6333 -0.3344  0.5584
 1081SOL    HW114705   0.260   0.740   3.729 -1.3311 -1.7628  0.8720
 1081SOL    HW214706   0.195   0.720   3.858  0.8375  0.8398  1.3556
 1082SOL     OW14707   2.814   3.452   0.191  0.0362  0.1166  0.1123
 1082SOL    HW114708   2.826   3.547   0.182  0.0027  0.2367  1.3760
 1082SOL    HW214709   2.899   3.432   0.150 -0.6805  0.6730 -1.6419
 1083SOL     OW14710   1.294   3.381  13.857  0.0294  0.2072  0.4061
 1083SOL    HW114711   1.278   3.364  13.950  1.1278 -1.5175  0.2845
 1083SOL    HW214712   1.376   3.333  13.842 -0.3166 -0.4151  0.5089
 1084SOL     OW14713   0.828   2.217  12.081 -0.3669  0.1100 -0.1638
 1084SOL    HW114714   0.734   2.210  12.099 -0.3971  1.5944  0.2743
 1084SOL    HW214715   0.824   2.257  11.994 -3.0891  1.1551  0.4416
 1085SOL     OW14716   1.362   3.967  10.536  1.0354 -0.1202  0.1289
 1085SOL    HW114717   1.306   3.890  10.530  2.6087 -1.2156 -0.6180
 1085SOL    HW214718   1.430   3.938  10.475 -0.3765  0.6160 -1.7932
 1086SOL     OW14719   1.529   3.333   3.948  0.2965  0.1082 -0.7344
 1086SOL    HW114720   1.449   3.281   3.954 -1.2540  2.4801 -0.6520
 1086SOL    HW214721   1.598   3.267   3.946 -0.1497 -0.3415 -1.0066
 1087SOL     OW14722   2.447   1.908   9.654 -0.1666 -0.0723 -0.2512
 1087SOL    HW114723   2.404   1.966   9.592  0.1800  0.1603 -0.2762
 1087SOL    HW214724   2.491   1.975   9.708  1.6616 -2.3274  1.0480
 1088SOL     OW14725   1.059   1.341  15.236  0.5114 -0.7377 -0.1832
 1088SOL    HW114726   1.056   1.424  15.284 -1.6476 -1.1737  0.4412
 1088SOL    HW214727   0.992   1.352  15.169  0.2366  0.9565  0.3839
 1089SOL     OW14728   0.143   0.872   2.524 -0.6481  0.6585 -0.5398
 1089SOL    HW114729   0.196   0.794   2.535 -2.7300 -0.9561 -1.8009
 1089SOL    HW214730   0.066   0.832   2.483 -1.9351  3.3225 -0.7269
 1090SOL     OW14731   0.560   3.882   4.906  0.0156 -0.0753 -0.3175
 1090SOL    HW114732   0.521   3.960   4.867  1.0359  0.0278 -1.1464
 1090SOL    HW214733   0.555   3.821   4.832 -0.1793  1.2187 -1.3777
 1091SOL     OW14734   2.732   0.723   0.828  0.6949 -0.1159 -0.1314
 1091SOL    HW114735   2.644   0.693   0.806 -0.0403  1.1269  1.1082
 1091SOL    HW214736   2.759   0.761   0.744 -0.2808 -2.4031 -1.4587
 1092SOL     OW14737   1.564   4.077  12.759  0.0729 -0.3888  0.9807
 1092SOL    HW114738   1.552   4.001  12.701 -0.2877 -0.5974  1.3249
 1092SOL    HW214739   1.489   4.136  12.760 -0.9997 -1.7036 -0.6253
 1093SOL     OW14740   3.322   4.619   0.750  0.0716 -0.5935  0.4801
 1093SOL    HW114741   3.286   4.691   0.699 -3.6249 -3.2396 -0.6310
 1093SOL    HW214742   3.331   4.657   0.837  3.4232 -2.3362  0.8960
 1094SOL     OW14743   1.610   3.582   4.386  0.4853  0.2555  0.6737
 1094SOL    HW114744   1.522   3.546   4.397 -0.0020  0.7626 -1.4197
 1094SOL    HW214745   1.649   3.579   4.473 -1.1645 -0.6225  1.3922
 1095SOL     OW14746   1.883   1.286   0.799  0.4091 -0.2143 -0.0488
 1095SOL    HW114747   1.850   1.373   0.774 -0.7088 -0.5288  0.3246
 1095SOL    HW214748   1.876   1.280   0.894  0.1674 -3.1279 -0.2605
 1096SOL     OW14749   0.052   3.437   5.118  0.1229 -0.3533  0.0152
 1096SOL    HW114750   0.049   3.432   5.213  0.1988 -1.9685 -0.0798
 1096SOL    HW214751   0.040   3.532   5.107  1.5395 -0.0626  0.9723
 1097SOL     OW14752   1.106   3.363  11.109 -0.4794  0.2935 -0.1077
 1097SOL    HW114753   1.095   3.451  11.146 -1.8448  1.0212 -2.2785
 1097SOL    HW214754   1.173   3.388  11.045  0.3892 -3.8280 -0.7871
 1098SOL     OW14755   0.666   2.248   5.635 -0.5500 -0.8870  0.1738
 1098SOL    HW114756   0.646   2.160   5.605  0.1594 -0.7126 -0.8106
 1098SOL    HW214757   0.760   2.235   5.638 -0.2604  1.0540 -0.0644
 1099SOL     OW14758   0.639   1.116  15.991  0.6722  0.4318  0.0976
 1099SOL    HW114759   0.646   1.040  15.933 -1.9431 -0.8193  1.3767
 1099SOL    HW214760   0.586   1.071  16.057 -0.2900 -0.2149 -1.0980
 1100SOL     OW14761   3.954   4.355   2.690 -0.3169 -0.0687 -0.4933
 1100SOL    HW114762   4.041   4.348   2.650 -0.0152 -2.2848  0.5713
 1100SOL    HW214763   3.976   4.404   2.769 -1.3599  2.4038 -1.7408
 1101SOL     OW14764   2.897   1.916   8.792 -0.1532  0.3904  0.6678
 1101SOL    HW114765   2.968   1.940   8.733 -1.3218 -0.0863 -0.9559
 1101SOL    HW214766   2.829   1.880   8.734 -1.9239 -0.2073  3.1094
 1102SOL     OW14767   4.294   2.781  15.927  0.4016 -0.0758 -0.5346
 1102SOL    HW114768   4.294   2.693  15.888 -0.9657  0.0154 -0.7578
 1102SOL    HW214769   4.270   2.756  16.016  1.7427 -1.9551 -0.6999
 1103SOL     OW14770   3.460   1.101   8.657 -0.2761 -0.4096  0.2963
 1103SOL    HW114771   3.453   1.006   8.662  0.8191 -0.4118  1.8430
 1103SOL    HW214772   3.546   1.124   8.621  0.0467 -2.4064 -0.1838
 1104SOL     OW14773   2.635   0.979   0.400  0.3433 -0.0724 -0.5595
 1104SOL    HW114774   2.714   1.017   0.360  1.0094  0.0838  0.8998
 1104SOL    HW214775   2.573   1.049   0.382 -0.3622  0.3879  3.8523
 1105SOL     OW14776   3.450   2.573  17.347  0.2639  0.1792 -0.2733
 1105SOL    HW114777   3.529   2.597  17.297 -0.5919 -1.2205 -2.3099
 1105SOL    HW214778   3.480   2.500  17.400  0.4935  1.9426  2.0595
 1106SOL     OW14779   2.354   2.416   5.548 -0.0374 -0.5304  0.3908
 1106SOL    HW114780   2.347   2.434   5.454 -1.6729 -0.2855  0.5506
 1106SOL    HW214781   2.262   2.420   5.573  0.2673  3.7399  0.9893
 1107SOL     OW14782   4.344   0.887  15.502 -0.2453  0.4344  0.2990
 1107SOL    HW114783   4.354   0.884  15.407 -2.3069 -0.2454  0.1152
 1107SOL    HW214784   4.284   0.815  15.519 -0.4778  0.5302 -0.1022
 1108SOL     OW14785   0.974   4.466  15.562 -0.4731 -0.2794  0.3781
 1108SOL    HW114786   1.057   4.478  15.608 -0.3597  1.6850 -0.2986
 1108SOL    HW214787   0.910   4.470  15.633 -1.8684  1.0959 -0.9383
 1109SOL     OW14788   3.514   0.184   7.331  0.5750 -0.3476  0.4205
 1109SOL    HW114789   3.426   0.147   7.327  0.1340  0.6367  1.0214
 1109SOL    HW214790   3.502   0.274   7.361  0.4381 -0.1986 -0.0793
 1110SOL     OW14791   2.513   0.458   3.827 -0.4102  0.1573 -0.0108
 1110SOL    HW114792   2.504   0.452   3.922 -1.5821  0.7692 -0.0822
 1110SOL    HW214793   2.517   0.551   3.807 -0.2179 -0.0468 -0.9445
 1111SOL     OW14794   3.336   3.678   9.817 -0.3621  0.2483 -0.5794
 1111SOL    HW114795   3.255   3.626   9.809  0.4510 -0.9338 -1.1647
 1111SOL    HW214796   3.354   3.704   9.727  0.8956 -1.5102 -0.8416
 1112SOL     OW14797   1.414   0.493   5.363 -0.3464  0.4275 -0.7576
 1112SOL    HW114798   1.436   0.531   5.278  0.2260  1.3102 -0.2238
 1112SOL    HW214799   1.319   0.501   5.375 -0.3560 -1.5244  0.3660
 1113SOL     OW14800   0.273   2.998   8.944  0.0540 -0.1981  0.0503
 1113SOL    HW114801   0.189   3.039   8.963 -0.4986 -1.8809  1.3106
 1113SOL    HW214802   0.262   2.965   8.855  1.3984 -1.2868  0.2757
 1114SOL     OW14803   4.209   3.447   5.221 -0.1697 -0.0525  0.0448
 1114SOL    HW114804   4.225   3.353   5.218  2.0440  0.2512  2.5419
 1114SOL    HW214805   4.241   3.475   5.307  1.1649  0.8966 -0.7614
 1115SOL     OW14806   4.422   0.561   4.316 -0.1898  0.5373 -0.4240
 1115SOL    HW114807   4.440   0.553   4.223  1.1305  1.6176 -0.2585
 1115SOL    HW214808   4.379   0.646   4.304  2.0333  1.2144 -3.4399
 1116SOL     OW14809   1.340   2.954   5.663  0.2544 -0.2425 -0.3314
 1116SOL    HW114810   1.280   2.888   5.629 -0.4855  0.1634  0.1711
 1116SOL    HW214811   1.289   3.035   5.661  0.2037 -0.2499  0.9349
 1117SOL     OW14812   2.669   1.417   2.262  0.3760  0.1325 -0.4998
 1117SOL    HW114813   2.761   1.422   2.289  0.0013  1.5220  0.5532
 1117SOL    HW214814   2.642   1.328   2.282  0.1702 -0.0534 -1.5922
 1118SOL     OW14815   2.764   2.604  11.434  1.0424  0.0947  0.5226
 1118SOL    HW114816   2.835   2.609  11.499  1.3360 -1.0723  0.2912
 1118SOL    HW214817   2.736   2.513  11.431 -1.5209  0.8244  2.3920
 1119SOL     OW14818   0.126   3.909   7.867 -0.7657  0.5611  0.0492
 1119SOL    HW114819   0.122   3.931   7.960 -2.1507 -0.0013  0.1267
 1119SOL    HW214820   0.216   3.938   7.852 -0.3773 -0.5146  0.2623
 1120SOL     OW14821   3.147   2.833  13.456  0.0358  0.1869 -0.3685
 1120SOL    HW114822   3.188   2.796  13.534  2.5299  1.9168 -0.8485
 1120SOL    HW214823   3.175   2.924  13.464 -3.0202  0.9499  1.5939
 1121SOL     OW14824   1.535   3.611  16.869  0.4109  0.1018  0.1075
 1121SOL    HW114825   1.608   3.670  16.889  2.1398 -1.2367 -2.1564
 1121SOL    HW214826   1.507   3.652  16.787 -1.5721  2.4695  1.9774
 1122SOL     OW14827   2.191   0.687   8.784  0.3641 -0.0063 -0.1401
 1122SOL    HW114828   2.110   0.647   8.752 -0.9839  2.3184  0.4225
 1122SOL    HW214829   2.214   0.636   8.861  3.6949  1.2585 -0.2808
 1123SOL     OW14830   1.582   3.919  12.271 -0.6343  0.1137  0.2658
 1123SOL    HW114831   1.619   3.983  12.211 -2.0477 -0.4365 -1.2085
 1123SOL    HW214832   1.518   3.886  12.208  0.7150 -2.8370  0.3988
 1124SOL     OW14833   1.338   3.578   6.687  0.1991  0.2768  0.5707
 1124SOL    HW114834   1.346   3.496   6.639  2.9198  0.3939  0.7981
 1124SOL    HW214835   1.407   3.556   6.751  0.9189 -0.4944 -0.4824
 1125SOL     OW14836   0.247   2.604   1.979  0.1451  0.1708 -0.1355
 1125SOL    HW114837   0.313   2.598   1.910 -2.1285  0.7621 -2.3848
 1125SOL    HW214838   0.311   2.614   2.049  0.1216  2.6872 -0.4659
 1126SOL     OW14839   2.267   0.448   5.700  0.2547  0.4713 -0.0186
 1126SOL    HW114840   2.210   0.505   5.649 -1.0961 -1.3662 -0.5400
 1126SOL    HW214841   2.273   0.377   5.636 -0.7994 -0.2958  0.7279
 1127SOL     OW14842   4.323   0.741   5.061  0.2885 -0.0111  0.1664
 1127SOL    HW114843   4.288   0.746   4.972  1.3107  0.1477 -0.2251
 1127SOL    HW214844   4.375   0.661   5.053 -0.3726  0.0263 -4.4575
 1128SOL     OW14845   0.612   1.084   3.813  0.1640  0.2982  0.5046
 1128SOL    HW114846   0.650   1.167   3.840  0.0905  0.5133 -0.0543
 1128SOL    HW214847   0.537   1.123   3.767  1.0646  1.2906 -0.1146
 1129SOL     OW14848   4.520   3.488   4.140  0.2641 -0.0501  0.2700
 1129SOL    HW114849   4.449   3.434   4.174  1.3926 -1.8148 -0.1830
 1129SOL    HW214850   4.479   3.541   4.073  0.7162  1.3588  1.0972
 1130SOL     OW14851   2.419   4.692   6.458 -0.2049  0.1429 -0.0697
 1130SOL    HW114852   2.371   4.678   6.540 -1.4410 -1.7604 -1.1243
 1130SOL    HW214853   2.467   0.046   6.486  0.5222  0.6392 -2.7050
 1131SOL     OW14854   0.110   1.359  17.242  0.1932 -0.2709  0.0989
 1131SOL    HW114855   0.122   1.354  17.337 -0.3398 -1.7404  0.0980
 1131SOL    HW214856   0.189   1.326  17.198 -0.8315 -0.8257 -1.3043
 1132SOL     OW14857   3.664   0.149   5.938  0.3323  0.1949 -0.0371
 1132SOL    HW114858   3.634   0.163   5.848  0.4099 -0.3371 -0.1502
 1132SOL    HW214859   3.752   0.124   5.911  1.4092  0.1134  3.5794
 1133SOL     OW14860   1.149   1.667   1.431  0.1111 -0.0593  0.0144
 1133SOL    HW114861   1.057   1.649   1.448 -0.4304  2.1062 -0.5822
 1133SOL    HW214862   1.194   1.583   1.439  2.1954  1.2927  2.2822
 1134SOL     OW14863   4.460   1.858  16.950  0.1469 -0.6928  0.5464
 1134SOL    HW114864   4.523   1.929  16.937  0.6913 -1.1883  0.4649
 1134SOL    HW214865   4.520   1.797  16.992  0.7523  0.3601  1.1854
 1135SOL     OW14866   1.765   2.524   6.925 -0.2831  0.2120  0.2090
 1135SOL    HW114867   1.708   2.476   6.866 -1.0473 -2.0826  2.8396
 1135SOL    HW214868   1.698   2.565   6.980  1.0451  0.6474  1.5222
 1136SOL     OW14869   1.990   2.322   3.174  0.4939  0.3121  0.5976
 1136SOL    HW114870   1.971   2.345   3.265 -1.8953  0.5318  0.0372
 1136SOL    HW214871   2.050   2.393   3.150 -1.0439  1.5929  0.5223
 1137SOL     OW14872   1.084   2.004  12.349  0.4921  0.3939  0.2701
 1137SOL    HW114873   1.078   2.005  12.253 -0.5298 -0.3928  0.3157
 1137SOL    HW214874   1.033   1.923  12.358 -0.2649  0.6294 -1.7164
 1138SOL     OW14875   0.933   1.405   4.565  0.1357  0.3246  0.1757
 1138SOL    HW114876   1.002   1.347   4.596 -1.2133 -0.3666  1.8594
 1138SOL    HW214877   0.850   1.360   4.579 -0.1133  0.9589  0.7267
 1139SOL     OW14878   1.385   2.863   2.511 -0.3938  0.1290  0.8873
 1139SOL    HW114879   1.403   2.878   2.419  0.7974 -1.3476  0.8723
 1139SOL    HW214880   1.471   2.824   2.530 -2.0267 -3.3977  1.0767
 1140SOL     OW14881   4.607   3.059  14.490  0.3042 -0.4887  0.1149
 1140SOL    HW114882   4.592   3.153  14.502  0.5493 -0.6285  1.5059
 1140SOL    HW214883   4.664   3.065  14.413  0.7364 -0.4227  0.4400
 1141SOL     OW14884   1.848   0.573   6.674 -0.1642  0.2296 -0.1749
 1141SOL    HW114885   1.767   0.571   6.725 -0.9431  0.3911 -1.3944
 1141SOL    HW214886   1.883   0.657   6.705 -0.8623  0.7921 -0.9070
 1142SOL     OW14887   2.663   1.822   1.531 -0.4726  0.2081 -0.1174
 1142SOL    HW114888   2.638   1.751   1.473  0.0405  1.2006 -1.5562
 1142SOL    HW214889   2.755   1.839   1.514 -0.5279  2.2574  1.6346
 1143SOL     OW14890   0.581   2.698  15.180 -0.1073  0.3961  0.3968
 1143SOL    HW114891   0.486   2.692  15.169 -0.1832  0.6754  0.8946
 1143SOL    HW214892   0.592   2.743  15.264  0.0332 -1.4660  1.3675
 1144SOL     OW14893   3.031   0.216   1.819 -0.4276 -0.0166 -0.4451
 1144SOL    HW114894   3.077   0.228   1.902  0.0491  0.1675 -0.7337
 1144SOL    HW214895   3.020   0.307   1.791 -0.3114 -0.0645 -0.6533
 1145SOL     OW14896   2.961   0.879   1.995 -0.2747  0.6011  0.5897
 1145SOL    HW114897   2.901   0.835   2.055  0.9372 -0.0038  1.3473
 1145SOL    HW214898   3.047   0.853   2.028 -0.0253  0.1225 -0.4181
 1146SOL     OW14899   1.345   1.177   4.502 -0.1222 -0.0195  0.2683
 1146SOL    HW114900   1.336   1.110   4.570 -2.1103  0.2258  0.2344
 1146SOL    HW214901   1.426   1.219   4.531 -0.1882  0.1766  0.1614
 1147SOL     OW14902   3.266   4.278   1.366 -0.0835  0.5485  0.1758
 1147SOL    HW114903   3.300   4.351   1.418 -0.0024  0.3214  0.4422
 1147SOL    HW214904   3.338   4.266   1.304  0.9189  1.1939  1.2055
 1148SOL     OW14905   3.964   2.760   2.336  0.4578 -0.4693 -0.1828
 1148SOL    HW114906   4.050   2.735   2.371  1.2535  0.6928 -1.2888
 1148SOL    HW214907   3.985   2.813   2.259  0.5440 -0.8273 -0.4051
 1149SOL     OW14908   4.698   0.648   6.615  0.1786 -0.7827  0.6819
 1149SOL    HW114909   4.605   0.670   6.625  0.3496 -0.1329  0.8168
 1149SOL    HW214910   4.705   0.655   6.520  1.0018  2.2971  0.9855
 1150SOL     OW14911   3.694   3.099   3.704  0.3386  0.0152  0.1719
 1150SOL    HW114912   3.688   3.192   3.681  1.1373 -0.8307 -3.3055
 1150SOL    HW214913   3.784   3.087   3.674 -0.2064 -1.0621 -0.9910
 1151SOL     OW14914   4.508   2.044   3.607  0.5346 -0.0391  0.1857
 1151SOL    HW114915   4.423   2.072   3.572  1.0321 -0.2413 -1.1727
 1151SOL    HW214916   4.510   1.951   3.586  0.0044  0.0293 -0.1655
 1152SOL     OW14917   0.988   0.634   5.784 -0.5349  0.1672  0.0063
 1152SOL    HW114918   1.078   0.649   5.813 -0.4003 -1.7508  0.6053
 1152SOL    HW214919   0.954   0.585   5.859 -2.7563 -0.2345 -1.2684
 1153SOL     OW14920   0.138   4.469   7.729 -0.4761 -0.1661  0.1077
 1153SOL    HW114921   0.159   4.544   7.673  0.8436 -0.2239  0.5377
 1153SOL    HW214922   0.166   4.396   7.673 -3.6392 -0.5754 -0.9633
 1154SOL     OW14923   0.260   0.463  12.096  0.6406 -0.2564  0.3418
 1154SOL    HW114924   0.166   0.478  12.083  0.3749 -2.9197 -0.6905
 1154SOL    HW214925   0.272   0.502  12.183  1.2467 -1.4754  0.8018
 1155SOL     OW14926   2.800   0.927   5.881 -0.3674 -0.1784 -0.5448
 1155SOL    HW114927   2.802   1.023   5.884  0.9347 -0.2697  0.8029
 1155SOL    HW214928   2.846   0.900   5.959 -1.7632  1.1631  0.7441
 1156SOL     OW14929   0.390   3.718   4.166 -0.7809  0.1407  0.3531
 1156SOL    HW114930   0.339   3.789   4.128  0.7854  1.8318  1.3833
 1156SOL    HW214931   0.363   3.640   4.118 -2.5749  1.2803 -0.4741
 1157SOL     OW14932   1.337   4.267  15.688 -0.9546  0.5793  0.2465
 1157SOL    HW114933   1.281   4.298  15.617 -1.5120  0.0164  0.4348
 1157SOL    HW214934   1.287   4.194  15.726  1.6702 -0.3118  1.9976
 1158SOL     OW14935   4.170   4.171  11.717  0.7750  0.0455  0.0841
 1158SOL    HW114936   4.203   4.260  11.703 -1.8858  0.9431 -0.4859
 1158SOL    HW214937   4.114   4.176  11.794  0.8142  1.2306  0.0403
 1159SOL     OW14938   0.814   1.017   4.694  0.1913 -0.0902 -0.5560
 1159SOL    HW114939   0.774   0.971   4.767 -2.6121  1.0014 -1.3992
 1159SOL    HW214940   0.787   0.976   4.612  1.1520  0.7187 -1.2795
 1160SOL     OW14941   3.196   1.939  15.785 -0.0104 -0.4395 -0.2284
 1160SOL    HW114942   3.211   1.914  15.693  0.7267  0.0090 -0.2378
 1160SOL    HW214943   3.229   2.029  15.780 -0.1094 -0.4479 -1.1448
 1161SOL     OW14944   1.157   1.385   9.023  0.1959 -0.5263  0.6151
 1161SOL    HW114945   1.075   1.375   9.072 -1.0090  1.5178 -0.9783
 1161SOL    HW214946   1.213   1.435   9.081 -1.3385 -1.8181  3.1927
 1162SOL     OW14947   1.177   0.480   3.553  0.2151 -0.1292 -0.0533
 1162SOL    HW114948   1.253   0.432   3.520  0.1679 -0.4379  0.2945
 1162SOL    HW214949   1.222   0.562   3.573 -1.6866  0.8232  0.3646
 1163SOL     OW14950   3.555   0.566   2.745 -0.1609  0.1424 -0.2308
 1163SOL    HW114951   3.645   0.589   2.723  0.7057 -0.6391  2.4525
 1163SOL    HW214952   3.578   0.517   2.824  1.5085  1.1997 -0.0502
 1164SOL     OW14953   4.451   4.522   8.430 -0.2399  0.1572 -0.3968
 1164SOL    HW114954   4.464   4.561   8.344  1.1002  1.0556  0.2172
 1164SOL    HW214955   4.361   4.540   8.457 -0.0435  2.4483 -1.3101
 1165SOL     OW14956   0.219   1.485   8.056  0.7633  0.1812  0.2822
 1165SOL    HW114957   0.280   1.555   8.078 -0.1948  0.5126  1.8082
 1165SOL    HW214958   0.280   1.416   8.028  1.9685  0.5390  2.0486
 1166SOL     OW14959   2.565   4.310   1.744 -0.4703 -0.1284  0.0645
 1166SOL    HW114960   2.625   4.384   1.750  0.4924 -0.8413 -0.7361
 1166SOL    HW214961   2.604   4.251   1.808  1.3814  1.5159  0.4399
 1167SOL     OW14962   3.404   3.071  15.859  0.2796 -0.0779  0.0691
 1167SOL    HW114963   3.417   3.043  15.768 -0.7931 -3.7366  1.0337
 1167SOL    HW214964   3.332   3.133  15.850 -0.3890 -0.7047  1.1164
 1168SOL     OW14965   4.544   2.174  10.239 -0.1960 -0.2953  0.0899
 1168SOL    HW114966   4.630   2.150  10.272 -0.3796 -0.9789  0.0722
 1168SOL    HW214967   4.503   2.087  10.243 -1.7272  0.3908 -0.5793
 1169SOL     OW14968   3.105   1.349   3.955  0.1831 -0.1533 -0.0400
 1169SOL    HW114969   3.115   1.324   4.047 -2.3684  1.1238  0.5900
 1169SOL    HW214970   3.194   1.364   3.925 -0.5359  1.2285 -1.4494
 1170SOL     OW14971   1.372   1.278  15.460  0.5121  0.2223  0.1020
 1170SOL    HW114972   1.437   1.348  15.466  0.9576 -0.1851 -0.0080
 1170SOL    HW214973   1.309   1.312  15.524  0.7507 -0.8247  0.8879
 1171SOL     OW14974   3.110   0.382   3.095 -0.1410  0.4107  0.8034
 1171SOL    HW114975   3.190   0.357   3.142  0.2086 -0.3969 -0.2200
 1171SOL    HW214976   3.076   0.294   3.082  0.8970  0.1508 -0.1892
 1172SOL     OW14977   3.892   3.255   1.639 -0.6866  0.0424  0.2635
 1172SOL    HW114978   3.948   3.263   1.717  1.8071 -0.3685 -1.4811
 1172SOL    HW214979   3.960   3.239   1.574 -0.7233 -2.0038  0.7400
 1173SOL     OW14980   1.621   4.197   5.828  0.2010 -0.5543  0.3495
 1173SOL    HW114981   1.621   4.191   5.923  1.1639  2.0734  0.5265
 1173SOL    HW214982   1.584   4.284   5.813 -0.6598 -0.9920 -0.1081
 1174SOL     OW14983   0.029   4.369   1.953  0.3319 -0.5451 -0.3724
 1174SOL    HW114984   0.011   4.371   1.859 -0.0292  1.8831 -0.2486
 1174SOL    HW214985   0.067   4.456   1.963  1.0786 -0.6634 -2.2046
 1175SOL     OW14986   0.486   4.245   7.338  0.2804 -0.3704  1.1394
 1175SOL    HW114987   0.449   4.158   7.324 -1.1959  0.3834  0.4090
 1175SOL    HW214988   0.427   4.295   7.281  1.3138 -0.0980  0.3053
 1176SOL     OW14989   1.425   1.243   4.077 -0.0383 -0.5739 -0.4259
 1176SOL    HW114990   1.469   1.285   4.003 -0.3317  2.2034  0.9535
 1176SOL    HW214991   1.347   1.299   4.083  0.6090  0.2827 -0.0032
 1177SOL     OW14992   0.525   0.794  14.939  0.4520  0.1603 -0.2810
 1177SOL    HW114993   0.452   0.748  14.897 -0.4075 -0.2693  1.7104
 1177SOL    HW214994   0.598   0.737  14.912  0.9781 -1.1097  3.8631
 1178SOL     OW14995   2.190   1.745  14.819 -0.2043  0.1356 -0.0146
 1178SOL    HW114996   2.171   1.651  14.825 -2.2827  0.4606 -1.9836
 1178SOL    HW214997   2.140   1.759  14.739 -0.8969 -0.0917  0.3830
 1179SOL     OW14998   0.789   1.612   3.592 -0.0279  0.0816 -0.1232
 1179SOL    HW114999   0.710   1.557   3.589 -0.7480  0.9717  2.8819
 1179SOL    HW215000   0.839   1.590   3.514  1.2929  0.8537  0.5077
 1180SOL     OW15001   0.112   0.323   7.428 -0.5298  0.4383 -0.5469
 1180SOL    HW115002   0.125   0.271   7.507  0.1604  1.2231 -0.1402
 1180SOL    HW215003   0.021   0.300   7.408 -0.5618 -0.8208  1.0436
 1181SOL     OW15004   3.065   3.641   4.476 -0.0159 -0.0624  0.0388
 1181SOL    HW115005   3.128   3.712   4.484  0.4738 -0.4342 -0.4929
 1181SOL    HW215006   3.062   3.629   4.381 -0.6511  0.2379  0.0226
 1182SOL     OW15007   1.640   2.522  14.630  0.4757  0.7366 -0.3695
 1182SOL    HW115008   1.667   2.456  14.566  0.7931  2.3569 -1.8982
 1182SOL    HW215009   1.647   2.470  14.711 -0.1666 -1.5328 -1.7800
 1183SOL     OW15010   0.821   2.432   3.861  0.0361 -0.2572 -1.1060
 1183SOL    HW115011   0.892   2.450   3.923 -0.7451 -1.1176  0.0533
 1183SOL    HW215012   0.861   2.358   3.816  1.6029 -0.5578  0.7871
 1184SOL     OW15013   4.232   1.686   6.933  0.0356  0.4602  0.5690
 1184SOL    HW115014   4.179   1.669   6.855 -0.8357  0.3146  1.1937
 1184SOL    HW215015   4.262   1.598   6.956 -1.3877  0.0169  0.7421
 1185SOL     OW15016   3.950   4.485   6.921  0.1599 -0.7253 -0.2141
 1185SOL    HW115017   4.005   4.451   6.851  0.5694 -0.9448  0.2225
 1185SOL    HW215018   3.912   4.572   6.907  1.6315 -0.3237 -1.6547
 1186SOL     OW15019   2.964   0.294   6.216  0.1289 -0.6130  0.0181
 1186SOL    HW115020   3.037   0.259   6.267 -0.1712  0.6614  1.3192
 1186SOL    HW215021   2.890   0.251   6.260 -0.7912 -0.5962 -1.5092
 1187SOL     OW15022   2.476   2.553   6.129 -0.4731 -0.2165 -1.2810
 1187SOL    HW115023   2.463   2.563   6.223 -0.3842 -1.1239 -1.1748
 1187SOL    HW215024   2.570   2.565   6.115 -0.3228 -0.5831 -0.5665
 1188SOL     OW15025   0.880   3.793  16.400 -0.2518 -0.5829 -0.0013
 1188SOL    HW115026   0.940   3.722  16.375 -1.0000 -0.9537 -0.7285
 1188SOL    HW215027   0.906   3.816  16.489 -0.4451  1.9923 -0.6218
 1189SOL     OW15028   0.798   0.453   7.206  0.0427 -0.4312 -0.0367
 1189SOL    HW115029   0.788   0.524   7.269  0.9679 -0.6725  0.3733
 1189SOL    HW215030   0.846   0.512   7.147 -4.6119  0.3636 -3.0434
 1190SOL     OW15031   2.235   4.547   3.354  0.1026  0.3434  0.3053
 1190SOL    HW115032   2.327   4.565   3.335  0.7826 -1.8356  1.5980
 1190SOL    HW215033   2.212   4.578   3.442 -0.5214 -0.6907  0.5049
 1191SOL     OW15034   0.161   2.190   4.615  0.3552  0.3209 -0.2570
 1191SOL    HW115035   0.096   2.241   4.567  0.2887 -0.4848 -1.0195
 1191SOL    HW215036   0.195   2.144   4.538  0.5562 -1.7390  1.0643
 1192SOL     OW15037   3.417   0.916  17.012  0.4349 -1.0130 -0.0989
 1192SOL    HW115038   3.331   0.903  17.053  0.2377  0.4957 -0.0449
 1192SOL    HW215039   3.395   0.942  16.923 -0.2373 -0.1368  0.3256
 1193SOL     OW15040   0.173   2.544   7.449  0.4822 -0.0038  0.3703
 1193SOL    HW115041   0.097   2.552   7.391  1.7332 -1.2203 -1.4258
 1193SOL    HW215042   0.234   2.494   7.395 -1.1022 -1.7131  0.1501
 1194SOL     OW15043   1.870   0.079  16.740 -1.2063 -0.2165  0.0688
 1194SOL    HW115044   1.861   0.172  16.721  0.6552 -0.0497 -0.0492
 1194SOL    HW215045   1.869   0.076  16.836  2.9722 -1.6081  0.1018
 1195SOL     OW15046   3.778   2.303   5.573  0.2066  0.1323  0.3116
 1195SOL    HW115047   3.856   2.335   5.617  1.3005 -3.4097  0.8966
 1195SOL    HW215048   3.773   2.364   5.498 -0.7568 -0.3376 -0.0111
 1196SOL     OW15049   4.330   3.969   4.530 -0.2299  0.2455  1.2654
 1196SOL    HW115050   4.393   4.028   4.489 -0.4027  0.3677  1.1781
 1196SOL    HW215051   4.251   3.977   4.477  1.1693 -0.9306 -1.0030
 1197SOL     OW15052   0.628   3.273   4.052 -0.5952 -0.0122 -0.1440
 1197SOL    HW115053   0.706   3.218   4.047 -0.0470  0.6717  1.0363
 1197SOL    HW215054   0.664   3.350   4.096  1.5996  0.0268 -1.9747
 1198SOL     OW15055   2.977   3.301   8.628  0.4439  0.2512 -0.1101
 1198SOL    HW115056   3.069   3.318   8.651  0.7914  0.9062 -1.9744
 1198SOL    HW215057   2.970   3.229   8.691  1.0941  0.7603  0.5405
 1199SOL     OW15058   3.451   2.745   2.919  0.3623  0.3357  0.5095
 1199SOL    HW115059   3.517   2.813   2.907  0.5350 -0.0316 -0.6080
 1199SOL    HW215060   3.494   2.670   2.960  2.5961  1.2783 -0.1211
 1200SOL     OW15061   2.909   0.749   8.708 -0.1773 -0.7245 -0.1269
 1200SOL    HW115062   2.855   0.690   8.761  2.2263 -2.0434  0.8591
 1200SOL    HW215063   2.856   0.777   8.634  0.8747  1.8540  0.0735
 1201SOL     OW15064   1.512   4.081   5.254  0.4161 -0.0552  0.6706
 1201SOL    HW115065   1.604   4.055   5.259  0.7979  0.9543 -0.7470
 1201SOL    HW215066   1.504   4.090   5.159 -1.0102  0.4404  0.8380
 1202SOL     OW15067   3.653   0.124  12.933  0.3284  0.1215 -0.4798
 1202SOL    HW115068   3.586   0.187  12.906 -0.6280 -1.2847 -1.3698
 1202SOL    HW215069   3.674   0.161  13.019  2.2956  1.4974 -1.5784
 1203SOL     OW15070   0.327   4.130   2.996 -0.0627 -0.5115 -0.0671
 1203SOL    HW115071   0.362   4.182   2.924 -2.3575  0.4749 -0.4552
 1203SOL    HW215072   0.233   4.144   2.984 -0.2640 -1.4110  0.4656
 1204SOL     OW15073   4.345   0.207   7.211 -0.3159  0.0487 -0.2254
 1204SOL    HW115074   4.380   0.265   7.144  1.5834  1.0071  1.6059
 1204SOL    HW215075   4.361   0.256   7.291  0.5449 -3.4740  1.7731
 1205SOL     OW15076   0.620   1.521   8.230  0.2510  0.6430  0.3080
 1205SOL    HW115077   0.573   1.554   8.154  1.7469 -0.0243 -0.9209
 1205SOL    HW215078   0.590   1.572   8.305  1.6883 -0.0445  1.3440
 1206SOL     OW15079   0.072   0.997   9.419 -0.2339  0.0233  0.0970
 1206SOL    HW115080   0.156   1.022   9.460  0.6046 -1.1931 -0.8746
 1206SOL    HW215081   0.085   1.016   9.326  1.1358 -1.6627 -0.0599
 1207SOL     OW15082   2.951   2.254  11.669  0.3405  0.5303 -0.1537
 1207SOL    HW115083   2.994   2.169  11.680 -1.2644 -0.1317  0.9202
 1207SOL    HW215084   2.863   2.220  11.681  0.1899  0.6466 -0.9390
 1208SOL     OW15085   2.222   3.302   2.170 -0.4145 -0.0198  0.1516
 1208SOL    HW115086   2.192   3.213   2.190 -0.3214 -0.3500 -1.2030
 1208SOL    HW215087   2.264   3.288   2.085  0.9150 -2.4228  1.2410
 1209SOL     OW15088   2.812   1.409  10.452 -0.0682  0.4575  0.3143
 1209SOL    HW115089   2.772   1.459  10.523 -2.2812  0.6363 -1.0515
 1209SOL    HW215090   2.903   1.438  10.452  0.1764 -0.3019  0.3521
 1210SOL     OW15091   2.541   0.567   4.356  0.2060  0.2454  0.6997
 1210SOL    HW115092   2.633   0.593   4.355  0.1790  0.3790  1.5043
 1210SOL    HW215093   2.522   0.620   4.434  0.5163  1.5506 -0.1016
 1211SOL     OW15094   2.339   0.318   4.549  0.1437 -0.7711  0.2575
 1211SOL    HW115095   2.353   0.347   4.459 -1.2682 -2.7590 -0.6059
 1211SOL    HW215096   2.432   0.314   4.573  0.8304  0.3714 -2.1900
 1212SOL     OW15097   0.968   3.712   8.556 -0.4646 -0.3538  0.1082
 1212SOL    HW115098   0.895   3.690   8.613 -0.5892  0.2525  0.1821
 1212SOL    HW215099   0.974   3.807   8.558 -2.5833 -0.2384  0.1523
 1213SOL     OW15100   4.703   2.857   6.147 -0.1552 -0.7725 -0.1230
 1213SOL    HW115101   0.058   2.877   6.198  0.2692  0.5269 -1.3215
 1213SOL    HW215102   4.640   2.833   6.215 -2.2615 -2.4597 -2.6712
 1214SOL     OW15103   1.477   3.405  11.953 -0.6138  0.3409  0.2268
 1214SOL    HW115104   1.555   3.348  11.956 -0.7328  0.1159 -0.7486
 1214SOL    HW215105   1.467   3.403  11.858  1.3608 -0.3993  0.0189
 1215SOL     OW15106   0.409   3.898   1.447 -0.1633  0.7081 -0.4724
 1215SOL    HW115107   0.460   3.870   1.523 -0.8440 -1.2645 -0.7548
 1215SOL    HW215108   0.400   3.810   1.411 -2.2342  2.1335 -3.4410
 1216SOL     OW15109   0.620   4.468   2.135  0.7770 -0.3046  0.6993
 1216SOL    HW115110   0.569   4.508   2.206  0.9495  0.5585  0.3418
 1216SOL    HW215111   0.709   4.490   2.161  0.4752 -0.4814  1.9008
 1217SOL     OW15112   0.052   1.306   0.556 -0.1203  0.1218 -0.2458
 1217SOL    HW115113   0.002   1.266   0.627 -1.6298  1.4260 -0.5523
 1217SOL    HW215114   0.032   1.399   0.571  1.0140  0.2519  0.3762
 1218SOL     OW15115   0.407   4.593   5.703  0.2223  0.0131  0.3678
 1218SOL    HW115116   0.458   4.514   5.685  0.5574  0.7928 -2.1291
 1218SOL    HW215117   0.470   4.648   5.655 -1.3464  0.0168 -1.6876
 1219SOL     OW15118   1.930   1.449   6.775  0.6875  0.4213 -0.1844
 1219SOL    HW115119   1.885   1.415   6.851 -1.0327  0.9068 -0.9800
 1219SOL    HW215120   1.961   1.369   6.732  1.5959  0.5376  0.2505
 1220SOL     OW15121   1.337   4.452   2.331 -0.4184 -0.4801  0.3034
 1220SOL    HW115122   1.319   4.451   2.237  1.3776  1.3265 -0.0689
 1220SOL    HW215123   1.318   4.542   2.357 -0.0035 -0.4557  0.5212
 1221SOL     OW15124   1.497   0.659   3.653  0.5460 -0.1224  0.3594
 1221SOL    HW115125   1.560   0.607   3.604 -0.0027 -1.0212  0.6038
 1221SOL    HW215126   1.522   0.644   3.744 -0.9614  2.4636  1.2072
 1222SOL     OW15127   2.506   0.735  15.294  0.1143 -0.2927 -0.5424
 1222SOL    HW115128   2.453   0.664  15.257 -0.2340  0.5331 -1.5966
 1222SOL    HW215129   2.514   0.709  15.386 -0.2091 -0.3507 -0.5331
 1223SOL     OW15130   1.881   4.692   3.882 -0.5817  0.1806 -0.4074
 1223SOL    HW115131   1.957   4.638   3.863  1.6311  2.0665  3.1306
 1223SOL    HW215132   1.917   0.048   3.921  0.1825 -0.7233  0.7344
 1224SOL     OW15133   2.916   1.418   2.345 -0.1322  0.2946 -0.0343
 1224SOL    HW115134   2.941   1.510   2.348 -0.6139  0.3547  2.2526
 1224SOL    HW215135   2.978   1.363   2.297 -0.8613 -0.3987 -0.1665
 1225SOL     OW15136   0.800   0.561  11.419 -0.3701  0.5397  0.1909
 1225SOL    HW115137   0.766   0.597  11.337 -1.0892 -2.0088 -0.6416
 1225SOL    HW215138   0.884   0.522  11.394 -1.3496  0.0737 -2.3797
 1226SOL     OW15139   3.348   0.352  11.809  0.5075 -0.1435 -0.3376
 1226SOL    HW115140   3.392   0.429  11.772  1.3741  0.3774  1.8058
 1226SOL    HW215141   3.361   0.284  11.743 -0.4441 -0.6839  0.0376
 1227SOL     OW15142   4.450   2.066   2.297  0.5104 -0.9142  0.2110
 1227SOL    HW115143   4.534   2.060   2.251  1.3769 -1.0147  1.8302
 1227SOL    HW215144   4.461   2.038   2.387 -0.6768  2.4956  1.4322
 1228SOL     OW15145   1.181   4.310   6.044 -0.7073 -0.2778  0.0911
 1228SOL    HW115146   1.231   4.250   5.988 -0.9847 -1.4792  1.1315
 1228SOL    HW215147   1.171   4.260   6.125  1.3401 -0.1241  0.4285
 1229SOL     OW15148   2.386   2.563   9.678  0.3171 -0.1374  0.7041
 1229SOL    HW115149   2.462   2.531   9.629 -1.7675 -0.5805 -2.1888
 1229SOL    HW215150   2.343   2.477   9.684  1.2487 -0.5909  0.9062
 1230SOL     OW15151   4.682   3.992   3.273 -0.6139 -0.4413 -0.7967
 1230SOL    HW115152   0.053   3.979   3.280 -0.4732  0.0594 -1.7985
 1230SOL    HW215153   4.663   4.082   3.297  1.7803  0.1126 -0.9323
 1231SOL     OW15154   2.400   4.133   1.401  0.1034  0.4267 -0.3557
 1231SOL    HW115155   2.417   4.226   1.416 -2.7513  0.8394  0.1794
 1231SOL    HW215156   2.481   4.113   1.353 -1.4509 -1.7496 -2.0644
 1232SOL     OW15157   1.975   4.418   1.061  0.4792 -0.2333 -0.3159
 1232SOL    HW115158   1.967   4.436   0.967 -2.4577 -0.9911 -0.2115
 1232SOL    HW215159   1.886   4.391   1.085  1.5946 -1.8720  1.9211
 1233SOL     OW15160   1.365   4.599   9.630  0.1518  0.2044  0.1757
 1233SOL    HW115161   1.303   4.528   9.645  2.0368 -1.6036 -0.7182
 1233SOL    HW215162   1.444   4.574   9.678  1.2881  1.8027 -0.8465
 1234SOL     OW15163   3.959   3.291   4.884 -0.4705  0.1484 -0.4913
 1234SOL    HW115164   3.936   3.230   4.954 -1.7000  1.1604  0.0007
 1234SOL    HW215165   3.882   3.288   4.827  0.8145 -1.5228 -2.1202
 1235SOL     OW15166   4.269   3.720  16.838  0.3527  0.7808  0.0917
 1235SOL    HW115167   4.282   3.776  16.915  0.7443  2.4176 -1.1701
 1235SOL    HW215168   4.359   3.701  16.812  0.2675 -1.8104  1.7524
 1236SOL     OW15169   4.283   2.058   7.519  0.0260 -0.1911 -0.6359
 1236SOL    HW115170   4.332   2.009   7.453 -0.6406  1.0787 -2.0744
 1236SOL    HW215171   4.270   1.985   7.580  2.7008 -0.2415 -0.0964
 1237SOL     OW15172   3.044   0.451   9.744  0.3228  0.5567 -0.6148
 1237SOL    HW115173   3.049   0.412   9.831  0.1468 -1.8201 -1.6786
 1237SOL    HW215174   3.122   0.417   9.699  0.0749  2.3869 -2.4674
 1238SOL     OW15175   0.534   2.510   5.344 -0.4385  0.7538 -0.2598
 1238SOL    HW115176   0.610   2.468   5.304 -1.0434 -0.1854 -0.4420
 1238SOL    HW215177   0.572   2.540   5.425  0.3402  0.5091 -0.5374
 1239SOL     OW15178   1.838   1.488  12.249  0.0613 -1.1939 -0.1470
 1239SOL    HW115179   1.891   1.485  12.329 -2.5006  0.0691  1.6208
 1239SOL    HW215180   1.816   1.580  12.234 -1.1661 -1.2089  1.5423
 1240SOL     OW15181   0.198   2.733   2.826  0.0984 -0.2980 -0.6604
 1240SOL    HW115182   0.217   2.684   2.906  1.0480  2.3964  0.7655
 1240SOL    HW215183   0.271   2.703   2.772  1.2618 -0.2806  0.9148
 1241SOL     OW15184   4.647   1.925  11.357 -0.6331 -0.8039 -0.4655
 1241SOL    HW115185   4.632   1.953  11.267  0.7530 -0.7669 -0.6852
 1241SOL    HW215186   4.698   1.999  11.389  2.6496 -2.7261 -1.2117
 1242SOL     OW15187   4.072   0.403   4.445 -0.1673 -0.2603  0.3334
 1242SOL    HW115188   4.129   0.437   4.513  0.1299 -1.6180  0.7730
 1242SOL    HW215189   3.990   0.400   4.494 -0.4804  0.3247 -0.1641
 1243SOL     OW15190   1.811   3.152   8.358  0.3057  0.4177  0.3936
 1243SOL    HW115191   1.826   3.058   8.366 -2.8302 -0.2506 -1.3422
 1243SOL    HW215192   1.760   3.178   8.435 -2.0353  1.0366 -1.3410
 1244SOL     OW15193   0.831   1.624   5.932 -0.3187 -0.5420  0.0615
 1244SOL    HW115194   0.821   1.715   5.960 -0.5200  0.2380 -2.5822
 1244SOL    HW215195   0.804   1.585   6.016 -0.2175 -3.1152 -1.1139
 1245SOL     OW15196   1.468   0.138   3.559  0.2603 -0.4308  0.0659
 1245SOL    HW115197   1.382   0.139   3.517 -0.5927  1.9036  1.8545
 1245SOL    HW215198   1.532   0.158   3.490 -0.0604 -2.6400 -0.8703
 1246SOL     OW15199   2.169   0.579   6.684  0.2475 -0.0686 -0.3216
 1246SOL    HW115200   2.180   0.530   6.766  3.1168 -1.4104 -1.4930
 1246SOL    HW215201   2.180   0.670   6.709 -0.6077 -0.0291 -0.0860
 1247SOL     OW15202   3.719   2.514   6.028  0.3166 -0.1770  0.1712
 1247SOL    HW115203   3.811   2.489   6.034  0.9607  1.8801 -1.4076
 1247SOL    HW215204   3.714   2.583   6.094  1.9758 -0.3006  0.4114
 1248SOL     OW15205   0.816   3.578   2.755 -0.1941 -0.1987 -0.5105
 1248SOL    HW115206   0.732   3.546   2.722  0.3045 -0.4243 -1.5618
 1248SOL    HW215207   0.862   3.499   2.786 -1.2279  0.3022  2.3274
 1249SOL     OW15208   0.134   0.055   8.805 -0.5249  0.3242 -0.3666
 1249SOL    HW115209   0.102   4.714   8.868 -0.7559  0.8976  0.1084
 1249SOL    HW215210   0.056   0.112   8.804 -1.1627 -0.6102 -2.7235
 1250SOL     OW15211   3.181   1.897   6.956 -0.0842  0.1647 -0.4656
 1250SOL    HW115212   3.220   1.948   6.885  1.3078  0.6914  0.6813
 1250SOL    HW215213   3.200   1.957   7.028  1.1305  0.8441 -1.3431
 1251SOL     OW15214   0.082   0.976   5.987  0.2412 -0.5680 -0.1572
 1251SOL    HW115215   0.156   0.987   6.047 -0.8558  0.4849  1.0124
 1251SOL    HW215216   0.134   0.957   5.910 -2.8049 -1.3179 -2.0091
 1252SOL     OW15217   1.443   0.613   8.619 -0.7859 -0.4337  0.1823
 1252SOL    HW115218   1.390   0.635   8.695  1.0507 -0.3493  1.4399
 1252SOL    HW215219   1.445   0.518   8.630  0.6080 -0.4823 -0.4718
 1253SOL     OW15220   2.870   3.785   2.156 -0.9774  0.1116 -0.4466
 1253SOL    HW115221   2.783   3.747   2.160 -1.8211  2.1407  0.5831
 1253SOL    HW215222   2.899   3.758   2.069 -0.4798 -1.8831  0.3449
 1254SOL     OW15223   1.910   1.090   7.979  0.3897  0.1289  0.0989
 1254SOL    HW115224   1.880   1.167   8.028  0.2902 -0.2599  0.6495
 1254SOL    HW215225   1.965   1.130   7.912  1.1581 -2.5955 -0.8869
 1255SOL     OW15226   0.784   4.561   6.214 -0.0460 -0.3249 -0.8041
 1255SOL    HW115227   0.837   4.501   6.162  0.6170  1.3297 -2.0785
 1255SOL    HW215228   0.700   4.556   6.168  0.5489  0.4154 -1.9775
 1256SOL     OW15229   2.695   1.609  15.873  0.6541 -0.5437  0.3667
 1256SOL    HW115230   2.727   1.694  15.901 -0.3778 -0.2422  0.6514
 1256SOL    HW215231   2.731   1.546  15.936  3.8860 -0.7221 -1.6825
 1257SOL     OW15232   3.697   2.066   9.393 -0.5860  0.8016 -0.6905
 1257SOL    HW115233   3.690   2.098   9.303  3.2277  2.0290 -0.5391
 1257SOL    HW215234   3.726   2.147   9.435  2.1369  0.1427 -1.3544
 1258SOL     OW15235   2.162   1.411  13.911 -0.5672 -0.7226  0.0285
 1258SOL    HW115236   2.161   1.321  13.943  0.5180 -0.8284 -0.2346
 1258SOL    HW215237   2.149   1.385  13.819 -2.1512 -2.0463  0.6370
 1259SOL     OW15238   2.156   1.379   7.308 -0.3786 -0.5327  0.7003
 1259SOL    HW115239   2.169   1.457   7.255  2.4668 -1.0105  0.6948
 1259SOL    HW215240   2.245   1.344   7.313  0.3921  1.2344 -1.0139
 1260SOL     OW15241   0.753   4.266   3.979 -0.2058  0.0456 -0.2307
 1260SOL    HW115242   0.832   4.290   4.029 -0.5509  0.3266  0.1768
 1260SOL    HW215243   0.738   4.179   4.016 -0.0028 -0.2638 -0.8801
 1261SOL     OW15244   2.369   2.329  13.053 -0.9008  0.7604 -0.5563
 1261SOL    HW115245   2.447   2.274  13.059  0.3580  2.5462 -0.2751
 1261SOL    HW215246   2.290   2.277  13.070 -0.3466 -0.0754 -0.5462
 1262SOL     OW15247   0.515   1.047   9.943 -0.7357  0.2952 -0.4973
 1262SOL    HW115248   0.516   0.954   9.921  0.2371  0.2597 -0.2833
 1262SOL    HW215249   0.477   1.039  10.031  0.4926  2.1832  0.2001
 1263SOL     OW15250   4.227   3.409   4.669  0.0382 -0.2209  0.0027
 1263SOL    HW115251   4.171   3.454   4.606  1.1430  0.1546 -0.6954
 1263SOL    HW215252   4.190   3.321   4.677  0.5681 -0.4518 -0.1188
 1264SOL     OW15253   4.013   0.039   0.034 -0.3430  0.1057  0.0282
 1264SOL    HW115254   3.919   0.036   0.014  0.2238 -0.3004 -2.4759
 1264SOL    HW215255   4.020   4.712   0.115 -1.7493  0.7750  0.5784
 1265SOL     OW15256   1.726   3.362  16.473  0.9730 -0.3502 -1.1512
 1265SOL    HW115257   1.749   3.434  16.532 -1.3287 -2.3295  2.1919
 1265SOL    HW215258   1.768   3.284  16.509 -1.8861 -0.7267  1.3702
 1266SOL     OW15259   1.285   4.176   0.811 -0.4745  0.3493 -0.1291
 1266SOL    HW115260   1.251   4.265   0.811 -2.6593 -0.4790 -1.3111
 1266SOL    HW215261   1.311   4.169   0.719  3.8179  0.0612  1.0683
 1267SOL     OW15262   4.521   2.649   8.473 -0.2615 -0.0693  0.1253
 1267SOL    HW115263   4.549   2.728   8.428  0.0248  1.6216  3.3035
 1267SOL    HW215264   4.432   2.636   8.439 -0.0061 -1.1334 -0.1439
 1268SOL     OW15265   1.798   1.180   1.782 -0.2954  0.4083 -0.1259
 1268SOL    HW115266   1.731   1.200   1.847  2.8196  1.5327  2.7444
 1268SOL    HW215267   1.737   1.165   1.709  2.0969  0.3389 -2.1143
 1269SOL     OW15268   0.368   3.522   2.303  0.7742 -0.0829 -0.0286
 1269SOL    HW115269   0.371   3.492   2.213 -1.9287  0.1606 -0.2085
 1269SOL    HW215270   0.292   3.579   2.292 -1.4919 -3.6441 -2.5880
 1270SOL     OW15271   1.854   1.948   2.927 -0.0606  0.7206  0.2576
 1270SOL    HW115272   1.820   2.037   2.930  1.7079  1.3947  0.2658
 1270SOL    HW215273   1.932   1.955   2.982  1.3639  0.4370 -1.7327
 1271SOL     OW15274   2.940   1.310   8.102 -0.3490 -0.0816 -0.1829
 1271SOL    HW115275   2.874   1.355   8.049  0.1603  0.5732 -0.2593
 1271SOL    HW215276   2.913   1.219   8.088 -0.1484 -0.1504 -0.1224
 1272SOL     OW15277   1.180   3.385  17.438 -0.3854  0.1990 -0.2938
 1272SOL    HW115278   1.146   3.376  17.527 -1.4650  1.3604 -0.5959
 1272SOL    HW215279   1.221   3.472  17.439  0.8276 -0.3925  1.2313
 1273SOL     OW15280   3.517   1.025  10.712  0.1379  0.1189  0.3529
 1273SOL    HW115281   3.531   0.946  10.659 -0.4633 -0.8203  1.5633
 1273SOL    HW215282   3.423   1.044  10.717  0.1856  0.6432 -0.8824
 1274SOL     OW15283   0.775   2.833   9.005  0.5899  0.1350  0.1284
 1274SOL    HW115284   0.730   2.918   8.997 -0.4497 -0.2662  1.5807
 1274SOL    HW215285   0.777   2.827   9.101  2.7360  1.5947  0.1581
 1275SOL     OW15286   4.026   1.169   8.101  0.1395 -0.1436  0.4233
 1275SOL    HW115287   3.959   1.103   8.115 -2.8488  2.7553  0.0227
 1275SOL    HW215288   4.090   1.157   8.171  1.0640  2.6231  0.0805
 1276SOL     OW15289   0.609   1.189   5.337  0.0109 -0.0615 -0.2110
 1276SOL    HW115290   0.614   1.186   5.241  3.4826 -0.9314 -0.0146
 1276SOL    HW215291   0.683   1.138   5.369  0.2209 -0.1765 -0.8690
 1277SOL     OW15292   3.545   1.100   2.444  0.5023 -0.2806  0.1132
 1277SOL    HW115293   3.628   1.108   2.397  1.0365 -0.5212  1.0098
 1277SOL    HW215294   3.560   1.015   2.487  0.2427 -0.9343 -1.0979
 1278SOL     OW15295   3.041   2.863   3.244  0.0465 -0.8046  0.0178
 1278SOL    HW115296   3.009   2.907   3.322  2.4461 -1.1128  1.1714
 1278SOL    HW215297   3.035   2.771   3.268  2.1877 -0.2291  2.7165
 1279SOL     OW15298   2.346   0.819   4.272  0.3450  0.0817 -0.5028
 1279SOL    HW115299   2.406   0.894   4.278  1.2072 -0.5858 -0.7613
 1279SOL    HW215300   2.343   0.789   4.362  3.4201  0.8603 -0.1197
 1280SOL     OW15301   2.326   2.724   1.619  0.2811 -0.2108  0.2330
 1280SOL    HW115302   2.337   2.649   1.677 -0.2914 -0.7439 -0.3594
 1280SOL    HW215303   2.232   2.740   1.618  0.4089  0.5106 -0.3632
 1281SOL     OW15304   2.057   3.835   8.802 -0.0957 -0.4545  0.8631
 1281SOL    HW115305   2.145   3.864   8.823  0.2966 -1.2825  0.3542
 1281SOL    HW215306   2.007   3.916   8.791  0.1665 -0.3944  0.1203
 1282SOL     OW15307   2.682   4.593   3.624  0.0884  0.2291  0.4604
 1282SOL    HW115308   2.643   4.515   3.585 -0.2751 -0.2159  1.7215
 1282SOL    HW215309   2.675   4.651   3.547 -2.2899 -1.8328 -0.8493
 1283SOL     OW15310   1.073   4.199   7.480 -0.2523  0.1105 -1.0904
 1283SOL    HW115311   1.124   4.173   7.403 -0.3684 -0.9758 -0.7974
 1283SOL    HW215312   1.135   4.254   7.528 -1.9016  1.2286 -0.2473
 1284SOL     OW15313   0.911   4.367   2.648 -0.8042 -0.7244  0.0618
 1284SOL    HW115314   1.001   4.342   2.669 -1.3638 -1.9760  0.9771
 1284SOL    HW215315   0.922   4.423   2.571 -0.7297  1.0898  1.3877
 1285SOL     OW15316   2.170   0.989  11.186  0.0127  0.5577 -0.8103
 1285SOL    HW115317   2.190   1.031  11.269  1.3861 -3.4048  0.8655
 1285SOL    HW215318   2.251   1.002  11.137  0.5646  3.6006  0.8901
 1286SOL     OW15319   4.525   3.279  15.379  0.2499 -0.4420  0.2146
 1286SOL    HW115320   4.596   3.342  15.365 -1.4412  1.2294 -0.8562
 1286SOL    HW215321   4.449   3.325  15.346  0.7940  1.8444  2.1302
 1287SOL     OW15322   1.055   2.893   4.573  0.1815  1.0042 -0.3926
 1287SOL    HW115323   1.097   2.979   4.573 -0.1336  1.1599  0.0056
 1287SOL    HW215324   0.988   2.882   4.505  2.8269  1.8679 -3.1085
 1288SOL     OW15325   0.838   1.274   8.834 -0.1877  0.1963 -0.4634
 1288SOL    HW115326   0.810   1.231   8.753  0.9872 -1.7763  0.1670
 1288SOL    HW215327   0.880   1.343   8.784  0.1978  1.1163  1.1326
 1289SOL     OW15328   3.351   3.915   2.625 -0.1784  0.1066 -0.0869
 1289SOL    HW115329   3.391   3.835   2.591  1.3202  0.9334 -0.3157
 1289SOL    HW215330   3.409   3.978   2.583 -0.8012  0.1215 -0.9198
 1290SOL     OW15331   1.034   4.096   3.905  0.0446 -0.2496  0.4378
 1290SOL    HW115332   1.090   4.067   3.833 -0.6893 -0.4604 -0.0603
 1290SOL    HW215333   0.949   4.060   3.880 -0.1791  1.4561 -1.2761
 1291SOL     OW15334   2.332   3.456   8.821 -0.3893 -0.4590  0.6568
 1291SOL    HW115335   2.326   3.536   8.872 -3.4360  0.6147 -1.4490
 1291SOL    HW215336   2.405   3.404   8.858  1.4066 -1.5919 -4.4717
 1292SOL     OW15337   3.786   4.699   2.757 -0.1610 -0.1436  0.3753
 1292SOL    HW115338   3.857   4.709   2.820  1.0494 -1.7644 -0.7291
 1292SOL    HW215339   3.827   4.714   2.673  1.2875  0.4627  1.2007
 1293SOL     OW15340   2.229   3.227   6.221 -0.0896  0.3470  0.3599
 1293SOL    HW115341   2.179   3.181   6.154 -0.0514 -1.0201  1.2553
 1293SOL    HW215342   2.310   3.187   6.189 -1.7578 -3.6548  1.0733
 1294SOL     OW15343   1.724   1.455   7.797 -0.4701  0.0678 -0.0885
 1294SOL    HW115344   1.665   1.470   7.871  2.6616  1.5508  2.1511
 1294SOL    HW215345   1.658   1.444   7.729  1.2959 -0.7211 -1.6730
 1295SOL     OW15346   2.786   3.556   5.456 -0.2835 -0.6909  0.3872
 1295SOL    HW115347   2.705   3.592   5.421  0.9020  2.6972  1.1547
 1295SOL    HW215348   2.768   3.552   5.550  2.1292  0.0869  0.8805
 1296SOL     OW15349   1.050   0.469  11.256  0.3943 -0.0991  0.0286
 1296SOL    HW115350   1.050   0.407  11.184  0.2133  0.2300 -0.2577
 1296SOL    HW215351   1.103   0.545  11.230 -0.2958 -0.5734 -2.7596
 1297SOL     OW15352   3.115   0.206  17.530 -0.0590  0.1910  0.3182
 1297SOL    HW115353   3.041   0.261  17.555 -0.5320 -0.4449  0.3505
 1297SOL    HW215354   3.071   0.163  17.456 -1.0416  0.3293  0.8272
 1298SOL     OW15355   3.710   4.338   2.578  0.0562  0.2021 -0.3588
 1298SOL    HW115356   3.791   4.332   2.628 -0.1162  1.0093  0.0096
 1298SOL    HW215357   3.720   4.426   2.542  0.8912 -0.3047 -1.3877
 1299SOL     OW15358   1.190   1.169  10.721  0.1038  0.0884 -0.3738
 1299SOL    HW115359   1.260   1.104  10.717 -0.6920 -0.6069 -3.1367
 1299SOL    HW215360   1.135   1.132  10.652 -1.0368 -0.4393  0.8317
 1300SOL     OW15361   0.176   3.588   0.322 -0.3550  0.4141  0.1014
 1300SOL    HW115362   0.169   3.662   0.383 -0.8147 -0.4582  1.1101
 1300SOL    HW215363   0.084   3.563   0.311 -0.3350  0.7990 -0.9535
 1301SOL     OW15364   4.593   4.109   3.556  0.2863 -0.2682 -0.0039
 1301SOL    HW115365   4.603   4.166   3.633 -1.9994  0.4243 -0.2343
 1301SOL    HW215366   4.680   4.072   3.543 -0.2792 -1.3194 -0.7210
 1302SOL     OW15367   4.068   3.183   9.045 -0.9529  0.2785  0.9847
 1302SOL    HW115368   4.068   3.136   9.128  0.1164 -0.2221  0.7066
 1302SOL    HW215369   4.159   3.214   9.051 -1.1640  1.0072  0.4251
 1303SOL     OW15370   3.858   4.210  11.532 -0.0235  0.0776  0.5931
 1303SOL    HW115371   3.931   4.160  11.496 -0.6089 -1.0907  1.0066
 1303SOL    HW215372   3.867   4.176  11.621  1.0435  0.4294  0.6115
 1304SOL     OW15373   0.761   0.969  11.318  0.1917  0.2005  0.4885
 1304SOL    HW115374   0.729   0.881  11.340  1.7235 -0.3039  0.7189
 1304SOL    HW215375   0.788   0.958  11.227 -0.0726 -0.3692  0.4754
 1305SOL     OW15376   3.202   0.763  13.460  0.3644 -0.6107 -0.1361
 1305SOL    HW115377   3.224   0.840  13.512  2.2668  0.4383 -2.4889
 1305SOL    HW215378   3.227   0.793  13.372 -0.4773  0.8277  0.1173
 1306SOL     OW15379   0.537   2.426   5.021 -0.0652 -0.3432 -1.0027
 1306SOL    HW115380   0.540   2.434   4.926  0.1334 -1.7463 -1.1162
 1306SOL    HW215381   0.443   2.434   5.037 -0.2487 -1.2055 -1.6337
 1307SOL     OW15382   3.939   2.517   0.521 -0.4283 -0.6965  0.1190
 1307SOL    HW115383   3.976   2.477   0.442 -0.1789  1.4327 -0.8630
 1307SOL    HW215384   3.856   2.471   0.530  0.2829 -1.9203  0.3332
 1308SOL     OW15385   3.039   2.443   8.858  0.3554 -0.6652 -0.1309
 1308SOL    HW115386   3.053   2.465   8.950  1.3109  2.5532 -1.0549
 1308SOL    HW215387   2.944   2.433   8.853  0.4998 -0.7485 -2.5304
 1309SOL     OW15388   3.059   0.903   7.891  0.5566  0.0392 -0.0067
 1309SOL    HW115389   3.079   0.930   7.981  0.5446 -1.3415  0.4241
 1309SOL    HW215390   2.995   0.832   7.897 -0.3869  0.9445  0.4689
 1310SOL     OW15391   3.011   1.908   4.944 -0.2132  0.2981 -0.8676
 1310SOL    HW115392   3.055   1.983   4.904  0.4161 -0.5269 -1.7038
 1310SOL    HW215393   2.940   1.893   4.881 -0.4275 -2.0003 -0.0862
 1311SOL     OW15394   0.839   3.135  11.334 -0.0044  0.4888  0.2343
 1311SOL    HW115395   0.908   3.070  11.318  0.3784  0.7257  0.9410
 1311SOL    HW215396   0.845   3.128  11.429 -1.1751 -0.3204  0.2385
 1312SOL     OW15397   1.780   4.627   6.264 -0.1965  0.1258 -0.5396
 1312SOL    HW115398   1.730   4.561   6.311  1.6493  0.1576  1.4550
 1312SOL    HW215399   1.859   4.633   6.318 -2.1227 -0.1060  2.2909
 1313SOL     OW15400   2.740   4.229   6.375 -0.1248  0.2401 -0.1926
 1313SOL    HW115401   2.649   4.236   6.347 -0.4250 -0.6651  0.6086
 1313SOL    HW215402   2.723   4.199   6.464 -0.8354 -0.7354 -0.6624
 1314SOL     OW15403   1.550   1.352   1.509  0.7788 -0.8760  0.6421
 1314SOL    HW115404   1.549   1.261   1.538 -0.6686 -0.7444  0.9969
 1314SOL    HW215405   1.626   1.335   1.453  0.8977 -1.8239  1.0838
 1315SOL     OW15406   3.500   2.267   7.367  0.2227  0.0060 -0.2050
 1315SOL    HW115407   3.465   2.353   7.345  0.3491  1.0909  3.9290
 1315SOL    HW215408   3.489   2.258   7.462 -0.8316 -1.9085 -0.4916
 1316SOL     OW15409   0.683   3.306   9.968  0.3734 -0.1009 -0.4372
 1316SOL    HW115410   0.744   3.380   9.970 -0.3405  0.4956 -0.6794
 1316SOL    HW215411   0.747   3.236   9.983 -0.5264 -1.0023 -0.8138
 1317SOL     OW15412   2.107   2.675   7.656 -0.4227 -0.2753  0.4763
 1317SOL    HW115413   2.091   2.694   7.748 -1.7871 -3.4463  0.9171
 1317SOL    HW215414   2.179   2.612   7.663  1.3135  1.4476 -2.0736
 1318SOL     OW15415   2.084   4.357   2.668 -0.2263  0.4692 -0.2591
 1318SOL    HW115416   2.053   4.448   2.668  0.4033  0.6844 -2.4753
 1318SOL    HW215417   2.100   4.338   2.576  0.3861  1.2811 -0.3218
 1319SOL     OW15418   0.688   0.568   6.933  0.0928  0.0492  0.0196
 1319SOL    HW115419   0.638   0.512   6.993  0.1164 -0.4799 -0.4537
 1319SOL    HW215420   0.617   0.607   6.883 -1.8325 -0.9122  2.0092
 1320SOL     OW15421   1.174   4.247  17.017 -0.3621 -0.0982 -0.3204
 1320SOL    HW115422   1.256   4.296  17.020 -1.3011  1.4011  0.9864
 1320SOL    HW215423   1.198   4.188  16.946 -0.7978 -1.2581  0.4739
 1321SOL     OW15424   2.341   0.986   6.103  0.1794  0.3789  0.3997
 1321SOL    HW115425   2.337   0.891   6.100  0.4562  0.3167  2.1111
 1321SOL    HW215426   2.301   1.000   6.188 -0.4428  2.3347 -0.2210
 1322SOL     OW15427   3.396   3.852   5.148  0.3411  0.8266 -0.0802
 1322SOL    HW115428   3.458   3.870   5.078 -0.5691  0.6989 -0.9270
 1322SOL    HW215429   3.449   3.785   5.191  0.9735 -0.0594 -2.2809
 1323SOL     OW15430   1.277   4.250   4.823 -0.1784  0.0243 -0.0966
 1323SOL    HW115431   1.348   4.314   4.810  1.0027 -1.2979 -0.1461
 1323SOL    HW215432   1.209   4.309   4.790 -0.2431  0.8178  1.4320
 1324SOL     OW15433   4.156   1.133   6.027 -0.3117 -0.0414  0.2402
 1324SOL    HW115434   4.144   1.064   5.961 -3.9002  1.5815 -0.7860
 1324SOL    HW215435   4.247   1.155   6.008  0.3807 -2.2837  0.8709
 1325SOL     OW15436   3.814   3.185   6.566 -0.0252 -0.0873  0.0338
 1325SOL    HW115437   3.819   3.249   6.495 -1.5733  0.7592  0.6735
 1325SOL    HW215438   3.843   3.239   6.639  0.0708  1.5946 -1.2616
 1326SOL     OW15439   2.764   3.540   8.264  0.5685 -0.3747 -0.3887
 1326SOL    HW115440   2.732   3.482   8.332 -0.4245  0.2089 -0.3500
 1326SOL    HW215441   2.687   3.583   8.226  0.2230 -0.8231 -0.1959
 1327SOL     OW15442   1.486   3.836  12.604 -0.2755 -0.0330 -0.2644
 1327SOL    HW115443   1.459   3.761  12.550 -1.3061  0.0546  0.1193
 1327SOL    HW215444   1.536   3.791  12.672 -0.0050  0.4086 -0.1759
 1328SOL     OW15445   1.017   2.260   2.703 -0.5977 -0.3135 -0.2934
 1328SOL    HW115446   1.006   2.165   2.702  0.9053 -0.4843  0.5470
 1328SOL    HW215447   1.093   2.258   2.646  0.1407 -1.0377  0.7092
 1329SOL     OW15448   2.442   3.877   2.013 -0.1794 -0.0095  0.2076
 1329SOL    HW115449   2.450   3.811   1.944  0.8468  0.0091  0.3131
 1329SOL    HW215450   2.430   3.829   2.095 -0.0482  0.4488  0.4914
 1330SOL     OW15451   2.047   3.906   0.780 -0.0528  0.1008 -0.0004
 1330SOL    HW115452   1.953   3.897   0.796 -0.3010 -0.6861 -1.8558
 1330SOL    HW215453   2.057   3.964   0.856  3.0472 -1.5352  0.8427
 1331SOL     OW15454   2.423   1.932   1.526 -0.1050  0.1329  0.2608
 1331SOL    HW115455   2.421   2.012   1.579 -1.9292 -1.0993  2.0582
 1331SOL    HW215456   2.514   1.903   1.529 -0.3003 -0.3231  2.0446
 1332SOL     OW15457   1.479   3.197   0.925 -0.1443 -0.0659 -0.0327
 1332SOL    HW115458   1.549   3.263   0.933  1.3649 -1.6482 -0.2183
 1332SOL    HW215459   1.421   3.233   0.991 -1.5715 -2.3498 -0.0539
 1333SOL     OW15460   0.082   2.198   6.301 -0.0876  0.2164  0.3348
 1333SOL    HW115461   0.143   2.270   6.285 -0.3769  0.3546 -0.1752
 1333SOL    HW215462   0.031   2.242   6.369 -0.9612  0.7371 -0.6560
 1334SOL     OW15463   0.501   0.511  17.513  0.4381  0.0434  0.2634
 1334SOL    HW115464   0.436   0.472  17.571 -0.0148 -1.0371 -0.9519
 1334SOL    HW215465   0.575   0.452  17.529  2.8856  2.8604 -0.7182
 1335SOL     OW15466   2.332   2.012   8.438  0.7546  0.1895 -0.1638
 1335SOL    HW115467   2.328   2.105   8.460 -1.1567  0.3035 -1.0445
 1335SOL    HW215468   2.240   1.992   8.455  0.9481 -2.0465 -1.6823
 1336SOL     OW15469   4.202   0.974   8.971  0.1837  0.3251 -0.2168
 1336SOL    HW115470   4.276   0.915   8.973 -0.5708 -0.5454  1.4736
 1336SOL    HW215471   4.229   1.029   9.044 -0.9788  0.6823 -0.0488
 1337SOL     OW15472   1.200   0.941   7.043  0.0902  0.0082  0.2075
 1337SOL    HW115473   1.168   0.920   7.131 -0.5222 -0.7111 -0.1818
 1337SOL    HW215474   1.117   0.947   6.996 -0.0222 -2.4201  0.0861
 1338SOL     OW15475   1.075   2.012   3.361  0.0612  0.8918  0.5394
 1338SOL    HW115476   1.107   1.957   3.432  0.7776  1.6809  0.8255
 1338SOL    HW215477   1.015   2.069   3.408 -1.3915  0.6729 -1.0292
 1339SOL     OW15478   4.611   2.603  10.233 -0.1257  0.4885  0.0612
 1339SOL    HW115479   4.636   2.573  10.320  1.2092 -2.4849 -1.3591
 1339SOL    HW215480   4.589   2.529  10.177  3.4482 -1.2118  0.9158
 1340SOL     OW15481   3.640   0.018  12.678 -0.0710 -0.1560  0.8859
 1340SOL    HW115482   3.553   4.711  12.653  0.0069  0.5253 -0.2065
 1340SOL    HW215483   3.626   0.052  12.767 -1.1681 -0.4488  0.8288
 1341SOL     OW15484   4.565   3.625  14.472 -0.4261 -0.1315  0.3598
 1341SOL    HW115485   4.539   3.622  14.564 -0.6442 -2.0956  0.2464
 1341SOL    HW215486   4.656   3.654  14.475 -0.1071 -1.1366  0.5754
 1342SOL     OW15487   2.189   0.579  10.868  0.5647  0.4912 -0.0653
 1342SOL    HW115488   2.166   0.622  10.950  2.1990 -1.3926  1.3930
 1342SOL    HW215489   2.234   0.506  10.910  0.8026  2.9146  3.8793
 1343SOL     OW15490   1.087   2.115   6.029 -0.2876  0.0372 -0.4942
 1343SOL    HW115491   1.154   2.148   6.089  0.3403  1.1558 -1.8032
 1343SOL    HW215492   1.076   2.184   5.964  0.9404  0.1329 -0.5959
 1344SOL     OW15493   3.146   3.234  10.749  1.0074  0.2994 -0.1005
 1344SOL    HW115494   3.171   3.247  10.840  1.6110  0.4995 -0.2944
 1344SOL    HW215495   3.068   3.180  10.763  0.9668  0.8741  1.7931
 1345SOL     OW15496   2.251   4.104   5.913 -0.0938  0.4262 -0.1020
 1345SOL    HW115497   2.279   4.041   5.846  1.6575 -0.1448  1.1507
 1345SOL    HW215498   2.315   4.175   5.911 -0.0863  0.4324  0.2562
 1346SOL     OW15499   3.719   1.120   0.079  0.2556 -0.1536 -0.5953
 1346SOL    HW115500   3.754   1.069   0.152 -1.0338 -1.1821 -0.6757
 1346SOL    HW215501   3.635   1.076   0.068  0.4100 -1.0021  1.6174
 1347SOL     OW15502   2.775   0.328   3.494  0.5516  0.1583  0.1863
 1347SOL    HW115503   2.689   0.345   3.456  0.6010 -1.1092 -0.4840
 1347SOL    HW215504   2.788   0.240   3.459 -2.4977 -0.5974  0.9438
 1348SOL     OW15505   3.363   3.355  15.111 -0.4586 -0.4871 -0.1862
 1348SOL    HW115506   3.388   3.441  15.145 -0.2059  0.0149 -1.6312
 1348SOL    HW215507   3.370   3.371  15.017  2.3269  1.1495  0.3028
 1349SOL     OW15508   3.852   2.985   4.779 -0.4156 -0.2853 -0.3845
 1349SOL    HW115509   3.918   2.916   4.786 -2.2161 -1.8656  0.6152
 1349SOL    HW215510   3.893   3.046   4.717  1.5391 -1.5394 -0.3462
 1350SOL     OW15511   1.138   0.828   5.095 -0.0185  0.1877 -0.4155
 1350SOL    HW115512   1.134   0.902   5.156  1.7623  0.7806 -1.0455
 1350SOL    HW215513   1.218   0.845   5.046  1.0560  0.6266  1.4887
 1351SOL     OW15514   0.970   0.716  16.120 -0.4153  0.4778  0.7699
 1351SOL    HW115515   0.998   0.645  16.061  1.5788  1.0330  1.0271
 1351SOL    HW215516   1.016   0.695  16.201  2.9940  2.1348 -0.6935
 1352SOL     OW15517   3.110   2.887   4.848  0.2235  0.2917 -0.1649
 1352SOL    HW115518   3.147   2.975   4.852  1.3055 -0.1952  0.5141
 1352SOL    HW215519   3.179   2.830   4.811 -0.6592 -0.3721 -0.7936
 1353SOL     OW15520   4.113   4.114  15.400 -0.0484 -0.5082 -0.7620
 1353SOL    HW115521   4.077   4.111  15.489  0.3381 -0.5148 -0.6035
 1353SOL    HW215522   4.046   4.160  15.350 -1.1560 -0.8786  0.3953
 1354SOL     OW15523   3.730   4.337  15.583 -0.0815  0.6817 -0.4636
 1354SOL    HW115524   3.815   4.308  15.616 -0.2366 -0.4704 -1.1001
 1354SOL    HW215525   3.678   4.260  15.565 -2.3498  1.7745  1.4060
 1355SOL     OW15526   4.150   3.845   3.690 -0.1063 -0.2000 -0.6465
 1355SOL    HW115527   4.216   3.818   3.754 -1.6708  0.8427  1.4183
 1355SOL    HW215528   4.204   3.907   3.641 -1.6079  0.0678 -1.9614
 1356SOL     OW15529   2.327   4.672   7.637 -0.3651  0.9894 -0.0684
 1356SOL    HW115530   2.366   4.593   7.599  0.5942  1.5128 -0.1782
 1356SOL    HW215531   2.365   4.672   7.725  1.6032 -0.9241 -0.9086
 1357SOL     OW15532   1.500   0.518  12.011 -0.0697 -0.1416 -0.1498
 1357SOL    HW115533   1.413   0.524  11.973 -0.5365 -0.4111  0.8786
 1357SOL    HW215534   1.477   0.537  12.102 -2.1909  0.2387 -0.7691
 1358SOL     OW15535   2.509   2.868   5.919 -0.2416 -0.3486  0.1798
 1358SOL    HW115536   2.569   2.794   5.903 -0.4931 -0.6818  0.7680
 1358SOL    HW215537   2.456   2.878   5.840  0.7622 -1.3588 -0.6224
 1359SOL     OW15538   1.557   2.892   8.402 -0.3382  0.3149 -0.4523
 1359SOL    HW115539   1.618   2.932   8.341  1.2203 -1.0880  0.1753
 1359SOL    HW215540   1.600   2.845   8.474  0.7498 -0.1766 -1.4420
 1360SOL     OW15541   0.261   2.691  16.794 -0.6368 -0.2097  0.4613
 1360SOL    HW115542   0.225   2.614  16.752 -0.7692  1.2378 -2.0608
 1360SOL    HW215543   0.211   2.757  16.746 -1.4857  0.1321  1.8111
 1361SOL     OW15544   1.080   2.570   7.494  0.4094 -0.0721  0.7642
 1361SOL    HW115545   1.133   2.601   7.568  0.5396 -0.4993  0.8495
 1361SOL    HW215546   1.101   2.479   7.472  0.8514  0.4295 -0.8759
 1362SOL     OW15547   0.230   4.131   7.070 -0.3746 -0.3639 -0.2148
 1362SOL    HW115548   0.150   4.096   7.110  1.0040 -0.0970  2.7433
 1362SOL    HW215549   0.217   4.103   6.979  1.2200 -2.1381  0.1007
 1363SOL     OW15550   2.088   3.832   0.529 -0.5932 -0.5473 -0.8981
 1363SOL    HW115551   2.040   3.750   0.539 -0.0485 -0.7620 -0.0652
 1363SOL    HW215552   2.068   3.863   0.617 -0.5953  0.3259 -1.2075
 1364SOL     OW15553   1.180   0.638   9.349 -0.0386  0.7310  0.4514
 1364SOL    HW115554   1.223   0.554   9.362 -0.9582 -0.1032 -1.8963
 1364SOL    HW215555   1.197   0.681   9.433  0.3168 -1.2066  1.3807
 1365SOL     OW15556   1.782   2.981  10.383 -0.2136 -0.5166 -0.6272
 1365SOL    HW115557   1.822   3.027  10.457 -0.3021  0.9590 -1.4948
 1365SOL    HW215558   1.817   2.893  10.385  1.8072  0.3402  1.9756
 1366SOL     OW15559   2.296   0.185   1.528 -0.2500  0.3700  0.1545
 1366SOL    HW115560   2.217   0.238   1.527 -0.1053  0.6160  1.3377
 1366SOL    HW215561   2.258   0.114   1.580 -0.4346 -0.9064 -1.7365
 1367SOL     OW15562   2.645   0.662   5.448 -0.4388  0.5037  0.0860
 1367SOL    HW115563   2.626   0.588   5.506 -3.6693  1.3700  0.1084
 1367SOL    HW215564   2.561   0.694   5.414  0.4511  0.4119 -2.2181
 1368SOL     OW15565   4.700   0.718   4.233 -0.4162  0.4347  0.4781
 1368SOL    HW115566   4.636   0.663   4.189  0.7039 -0.7305  0.3014
 1368SOL    HW215567   4.713   0.789   4.170 -1.9413  0.1507 -0.1396
 1369SOL     OW15568   4.021   3.402  17.481  0.0179 -0.2763 -0.4376
 1369SOL    HW115569   3.956   3.338  17.510 -1.0141  0.9459 -0.0991
 1369SOL    HW215570   3.972   3.483  17.474  2.9791  1.4312 -1.4455
 1370SOL     OW15571   0.328   4.402   7.074  0.1214 -0.3315  0.0496
 1370SOL    HW115572   0.248   4.448   7.047 -0.9650 -0.3423  3.3146
 1370SOL    HW215573   0.307   4.311   7.056  0.4050 -0.3033 -0.4271
 1371SOL     OW15574   3.332   0.245   5.728 -0.3175 -0.3168  0.0405
 1371SOL    HW115575   3.296   0.163   5.694 -1.3039  0.2393 -0.2625
 1371SOL    HW215576   3.339   0.225   5.821 -3.2527 -0.9160  0.1259
 1372SOL     OW15577   2.427   1.266   7.288  0.2887  0.3422 -0.2192
 1372SOL    HW115578   2.482   1.211   7.233 -0.2358 -0.5063  0.1196
 1372SOL    HW215579   2.470   1.352   7.288  1.0695 -0.0578  3.5497
 1373SOL     OW15580   1.621   3.048  14.989  0.5883 -0.5848 -0.6898
 1373SOL    HW115581   1.711   3.031  14.961  0.2334 -2.0284 -0.9754
 1373SOL    HW215582   1.636   3.112  15.058 -1.6839  1.0845 -1.7801
 1374SOL     OW15583   3.963   1.140   2.582 -0.4596  0.0618 -0.2238
 1374SOL    HW115584   4.051   1.159   2.550 -0.0157 -1.4950  0.0669
 1374SOL    HW215585   3.900   1.156   2.512 -1.6884 -0.6801  0.7028
 1375SOL     OW15586   0.326   3.299   5.046  0.2694  0.0412 -0.3752
 1375SOL    HW115587   0.235   3.328   5.051 -0.4863 -2.9471  3.5382
 1375SOL    HW215588   0.324   3.207   5.075  2.2994 -0.5346 -2.0681
 1376SOL     OW15589   3.845   3.281   5.687 -0.0351  0.4693  0.0828
 1376SOL    HW115590   3.778   3.315   5.747 -1.1744  1.1838 -1.5758
 1376SOL    HW215591   3.914   3.259   5.749 -0.9190 -2.1612  0.1030
 1377SOL     OW15592   0.452   3.043   7.782 -0.0880  0.4267  0.8812
 1377SOL    HW115593   0.541   3.012   7.767 -0.0162  0.5098  1.1372
 1377SOL    HW215594   0.470   3.135   7.802 -0.7665  0.0780  3.1003
 1378SOL     OW15595   1.376   3.084   3.496  0.4169 -0.5472  0.3724
 1378SOL    HW115596   1.347   3.040   3.576 -0.6157 -1.8862 -0.7464
 1378SOL    HW215597   1.431   3.155   3.530  0.0428 -0.4004  0.6710
 1379SOL     OW15598   2.712   3.642  11.990  0.4599 -0.1252 -0.2465
 1379SOL    HW115599   2.730   3.667  11.899 -0.8362  3.5700  0.5329
 1379SOL    HW215600   2.638   3.582  11.977  0.1914  0.0966  0.2475
 1380SOL     OW15601   2.685   3.773   7.238 -0.1555 -0.1560  0.5526
 1380SOL    HW115602   2.657   3.761   7.148  2.4869 -0.3214 -0.2592
 1380SOL    HW215603   2.630   3.711   7.285 -1.1047  0.3596  0.1119
 1381SOL     OW15604   1.073   1.600   7.053 -0.5935 -0.0537 -0.0930
 1381SOL    HW115605   1.096   1.673   6.996 -0.9325  1.4034  1.6137
 1381SOL    HW215606   0.997   1.558   7.013 -1.8167  0.0520  2.0975
 1382SOL     OW15607   0.145   0.285   6.593  0.4169 -0.0104  0.5237
 1382SOL    HW115608   0.137   0.197   6.557  1.4835  1.0327 -2.2836
 1382SOL    HW215609   0.107   0.340   6.524 -1.1673 -2.3981 -0.5036
 1383SOL     OW15610   2.767   0.412  13.150  0.5616  0.2469 -0.3794
 1383SOL    HW115611   2.775   0.385  13.242  0.0551 -3.8455 -1.5343
 1383SOL    HW215612   2.696   0.357  13.116 -0.0423  0.0616  1.1438
 1384SOL     OW15613   2.080   1.740   0.268  0.5721 -0.2160  0.1336
 1384SOL    HW115614   2.070   1.655   0.225  0.1402  0.5229 -1.2063
 1384SOL    HW215615   2.142   1.719   0.338  0.2395  0.1749  0.5475
 1385SOL     OW15616   4.401   3.844  17.431 -0.0956  0.7421  0.8107
 1385SOL    HW115617   4.470   3.856  17.365 -0.2323 -1.2320  0.2954
 1385SOL    HW215618   4.438   3.803  17.509  2.0410  2.2569  0.5930
 1386SOL     OW15619   0.689   4.664   3.918 -0.0828  0.4822  0.1769
 1386SOL    HW115620   0.718   0.028   3.893  1.0216 -0.0615 -0.4534
 1386SOL    HW215621   0.778   4.634   3.938 -0.1421  0.9289  1.0993
 1387SOL     OW15622   0.304   3.570   7.987 -0.8783 -0.0001  0.0919
 1387SOL    HW115623   0.346   3.498   8.033 -0.4551  0.0466 -0.2199
 1387SOL    HW215624   0.290   3.627   8.063  0.2220 -1.8672  1.6842
 1388SOL     OW15625   4.477   0.582   1.922  0.3926 -0.3232  0.2313
 1388SOL    HW115626   4.445   0.511   1.978  0.4058 -0.5904 -0.1013
 1388SOL    HW215627   4.400   0.633   1.898 -0.1358  0.0379  2.6694
 1389SOL     OW15628   1.917   4.416  15.503 -0.3159 -0.4470  0.3587
 1389SOL    HW115629   1.927   4.389  15.594  0.9822 -1.5494 -0.1000
 1389SOL    HW215630   1.981   4.364  15.454  1.0280  3.6045 -2.1524
 1390SOL     OW15631   0.608   4.668  16.298 -0.5297  0.1098 -0.3555
 1390SOL    HW115632   0.615   4.574  16.279 -1.2167  0.1417 -0.7676
 1390SOL    HW215633   0.694   4.696  16.266 -0.1142 -4.2553 -3.0646
 1391SOL     OW15634   4.294   4.066   7.935  0.0995 -0.2165  0.4591
 1391SOL    HW115635   4.375   4.014   7.942 -1.4003 -2.9908 -3.1222
 1391SOL    HW215636   4.329   4.155   7.930 -1.7338  0.4113 -1.0310
 1392SOL     OW15637   3.946   0.435  14.687 -0.5827  0.5303  0.1960
 1392SOL    HW115638   3.866   0.394  14.654 -2.8926  3.0733  2.7424
 1392SOL    HW215639   4.005   0.360  14.696  0.8333  1.5491 -0.4022
 1393SOL     OW15640   0.029   3.409  14.201  0.3899  0.4075  0.5788
 1393SOL    HW115641   0.090   3.394  14.129 -2.5967  1.6471 -2.1762
 1393SOL    HW215642   4.718   3.498  14.192  3.3342  1.4486 -0.7432
 1394SOL     OW15643   4.217   1.671   4.796  0.1803  0.0048  0.5519
 1394SOL    HW115644   4.184   1.750   4.753 -0.3860 -0.8154 -0.5099
 1394SOL    HW215645   4.309   1.673   4.768 -0.5082  0.0484 -1.7479
 1395SOL     OW15646   3.676   0.126   6.677  0.0537 -0.3031  0.0213
 1395SOL    HW115647   3.741   0.068   6.716  0.6156 -0.9037 -1.8384
 1395SOL    HW215648   3.731   0.179   6.620  1.4442 -1.1271  0.6080
 1396SOL     OW15649   2.134   3.881   3.296 -0.0278 -0.4084 -0.5117
 1396SOL    HW115650   2.197   3.951   3.278  1.4648 -1.6544 -0.1592
 1396SOL    HW215651   2.050   3.916   3.265 -1.0587 -1.3992  1.2099
 1397SOL     OW15652   1.282   4.017  12.646  0.2960 -0.5038  0.4920
 1397SOL    HW115653   1.353   3.960  12.618 -0.4837 -0.3811 -1.6727
 1397SOL    HW215654   1.262   3.969  12.727  1.8592 -0.0822  1.1293
 1398SOL     OW15655   4.185   2.877  15.496 -0.3927  0.0687  0.0337
 1398SOL    HW115656   4.119   2.923  15.445 -1.9129 -2.3626 -0.1406
 1398SOL    HW215657   4.252   2.933  15.455 -0.2125 -1.0632 -1.2018
 1399SOL     OW15658   1.002   1.039   8.885 -0.0783 -0.0195 -0.2742
 1399SOL    HW115659   1.021   1.017   8.976 -1.6120 -0.5618 -0.0865
 1399SOL    HW215660   0.960   1.125   8.883 -1.1000 -0.4193  2.8368
 1400SOL     OW15661   1.358   3.944   9.113 -0.0261  0.2769 -0.0312
 1400SOL    HW115662   1.305   3.864   9.107  1.9825 -0.9292 -1.6619
 1400SOL    HW215663   1.297   4.007   9.074 -0.0577 -0.2478 -0.8366
 1401SOL     OW15664   4.202   0.515   6.599 -0.0957  0.0269  0.4259
 1401SOL    HW115665   4.127   0.566   6.630 -0.5539 -1.1136  1.1911
 1401SOL    HW215666   4.180   0.505   6.507  0.4749 -0.5691  0.3533
 1402SOL     OW15667   3.752   1.241  13.508 -0.1045 -0.1784 -0.5414
 1402SOL    HW115668   3.832   1.272  13.552 -1.1838  2.1828 -0.2438
 1402SOL    HW215669   3.777   1.156  13.472  0.8037 -0.2567  0.2760
 1403SOL     OW15670   2.511   2.080   6.822 -0.2926  0.0960  0.1242
 1403SOL    HW115671   2.562   2.021   6.878 -0.8832  0.6316  1.2277
 1403SOL    HW215672   2.564   2.157   6.843  0.7691 -1.3204  2.6448
 1404SOL     OW15673   3.196   1.337   4.562  0.4401 -0.4149  0.1079
 1404SOL    HW115674   3.155   1.404   4.507 -0.6913 -0.5612  0.7750
 1404SOL    HW215675   3.147   1.354   4.642 -0.0590  1.1790 -0.5374
 1405SOL     OW15676   2.088   0.271   4.158 -0.0905  0.3570  0.2156
 1405SOL    HW115677   2.153   0.341   4.152  0.5508 -0.3094 -0.5843
 1405SOL    HW215678   2.076   0.245   4.067 -0.5760  1.1513  0.0546
 1406SOL     OW15679   4.476   1.229   1.360 -0.1996 -0.9724  0.0353
 1406SOL    HW115680   4.433   1.144   1.358 -1.5845 -0.2442 -1.1290
 1406SOL    HW215681   4.548   1.220   1.297  0.5471  1.0050  0.6207
 1407SOL     OW15682   0.152   3.506   2.605 -0.3404  0.5406 -0.4547
 1407SOL    HW115683   0.102   3.569   2.553 -0.4907  0.8694  0.0863
 1407SOL    HW215684   0.087   3.436   2.604  0.6643 -0.3787 -1.2441
 1408SOL     OW15685   1.584   2.671  15.002 -0.3349  0.2021  0.1648
 1408SOL    HW115686   1.605   2.579  15.021  0.1065 -0.3612 -3.0864
 1408SOL    HW215687   1.547   2.687  15.089  1.6684 -0.6208  1.1779
 1409SOL     OW15688   2.451   3.987   3.777 -0.0048 -0.4402  0.1097
 1409SOL    HW115689   2.403   3.995   3.694 -1.0179  1.5912  0.8814
 1409SOL    HW215690   2.513   4.059   3.767 -0.5407  0.1280  0.8846
 1410SOL     OW15691   4.654   1.870  17.659 -0.0966  0.4840 -0.0662
 1410SOL    HW115692   4.690   1.893   0.048  2.5356 -0.6035 -0.8605
 1410SOL    HW215693   4.693   1.783  17.651  0.3548  0.7302 -0.5573
 1411SOL     OW15694   1.256   3.746   3.929 -0.0422 -0.0595 -0.2725
 1411SOL    HW115695   1.338   3.713   3.892  0.3883  0.0002  0.6009
 1411SOL    HW215696   1.218   3.669   3.971 -3.3405  2.6709  1.7724
 1412SOL     OW15697   0.768   4.526   7.287  0.2470 -0.0587  0.4893
 1412SOL    HW115698   0.695   4.489   7.238 -0.6547  1.4712  0.6886
 1412SOL    HW215699   0.735   4.596   7.343 -0.6111 -0.0979  0.0363
 1413SOL     OW15700   2.704   3.086   9.671  0.6982  0.3538 -0.1801
 1413SOL    HW115701   2.634   3.144   9.640 -0.3128  1.1656  3.5573
 1413SOL    HW215702   2.696   3.099   9.766  1.1202  1.2423 -0.2637
 1414SOL     OW15703   1.435   1.194  11.528  0.1394  0.0637 -0.6739
 1414SOL    HW115704   1.461   1.197  11.436  1.9789 -0.4589 -0.1640
 1414SOL    HW215705   1.356   1.246  11.537  0.4727  0.1348  1.7556
 1415SOL     OW15706   3.239   2.791  10.175 -0.5513  0.0070  0.5127
 1415SOL    HW115707   3.209   2.773  10.086  0.4830  0.8067  0.0194
 1415SOL    HW215708   3.322   2.745  10.186 -1.7013 -1.8754  1.3850
 1416SOL     OW15709   3.808   0.110   1.969 -0.4335 -0.2544 -0.0828
 1416SOL    HW115710   3.734   0.164   1.938 -0.1712 -0.2344 -0.6806
 1416SOL    HW215711   3.773   0.089   2.055 -2.3654  0.3186 -0.7210
 1417SOL     OW15712   3.274   4.436   6.374 -0.2260  0.4941  0.3931
 1417SOL    HW115713   3.249   4.436   6.466  1.3462  0.8661  0.8246
 1417SOL    HW215714   3.195   4.398   6.335  0.7272 -0.9022 -0.1718
 1418SOL     OW15715   0.278   0.653   3.068 -1.2391  0.4401  0.5354
 1418SOL    HW115716   0.221   0.710   3.119 -0.1407  1.8430  0.1968
 1418SOL    HW215717   0.213   0.611   3.011 -0.8908  2.0594 -1.0499
 1419SOL     OW15718   4.450   4.256   5.124 -0.5497  0.2208 -0.2541
 1419SOL    HW115719   4.416   4.342   5.098 -0.9551  0.1623  0.0761
 1419SOL    HW215720   4.390   4.206   5.068 -0.5720  2.1571 -1.9590
 1420SOL     OW15721   4.577   4.600   7.540 -0.4510  0.1781  0.0726
 1420SOL    HW115722   4.569   4.508   7.514 -1.9393  0.4137 -0.2761
 1420SOL    HW215723   4.564   4.634   7.451 -0.3153  1.3612  0.5196
 1421SOL     OW15724   3.271   0.407   3.601  0.0857 -1.3189 -0.2402
 1421SOL    HW115725   3.331   0.374   3.667  0.9525 -0.9949 -0.8615
 1421SOL    HW215726   3.329   0.463   3.550  2.9145 -1.9462  2.3325
 1422SOL     OW15727   0.555   2.494   4.751  0.8241  0.1271 -0.8353
 1422SOL    HW115728   0.559   2.588   4.733  1.3402  0.8109  2.8628
 1422SOL    HW215729   0.469   2.468   4.718  0.4646  1.3279 -0.8258
 1423SOL     OW15730   1.339   0.366   8.405  0.2099  0.0027 -0.0270
 1423SOL    HW115731   1.417   0.380   8.459 -0.2064 -0.0981  0.6065
 1423SOL    HW215732   1.315   0.279   8.436 -0.7241  0.0607 -0.5739
 1424SOL     OW15733   3.681   0.401  14.102  0.7058  0.2810  0.1264
 1424SOL    HW115734   3.742   0.404  14.028 -1.6570  0.6608 -1.7979
 1424SOL    HW215735   3.612   0.460  14.076 -0.0315 -0.6393 -0.0023
 1425SOL     OW15736   0.979   2.159   5.337  0.0856  0.0481  0.0042
 1425SOL    HW115737   0.956   2.207   5.257 -0.8950  3.4101  2.2857
 1425SOL    HW215738   1.029   2.224   5.388 -0.4745  0.2887  0.2536
 1426SOL     OW15739   3.902   4.489   1.804 -0.3250  0.1144  0.6448
 1426SOL    HW115740   3.932   4.412   1.757  1.4199  0.1674  1.6731
 1426SOL    HW215741   3.901   4.454   1.893  0.4832 -0.6353  0.3541
 1427SOL     OW15742   1.244   4.506   3.327 -0.3515 -0.2973 -0.8202
 1427SOL    HW115743   1.159   4.485   3.367 -0.1217 -2.9056 -1.7195
 1427SOL    HW215744   1.268   4.418   3.297 -0.3592 -0.2530 -0.9542
 1428SOL     OW15745   3.002   4.596   1.535  0.2275  0.8289  0.4113
 1428SOL    HW115746   3.029   4.609   1.444  2.3853 -2.6373  0.5325
 1428SOL    HW215747   2.933   4.661   1.547  0.6778  1.7373 -1.9293
 1429SOL     OW15748   4.169   3.021   2.418 -0.2072  0.1028 -0.1053
 1429SOL    HW115749   4.246   2.963   2.420  0.1010  0.5732  1.6953
 1429SOL    HW215750   4.103   2.956   2.444  0.0277 -0.6486 -1.4139
 1430SOL     OW15751   2.477   1.511   7.197  0.0703  0.3116  0.2810
 1430SOL    HW115752   2.537   1.527   7.124  1.4234 -0.1876  1.2811
 1430SOL    HW215753   2.391   1.508   7.156  0.3421  1.1332 -0.3440
 1431SOL     OW15754   4.084   0.562  13.866 -0.7106  0.4388 -0.4635
 1431SOL    HW115755   4.053   0.635  13.813 -3.3897 -0.1750  0.2810
 1431SOL    HW215756   4.163   0.595  13.910 -0.3511 -2.6047  1.1917
 1432SOL     OW15757   1.222   0.998   2.086  0.3450  0.8003 -0.3209
 1432SOL    HW115758   1.240   0.904   2.093 -5.5076 -0.4367 -1.5757
 1432SOL    HW215759   1.141   1.001   2.035  1.1831 -1.5519 -1.7616
 1433SOL     OW15760   0.737   2.942   1.905 -0.1554 -0.3935 -0.1570
 1433SOL    HW115761   0.699   3.018   1.860 -0.9850  0.3896  1.9062
 1433SOL    HW215762   0.661   2.886   1.920 -0.2960  0.2443  1.4275
 1434SOL     OW15763   3.375   3.203  15.335 -0.7046  0.3297  0.1456
 1434SOL    HW115764   3.355   3.260  15.261  0.8237  0.0514 -0.4865
 1434SOL    HW215765   3.295   3.150  15.335 -1.9098  2.1531  0.5347
 1435SOL     OW15766   4.490   1.001   6.513  0.0176  0.7531  0.8107
 1435SOL    HW115767   4.492   0.967   6.424 -2.7532  0.5804  0.8044
 1435SOL    HW215768   4.418   1.065   6.509  0.3072  1.0281  0.0113
 1436SOL     OW15769   2.481   4.719   1.385 -0.7044 -0.3932  0.3187
 1436SOL    HW115770   2.452   0.086   1.390 -2.3663 -1.0289  2.0534
 1436SOL    HW215771   2.476   4.709   1.480  2.3281 -0.0722  0.5253
 1437SOL     OW15772   0.076   2.776   4.981  0.6487  0.7204  0.2415
 1437SOL    HW115773   0.003   2.714   4.986  1.3987 -0.2641 -1.0262
 1437SOL    HW215774   0.087   2.767   4.886 -1.1948  0.1020  0.0849
 1438SOL     OW15775   0.513   1.657  10.845 -0.1623  0.3302 -0.0876
 1438SOL    HW115776   0.520   1.701  10.760  0.4605 -0.8783 -0.6586
 1438SOL    HW215777   0.443   1.710  10.883  0.6380  1.0221  0.4350
 1439SOL     OW15778   0.721   0.183   3.790  0.0169  0.1593 -0.3977
 1439SOL    HW115779   0.667   0.236   3.848 -0.3263 -0.9102  0.2669
 1439SOL    HW215780   0.781   0.234   3.735  0.6920 -0.0645  0.1279
 1440SOL     OW15781   2.823   1.532   1.480  0.5021 -0.1940  0.7847
 1440SOL    HW115782   2.877   1.546   1.403 -1.3699 -1.3336 -0.7286
 1440SOL    HW215783   2.746   1.486   1.445  0.3368  1.3115 -0.8215
 1441SOL     OW15784   3.559   4.100   7.898  0.0805  0.8263 -0.1700
 1441SOL    HW115785   3.485   4.039   7.896 -1.2126  2.3591  0.8493
 1441SOL    HW215786   3.620   4.051   7.953  0.9621  0.3495 -1.5981
 1442SOL     OW15787   1.585   2.486   8.696  0.5565  0.2811 -0.0475
 1442SOL    HW115788   1.653   2.425   8.666  2.1042  1.6957  0.6251
 1442SOL    HW215789   1.519   2.472   8.628 -0.1674 -0.0561  0.7231
 1443SOL     OW15790   4.216   2.401   3.886  0.0654 -0.2452  0.6730
 1443SOL    HW115791   4.155   2.357   3.945  0.2771 -1.8015 -0.2818
 1443SOL    HW215792   4.154   2.464   3.850  2.0687  1.5541  0.3922
 1444SOL     OW15793   1.159   0.557   7.439  0.0262 -0.1178 -0.7686
 1444SOL    HW115794   1.119   0.575   7.524 -0.0010 -0.8958 -0.6169
 1444SOL    HW215795   1.243   0.519   7.464  0.4738 -0.0049 -2.1116
 1445SOL     OW15796   4.260   2.613   2.951 -0.2847  0.0980 -0.6761
 1445SOL    HW115797   4.273   2.521   2.930  3.3387 -0.3689  3.6821
 1445SOL    HW215798   4.173   2.614   2.991  0.1900 -1.1587  0.3959
 1446SOL     OW15799   1.766   1.922  10.995  0.3076 -0.1990  0.0315
 1446SOL    HW115800   1.798   1.880  11.075 -1.0216 -0.0417  0.6522
 1446SOL    HW215801   1.731   2.003  11.031  2.7509  0.9099 -0.0589
 1447SOL     OW15802   1.282   1.835   7.028 -0.4609 -0.1354 -0.1522
 1447SOL    HW115803   1.250   1.782   6.954 -1.8340  0.2856  0.1467
 1447SOL    HW215804   1.216   1.903   7.018  0.5190  0.8204 -0.0739
 1448SOL     OW15805   4.703   2.327   1.812  0.9297  0.3536 -0.6083
 1448SOL    HW115806   4.613   2.332   1.842  0.7671 -0.4716 -0.9557
 1448SOL    HW215807   4.674   2.293   1.728  1.1258  0.4237 -0.7047
 1449SOL     OW15808   4.420   1.126   2.964 -0.7803  0.2069 -0.1495
 1449SOL    HW115809   4.331   1.111   2.933  0.5539 -1.8810 -2.8480
 1449SOL    HW215810   4.412   1.212   3.006 -1.6969  1.3715 -2.7583
 1450SOL     OW15811   1.564   1.795   6.089  0.1083 -0.5778 -0.2647
 1450SOL    HW115812   1.584   1.710   6.051  0.1618 -0.2406 -0.9976
 1450SOL    HW215813   1.479   1.784   6.131  0.8748 -1.2386  1.0973
 1451SOL     OW15814   4.684   4.376   1.700  0.3569 -0.7658 -0.4607
 1451SOL    HW115815   4.661   4.459   1.659  0.5120  0.3003  1.5679
 1451SOL    HW215816   0.022   4.340   1.637  2.4498 -0.4569  1.4196
 1452SOL     OW15817   1.972   3.863   6.538  0.2157  0.2898 -0.0314
 1452SOL    HW115818   1.922   3.934   6.497  1.2680  2.1429  1.8851
 1452SOL    HW215819   1.930   3.787   6.499  0.5120 -0.9381  2.0428
 1453SOL     OW15820   2.406   1.915   3.861  0.3341  0.0041 -0.2794
 1453SOL    HW115821   2.476   1.936   3.800  0.6289 -0.2010 -0.0130
 1453SOL    HW215822   2.334   1.930   3.800  1.7747  1.3353 -1.6631
 1454SOL     OW15823   4.556   3.761  11.323 -0.0748 -0.0841  0.0312
 1454SOL    HW115824   4.598   3.846  11.319  1.6605 -0.8552  1.6994
 1454SOL    HW215825   4.550   3.730  11.414 -0.8471 -0.9518 -0.3123
 1455SOL     OW15826   2.251   3.056  14.508  0.2951 -0.4581 -0.2505
 1455SOL    HW115827   2.325   3.088  14.456 -0.1404 -0.2202 -0.7240
 1455SOL    HW215828   2.281   2.969  14.535  0.8088 -0.2533 -0.1455
 1456SOL     OW15829   4.485   2.753  17.492  0.5638 -0.6492 -0.3250
 1456SOL    HW115830   4.424   2.710  17.552  0.6485  1.1810  1.0695
 1456SOL    HW215831   4.561   2.742  17.550  0.7955  0.6988 -0.3912
 1457SOL     OW15832   2.754   1.357   5.653  0.1326  0.9316 -0.1721
 1457SOL    HW115833   2.664   1.390   5.653  0.3766  1.6170 -1.1740
 1457SOL    HW215834   2.770   1.349   5.559  0.6574 -0.6374  0.0459
 1458SOL     OW15835   0.013   1.108   4.271 -0.5616 -0.2448 -0.1659
 1458SOL    HW115836   0.064   1.077   4.346  1.2857  1.5789 -0.6734
 1458SOL    HW215837   0.059   1.067   4.197  0.0209  2.0872 -1.1209
 1459SOL     OW15838   3.303   3.794  10.311  0.3453  0.1939 -0.3915
 1459SOL    HW115839   3.235   3.729  10.330  1.7013 -1.2227 -0.3965
 1459SOL    HW215840   3.256   3.877  10.321  0.0625  0.0623 -0.6247
 1460SOL     OW15841   0.423   3.808   7.826  0.0104  0.1880  0.2540
 1460SOL    HW115842   0.499   3.756   7.851  1.2574 -0.0812 -4.0871
 1460SOL    HW215843   0.355   3.748   7.858  0.6899 -1.3730 -1.2426
 1461SOL     OW15844   3.054   0.212  17.051  0.9177 -0.0600  0.2760
 1461SOL    HW115845   3.113   0.278  17.013  0.1261  0.6148  0.2430
 1461SOL    HW215846   3.121   0.144  17.062  0.6567 -0.5565 -1.1653
 1462SOL     OW15847   2.306   1.583   3.008  0.2679 -0.2092 -0.7799
 1462SOL    HW115848   2.373   1.606   3.072  0.3955 -0.0803 -0.9596
 1462SOL    HW215849   2.330   1.491   3.008  0.1635 -0.2287  0.0230
 1463SOL     OW15850   3.096   1.352   3.367 -0.4297 -0.3370  0.1419
 1463SOL    HW115851   3.074   1.401   3.446 -3.6506 -1.3299 -0.1002
 1463SOL    HW215852   3.036   1.277   3.367 -0.8005 -0.0396  0.2479
 1464SOL     OW15853   2.055   2.186   7.854  0.1563 -0.1288  0.2304
 1464SOL    HW115854   2.064   2.093   7.833 -1.8269 -0.0997 -0.7750
 1464SOL    HW215855   2.143   2.198   7.890 -1.1176 -0.2301  3.3851
 1465SOL     OW15856   4.609   2.036   5.696 -0.1994 -0.6393  0.2423
 1465SOL    HW115857   4.684   2.040   5.636  0.7141  2.9336  1.6658
 1465SOL    HW215858   4.641   2.099   5.760  2.4102 -1.4328 -0.2465
 1466SOL     OW15859   0.918   4.252   5.351  0.5437 -0.1145  0.1008
 1466SOL    HW115860   0.935   4.245   5.257  0.7535  2.7068 -0.0606
 1466SOL    HW215861   0.957   4.171   5.385  0.1331 -1.4184 -2.4980
 1467SOL     OW15862   1.441   4.403  10.827 -0.2982 -0.0962  0.2355
 1467SOL    HW115863   1.510   4.401  10.893  2.3018 -1.5803 -2.5085
 1467SOL    HW215864   1.497   4.417  10.750 -0.4819  1.2663  0.3411
 1468SOL     OW15865   2.944   2.667  13.332  0.2081 -0.0516 -0.8249
 1468SOL    HW115866   2.997   2.732  13.378 -1.2787  1.9483 -1.9526
 1468SOL    HW215867   2.876   2.733  13.320 -1.0336 -1.0314  0.7963
 1469SOL     OW15868   1.693   1.574   8.633  0.2406  0.2043 -0.1721
 1469SOL    HW115869   1.681   1.595   8.726 -0.6936 -1.4542  0.0785
 1469SOL    HW215870   1.644   1.492   8.632  1.7941 -0.7165 -0.1784
 1470SOL     OW15871   1.359   2.226   1.857  0.3701 -0.2715 -0.2620
 1470SOL    HW115872   1.346   2.279   1.936 -3.0250  0.1399 -1.0786
 1470SOL    HW215873   1.357   2.293   1.788  0.8721  0.5864  0.5565
 1471SOL     OW15874   3.754   3.124  10.224  0.2167 -0.1817 -0.3797
 1471SOL    HW115875   3.781   3.038  10.258 -1.9997 -1.1343 -1.0177
 1471SOL    HW215876   3.801   3.186  10.279  0.2988 -0.6589  0.0970
 1472SOL     OW15877   2.293   4.604   6.681 -0.0076  0.3669 -0.0505
 1472SOL    HW115878   2.203   4.595   6.651  0.3294  0.0515 -0.9656
 1472SOL    HW215879   2.302   4.514   6.712 -0.6855  0.2633 -0.1571
 1473SOL     OW15880   2.263   4.299   3.491  0.3408  0.1641  0.0549
 1473SOL    HW115881   2.274   4.376   3.436  0.8337 -1.1868 -1.7407
 1473SOL    HW215882   2.238   4.325   3.580 -0.5788  3.4537 -1.1713
 1474SOL     OW15883   4.019   3.641   8.284  0.5388 -0.1150 -0.3649
 1474SOL    HW115884   4.085   3.682   8.339 -0.6599  0.2337  0.8119
 1474SOL    HW215885   4.073   3.578   8.235 -0.5450 -1.1266 -0.2505
 1475SOL     OW15886   2.147   2.094  13.665  0.7872  0.0499  0.3350
 1475SOL    HW115887   2.110   2.060  13.583  1.1438 -0.9469  0.5903
 1475SOL    HW215888   2.103   2.179  13.663  0.2149 -0.2034  2.0579
 1476SOL     OW15889   3.485   3.155  10.135 -0.3249 -0.6609  0.1426
 1476SOL    HW115890   3.580   3.148  10.126 -0.0807  2.2810  0.4223
 1476SOL    HW215891   3.468   3.124  10.046  1.1479 -0.8859 -0.0596
 1477SOL     OW15892   4.638   3.889   4.916  1.0707  0.3599  0.0702
 1477SOL    HW115893   4.666   3.836   4.841 -1.3445 -0.1919 -0.4189
 1477SOL    HW215894   4.612   3.967   4.866 -0.9400  2.0080  3.7522
 1478SOL     OW15895   2.333   2.018   4.579  0.4026 -0.2495  0.1649
 1478SOL    HW115896   2.357   2.111   4.587  0.0817  0.0847 -2.5490
 1478SOL    HW215897   2.331   2.009   4.483  0.1368 -0.1965  0.1656
 1479SOL     OW15898   1.963   1.838   2.199  0.6339 -0.3438 -0.2971
 1479SOL    HW115899   1.872   1.812   2.214  0.7309 -0.2100  0.5388
 1479SOL    HW215900   1.976   1.831   2.104  0.9006  1.4975 -0.4052
 1480SOL     OW15901   0.700   3.895   8.328  0.2223  0.2895 -0.6847
 1480SOL    HW115902   0.701   3.816   8.382  1.0405  1.2779  0.7646
 1480SOL    HW215903   0.752   3.863   8.255  0.0862  1.0580 -1.1145
 1481SOL     OW15904   1.604   4.649   3.307 -0.0880 -0.1989 -0.0753
 1481SOL    HW115905   1.581   0.015   3.284 -1.6928 -0.6142 -0.1583
 1481SOL    HW215906   1.680   4.633   3.252 -1.1734  0.6525 -1.8349
 1482SOL     OW15907   1.874   2.460   8.474  0.4696 -0.4088  0.1682
 1482SOL    HW115908   1.861   2.433   8.565  3.0009  1.1559  0.9942
 1482SOL    HW215909   1.962   2.428   8.455 -0.1089 -0.4644 -2.5194
 1483SOL     OW15910   2.368   3.536   6.794 -0.0091 -0.0797 -0.6712
 1483SOL    HW115911   2.376   3.446   6.763  0.1124  0.2284 -1.5214
 1483SOL    HW215912   2.296   3.530   6.856 -0.8002 -0.4322 -1.6326
 1484SOL     OW15913   1.632   3.781   4.922  0.0348 -0.4507 -0.1628
 1484SOL    HW115914   1.660   3.813   5.008 -2.3954  1.5733 -0.1437
 1484SOL    HW215915   1.575   3.851   4.892  1.3142  1.6325  2.2354
 1485SOL     OW15916   4.306   0.011   6.721 -0.3821  0.1327 -0.1793
 1485SOL    HW115917   4.386   0.026   6.770  0.8567 -1.6373 -1.6629
 1485SOL    HW215918   4.300   0.099   6.684 -0.0295  0.0233 -0.5008
 1486SOL     OW15919   0.316   1.057   6.963 -0.1126  0.2564  0.1529
 1486SOL    HW115920   0.223   1.064   6.982 -0.9331 -1.7548 -3.0935
 1486SOL    HW215921   0.346   1.043   7.053  0.5889 -0.7062 -0.2360
 1487SOL     OW15922   2.416   3.785   6.287  0.7005  0.2638 -0.3741
 1487SOL    HW115923   2.380   3.869   6.260 -0.9673  0.5999  2.9104
 1487SOL    HW215924   2.330   3.749   6.307  0.3544  1.6273  0.5198
 1488SOL     OW15925   1.487   3.952   5.688  0.4040  0.2111 -0.3425
 1488SOL    HW115926   1.515   4.042   5.704  2.8007 -0.7212  0.7261
 1488SOL    HW215927   1.571   3.921   5.653  0.5790 -0.7976  0.9770
 1489SOL     OW15928   3.521   2.242   2.773  0.0660  0.4164 -0.4016
 1489SOL    HW115929   3.584   2.216   2.706  0.5602  2.4639 -0.7329
 1489SOL    HW215930   3.488   2.320   2.728 -2.2117  0.6240  1.6181
 1490SOL     OW15931   1.427   2.697  15.241 -0.0228  0.0610 -0.5365
 1490SOL    HW115932   1.361   2.766  15.251 -1.5594 -1.9437  3.1444
 1490SOL    HW215933   1.437   2.658  15.328 -2.4641 -1.0445 -0.7502
 1491SOL     OW15934   2.489   2.955  15.614  0.4226 -0.1315 -0.6012
 1491SOL    HW115935   2.521   2.919  15.531  0.6480 -1.5810  0.1136
 1491SOL    HW215936   2.519   3.045  15.599  1.2453 -0.7553 -2.6749
 1492SOL     OW15937   0.676   4.036   4.168  0.1486 -0.5964 -0.0556
 1492SOL    HW115938   0.589   4.070   4.146  0.2755  0.0890  0.5129
 1492SOL    HW215939   0.668   4.004   4.258 -2.0257 -1.6246 -0.6230
 1493SOL     OW15940   4.416   2.018   6.363  0.0237  0.1732 -0.3071
 1493SOL    HW115941   4.328   1.982   6.348 -0.3905 -0.2750  3.2079
 1493SOL    HW215942   4.463   1.969   6.296  1.8528  1.8324 -0.2094
 1494SOL     OW15943   1.489   0.906   7.450  0.2709  0.1036  0.4540
 1494SOL    HW115944   1.524   0.820   7.472  2.6377  1.1959  1.0152
 1494SOL    HW215945   1.465   0.927   7.540 -2.4478  0.3095 -0.3114
 1495SOL     OW15946   3.599   4.670   5.619 -0.2573  0.5443  0.1994
 1495SOL    HW115947   3.645   0.030   5.620 -0.5262  0.6914 -0.1714
 1495SOL    HW215948   3.554   4.680   5.703 -0.6299 -0.0727  0.0694
 1496SOL     OW15949   1.085   0.675   2.394 -0.3478  0.0456  0.3733
 1496SOL    HW115950   1.140   0.598   2.382  3.1250  2.4501  0.9543
 1496SOL    HW215951   1.023   0.645   2.460 -1.0701  0.8830  0.0708
 1497SOL     OW15952   1.468   3.489  14.991 -0.4548  0.1797  0.4875
 1497SOL    HW115953   1.540   3.440  14.952  0.1382  0.7709  0.8319
 1497SOL    HW215954   1.400   3.426  15.016  2.0065 -1.4890  2.9119
 1498SOL     OW15955   0.344   3.606   7.295  0.3525 -0.5608  0.0457
 1498SOL    HW115956   0.377   3.694   7.278 -1.2600  0.0942  0.3273
 1498SOL    HW215957   0.323   3.606   7.388 -0.2230  0.7117 -0.0900
 1499SOL     OW15958   2.518   0.078  17.160 -0.0172  0.4613  0.1758
 1499SOL    HW115959   2.436   0.047  17.123 -1.1805  0.5504  2.6635
 1499SOL    HW215960   2.506   0.173  17.164  0.3944  0.4831  1.1678
 1500SOL     OW15961   3.711   3.095   6.038  0.2224 -0.0563  0.9533
 1500SOL    HW115962   3.689   3.189   6.038 -0.6758 -0.2595  1.3657
 1500SOL    HW215963   3.623   3.069   6.009  0.2461 -0.0248  0.8545
 1501SOL     OW15964   1.773   1.519   0.742  0.0870 -0.2385 -0.3385
 1501SOL    HW115965   1.729   1.588   0.694  1.7974  1.1213  0.0423
 1501SOL    HW215966   1.779   1.556   0.830 -2.1351 -0.2215 -0.2097
 1502SOL     OW15967   2.115   2.878  15.818 -0.1773  0.3028 -0.1705
 1502SOL    HW115968   2.175   2.948  15.844  1.5113 -0.6740 -1.4101
 1502SOL    HW215969   2.069   2.862  15.900  0.8535  4.2731  1.1577
 1503SOL     OW15970   1.944   2.085   7.056  0.1018  0.1230  0.2923
 1503SOL    HW115971   1.891   2.010   7.030 -1.0580  1.0216  0.0549
 1503SOL    HW215972   1.987   2.106   6.973 -1.3170 -2.1458 -1.0202
 1504SOL     OW15973   4.551   2.185   7.884  0.3981 -0.1052  0.1559
 1504SOL    HW115974   4.632   2.147   7.847  0.3793 -1.2345  1.2473
 1504SOL    HW215975   4.521   2.131   7.958 -0.1527  0.8792  0.6400
 1505SOL     OW15976   2.076   4.291  12.828  0.2799 -0.1039 -0.1487
 1505SOL    HW115977   2.052   4.383  12.827  2.6141  0.5025 -1.9328
 1505SOL    HW215978   2.151   4.298  12.768 -0.2268 -0.9772 -0.8793
 1506SOL     OW15979   1.357   0.927   3.966 -0.3677  0.1341  0.1324
 1506SOL    HW115980   1.315   1.003   4.007 -1.3368  0.1282 -0.8388
 1506SOL    HW215981   1.333   0.858   4.028 -0.8177 -1.3757 -1.7289
 1507SOL     OW15982   4.361   2.301   2.912  0.4534 -0.0300 -0.3411
 1507SOL    HW115983   4.404   2.215   2.909  1.5781  0.4954  0.6584
 1507SOL    HW215984   4.268   2.282   2.926  0.5737 -1.0586 -0.9361
 1508SOL     OW15985   2.422   4.091   1.021  0.0948  0.2976 -0.1168
 1508SOL    HW115986   2.415   4.085   0.926 -1.0018  1.9675 -0.1355
 1508SOL    HW215987   2.330   4.084   1.047 -0.2436  2.2083 -0.7930
 1509SOL     OW15988   1.396   0.672   7.257  0.2231 -0.5729  0.6792
 1509SOL    HW115989   1.310   0.634   7.236  0.0372 -0.5618  1.4137
 1509SOL    HW215990   1.382   0.765   7.272 -0.8450 -0.5804 -0.3086
 1510SOL     OW15991   2.185   0.357   6.903 -0.5697  0.3593 -0.1582
 1510SOL    HW115992   2.093   0.352   6.929 -0.9099 -0.4619 -1.5195
 1510SOL    HW215993   2.225   0.304   6.971  2.0494  2.6521  0.1013
 1511SOL     OW15994   2.727   4.607   0.574 -0.1404 -0.1083  0.2352
 1511SOL    HW115995   2.692   4.674   0.515 -1.3919 -1.4498 -0.5679
 1511SOL    HW215996   2.653   4.601   0.634 -2.9572 -0.7167 -3.2509
 1512SOL     OW15997   2.377   0.217   9.987  0.1274  0.0839  0.1352
 1512SOL    HW115998   2.364   0.284  10.055 -1.9810  0.1964 -0.3970
 1512SOL    HW215999   2.421   0.270   9.921 -0.1931  0.4355  0.2037
 1513SOL     OW16000   0.457   3.202  11.271  0.1202 -0.5173  0.0701
 1513SOL    HW116001   0.438   3.219  11.364  0.5093 -2.8104  0.5735
 1513SOL    HW216002   0.414   3.117  11.262  1.1017 -0.9983 -0.1042
 1514SOL     OW16003   1.131   0.654  13.675 -0.4972 -0.1028  0.1979
 1514SOL    HW116004   1.147   0.561  13.684 -0.2972 -0.2564 -1.6986
 1514SOL    HW216005   1.047   0.675  13.717 -0.0427  0.9378  0.5991
 1515SOL     OW16006   0.913   1.331   3.696 -0.5497  0.9355 -0.4599
 1515SOL    HW116007   0.931   1.386   3.620  1.1431 -0.9752 -1.4271
 1515SOL    HW216008   1.005   1.320   3.717 -0.8007 -1.7596 -0.7651
 1516SOL     OW16009   3.893   4.038   5.912 -0.4350  0.2847 -0.3448
 1516SOL    HW116010   3.879   4.127   5.944  0.9256 -0.2866  1.7930
 1516SOL    HW216011   3.975   4.052   5.864  0.5535  1.3305  1.6390
 1517SOL     OW16012   1.458   4.065   2.176 -0.2012  0.2483 -0.3114
 1517SOL    HW116013   1.391   4.112   2.225 -0.0406 -0.1108  0.2471
 1517SOL    HW216014   1.435   4.076   2.083  1.4971 -0.3792 -0.8077
 1518SOL     OW16015   2.018   4.615  11.682  0.1009  0.1729 -0.5433
 1518SOL    HW116016   2.073   4.640  11.756 -1.2134 -0.7462  0.7379
 1518SOL    HW216017   2.051   4.529  11.655 -0.4402  0.2677 -1.4680
 1519SOL     OW16018   0.758   0.902  10.799 -0.2730 -0.1084 -0.0378
 1519SOL    HW116019   0.775   0.910  10.706 -1.0799 -1.4624 -0.3000
 1519SOL    HW216020   0.842   0.860  10.815  0.1290 -0.0232 -1.9268
 1520SOL     OW16021   4.633   1.587   7.728 -0.0635  0.3154  0.0484
 1520SOL    HW116022   4.588   1.661   7.768 -0.7505 -0.6461  1.0506
 1520SOL    HW216023   4.580   1.509   7.745 -1.2203  0.6503 -1.9380
 1521SOL     OW16024   4.021   2.910   5.792  0.0400  0.2405 -0.8312
 1521SOL    HW116025   3.942   2.890   5.742  0.7442  0.4594 -2.0157
 1521SOL    HW216026   3.975   2.920   5.875 -2.0829  4.3805 -2.5002
 1522SOL     OW16027   3.442   2.536   7.240 -0.3465 -0.5474 -0.4703
 1522SOL    HW116028   3.362   2.587   7.250  1.5561  2.0125  1.6576
 1522SOL    HW216029   3.498   2.610   7.213 -0.5471  0.4558  1.8549
 1523SOL     OW16030   4.166   1.085   7.051 -0.1196  0.2080  0.0400
 1523SOL    HW116031   4.141   1.171   7.085 -1.1269  0.6585 -1.8346
 1523SOL    HW216032   4.250   1.063   7.092  0.1700  3.2197  1.1032
 1524SOL     OW16033   4.578   3.400   9.614  0.2153  0.7051 -0.1287
 1524SOL    HW116034   4.577   3.491   9.585 -1.1285  1.1019  1.1943
 1524SOL    HW216035   4.506   3.400   9.677  0.2715  1.4344 -0.0679
 1525SOL     OW16036   1.964   4.093  12.021  0.1585 -0.6750 -0.3035
 1525SOL    HW116037   1.944   4.047  11.940 -1.3662 -0.2348 -0.1694
 1525SOL    HW216038   1.928   4.179  11.999  0.4244 -0.7551 -1.0360
 1526SOL     OW16039   1.883   4.246   8.921 -0.0437 -0.3255  1.0258
 1526SOL    HW116040   1.974   4.256   8.948  0.4710  1.1619 -1.2286
 1526SOL    HW216041   1.845   4.332   8.936  0.0902 -0.2050  0.6856
 1527SOL     OW16042   3.934   1.997   7.934  0.1674  0.7536  0.0821
 1527SOL    HW116043   3.954   1.956   8.018 -0.5469  0.0118 -0.1161
 1527SOL    HW216044   3.879   1.937   7.883  1.8720 -1.8754  1.3238
 1528SOL     OW16045   2.841   1.909   7.799 -0.0835 -0.1757 -0.0731
 1528SOL    HW116046   2.878   1.997   7.802 -0.6782  0.0155  1.6063
 1528SOL    HW216047   2.771   1.913   7.864 -0.2071 -0.7889 -0.1695
 1529SOL     OW16048   1.439   0.938   5.418 -0.2637 -0.0555  0.4751
 1529SOL    HW116049   1.438   0.880   5.495 -0.3620  0.7772  1.0958
 1529SOL    HW216050   1.446   1.026   5.454 -1.4258  0.3816 -0.3620
 1530SOL     OW16051   3.516   0.042  15.667  0.0040 -0.1534 -0.2571
 1530SOL    HW116052   3.563   4.701  15.615  0.5008  1.8798 -2.3210
 1530SOL    HW216053   3.442   0.049  15.607 -0.1519 -0.3021 -0.0830
 1531SOL     OW16054   1.628   1.512  10.852 -0.1859 -0.4233 -0.0581
 1531SOL    HW116055   1.615   1.505  10.757  0.7640 -0.6982 -0.1630
 1531SOL    HW216056   1.699   1.449  10.863 -2.1568 -2.6885 -0.2208
 1532SOL     OW16057   0.354   0.321   5.775 -0.6122  0.3790  0.0584
 1532SOL    HW116058   0.271   0.343   5.734 -0.3568  1.7525  0.2970
 1532SOL    HW216059   0.321   0.264   5.844  0.7725  1.4543  1.5972
 1533SOL     OW16060   0.076   1.608   2.493 -0.6618 -0.0299  0.0290
 1533SOL    HW116061   0.112   1.653   2.416  0.3434 -0.6013  0.1747
 1533SOL    HW216062   0.030   1.534   2.452  2.2614 -1.7942 -0.0520
 1534SOL     OW16063   0.202   0.736  11.944  0.2506 -0.3504  0.1146
 1534SOL    HW116064   0.227   0.742  11.852  0.4315 -0.6927  0.1403
 1534SOL    HW216065   0.120   0.786  11.939 -1.5481 -3.1655  1.3512
 1535SOL     OW16066   3.563   3.874   8.957  0.1534  0.4051 -0.5160
 1535SOL    HW116067   3.474   3.897   8.931 -0.2338  2.4227  2.6415
 1535SOL    HW216068   3.555   3.864   9.051  0.5079 -0.0381 -0.5345
 1536SOL     OW16069   2.264   1.470  15.432  0.0846 -0.1433 -0.1255
 1536SOL    HW116070   2.217   1.469  15.516  1.0346  2.8080  0.4714
 1536SOL    HW216071   2.344   1.522  15.444 -1.8321  2.6168  0.7428
 1537SOL     OW16072   1.230   3.075   2.554 -0.6209 -0.0523 -0.2482
 1537SOL    HW116073   1.161   3.062   2.490 -0.2533 -0.2435 -0.6008
 1537SOL    HW216074   1.286   2.999   2.542  1.3161  1.7521 -2.5446
 1538SOL     OW16075   3.498   4.667   6.564 -0.0549 -0.3617  0.0270
 1538SOL    HW116076   3.432   0.001   6.526  0.5554  0.0422 -0.4259
 1538SOL    HW216077   3.566   0.009   6.579  0.1712 -0.8771  1.2463
 1539SOL     OW16078   1.739   0.998   7.349 -0.0362  0.5037  0.2868
 1539SOL    HW116079   1.653   0.960   7.364  0.9636 -1.6221  0.6968
 1539SOL    HW216080   1.796   0.951   7.410  0.1952 -2.2627 -2.0408
 1540SOL     OW16081   1.677   1.850   5.467 -0.5837 -0.1884  0.2842
 1540SOL    HW116082   1.768   1.877   5.456 -0.7620  0.7147  0.9413
 1540SOL    HW216083   1.678   1.805   5.551  1.5163  1.7823  1.3342
 1541SOL     OW16084   3.640   2.161  13.037  0.1684  0.5185 -0.5478
 1541SOL    HW116085   3.698   2.191  13.106 -0.2127  0.5595 -0.2438
 1541SOL    HW216086   3.558   2.172  13.085  0.2742  1.1133 -0.5104
 1542SOL     OW16087   4.328   0.790   2.453 -0.3536 -0.5388 -0.1810
 1542SOL    HW116088   4.272   0.849   2.402  1.3964  0.2652 -1.1542
 1542SOL    HW216089   4.412   0.833   2.466 -1.1033  1.6133 -2.4685
 1543SOL     OW16090   0.093   0.760   8.779 -0.0184  0.3179 -0.5621
 1543SOL    HW116091   0.161   0.700   8.747 -0.8619 -1.9472  1.9921
 1543SOL    HW216092   0.032   0.763   8.705  0.4681 -0.4037 -1.0000
 1544SOL     OW16093   0.081   4.313   8.429 -0.0711  0.1946  0.4143
 1544SOL    HW116094   0.159   4.346   8.385  0.0007 -1.5264 -0.7699
 1544SOL    HW216095   0.044   4.386   8.478 -0.2059  2.4354 -3.0145
 1545SOL     OW16096   1.444   0.037   5.669  0.0574  0.3342  0.4944
 1545SOL    HW116097   1.429   0.067   5.759  1.5483 -0.8299  1.1322
 1545SOL    HW216098   1.472   0.113   5.618  1.4584 -1.3531 -1.2602
 1546SOL     OW16099   2.623   4.374   7.372 -0.0772  0.4386  0.4588
 1546SOL    HW116100   2.608   4.446   7.311 -0.3758  1.1977  1.4179
 1546SOL    HW216101   2.713   4.386   7.400  0.2772  0.8662 -0.8946
 1547SOL     OW16102   1.217   1.345   4.345 -0.1154 -0.5976 -0.7250
 1547SOL    HW116103   1.272   1.297   4.407  2.9156  3.7697 -0.0556
 1547SOL    HW216104   1.268   1.425   4.335  0.4653 -0.6041  2.1642
 1548SOL     OW16105   4.586   1.788   3.521 -0.1280  0.1640 -0.9006
 1548SOL    HW116106   4.681   1.780   3.520 -0.0855  0.4993  0.8135
 1548SOL    HW216107   4.581   1.824   3.432 -5.4769 -0.8699 -1.0379
 1549SOL     OW16108   3.993   1.261   0.372 -0.1430  0.2378  0.1366
 1549SOL    HW116109   4.015   1.264   0.465  1.6798  1.4053 -0.3363
 1549SOL    HW216110   4.079   1.291   0.343 -0.8620  2.3937  0.2391
 1550SOL     OW16111   2.610   0.720   1.591  0.8969 -0.0906  0.1805
 1550SOL    HW116112   2.644   0.746   1.505 -2.1519  1.9557 -0.4066
 1550SOL    HW216113   2.690   0.715   1.642 -0.3829  0.2541  2.2046
 1551SOL     OW16114   0.083   3.686  16.732  0.0486 -1.0085  0.2052
 1551SOL    HW116115   0.149   3.617  16.725  0.1023 -0.8068 -1.1967
 1551SOL    HW216116   0.131   3.768  16.730 -0.1225 -0.9163 -0.1805
 1552SOL     OW16117   0.196   3.696   7.628  0.2550  0.5133 -0.3052
 1552SOL    HW116118   0.137   3.716   7.556  0.1416  0.8480 -0.1194
 1552SOL    HW216119   0.147   3.728   7.704 -1.0877  0.0976 -0.9882
 1553SOL     OW16120   2.916   2.544   8.542 -0.2247 -0.0762  0.4590
 1553SOL    HW116121   2.875   2.561   8.627  0.1905  0.0940  0.6222
 1553SOL    HW216122   3.001   2.587   8.549  0.5401 -1.4055 -0.7821
 1554SOL     OW16123   1.209   2.498  15.592  0.1315  0.4495 -0.2210
 1554SOL    HW116124   1.120   2.515  15.560 -0.2830 -0.9680  0.1993
 1554SOL    HW216125   1.194   2.451  15.674 -0.6349  0.9003 -0.1016
 1555SOL     OW16126   1.942   0.690   9.376  0.6348 -0.5686 -0.3528
 1555SOL    HW116127   1.955   0.775   9.419 -1.7278 -1.1447  1.4699
 1555SOL    HW216128   2.030   0.652   9.382  0.8145 -0.2882 -1.2756
 1556SOL     OW16129   4.344   2.892   1.180  0.4483 -0.4699  0.5335
 1556SOL    HW116130   4.288   2.944   1.124 -0.3989 -1.2053  0.6898
 1556SOL    HW216131   4.390   2.828   1.126  0.0932  0.5880 -0.9870
 1557SOL     OW16132   4.069   4.416  13.997 -0.1537 -0.1385  0.6252
 1557SOL    HW116133   4.035   4.503  14.017  0.6079  0.9689 -2.9384
 1557SOL    HW216134   4.074   4.378  14.085 -2.0244 -1.4492  0.1721
 1558SOL     OW16135   0.407   4.006  16.073 -0.2639  0.0433  0.4216
 1558SOL    HW116136   0.488   4.039  16.113 -0.2165 -0.2164  0.5413
 1558SOL    HW216137   0.338   4.033  16.134  0.0592  0.6661  0.5105
 1559SOL     OW16138   4.338   0.291  10.353  0.3067  0.3632 -0.3497
 1559SOL    HW116139   4.330   0.232  10.429 -1.5808  2.1265  0.8039
 1559SOL    HW216140   4.395   0.243  10.292  0.6905  0.8226 -0.3534
 1560SOL     OW16141   1.466   0.242   0.885 -0.3065 -0.1561  0.2565
 1560SOL    HW116142   1.451   0.290   0.966  0.4643 -0.6920  0.7201
 1560SOL    HW216143   1.516   0.162   0.905 -1.9813 -1.4238 -0.6093
 1561SOL     OW16144   2.178   1.517  15.720 -0.2782  0.0912  0.0282
 1561SOL    HW116145   2.108   1.583  15.717 -0.5013 -0.1010  0.9584
 1561SOL    HW216146   2.258   1.562  15.749 -0.5284  0.7344 -0.2829
 1562SOL     OW16147   0.738   3.051   7.047 -0.1568 -0.2358  0.4461
 1562SOL    HW116148   0.718   2.983   6.982  0.5751 -2.1646  2.2474
 1562SOL    HW216149   0.810   3.011   7.096  1.5898 -0.2147 -2.1041
 1563SOL     OW16150   1.295   2.943   5.174  0.5125 -0.2010  0.0447
 1563SOL    HW116151   1.246   2.865   5.199  0.0919 -0.9757 -3.1820
 1563SOL    HW216152   1.303   2.982   5.261  0.8516  1.7914 -0.8668
 1564SOL     OW16153   2.537   3.254   6.319  0.0189 -0.0645  0.0553
 1564SOL    HW116154   2.446   3.264   6.293  0.7624  0.4260 -2.3306
 1564SOL    HW216155   2.571   3.178   6.272 -1.2248  0.2123 -1.2737
 1565SOL     OW16156   4.033   3.992   8.592  0.1118  0.4259 -0.0089
 1565SOL    HW116157   4.069   4.033   8.513  1.5306  2.3212  1.6265
 1565SOL    HW216158   3.957   3.944   8.560  0.2477 -0.3953  0.9006
 1566SOL     OW16159   0.911   4.011   2.275 -0.4032 -0.5264  0.6179
 1566SOL    HW116160   0.953   3.958   2.207 -0.6726 -1.1309  0.9174
 1566SOL    HW216161   0.895   4.096   2.233  1.1903 -1.2730 -1.4859
 1567SOL     OW16162   1.198   1.875   1.584 -0.4535 -0.0549 -0.0605
 1567SOL    HW116163   1.185   1.820   1.507 -0.9693 -1.8472  1.3354
 1567SOL    HW216164   1.157   1.819   1.649  0.0895 -0.6477 -0.2318
 1568SOL     OW16165   1.449   4.046   7.258 -0.2795  0.1104  0.1713
 1568SOL    HW116166   1.529   4.005   7.292 -1.5463 -1.1771  1.5759
 1568SOL    HW216167   1.460   4.022   7.166  0.7330 -0.9326  0.5541
 1569SOL     OW16168   0.256   2.376   5.401  0.0430  0.5547  0.1035
 1569SOL    HW116169   0.269   2.390   5.494  2.5094  0.2471 -0.1884
 1569SOL    HW216170   0.320   2.436   5.363  0.9087  0.1559  0.9427
 1570SOL     OW16171   4.653   4.045   9.744  0.7826 -0.3058 -0.1313
 1570SOL    HW116172   0.008   4.005   9.708 -0.0621 -1.5307 -0.6239
 1570SOL    HW216173   4.589   3.975   9.746 -1.2914  1.5210 -2.5978
 1571SOL     OW16174   4.388   2.242   5.670 -0.1267 -0.0008  0.2148
 1571SOL    HW116175   4.367   2.152   5.693 -0.2447 -0.0641 -0.1367
 1571SOL    HW216176   4.376   2.290   5.752  4.5063  0.7320  0.4675
 1572SOL     OW16177   3.702   3.263  13.354  0.9444  0.0165  0.5687
 1572SOL    HW116178   3.664   3.286  13.439 -0.3598 -1.3286  0.3519
 1572SOL    HW216179   3.757   3.192  13.386  0.6991 -1.7857 -3.0314
 1573SOL     OW16180   1.469   0.043   8.543 -0.3741 -0.5803 -0.5505
 1573SOL    HW116181   1.376   0.035   8.520 -0.2722  1.1528 -1.5649
 1573SOL    HW216182   1.475   4.677   8.574 -0.2838 -0.3464  0.1206
 1574SOL     OW16183   2.796   0.142   4.719  0.1053  0.1728  0.4526
 1574SOL    HW116184   2.712   0.096   4.720  1.0393 -1.5278  2.1780
 1574SOL    HW216185   2.861   0.074   4.702  1.5374  1.1326  2.0537
 1575SOL     OW16186   2.174   4.308   7.723 -0.0979 -0.2487  0.0830
 1575SOL    HW116187   2.216   4.332   7.806  1.2397 -1.6774 -0.1861
 1575SOL    HW216188   2.199   4.377   7.662  3.0035 -1.9529 -0.5746
 1576SOL     OW16189   0.858   3.789  15.391 -0.3919  0.2471  0.7080
 1576SOL    HW116190   0.935   3.748  15.351  1.5890  3.2678  1.3799
 1576SOL    HW216191   0.889   3.880  15.387 -1.2255  0.4543 -0.8223
 1577SOL     OW16192   0.808   4.258   4.901 -0.0972 -0.4608  0.4087
 1577SOL    HW116193   0.834   4.213   4.821  1.0455 -0.0521  0.5518
 1577SOL    HW216194   0.843   4.346   4.893  2.4746 -1.2646  2.6185
 1578SOL     OW16195   2.672   3.867   4.719  0.1346  0.2686 -0.1941
 1578SOL    HW116196   2.698   3.913   4.639  1.0681  0.4922  0.2374
 1578SOL    HW216197   2.719   3.784   4.712  0.8058  0.6039  0.4170
 1579SOL     OW16198   4.131   1.973   5.703 -0.1272 -0.4116  0.0041
 1579SOL    HW116199   4.078   1.895   5.720 -0.6343 -0.3797 -1.4559
 1579SOL    HW216200   4.221   1.942   5.696 -0.3157 -1.1249  0.7124
 1580SOL     OW16201   3.714   3.353   3.582 -0.4290 -0.0653 -0.1155
 1580SOL    HW116202   3.625   3.372   3.554 -0.9231  0.5785  1.9362
 1580SOL    HW216203   3.766   3.379   3.505 -0.2322 -2.4902 -0.8184
 1581SOL     OW16204   3.363   1.021  11.436 -0.6544  0.1989  0.5589
 1581SOL    HW116205   3.433   1.084  11.452  0.8935 -1.1364 -0.9342
 1581SOL    HW216206   3.292   1.084  11.431 -0.5990 -0.0852 -3.7299
 1582SOL     OW16207   4.572   2.994   6.850  0.0016  0.6996  0.0709
 1582SOL    HW116208   4.633   3.022   6.782 -2.5057  1.2857 -1.9514
 1582SOL    HW216209   4.623   2.944   6.913 -0.4610 -3.9781 -3.2014
 1583SOL     OW16210   1.858   1.328   2.513  0.3078 -0.8839  0.0358
 1583SOL    HW116211   1.769   1.334   2.477  0.0860  0.2630  0.7562
 1583SOL    HW216212   1.893   1.411   2.479 -1.0826 -0.7300 -1.0281
 1584SOL     OW16213   1.398   3.954  17.043  0.4092 -0.3124  0.0559
 1584SOL    HW116214   1.438   3.868  17.055  2.2329  0.0842 -3.0415
 1584SOL    HW216215   1.326   3.950  17.106  0.1529 -0.4426 -0.2469
 1585SOL     OW16216   2.670   2.824  13.341  0.3929  0.0853 -0.5865
 1585SOL    HW116217   2.622   2.745  13.366  0.6178 -0.2560 -1.2549
 1585SOL    HW216218   2.673   2.879  13.419  2.4595  1.1463 -1.4209
 1586SOL     OW16219   2.692   3.289  11.232  0.3760 -0.0136  0.4032
 1586SOL    HW116220   2.658   3.308  11.319  0.5197  2.7436 -0.1201
 1586SOL    HW216221   2.676   3.374  11.190 -1.7329 -0.5512  0.1248
 1587SOL     OW16222   2.054   2.833  16.140  0.4303  0.2814 -0.6468
 1587SOL    HW116223   1.965   2.866  16.156  1.1232  0.8876  1.8915
 1587SOL    HW216224   2.025   2.743  16.125 -1.6510  0.5206  1.8597
 1588SOL     OW16225   2.977   1.887   6.779 -0.4685 -0.5407 -0.0543
 1588SOL    HW116226   2.917   1.957   6.804 -1.0804 -0.8945 -0.5250
 1588SOL    HW216227   3.059   1.915   6.819 -0.9366  0.9149 -0.1013
 1589SOL     OW16228   2.255   0.995   8.852  0.5663 -0.3518  0.7676
 1589SOL    HW116229   2.333   1.050   8.848  0.8675 -0.9001 -1.0223
 1589SOL    HW216230   2.279   0.938   8.924  1.2607  0.5850  1.2825
 1590SOL     OW16231   2.990   2.732   5.861  0.4272  0.4941 -0.2816
 1590SOL    HW116232   2.922   2.799   5.850  0.6508  0.7435 -0.1400
 1590SOL    HW216233   2.960   2.686   5.939 -0.3374 -0.3477 -1.0636
 1591SOL     OW16234   3.929   1.935   7.484 -0.7043  0.0216  0.2312
 1591SOL    HW116235   3.884   2.009   7.526  0.4448  0.9473 -0.1851
 1591SOL    HW216236   3.933   1.872   7.556 -1.8243  0.1437  0.4099
 1592SOL     OW16237   3.534   1.616   3.386  0.3930 -0.3463  0.1186
 1592SOL    HW116238   3.585   1.535   3.397 -2.0229 -1.5456  2.5556
 1592SOL    HW216239   3.461   1.599   3.328  0.0971 -0.8375  0.6347
 1593SOL     OW16240   0.845   2.359  12.337 -1.0082  0.0354 -0.2784
 1593SOL    HW116241   0.753   2.386  12.337 -1.2590 -0.7582  2.2099
 1593SOL    HW216242   0.842   2.315  12.253 -1.7884 -0.2834 -0.0856
 1594SOL     OW16243   1.218   4.119   8.960 -0.4945  0.0288  0.4826
 1594SOL    HW116244   1.157   4.187   8.987  0.7313  0.8101  1.2486
 1594SOL    HW216245   1.161   4.079   8.893 -2.2914  0.6883  1.6122
 1595SOL     OW16246   0.622   0.600   6.042 -0.2759 -0.2840 -0.3385
 1595SOL    HW116247   0.624   0.524   6.099  1.9817 -0.3242 -0.4768
 1595SOL    HW216248   0.560   0.662   6.082  0.0806 -0.7989  0.9830
 1596SOL     OW16249   0.783   0.844   9.790 -0.3759 -0.3495 -0.1051
 1596SOL    HW116250   0.849   0.790   9.748  0.0049 -0.6134  0.8406
 1596SOL    HW216251   0.840   0.893   9.849 -1.1279  1.2929 -0.7363
 1597SOL     OW16252   4.505   1.087  11.607 -0.1336  0.1959  0.2022
 1597SOL    HW116253   4.490   1.181  11.617  1.6411  0.3786  1.0690
 1597SOL    HW216254   4.598   1.072  11.623  0.1303  0.8651 -0.6333
 1598SOL     OW16255   3.097   0.764  12.807  0.3175  0.2927  0.0054
 1598SOL    HW116256   3.058   0.738  12.724 -0.6228 -0.4530  0.6806
 1598SOL    HW216257   3.190   0.748  12.791 -0.1776 -0.4510 -2.0663
 1599SOL     OW16258   3.830   0.169   3.538  0.2458  0.4204  0.3311
 1599SOL    HW116259   3.925   0.158   3.544  0.3073  0.3285 -0.7256
 1599SOL    HW216260   3.828   0.261   3.566  0.9696  1.5164 -3.1962
 1600SOL     OW16261   0.612   2.427   0.364 -0.1018  0.1676  0.3507
 1600SOL    HW116262   0.673   2.354   0.361  0.6244  0.7252  1.8888
 1600SOL    HW216263   0.557   2.407   0.440 -2.7469  1.6803 -1.1397
 1601SOL     OW16264   3.157   3.831   4.239  0.3118 -0.1219 -0.6518
 1601SOL    HW116265   3.151   3.793   4.151 -1.6445  0.8852 -0.9674
 1601SOL    HW216266   3.209   3.775   4.296  0.5170  0.6613 -0.0715
 1602SOL     OW16267   1.706   0.138   7.795  0.1906 -0.4550  0.1850
 1602SOL    HW116268   1.616   0.157   7.770  0.7970  0.4650 -1.3071
 1602SOL    HW216269   1.731   0.072   7.731 -0.2405 -1.2325  0.8146
 1603SOL     OW16270   2.984   4.321   1.034  0.3534  0.1757 -1.1668
 1603SOL    HW116271   2.898   4.345   0.999 -1.0201  1.6375  3.2497
 1603SOL    HW216272   3.036   4.382   0.983  0.1677  1.6097  0.3431
 1604SOL     OW16273   3.758   1.246   7.734 -0.3391 -0.0797  0.3027
 1604SOL    HW116274   3.792   1.261   7.646  0.0049 -0.1053  0.4313
 1604SOL    HW216275   3.797   1.322   7.776  0.7550 -1.7739  2.3491
 1605SOL     OW16276   4.534   1.617   7.094  0.3591  0.2637 -0.0478
 1605SOL    HW116277   4.612   1.669   7.112  0.4016 -0.4175  1.7683
 1605SOL    HW216278   4.470   1.662   7.149  0.1957  1.4567 -1.2038
 1606SOL     OW16279   2.057   4.408   4.820  0.5451  0.0568 -0.3634
 1606SOL    HW116280   2.063   4.405   4.725  1.3317  0.7607 -0.3375
 1606SOL    HW216281   2.018   4.493   4.840  1.6620  0.1734  1.3764
 1607SOL     OW16282   4.618   2.571   4.908 -0.3262  0.2718 -0.5367
 1607SOL    HW116283   4.526   2.595   4.914  0.7332  4.3524 -0.9594
 1607SOL    HW216284   4.618   2.562   4.812 -4.6169  1.4185 -0.6548
 1608SOL     OW16285   0.546   0.945   6.727  0.2322  0.1213  0.6343
 1608SOL    HW116286   0.591   0.965   6.809 -1.1640 -0.7065  1.6063
 1608SOL    HW216287   0.476   0.885   6.753  0.4176 -0.6739 -0.6880
 1609SOL     OW16288   4.125   1.562   5.030 -0.0879 -0.3134 -0.4931
 1609SOL    HW116289   4.143   1.597   4.943 -2.3777 -1.2122 -1.3232
 1609SOL    HW216290   4.213   1.566   5.068 -1.7922 -0.3680  3.5027
 1610SOL     OW16291   1.787   3.987   5.366  0.6069  0.7227  0.6174
 1610SOL    HW116292   1.782   3.967   5.460 -2.2122  0.8432  0.4648
 1610SOL    HW216293   1.845   4.063   5.360 -0.1715  1.5271  3.2076
 1611SOL     OW16294   4.315   3.408  13.516  0.2128  0.0490 -0.1814
 1611SOL    HW116295   4.400   3.424  13.476 -0.1172 -0.2366 -1.0094
 1611SOL    HW216296   4.309   3.483  13.574 -2.4062 -0.7930  0.6642
 1612SOL     OW16297   0.917   3.793   2.494 -0.7520 -0.3985 -0.5757
 1612SOL    HW116298   0.898   3.699   2.485 -1.4807 -0.2091 -1.0184
 1612SOL    HW216299   1.007   3.798   2.462 -0.6928  0.7579 -0.2276
 1613SOL     OW16300   2.572   1.568   3.107  0.0608  0.2394 -0.3626
 1613SOL    HW116301   2.592   1.487   3.060  0.1075  0.7148 -1.1517
 1613SOL    HW216302   2.642   1.620   3.067  0.1239  0.4435  0.0095
 1614SOL     OW16303   3.305   2.043   7.293  0.5204  0.0624 -0.5129
 1614SOL    HW116304   3.224   2.091   7.314  0.3076  0.5574 -2.4657
 1614SOL    HW216305   3.370   2.114   7.290  1.1922 -0.5588 -0.5307
 1615SOL     OW16306   1.609   4.114  10.423  0.4305 -0.6698  0.0780
 1615SOL    HW116307   1.578   4.029  10.391  2.8008 -0.6016 -2.3514
 1615SOL    HW216308   1.688   4.119  10.369 -0.9165  2.3299 -1.5963
 1616SOL     OW16309   1.782   1.512   5.727  0.0793  0.0645  0.2687
 1616SOL    HW116310   1.766   1.514   5.822  5.0247  4.1379  0.9906
 1616SOL    HW216311   1.729   1.589   5.710  1.6168  0.9637 -0.4105
 1617SOL     OW16312   0.620   3.678   3.292 -0.4348 -0.0956  0.0647
 1617SOL    HW116313   0.637   3.726   3.211  1.6832  0.9090  1.1155
 1617SOL    HW216314   0.708   3.682   3.330 -1.0120  0.3520  1.3715
 1618SOL     OW16315   3.995   0.325   0.806  0.4945 -0.2033 -0.2833
 1618SOL    HW116316   4.031   0.310   0.893 -1.7750  1.7190  1.0009
 1618SOL    HW216317   3.923   0.387   0.820 -1.2661 -2.1504 -0.7116
 1619SOL     OW16318   3.271   1.309   9.555 -0.1590  0.3341  0.5084
 1619SOL    HW116319   3.193   1.260   9.579  0.1215  0.7554  2.2951
 1619SOL    HW216320   3.317   1.313   9.639 -0.4237  1.7975  0.5787
 1620SOL     OW16321   1.294   4.625   7.201  0.3936  0.8653  0.2325
 1620SOL    HW116322   1.219   4.633   7.260 -0.5489  1.1806 -1.0233
 1620SOL    HW216323   1.305   4.530   7.194 -2.8446  0.4164  1.0184
 1621SOL     OW16324   2.436   0.808   0.529 -0.1493  0.0651 -0.0641
 1621SOL    HW116325   2.361   0.849   0.484  0.7487  2.6821  0.8233
 1621SOL    HW216326   2.493   0.883   0.540  2.5439 -2.0118  0.0808
 1622SOL     OW16327   4.289   2.961   8.821 -0.1061 -0.5602  0.9101
 1622SOL    HW116328   4.217   2.921   8.870  0.3441 -0.1632  1.9097
 1622SOL    HW216329   4.349   2.886   8.820 -1.7826 -1.9062  1.3190
 1623SOL     OW16330   1.592   3.864   8.460  0.0268  0.0045  0.1358
 1623SOL    HW116331   1.563   3.955   8.455  1.5977  0.5134  0.2240
 1623SOL    HW216332   1.547   3.834   8.539 -0.5726 -0.7556 -0.4973
 1624SOL     OW16333   0.205   3.019   5.060  0.0293 -0.2982  0.3572
 1624SOL    HW116334   0.144   3.035   5.132 -1.3146 -1.9332 -0.4146
 1624SOL    HW216335   0.182   2.929   5.035 -0.9553  0.2922 -0.8188
 1625SOL     OW16336   2.411   2.875   7.831  1.0213 -0.5243  0.3571
 1625SOL    HW116337   2.358   2.900   7.906  2.4836  2.7938  0.3313
 1625SOL    HW216338   2.499   2.903   7.859  1.6257  1.0382 -3.0574
 1626SOL     OW16339   1.425   3.844  17.648 -0.7103 -0.5956  0.0926
 1626SOL    HW116340   1.334   3.814  17.651 -1.4689  1.4040 -2.4020
 1626SOL    HW216341   1.422   3.898  17.568  0.0842 -0.6029  0.0626
 1627SOL     OW16342   0.499   3.834   7.203  0.0084  0.2802  0.6729
 1627SOL    HW116343   0.574   3.863   7.253  0.1132 -0.9548  1.2232
 1627SOL    HW216344   0.442   3.902   7.238 -3.4992 -1.8393 -0.8506
 1628SOL     OW16345   3.741   4.369   6.217 -0.1591  0.4995  0.1851
 1628SOL    HW116346   3.688   4.299   6.181 -0.4104  0.9075 -0.2377
 1628SOL    HW216347   3.675   4.410   6.273  0.7921  0.3711  1.4072
 1629SOL     OW16348   3.174   1.294  16.176 -0.2101  0.0264 -0.5656
 1629SOL    HW116349   3.150   1.386  16.164 -1.8009 -0.5007 -1.5078
 1629SOL    HW216350   3.245   1.286  16.112  1.2622  1.4417  0.8762
 1630SOL     OW16351   3.741   3.052   7.609  0.0846 -0.2723  0.1948
 1630SOL    HW116352   3.706   3.141   7.619  0.4532 -0.1378  0.2710
 1630SOL    HW216353   3.667   3.001   7.643 -1.0164  0.7424 -0.6659
 1631SOL     OW16354   2.336   4.529   7.146 -0.4068 -0.5430 -0.0815
 1631SOL    HW116355   2.336   4.455   7.207  2.2473 -0.4783  0.0093
 1631SOL    HW216356   2.417   4.572   7.175 -0.2897  0.0822 -1.3196
 1632SOL     OW16357   2.878   3.399  10.268  0.5771 -0.2633  0.3144
 1632SOL    HW116358   2.958   3.388  10.319  1.0254  0.2913 -0.2681
 1632SOL    HW216359   2.831   3.471  10.311  0.5814 -0.7669  1.1677
 1633SOL     OW16360   4.032   1.312   2.816 -0.3924 -0.1671 -0.3436
 1633SOL    HW116361   3.972   1.301   2.741 -0.4945  1.3946 -0.4903
 1633SOL    HW216362   4.000   1.254   2.885  0.5617 -0.6926 -0.3406
 1634SOL     OW16363   4.035   1.648   9.636  0.6666 -0.3527 -0.5660
 1634SOL    HW116364   4.123   1.638   9.672  0.9006 -0.4087 -1.1434
 1634SOL    HW216365   4.047   1.620   9.545  1.2199  0.4694 -0.7454
 1635SOL     OW16366   2.768   2.245   6.626  0.3345  0.1251  0.4944
 1635SOL    HW116367   2.691   2.235   6.570  0.5164 -0.7955  0.4085
 1635SOL    HW216368   2.728   2.293   6.699  0.6487 -0.3723  0.9985
 1636SOL     OW16369   2.091   3.527   2.133  0.6155  0.0154 -0.2306
 1636SOL    HW116370   2.120   3.577   2.209 -1.3100  1.0086 -0.1529
 1636SOL    HW216371   2.138   3.444   2.137  0.0209 -0.3143 -0.0449
 1637SOL     OW16372   4.443   3.224   1.119  0.2394 -0.8326  0.0614
 1637SOL    HW116373   4.508   3.159   1.092  0.8592  0.1023 -0.7397
 1637SOL    HW216374   4.362   3.175   1.110 -0.3701  0.1777  0.0681
 1638SOL     OW16375   4.305   0.581   3.341 -0.2156 -0.1676 -0.3922
 1638SOL    HW116376   4.328   0.501   3.387 -2.0332  0.0775  0.9243
 1638SOL    HW216377   4.268   0.550   3.258  1.0730 -0.8892 -0.6982
 1639SOL     OW16378   2.202   2.744   9.189 -0.7555 -0.2692 -0.3427
 1639SOL    HW116379   2.192   2.703   9.102  0.2423 -1.2665  0.0147
 1639SOL    HW216380   2.155   2.825   9.172  2.2239  1.9285  2.0843
 1640SOL     OW16381   3.055   1.772   0.591  0.2642 -0.0319  0.6554
 1640SOL    HW116382   3.104   1.821   0.657  0.5428  0.2311  0.2526
 1640SOL    HW216383   2.977   1.827   0.587 -1.1537 -2.2074 -1.9257
 1641SOL     OW16384   3.195   4.249   3.825 -0.3604  0.0971  0.2545
 1641SOL    HW116385   3.239   4.332   3.841 -3.6493  1.9884 -0.6454
 1641SOL    HW216386   3.173   4.218   3.913 -0.1908  1.9267  0.9460
 1642SOL     OW16387   4.380   3.545   6.716  0.4766  0.0250  0.1074
 1642SOL    HW116388   4.462   3.553   6.764 -0.8165 -0.9606  2.5019
 1642SOL    HW216389   4.377   3.638   6.697  1.3645  0.4436  1.9796
 1643SOL     OW16390   1.720   3.411   5.927 -0.3313 -0.0033 -0.2984
 1643SOL    HW116391   1.757   3.402   5.840 -1.3584 -2.3966 -0.4868
 1643SOL    HW216392   1.699   3.321   5.953 -0.8736  0.0674 -0.4743
 1644SOL     OW16393   4.499   1.223   5.336 -0.0728 -0.0280 -0.1805
 1644SOL    HW116394   4.506   1.141   5.287 -3.1410  0.1112 -0.8145
 1644SOL    HW216395   4.408   1.212   5.362 -0.3170  0.4369 -0.8506
 1645SOL     OW16396   4.047   2.973   5.054  0.1015 -0.2026 -0.6204
 1645SOL    HW116397   4.132   3.008   5.082  0.6871 -1.5219 -0.6974
 1645SOL    HW216398   4.057   2.935   4.967 -1.2437 -0.9357 -0.4496
 1646SOL     OW16399   0.044   2.428   8.863  0.3566  0.3511  0.0329
 1646SOL    HW116400   0.133   2.463   8.853 -0.3543  2.3579  0.6305
 1646SOL    HW216401   0.008   2.467   8.783 -0.5539 -0.7295 -0.0792
 1647SOL     OW16402   1.399   2.091  11.743  0.2230 -0.2841 -0.3152
 1647SOL    HW116403   1.433   2.172  11.780  0.2437 -2.2564  3.9057
 1647SOL    HW216404   1.363   2.051  11.822 -0.5255  2.3119  0.6385
 1648SOL     OW16405   2.952   0.797   4.180  0.0503  0.1168 -0.0726
 1648SOL    HW116406   3.009   0.833   4.112 -1.9764 -0.7408 -2.2187
 1648SOL    HW216407   2.865   0.807   4.141  0.2996 -0.9675 -0.9137
 1649SOL     OW16408   0.846   0.676   1.399 -0.0939 -0.3582  0.2208
 1649SOL    HW116409   0.935   0.666   1.434 -0.4435 -3.7740  0.1093
 1649SOL    HW216410   0.832   0.588   1.364 -1.0328 -1.2605  2.8470
 1650SOL     OW16411   2.849   0.834   5.527 -0.1080 -0.2587  0.0232
 1650SOL    HW116412   2.791   0.759   5.513 -2.4780  1.6350 -0.3393
 1650SOL    HW216413   2.783   0.903   5.527 -0.0587 -0.2151 -2.5198
 1651SOL     OW16414   0.644   0.306  12.399  0.0378  0.3886 -0.9370
 1651SOL    HW116415   0.568   0.331  12.452  1.9481  2.6736  0.6625
 1651SOL    HW216416   0.682   0.233  12.448 -4.7798  0.2714  2.7063
 1652SOL     OW16417   1.136   1.781   3.199  0.2354  0.0415 -0.3910
 1652SOL    HW116418   1.101   1.790   3.110  3.1129  0.6849 -1.4643
 1652SOL    HW216419   1.099   1.861   3.237 -1.7907 -2.2243  2.4071
 1653SOL     OW16420   2.035   3.335  13.771  0.1525 -0.3154  0.0735
 1653SOL    HW116421   2.018   3.251  13.813  3.0551  0.0830  2.0779
 1653SOL    HW216422   1.989   3.388  13.836 -0.8582 -1.4014  0.2426
 1654SOL     OW16423   1.260   2.954   6.988 -0.4770 -0.7927  0.3722
 1654SOL    HW116424   1.174   2.954   6.945 -0.0534  0.1962 -0.4720
 1654SOL    HW216425   1.231   2.939   7.078  0.6400  2.0367  1.1958
 1655SOL     OW16426   0.719   4.047   5.531  0.1525 -0.4131  0.4026
 1655SOL    HW116427   0.726   4.103   5.454 -0.9727 -0.2002  0.4545
 1655SOL    HW216428   0.778   3.982   5.494  0.4293 -0.3528  0.7420
 1656SOL     OW16429   0.203   0.036   5.609  0.3560 -0.1464 -0.0868
 1656SOL    HW116430   0.281   0.013   5.659  1.3498  0.8792 -1.1510
 1656SOL    HW216431   0.162   4.675   5.620  1.3841 -0.6696 -0.2988
 1657SOL     OW16432   0.574   1.551  10.212 -0.5191  0.2957  0.2328
 1657SOL    HW116433   0.579   1.460  10.184  0.3113 -0.0171  1.3941
 1657SOL    HW216434   0.631   1.593  10.147  0.3013 -0.3435  0.5360
 1658SOL     OW16435   4.074   1.533   4.249 -0.1253 -0.3897  0.4507
 1658SOL    HW116436   4.006   1.513   4.185 -1.6571  0.4496  1.8238
 1658SOL    HW216437   4.070   1.451   4.297  1.1403  0.5226  2.1192
 1659SOL     OW16438   4.614   4.047  10.469  0.6263 -0.0597  0.2386
 1659SOL    HW116439   4.530   4.085  10.492  1.2366  1.0423  0.6466
 1659SOL    HW216440   4.592   4.003  10.387 -0.4610  1.5043 -0.3155
 1660SOL     OW16441   3.140   2.532  14.704  0.0818 -0.0052  0.1024
 1660SOL    HW116442   3.104   2.589  14.637  0.3197 -1.1587 -0.9926
 1660SOL    HW216443   3.220   2.500  14.663  0.8204  0.2090  1.3657
 1661SOL     OW16444   2.096   0.596   1.336  0.3509 -0.1341  0.3046
 1661SOL    HW116445   2.150   0.653   1.390 -2.7673  1.2019  2.0651
 1661SOL    HW216446   2.037   0.662   1.301  0.3534 -0.1219  0.3235
 1662SOL     OW16447   0.750   3.320   7.111 -0.2557  0.0704 -0.3696
 1662SOL    HW116448   0.732   3.226   7.115  0.9118 -0.1396 -0.2073
 1662SOL    HW216449   0.739   3.326   7.017  0.1601 -1.7115 -0.5310
 1663SOL     OW16450   1.025   0.551   4.174  0.1795 -0.2939  0.0213
 1663SOL    HW116451   1.066   0.590   4.098 -0.5635  0.4087 -0.0190
 1663SOL    HW216452   0.948   0.509   4.134  0.1382 -2.6871  2.5524
 1664SOL     OW16453   3.836   1.972   4.890  0.4678 -0.7418  0.4875
 1664SOL    HW116454   3.750   1.968   4.848  0.7495  2.0892 -0.3640
 1664SOL    HW216455   3.890   2.022   4.828  1.7454 -2.1344  0.4811
 1665SOL     OW16456   1.000   3.308   8.968 -0.0702  0.3661 -0.4138
 1665SOL    HW116457   1.022   3.238   8.908  0.4316  0.0070  0.1847
 1665SOL    HW216458   0.908   3.318   8.943 -0.3534 -0.7000  0.2251
 1666SOL     OW16459   0.881   4.684   7.623 -0.6298 -0.3866  0.5660
 1666SOL    HW116460   0.832   0.037   7.596  1.3058  1.6516  2.8897
 1666SOL    HW216461   0.805   4.631   7.649 -0.4431 -1.6539 -1.4991
 1667SOL     OW16462   3.547   0.550  10.543 -0.1529  0.2468  0.5209
 1667SOL    HW116463   3.554   0.499  10.624  2.8148  0.9799  0.7510
 1667SOL    HW216464   3.588   0.488  10.483 -0.5631  0.6554 -0.1724
 1668SOL     OW16465   1.426   2.607   6.212  0.0421 -0.4231 -0.0747
 1668SOL    HW116466   1.456   2.534   6.158  1.6028  0.3600 -0.2489
 1668SOL    HW216467   1.495   2.594   6.277  0.3825 -3.1358 -0.9818
 1669SOL     OW16468   0.732   0.235   2.749 -0.5490  0.0456 -0.1509
 1669SOL    HW116469   0.640   0.250   2.726 -0.7274  0.0654  0.5727
 1669SOL    HW216470   0.776   0.242   2.665 -1.4215 -0.6915 -0.6720
 1670SOL     OW16471   1.200   1.104   3.601 -0.6772  0.1536 -0.0695
 1670SOL    HW116472   1.243   1.114   3.516 -1.3318  0.2602 -0.3827
 1670SOL    HW216473   1.259   1.033   3.628 -0.2309  0.8512  0.8075
 1671SOL     OW16474   4.662   2.839   8.290 -0.0084 -0.1075 -0.2849
 1671SOL    HW116475   4.574   2.869   8.265 -0.7137 -2.2665 -0.4107
 1671SOL    HW216476   4.714   2.906   8.246  1.3693 -0.8780  0.1876
 1672SOL     OW16477   0.738   3.568   4.750 -0.5031  0.5507 -0.2901
 1672SOL    HW116478   0.665   3.516   4.784  0.5794 -1.4942 -1.1226
 1672SOL    HW216479   0.818   3.523   4.777 -0.1234  3.0357  2.8047
 1673SOL     OW16480   4.483   4.577  10.819  0.4950 -0.4026 -0.0652
 1673SOL    HW116481   4.529   4.517  10.761 -0.8629 -2.4186  0.9351
 1673SOL    HW216482   4.545   4.645  10.846  2.6065 -1.8035 -1.3423
 1674SOL     OW16483   0.385   1.542   5.208  0.2542  0.1654  0.8731
 1674SOL    HW116484   0.378   1.463   5.261 -0.9514 -1.6434 -2.0101
 1674SOL    HW216485   0.294   1.569   5.198  0.2153 -0.2998  0.0016
 1675SOL     OW16486   3.509   2.961   8.548  0.3069  0.5621 -0.6602
 1675SOL    HW116487   3.459   3.013   8.611 -0.7323  0.4869 -1.4218
 1675SOL    HW216488   3.518   2.880   8.597 -2.2817  0.6444 -0.0864
 1676SOL     OW16489   0.379   4.219   7.784 -0.3410 -0.4038  0.0943
 1676SOL    HW116490   0.455   4.162   7.788 -0.0494 -0.1706 -1.7851
 1676SOL    HW216491   0.397   4.254   7.696  3.3964 -1.5561  0.3936
 1677SOL     OW16492   1.107   4.242   3.300  0.2547  0.0053  0.3795
 1677SOL    HW116493   1.062   4.254   3.216 -0.5700  2.1073  1.1340
 1677SOL    HW216494   1.027   4.230   3.351  0.1747 -0.3904  0.1628
 1678SOL     OW16495   0.407   3.570   1.781  0.6154 -0.1022  0.1087
 1678SOL    HW116496   0.413   3.568   1.685 -0.5987  0.8826  0.0058
 1678SOL    HW216497   0.487   3.619   1.798  0.8966 -0.6612  0.3639
 1679SOL     OW16498   0.198   0.606   7.261 -0.5551 -0.0188 -0.3368
 1679SOL    HW116499   0.133   0.658   7.214  1.6046  2.3697 -0.6620
 1679SOL    HW216500   0.158   0.519   7.267  0.7098 -0.6025 -0.3249
 1680SOL     OW16501   1.139   1.268   4.695 -0.1122  0.5222 -0.3874
 1680SOL    HW116502   1.114   1.186   4.737 -0.1223  0.0816 -1.2675
 1680SOL    HW216503   1.211   1.247   4.635 -1.4943 -4.6683 -0.2331
 1681SOL     OW16504   2.776   4.430   0.908 -0.2034  0.2220 -0.0013
 1681SOL    HW116505   2.742   4.509   0.951 -0.2394 -0.8646  1.9465
 1681SOL    HW216506   2.700   4.376   0.886  0.2100 -0.6521  0.7146
 1682SOL     OW16507   4.293   1.689   9.727  0.0743  0.0699  0.0928
 1682SOL    HW116508   4.324   1.618   9.782 -0.6774 -1.6653 -1.7236
 1682SOL    HW216509   4.357   1.687   9.655 -0.2293 -0.3682 -0.1677
 1683SOL     OW16510   3.532   4.441  16.778  0.0248  0.5126 -0.1350
 1683SOL    HW116511   3.465   4.374  16.769  0.4238 -0.0561  1.2454
 1683SOL    HW216512   3.602   4.405  16.723  0.1408  0.8652 -0.2223
 1684SOL     OW16513   0.090   3.303   2.161  0.0372 -0.3189 -0.4878
 1684SOL    HW116514   0.134   3.221   2.181 -1.4322 -1.0218 -0.1701
 1684SOL    HW216515   0.101   3.314   2.067  0.6703 -1.1964 -0.5094
 1685SOL     OW16516   0.450   2.471   6.876 -0.2587  0.3914  0.4593
 1685SOL    HW116517   0.494   2.474   6.791 -2.3693  0.0646 -0.6522
 1685SOL    HW216518   0.374   2.416   6.855  0.6857 -0.5209 -0.5225
 1686SOL     OW16519   0.862   2.313   2.291 -0.0177  0.0610  0.0552
 1686SOL    HW116520   0.819   2.308   2.376  0.7838  2.4972  0.6063
 1686SOL    HW216521   0.836   2.400   2.261 -1.4123  0.1436  1.4587
 1687SOL     OW16522   3.455   4.432   8.328 -0.3192 -0.5513 -0.4021
 1687SOL    HW116523   3.509   4.385   8.391 -2.0537 -2.5308 -0.3827
 1687SOL    HW216524   3.484   4.409   8.240  2.2493  1.4273 -0.0708
 1688SOL     OW16525   4.512   1.038   9.209  0.0047 -0.1267 -0.2325
 1688SOL    HW116526   4.604   1.056   9.191 -0.6293  1.3788 -1.9413
 1688SOL    HW216527   4.514   1.007   9.299  0.3695 -0.5326 -0.3763
 1689SOL     OW16528   2.030   2.416   3.832 -0.9240 -0.3063 -0.6302
 1689SOL    HW116529   2.016   2.463   3.915 -0.6145 -1.9241  0.3360
 1689SOL    HW216530   2.124   2.414   3.817 -1.0641 -0.1534 -1.5167
 1690SOL     OW16531   2.510   0.600   2.800 -0.7821 -0.6807 -0.1131
 1690SOL    HW116532   2.562   0.672   2.835 -1.5816 -0.0793 -0.1463
 1690SOL    HW216533   2.460   0.638   2.727 -1.4039 -0.4186  0.4541
 1691SOL     OW16534   2.474   2.267   4.615  0.8337  0.0131 -0.4633
 1691SOL    HW116535   2.451   2.237   4.703 -0.4022 -0.1275 -0.8344
 1691SOL    HW216536   2.552   2.217   4.594  1.1506  1.0279 -1.7192
 1692SOL     OW16537   0.046   1.167   2.989  0.7528  0.1398 -0.2135
 1692SOL    HW116538   0.007   1.082   2.970 -0.1302  0.3483  0.6673
 1692SOL    HW216539   0.015   1.211   2.910 -0.7746 -2.4116 -1.0392
 1693SOL     OW16540   4.276   0.203   4.189  0.1618  0.5550 -0.2438
 1693SOL    HW116541   4.231   0.139   4.244 -0.3314 -0.1132 -1.4174
 1693SOL    HW216542   4.304   0.143   4.120  0.9356  1.1507 -0.4549
 1694SOL     OW16543   4.666   4.336   7.263 -0.1730 -0.2913  0.5197
 1694SOL    HW116544   4.708   4.258   7.227 -0.3804 -1.1921  2.2566
 1694SOL    HW216545   4.571   4.326   7.259 -0.6706  3.9809  1.5997
 1695SOL     OW16546   2.972   2.777  12.727 -0.8518  0.0815  0.1725
 1695SOL    HW116547   2.913   2.749  12.657  0.9632  0.9497 -1.7068
 1695SOL    HW216548   3.055   2.729  12.718 -1.2532 -0.8972  1.8630
 1696SOL     OW16549   2.718   1.305   9.104 -0.1622  0.1286 -0.0753
 1696SOL    HW116550   2.767   1.352   9.037 -0.5448 -0.2856 -0.6504
 1696SOL    HW216551   2.747   1.213   9.108 -0.2244  0.1122 -0.0015
 1697SOL     OW16552   0.693   3.849  15.076  0.4629  0.2585 -0.0795
 1697SOL    HW116553   0.779   3.870  15.041  1.5671 -0.2413  2.3310
 1697SOL    HW216554   0.645   3.932  15.083 -0.0129 -0.2129  2.2312
 1698SOL     OW16555   2.895   0.935   9.619  0.8026  0.3060 -0.2675
 1698SOL    HW116556   2.871   0.932   9.526 -2.8581  2.8211  0.5950
 1698SOL    HW216557   2.928   0.848   9.637  0.7043  0.4253  0.4930
 1699SOL     OW16558   2.512   4.166  11.841  0.4250 -0.2111  0.3023
 1699SOL    HW116559   2.541   4.103  11.906 -1.7501 -1.5302 -0.0176
 1699SOL    HW216560   2.426   4.128  11.823  0.8087 -1.6035  1.4693
 1700SOL     OW16561   1.729   2.527   4.127  0.6680 -0.1007 -0.4648
 1700SOL    HW116562   1.709   2.440   4.094 -1.9172 -0.0007  0.8757
 1700SOL    HW216563   1.719   2.581   4.048 -0.7187 -1.4189 -1.1914
 1701SOL     OW16564   2.986   1.276  14.160 -0.3051  0.2291  0.0614
 1701SOL    HW116565   3.063   1.225  14.186 -1.3364 -0.4356  1.8596
 1701SOL    HW216566   2.987   1.348  14.224  2.0061 -0.2557  0.6035
 1702SOL     OW16567   1.666   2.143   7.091 -0.2570  0.0096 -0.6754
 1702SOL    HW116568   1.638   2.235   7.095  0.6626  0.3175 -1.2477
 1702SOL    HW216569   1.750   2.152   7.046 -0.7633 -1.6416 -1.9613
 1703SOL     OW16570   2.544   3.125   0.991  0.5693  0.1978 -0.2948
 1703SOL    HW116571   2.598   3.102   1.067 -0.2491 -0.3202  0.1345
 1703SOL    HW216572   2.600   3.105   0.916 -0.6028  1.2726 -1.4527
 1704SOL     OW16573   1.263   3.708   7.345 -0.4214 -0.5599 -0.6674
 1704SOL    HW116574   1.342   3.690   7.294 -0.1806  1.3286 -0.9333
 1704SOL    HW216575   1.229   3.779   7.292  0.2840 -0.4027 -0.9031
 1705SOL     OW16576   3.395   0.092   2.200 -0.0371  0.0058  0.1848
 1705SOL    HW116577   3.438   0.131   2.276 -1.3738 -1.5387  1.7301
 1705SOL    HW216578   3.436   0.006   2.194 -0.2396 -0.0532 -0.3470
 1706SOL     OW16579   4.206   3.881   7.508  0.0418  0.0755  0.0512
 1706SOL    HW116580   4.152   3.809   7.541 -0.3284  0.4193  0.1988
 1706SOL    HW216581   4.144   3.933   7.457 -0.0789  1.4104  1.5585
 1707SOL     OW16582   3.201   3.390   2.296 -0.1380  0.0540 -0.4816
 1707SOL    HW116583   3.294   3.374   2.279  0.0254 -1.2094  1.5295
 1707SOL    HW216584   3.178   3.336   2.371  1.0243  0.4043  0.1337
 1708SOL     OW16585   4.471   3.504   9.329  0.0191 -0.1897  0.2955
 1708SOL    HW116586   4.459   3.414   9.358 -0.9297 -0.4281 -0.8722
 1708SOL    HW216587   4.505   3.484   9.242  0.8019 -0.2332  0.6082
 1709SOL     OW16588   2.720   0.776   3.764 -0.7431  0.7902  0.2552
 1709SOL    HW116589   2.738   0.724   3.686 -0.5906 -0.9057  1.4247
 1709SOL    HW216590   2.722   0.862   3.722  2.4050  0.0402 -1.1215
 1710SOL     OW16591   4.346   1.389   7.090  0.3087  0.5441 -0.2898
 1710SOL    HW116592   4.432   1.430   7.079  0.6332 -0.2332 -0.7065
 1710SOL    HW216593   4.345   1.367   7.183  3.6921  0.0408 -0.3819
 1711SOL     OW16594   4.426   4.056  11.849  0.4585 -0.2419  0.1009
 1711SOL    HW116595   4.358   4.095  11.793  0.9681 -0.4262 -0.6351
 1711SOL    HW216596   4.500   4.115  11.838 -0.8875  1.6063  0.9184
 1712SOL     OW16597   0.169   1.709   5.679  0.4206  0.0886  0.5241
 1712SOL    HW116598   0.213   1.747   5.755  2.4338  0.0631 -0.6273
 1712SOL    HW216599   0.083   1.696   5.719  0.1487 -0.9478 -0.3742
 1713SOL     OW16600   2.141   1.158  10.256 -0.3139  0.8181 -0.5657
 1713SOL    HW116601   2.231   1.173  10.227  1.1228 -1.3918  2.6614
 1713SOL    HW216602   2.112   1.247  10.275 -0.3626  0.8444 -0.7650
 1714SOL     OW16603   2.148   2.222   4.700  0.1075 -0.1359 -0.0648
 1714SOL    HW116604   2.099   2.292   4.657  0.7748  0.6571  0.4544
 1714SOL    HW216605   2.101   2.149   4.660  0.9356 -0.7200  0.0268
 1715SOL     OW16606   3.957   3.075   6.940  0.4250  0.2984  0.3141
 1715SOL    HW116607   3.997   3.130   7.008  0.4847  1.5912 -0.7764
 1715SOL    HW216608   4.037   3.042   6.899  1.4407 -0.4683  2.9054
 1716SOL     OW16609   0.073   1.216   6.526 -0.2656  0.1571  0.1642
 1716SOL    HW116610   4.714   1.262   6.513  0.6897  2.1687  1.1943
 1716SOL    HW216611   0.065   1.211   6.622  1.6203 -1.4176  0.2503
 1717SOL     OW16612   3.234   2.344   7.613 -0.0078  0.1583  0.0597
 1717SOL    HW116613   3.325   2.365   7.637  0.2204 -0.7435 -0.0361
 1717SOL    HW216614   3.215   2.391   7.532 -2.4449  2.3759  1.8926
 1718SOL     OW16615   4.593   2.754  15.433 -0.0986  0.1324  0.4994
 1718SOL    HW116616   4.502   2.731  15.452 -0.2664  0.1952 -0.2360
 1718SOL    HW216617   4.596   2.719  15.344  0.7295 -3.8045  2.1187
 1719SOL     OW16618   0.434   4.278   2.089 -0.1909  0.6303 -0.4459
 1719SOL    HW116619   0.497   4.345   2.115 -0.2192  0.0974  0.9861
 1719SOL    HW216620   0.492   4.205   2.068  0.3656  0.8171  0.4423
 1720SOL     OW16621   0.112   3.504   8.366 -0.4744  0.5569  0.2354
 1720SOL    HW116622   0.152   3.579   8.410  1.0109 -0.3916  0.5064
 1720SOL    HW216623   0.133   3.532   8.277  2.0010  0.3707  0.7735
 1721SOL     OW16624   4.321   0.613   4.772  0.0188 -0.2558  0.2725
 1721SOL    HW116625   4.391   0.560   4.734  1.7670  1.5616  0.9418
 1721SOL    HW216626   4.290   0.658   4.693 -0.0343 -1.5874 -0.4602
 1722SOL     OW16627   1.047   1.186   8.541  0.3263 -0.1397 -0.4828
 1722SOL    HW116628   1.068   1.110   8.596  1.2006  0.1854 -0.3674
 1722SOL    HW216629   0.988   1.150   8.475  0.1086 -0.5992 -0.0365
 1723SOL     OW16630   4.416   3.051   3.350  0.6699  0.1673  0.1866
 1723SOL    HW116631   4.376   3.001   3.421  3.1920  0.9992  2.1790
 1723SOL    HW216632   4.507   3.061   3.377  0.3232  3.2883  0.2283
 1724SOL     OW16633   3.121   3.505  10.124  0.2288 -0.2703  0.7631
 1724SOL    HW116634   3.110   3.536  10.214  2.0081  0.7330  0.6196
 1724SOL    HW216635   3.167   3.422  10.140 -1.0995 -1.0108  0.7623
 1725SOL     OW16636   2.065   2.903   8.755 -0.3324 -0.7778 -0.1968
 1725SOL    HW116637   2.105   2.862   8.679  0.6968  0.6047 -0.4016
 1725SOL    HW216638   2.094   2.839   8.820  1.4521 -0.1722 -0.3806
 1726SOL     OW16639   4.516   2.111   5.173 -0.0017 -0.1252  0.0208
 1726SOL    HW116640   4.611   2.099   5.184  0.1691  0.8719 -0.4103
 1726SOL    HW216641   4.490   2.141   5.260 -1.9367  1.1535 -0.9943
 1727SOL     OW16642   2.993   1.632   3.980  0.0081  0.3028 -0.0215
 1727SOL    HW116643   3.001   1.561   3.916 -0.8828 -1.7122  2.1339
 1727SOL    HW216644   3.069   1.609   4.034 -0.1473  2.0103  0.9278
 1728SOL     OW16645   2.569   3.690   7.726  0.0666 -0.6325 -0.5541
 1728SOL    HW116646   2.652   3.661   7.763 -1.1395 -0.3538  2.3924
 1728SOL    HW216647   2.526   3.611   7.696 -0.7807 -0.1045 -0.7262
 1729SOL     OW16648   1.092   4.701   6.944  0.8403 -0.1790 -0.1124
 1729SOL    HW116649   1.108   0.023   7.027  0.7618 -1.6749  0.7165
 1729SOL    HW216650   1.147   4.623   6.951  0.9334 -0.1465 -0.4571
 1730SOL     OW16651   3.352   2.892   6.484  0.3033  0.0201  0.9231
 1730SOL    HW116652   3.290   2.881   6.556 -0.1705 -0.2431  0.4718
 1730SOL    HW216653   3.391   2.979   6.495  1.0408 -0.1788 -0.1861
 1731SOL     OW16654   3.349   1.842   3.711 -0.3368 -0.2245 -0.1322
 1731SOL    HW116655   3.342   1.746   3.713 -0.0579 -0.2664 -0.8775
 1731SOL    HW216656   3.273   1.866   3.764 -0.6386  0.2407 -0.7655
 1732SOL     OW16657   3.743   1.611   8.768 -0.1779 -0.3504  0.0046
 1732SOL    HW116658   3.738   1.682   8.832 -2.2839 -1.8754  1.5257
 1732SOL    HW216659   3.815   1.646   8.715  0.4628 -0.7113  0.6278
 1733SOL     OW16660   3.270   0.959  17.377  0.5344 -0.4963  0.2258
 1733SOL    HW116661   3.331   0.888  17.360 -0.3625 -0.8528 -1.4978
 1733SOL    HW216662   3.219   0.960  17.295 -0.2060  3.8624  0.7072
 1734SOL     OW16663   3.048   2.886  12.407  0.4753  0.1620  0.4260
 1734SOL    HW116664   2.973   2.840  12.446 -0.8696 -1.4265 -3.9670
 1734SOL    HW216665   3.040   2.964  12.461  0.4358 -0.6721  1.6229
 1735SOL     OW16666   1.325   0.202  16.026  0.1872  0.2680 -0.0405
 1735SOL    HW116667   1.392   0.248  15.975  1.8645 -0.5222  1.4436
 1735SOL    HW216668   1.333   0.256  16.105  1.7335 -0.1695  0.1030
 1736SOL     OW16669   1.963   1.798  13.604  0.2498 -0.2463 -0.4508
 1736SOL    HW116670   2.032   1.858  13.573  1.2327 -0.7591  0.7476
 1736SOL    HW216671   1.885   1.839  13.567  0.4324 -1.5783 -2.3343
 1737SOL     OW16672   4.064   0.309   4.769 -0.2754  0.0546  0.5197
 1737SOL    HW116673   3.978   0.267   4.774 -0.2200 -0.2573 -1.1082
 1737SOL    HW216674   4.102   0.244   4.828  1.9898 -0.4557 -1.4906
 1738SOL     OW16675   2.578   0.275   3.006  0.8209 -0.0875 -0.4397
 1738SOL    HW116676   2.670   0.287   2.980  0.5179  0.6037 -1.1984
 1738SOL    HW216677   2.537   0.361   2.995 -0.7264 -0.9405 -1.2624
 1739SOL     OW16678   1.702   3.473   3.123  0.1801  0.0941 -0.0575
 1739SOL    HW116679   1.624   3.486   3.177  0.2887  0.0424  0.1102
 1739SOL    HW216680   1.701   3.556   3.075  1.5501  0.3994  0.4726
 1740SOL     OW16681   3.730   3.216   4.365  0.2972 -0.5467  0.0454
 1740SOL    HW116682   3.664   3.266   4.317 -0.1381 -1.1308  0.0422
 1740SOL    HW216683   3.682   3.134   4.357 -0.4828 -0.1482  0.7001
 1741SOL     OW16684   3.596   4.484  16.249  0.3812  0.3000  0.5050
 1741SOL    HW116685   3.544   4.564  16.245 -1.4313 -0.9558 -0.8173
 1741SOL    HW216686   3.529   4.416  16.235  0.3270  0.1842  1.3310
 1742SOL     OW16687   3.419   3.533   0.343  0.2670  0.3279  0.0754
 1742SOL    HW116688   3.418   3.544   0.248 -1.3366  1.1730  0.1996
 1742SOL    HW216689   3.409   3.625   0.365  0.1587 -0.0347  1.5523
 1743SOL     OW16690   1.690   0.196   6.848 -0.4995  0.1632 -0.0085
 1743SOL    HW116691   1.611   0.243   6.822  0.0933  1.7257  1.0362
 1743SOL    HW216692   1.754   0.251   6.802 -1.5630 -1.1028 -2.9988
 1744SOL     OW16693   1.810   2.659  15.828  0.4596 -0.3460  0.4407
 1744SOL    HW116694   1.865   2.596  15.874 -0.6522 -0.8038  1.1157
 1744SOL    HW216695   1.728   2.625  15.863 -0.6531  1.3646 -0.4985
 1745SOL     OW16696   1.945   0.440   6.147  0.0777  0.3661 -0.2569
 1745SOL    HW116697   1.939   0.350   6.112 -1.1327 -1.0301  3.6313
 1745SOL    HW216698   1.922   0.498   6.074 -1.0591  0.1152 -0.0945
 1746SOL     OW16699   2.771   1.043  14.991 -0.5241  0.0267 -0.2415
 1746SOL    HW116700   2.789   1.030  15.084  0.2471  0.9447 -0.2731
 1746SOL    HW216701   2.825   1.121  14.992  0.9201 -0.9924  0.5257
 1747SOL     OW16702   3.729   1.526   7.224  0.0237 -0.2286 -0.4551
 1747SOL    HW116703   3.736   1.521   7.319  0.5501  2.2687 -0.3598
 1747SOL    HW216704   3.770   1.610   7.204  0.9273 -0.3105  0.9988
 1748SOL     OW16705   0.721   4.452   7.663  0.4092  0.1006 -0.7468
 1748SOL    HW116706   0.643   4.420   7.619 -1.1587  0.0011  2.1343
 1748SOL    HW216707   0.770   4.373   7.642  0.6820 -0.4466  1.8887
 1749SOL     OW16708   0.834   2.642   7.435 -0.4383  0.3115 -0.0691
 1749SOL    HW116709   0.854   2.584   7.363  1.9097 -0.2160  1.0306
 1749SOL    HW216710   0.922   2.634   7.471 -1.0852 -1.4468  1.1264
 1750SOL     OW16711   1.907   2.678   3.025  0.6244 -0.8607  0.5444
 1750SOL    HW116712   1.961   2.747   3.063  0.6552 -0.3750 -0.3584
 1750SOL    HW216713   1.851   2.730   2.968  1.3756 -2.2853 -1.5155
 1751SOL     OW16714   4.480   3.591   3.179 -0.2331  0.2625  0.3117
 1751SOL    HW116715   4.497   3.531   3.106  0.1962 -0.0668  0.6848
 1751SOL    HW216716   4.523   3.668   3.143  0.9412 -0.4140  0.2691
 1752SOL     OW16717   4.507   3.604   8.988 -0.1404 -0.1223 -0.5821
 1752SOL    HW116718   4.528   3.517   9.022  1.1610 -0.1130 -1.3988
 1752SOL    HW216719   4.435   3.569   8.934 -1.5393  4.3568 -1.6129
 1753SOL     OW16720   2.709   1.614   1.775 -0.3358  0.0395 -0.2648
 1753SOL    HW116721   2.755   1.695   1.793  1.3517 -0.9536 -0.1482
 1753SOL    HW216722   2.672   1.577   1.855 -3.6370  2.4952 -0.6767
 1754SOL     OW16723   4.316   2.262  13.534  0.0210  0.6803  0.2874
 1754SOL    HW116724   4.228   2.247  13.498 -0.4187  2.3438  0.6437
 1754SOL    HW216725   4.366   2.195  13.488  0.1416  0.9211  0.0675
 1755SOL     OW16726   0.846   3.491   7.801 -0.7024  0.4861 -0.2574
 1755SOL    HW116727   0.920   3.458   7.751 -1.0640 -0.4158 -0.1981
 1755SOL    HW216728   0.801   3.409   7.822  0.6956 -0.2475 -0.1315
 1756SOL     OW16729   0.874   4.013   6.328  0.5364  0.4867 -0.3622
 1756SOL    HW116730   0.814   4.088   6.322  0.3942  0.2827 -1.4633
 1756SOL    HW216731   0.813   3.939   6.322  1.1877 -0.0794 -0.0021
 1757SOL     OW16732   0.915   3.962   1.643 -0.5054 -0.0609 -0.8871
 1757SOL    HW116733   0.846   3.946   1.707  2.0413 -2.8528  1.1505
 1757SOL    HW216734   0.938   4.054   1.658  0.7927 -0.7830  1.4256
 1758SOL     OW16735   1.887   0.939  11.095  0.0998 -0.3970 -0.5666
 1758SOL    HW116736   1.974   0.953  11.135 -0.1406  2.5985 -1.0444
 1758SOL    HW216737   1.824   0.954  11.165  0.3677 -1.5195 -0.0951
 1759SOL     OW16738   1.979   4.718   0.249  0.5446 -0.1012 -0.0652
 1759SOL    HW116739   2.041   4.645   0.252  0.6612 -0.0655 -1.5729
 1759SOL    HW216740   1.954   4.709   0.156  1.7614  2.2989 -0.5991
 1760SOL     OW16741   3.436   0.267   4.637  0.0899 -0.2258 -0.5401
 1760SOL    HW116742   3.414   0.176   4.656  1.2479 -0.5074 -0.5595
 1760SOL    HW216743   3.451   0.266   4.543 -1.4668 -2.2528 -0.7649
 1761SOL     OW16744   4.362   1.815   5.844  0.0132  0.1833 -0.1088
 1761SOL    HW116745   4.315   1.838   5.925  0.7137  2.1642 -0.2724
 1761SOL    HW216746   4.386   1.723   5.855 -0.1473 -0.1005 -2.1774
 1762SOL     OW16747   2.139   0.647  11.891 -0.2286 -0.0482 -0.4315
 1762SOL    HW116748   2.091   0.585  11.947  1.7074 -0.5387  0.6985
 1762SOL    HW216749   2.163   0.708  11.961 -0.3760  0.2108 -0.6080
 1763SOL     OW16750   4.538   3.688  11.573 -0.3165  0.5755 -0.3925
 1763SOL    HW116751   4.511   3.645  11.654  0.3654  0.7368 -0.0780
 1763SOL    HW216752   4.628   3.718  11.588 -0.1886  0.3135 -0.6347
 1764SOL     OW16753   0.028   2.635   7.679  0.0356  0.0209  0.6053
 1764SOL    HW116754   0.067   2.622   7.592 -1.3918  1.6516 -0.2933
 1764SOL    HW216755   4.722   2.556   7.726 -0.1099  0.9721  2.0948
 1765SOL     OW16756   0.756   4.264   6.317  0.1678  0.1613 -0.6772
 1765SOL    HW116757   0.806   4.344   6.331 -0.6509  0.5660 -0.1013
 1765SOL    HW216758   0.699   4.269   6.394  1.9986  1.4672  0.5998
 1766SOL     OW16759   4.039   0.708   9.947 -0.3466  0.6625  0.1262
 1766SOL    HW116760   3.965   0.762   9.919 -2.2579 -0.8617  2.2580
 1766SOL    HW216761   4.106   0.719   9.879 -2.3260  1.7552 -1.6752
 1767SOL     OW16762   0.875   3.570   6.299  0.2571  0.0653 -0.2029
 1767SOL    HW116763   0.805   3.547   6.238 -0.2279  0.1378  0.3293
 1767SOL    HW216764   0.866   3.665   6.291  2.7246  0.1575 -2.0025
 1768SOL     OW16765   4.600   2.228   8.213  0.4298  0.1748  0.7532
 1768SOL    HW116766   4.681   2.258   8.172 -1.4120  0.6671 -2.5363
 1768SOL    HW216767   4.633   2.157   8.269 -0.1923 -1.5184 -1.0492
 1769SOL     OW16768   2.811   4.359   7.857 -0.0012  0.1007 -0.0721
 1769SOL    HW116769   2.888   4.387   7.906  1.6589 -0.5444 -2.3382
 1769SOL    HW216770   2.749   4.373   7.929  0.6991 -2.6291  1.0794
 1770SOL     OW16771   2.817   4.060   6.098 -0.1892 -0.1265  0.1020
 1770SOL    HW116772   2.788   3.974   6.069  0.4442 -0.9602  1.9728
 1770SOL    HW216773   2.737   4.104   6.128  1.7734  2.7683  1.1085
 1771SOL     OW16774   0.231   1.166   8.142  0.0720  0.1990 -0.1038
 1771SOL    HW116775   0.140   1.143   8.126  0.3975 -0.9612 -0.3075
 1771SOL    HW216776   0.277   1.182   8.059 -0.2916  2.9573  0.2237
 1772SOL     OW16777   0.388   4.155   4.574 -0.5317  0.5748  0.0398
 1772SOL    HW116778   0.451   4.227   4.580 -0.8693  0.8789 -0.0433
 1772SOL    HW216779   0.385   4.141   4.479  1.3888  0.3717  0.0140
 1773SOL     OW16780   4.398   4.282   7.256 -0.3156 -0.0168  0.4745
 1773SOL    HW116781   4.322   4.338   7.244  0.7287  1.3127  0.1193
 1773SOL    HW216782   4.359   4.194   7.251  0.6740 -0.3701 -0.9078
 1774SOL     OW16783   4.146   4.637   4.832 -0.8097  0.6154  0.4008
 1774SOL    HW116784   4.214   4.663   4.895 -1.1794  1.3836  0.4849
 1774SOL    HW216785   4.083   4.703   4.860  1.6901  3.1780 -0.1008
 1775SOL     OW16786   3.304   0.748   5.646 -0.3387  0.2148 -0.1440
 1775SOL    HW116787   3.271   0.771   5.733 -1.6042  0.4069 -0.6701
 1775SOL    HW216788   3.359   0.671   5.660  1.0267  1.0584 -0.8636
 1776SOL     OW16789   4.246   3.192   6.062 -0.5728  0.4632  0.1873
 1776SOL    HW116790   4.253   3.267   6.003  1.6261 -0.5418 -0.8207
 1776SOL    HW216791   4.338   3.166   6.061 -1.0746 -1.3142 -0.2780
 1777SOL     OW16792   0.345   4.230  11.297  0.3164  0.3546 -0.0475
 1777SOL    HW116793   0.280   4.193  11.236  1.0816  0.0379 -0.6642
 1777SOL    HW216794   0.289   4.281  11.356 -0.3826 -0.5026  0.0247
 1778SOL     OW16795   0.159   0.369  12.461  0.2125  0.1608  0.5786
 1778SOL    HW116796   0.215   0.394  12.387 -0.5916 -1.4801 -0.5752
 1778SOL    HW216797   0.082   0.339  12.414  1.7585 -1.8362 -0.6829
 1779SOL     OW16798   3.471   1.351  17.632  0.8465 -0.9118  0.4292
 1779SOL    HW116799   3.491   1.259  17.651  0.1706 -1.1678 -0.1107
 1779SOL    HW216800   3.449   1.343  17.540 -0.8576 -1.2346  0.8741
 1780SOL     OW16801   2.334   3.518  12.113  0.0847 -1.0552 -0.0473
 1780SOL    HW116802   2.417   3.473  12.099  1.4887  1.8658 -1.2598
 1780SOL    HW216803   2.274   3.470  12.056 -0.4260  0.8936 -1.1513
 1781SOL     OW16804   0.638   1.281   3.434 -0.2113 -0.4436  0.5806
 1781SOL    HW116805   0.576   1.210   3.415  0.7529 -1.1352 -0.0268
 1781SOL    HW216806   0.710   1.255   3.375  0.4165  2.4932  0.0735
 1782SOL     OW16807   0.006   0.385   6.003 -0.0051  0.0500 -0.6318
 1782SOL    HW116808   0.070   0.314   5.990  1.6555  1.6571 -1.2494
 1782SOL    HW216809   4.660   0.340   6.050  0.9367  1.9294  2.5414
 1783SOL     OW16810   2.958   2.352   8.340  0.0678  0.6786  0.5241
 1783SOL    HW116811   2.968   2.429   8.395  1.3497  1.0010 -0.1527
 1783SOL    HW216812   2.869   2.365   8.307  0.5975  1.6434 -0.5438
 1784SOL     OW16813   2.416   1.575   2.377 -0.3683 -0.4483 -0.1633
 1784SOL    HW116814   2.490   1.529   2.337 -1.0005  1.6625 -3.8382
 1784SOL    HW216815   2.450   1.602   2.462  0.0626 -1.2192 -0.0925
 1785SOL     OW16816   2.680   2.642   5.872 -0.2810 -0.5429 -0.5663
 1785SOL    HW116817   2.727   2.567   5.837  0.2977 -0.0228 -0.8969
 1785SOL    HW216818   2.726   2.645   5.956  0.4864  0.5476 -1.0230
 1786SOL     OW16819   4.106   3.623  11.989  0.0804 -0.5368  0.0519
 1786SOL    HW116820   4.148   3.707  12.004  1.9090 -1.4923  0.3193
 1786SOL    HW216821   4.016   3.654  11.988  0.1457 -0.2992  1.3046
 1787SOL     OW16822   1.514   0.050   7.088 -0.2755 -0.1378 -0.1211
 1787SOL    HW116823   1.530   4.707   7.021 -1.0573  1.0135 -1.4529
 1787SOL    HW216824   1.449   0.014   7.147 -1.4487  0.6873 -0.8907
 1788SOL     OW16825   3.340   0.814   5.908  0.0105  0.4786  0.3807
 1788SOL    HW116826   3.272   0.845   5.969 -1.0320 -0.3309 -0.3556
 1788SOL    HW216827   3.372   0.899   5.880 -0.2735  0.9630  1.5371
 1789SOL     OW16828   0.185   2.961   6.358 -0.1171 -0.1516 -0.5524
 1789SOL    HW116829   0.165   2.877   6.400 -0.3794  1.2768  2.1669
 1789SOL    HW216830   0.271   2.944   6.318  0.2146  0.7636 -0.2126
 1790SOL     OW16831   1.070   0.662   3.931  0.1836  0.3912  0.7062
 1790SOL    HW116832   1.122   0.708   3.865  0.4875  1.7212  1.8630
 1790SOL    HW216833   0.994   0.721   3.935  0.3721  0.5754  1.5208
 1791SOL     OW16834   2.944   2.208  13.141  0.0830  0.6075  0.3010
 1791SOL    HW116835   2.972   2.280  13.085  2.6494  0.3458  1.2695
 1791SOL    HW216836   2.853   2.198  13.112  0.7219 -2.3583 -0.6817
 1792SOL     OW16837   0.030   0.563   3.711  0.4272  0.2356 -0.8393
 1792SOL    HW116838   0.008   0.629   3.776  1.7810  0.0890 -0.2195
 1792SOL    HW216839   4.702   0.582   3.633  1.1790  3.1105 -0.6391
 1793SOL     OW16840   1.020   0.884  14.262  0.3528  0.4148 -0.0703
 1793SOL    HW116841   1.044   0.934  14.341  0.2488 -0.3342  0.4358
 1793SOL    HW216842   1.013   0.960  14.203  0.6224 -0.1647 -0.8466
 1794SOL     OW16843   0.238   2.681   9.635  0.0951 -0.5438 -0.0142
 1794SOL    HW116844   0.163   2.686   9.694  1.6047  1.2572  1.7566
 1794SOL    HW216845   0.241   2.775   9.616  0.0067 -0.5281  0.0480
 1795SOL     OW16846   3.219   2.431  12.960 -0.3003  0.1764 -0.0179
 1795SOL    HW116847   3.267   2.456  13.039  0.6842  0.9842 -0.8622
 1795SOL    HW216848   3.291   2.410  12.899  0.6341  1.5522  0.6040
 1796SOL     OW16849   3.562   3.406   7.087  0.4666 -0.2271  0.5400
 1796SOL    HW116850   3.625   3.408   7.159  1.8867  0.3521 -0.7268
 1796SOL    HW216851   3.617   3.419   7.010  0.2655  0.6776  0.5524
 1797SOL     OW16852   3.314   3.790   4.490  0.3489 -0.3233 -0.1404
 1797SOL    HW116853   3.392   3.764   4.441  0.9102 -0.8927  1.0358
 1797SOL    HW216854   3.346   3.825   4.574  1.1343  0.7259 -0.8857
 1798SOL     OW16855   1.376   1.227   2.063  0.9267 -0.1472  0.3768
 1798SOL    HW116856   1.305   1.277   2.023  0.0569 -0.6725  1.2685
 1798SOL    HW216857   1.342   1.140   2.084 -2.1202  0.6904 -1.1598
 1799SOL     OW16858   3.955   1.788   8.149  0.2670 -0.6498  0.1234
 1799SOL    HW116859   3.881   1.734   8.176  0.3614 -0.5999  0.4853
 1799SOL    HW216860   3.998   1.786   8.234  0.0106  1.1317  0.2994
 1800SOL     OW16861   3.319   3.435   5.467  0.0620 -0.4444 -0.0144
 1800SOL    HW116862   3.308   3.459   5.560  1.1746 -0.4945  0.1270
 1800SOL    HW216863   3.228   3.456   5.448  0.6770  0.5318 -1.8499
 1801SOL     OW16864   3.610   3.144  15.478  0.2906 -0.5030  0.0584
 1801SOL    HW116865   3.541   3.183  15.424  0.9030  1.4554  0.6989
 1801SOL    HW216866   3.554   3.077  15.517 -0.7987  0.6655  0.4722
 1802SOL     OW16867   3.907   3.271  10.028 -0.9726 -0.4667 -0.0000
 1802SOL    HW116868   3.854   3.276   9.948  2.0879 -1.0810 -2.0804
 1802SOL    HW216869   3.852   3.209  10.077 -2.0029 -0.5692 -1.2645
 1803SOL     OW16870   0.821   0.027   4.512  0.2831 -0.0565  0.1418
 1803SOL    HW116871   0.865   4.717   4.434  3.4494 -0.3569  2.0587
 1803SOL    HW216872   0.793   4.668   4.551 -0.7317 -0.9134 -2.4251
 1804SOL     OW16873   2.563   3.148   8.534 -0.0931  0.2213 -0.5170
 1804SOL    HW116874   2.482   3.157   8.583 -0.5276  1.7504 -1.4844
 1804SOL    HW216875   2.614   3.124   8.611 -2.1652 -1.9189  0.1560
 1805SOL     OW16876   2.833   1.091   1.447 -0.0217  0.9061 -0.0715
 1805SOL    HW116877   2.854   0.999   1.431  1.3643  1.4215 -1.1128
 1805SOL    HW216878   2.902   1.134   1.398  0.6982  0.2193  0.3414
 1806SOL     OW16879   2.584   0.603   4.952  0.6695  0.2063 -0.4598
 1806SOL    HW116880   2.594   0.518   4.909  0.1102  0.3336 -0.8366
 1806SOL    HW216881   2.674   0.607   4.986  0.6370  1.4221 -0.5092
 1807SOL     OW16882   4.322   2.672   8.884  0.3623  0.1398 -0.0249
 1807SOL    HW116883   4.409   2.659   8.922 -0.6869  0.9675  2.6427
 1807SOL    HW216884   4.326   2.601   8.820 -2.0428  0.5251 -0.6087
 1808SOL     OW16885   4.601   1.944  11.099 -0.1410  0.0425 -0.0620
 1808SOL    HW116886   4.640   2.021  11.057 -3.0575  1.9411  0.6372
 1808SOL    HW216887   4.510   1.952  11.069 -0.6766 -0.2449  1.4763
 1809SOL     OW16888   2.680   1.170   6.739 -0.2526  0.6106  0.3327
 1809SOL    HW116889   2.649   1.235   6.803 -0.2282 -0.3246  1.2979
 1809SOL    HW216890   2.649   1.204   6.655 -0.5835 -1.9932 -0.5922
 1810SOL     OW16891   3.962   1.553   0.597 -0.1553  0.3167 -0.2917
 1810SOL    HW116892   3.905   1.605   0.654 -2.9659 -2.1319 -0.8368
 1810SOL    HW216893   3.916   1.469   0.589 -1.7227  0.9979  1.6587
 1811SOL     OW16894   1.776   1.926   1.457  0.1766  0.3048 -1.4026
 1811SOL    HW116895   1.818   1.863   1.398  0.0274  0.1511 -1.3427
 1811SOL    HW216896   1.814   1.896   1.539 -0.1657  0.1440 -1.3023
 1812SOL     OW16897   4.180   2.995   6.688 -0.1458 -0.1221 -0.1911
 1812SOL    HW116898   4.172   2.953   6.773 -1.7150  1.2332  0.3466
 1812SOL    HW216899   4.103   2.962   6.642 -1.3313 -0.1760  1.8656
 1813SOL     OW16900   2.323   2.940   7.598 -0.5217 -0.0054 -0.1521
 1813SOL    HW116901   2.334   2.920   7.691  3.1534  3.1273  0.1202
 1813SOL    HW216902   2.252   2.880   7.579  1.1029 -1.0892 -2.7785
 1814SOL     OW16903   3.410   1.414  14.439  0.0944 -0.4155 -0.0359
 1814SOL    HW116904   3.333   1.361  14.423  0.8775 -1.4412 -0.4194
 1814SOL    HW216905   3.472   1.357  14.485  1.4030  0.3249 -0.8649
 1815SOL     OW16906   2.636   0.097   0.446 -0.6061  0.7611 -0.1944
 1815SOL    HW116907   2.622   0.182   0.486 -0.3162  1.2458 -1.1041
 1815SOL    HW216908   2.681   0.122   0.365  1.1022 -0.0093  0.5106
 1816SOL     OW16909   2.889   2.873  10.152  0.0137  1.0207  0.3465
 1816SOL    HW116910   2.868   2.964  10.171 -0.4663  0.6850  1.4233
 1816SOL    HW216911   2.951   2.884  10.080 -1.7527  2.7536 -0.8984
 1817SOL     OW16912   3.100   1.964   3.459 -0.0111 -0.0851 -0.1743
 1817SOL    HW116913   3.186   1.975   3.418  0.1883  0.2733  0.3399
 1817SOL    HW216914   3.067   2.050   3.433 -1.1302 -1.1137 -2.1243
 1818SOL     OW16915   0.128   1.239   1.168  0.2076  0.2350  0.3643
 1818SOL    HW116916   0.205   1.258   1.114 -1.4797  1.7505 -1.5219
 1818SOL    HW216917   0.165   1.173   1.227 -0.4906 -0.9108 -0.4692
 1819SOL     OW16918   4.529   3.667  13.668 -0.3165 -0.0172 -0.0924
 1819SOL    HW116919   4.441   3.643  13.696 -0.7572  1.0744 -0.5255
 1819SOL    HW216920   4.581   3.615  13.730 -0.0266  1.0419  0.5427
 1820SOL     OW16921   2.633   2.342  11.501  0.1710 -0.2012 -0.7682
 1820SOL    HW116922   2.630   2.324  11.595 -2.5812 -1.9503 -1.1907
 1820SOL    HW216923   2.548   2.385  11.491  0.1793 -0.0452 -0.1232
 1821SOL     OW16924   3.444   3.988  15.370 -0.0493  0.3110  0.0295
 1821SOL    HW116925   3.508   3.950  15.310  0.5145 -0.9866  1.4469
 1821SOL    HW216926   3.378   3.918  15.372  0.0117  0.2675  0.8218
 1822SOL     OW16927   2.394   1.019   1.997  0.3383  0.0808 -0.0603
 1822SOL    HW116928   2.348   0.977   1.925 -1.6629  0.0787  1.2367
 1822SOL    HW216929   2.447   1.079   1.945 -0.3727  1.2003  0.5156
 1823SOL     OW16930   1.483   0.373   8.167 -0.0628 -0.0242 -0.0491
 1823SOL    HW116931   1.433   0.417   8.236  0.0634  1.5720 -0.9760
 1823SOL    HW216932   1.513   0.444   8.112 -1.9490  0.7714 -0.0678
 1824SOL     OW16933   3.267   2.098   5.643  0.0926 -0.2199  0.3296
 1824SOL    HW116934   3.342   2.066   5.592  0.7444 -0.4327  1.4204
 1824SOL    HW216935   3.209   2.112   5.568 -0.8328 -0.2756  1.0405
 1825SOL     OW16936   3.132   0.615   2.500  0.0348 -0.1074 -0.3661
 1825SOL    HW116937   3.120   0.550   2.569  3.1337 -0.0792  0.1906
 1825SOL    HW216938   3.122   0.569   2.416 -0.9604  2.8717 -1.8872
 1826SOL     OW16939   1.112   3.763   1.781  0.4914 -0.6878 -0.2647
 1826SOL    HW116940   1.079   3.699   1.718 -1.5107  0.7480 -0.6881
 1826SOL    HW216941   1.064   3.841   1.753 -1.1926 -1.8466 -0.5787
 1827SOL     OW16942   0.534   1.993   2.804  0.0947 -0.3146 -0.1702
 1827SOL    HW116943   0.564   2.082   2.820  0.8999 -0.2986 -1.7756
 1827SOL    HW216944   0.599   1.942   2.852  2.1528  1.5349 -1.0066
 1828SOL     OW16945   0.294   4.341   3.818 -0.8057 -0.3157  0.0912
 1828SOL    HW116946   0.388   4.353   3.834 -0.6247  0.2174 -1.3696
 1828SOL    HW216947   0.271   4.431   3.795 -1.8209 -0.6171 -0.0640
 1829SOL     OW16948   0.040   3.740   6.803  0.1507 -0.0576 -0.5054
 1829SOL    HW116949   0.014   3.731   6.711  0.5535  2.0551 -0.8138
 1829SOL    HW216950   0.133   3.759   6.792  0.3688 -0.5710  0.5190
 1830SOL     OW16951   3.494   0.634  10.095 -0.2670 -0.2188 -0.3275
 1830SOL    HW116952   3.404   0.664  10.111 -1.1748 -1.9195 -2.2416
 1830SOL    HW216953   3.491   0.539  10.112  1.9011 -0.7659 -3.1241
 1831SOL     OW16954   3.106   0.714   0.606 -0.1229  0.1604  0.4182
 1831SOL    HW116955   3.013   0.710   0.583  0.0836 -1.5550 -0.1656
 1831SOL    HW216956   3.125   0.620   0.597  2.9453  1.0373 -1.8428
 1832SOL     OW16957   2.339   0.672  10.051 -0.1197  0.0671  0.3084
 1832SOL    HW116958   2.418   0.679   9.997  1.5748 -0.2918  2.7739
 1832SOL    HW216959   2.363   0.746  10.107  0.6453 -1.5052  2.0606
 1833SOL     OW16960   0.166   4.720   3.107 -0.3122 -0.0648 -0.1130
 1833SOL    HW116961   0.172   0.023   3.199  0.0055  0.2370 -0.2185
 1833SOL    HW216962   0.079   0.027   3.083 -0.1351 -1.7030 -2.8218
 1834SOL     OW16963   0.656   2.071  15.999 -0.3230 -0.1875  0.0102
 1834SOL    HW116964   0.592   2.058  15.929 -1.4513 -0.4781  1.0897
 1834SOL    HW216965   0.636   2.157  16.035  1.2674  0.6716 -1.1291
 1835SOL     OW16966   2.712   2.601  10.485 -0.4558  0.3375 -0.3792
 1835SOL    HW116967   2.680   2.614  10.396  1.3465 -1.1711 -1.2270
 1835SOL    HW216968   2.629   2.579  10.528 -0.0723 -0.2503  0.0575
 1836SOL     OW16969   4.297   2.301  10.365 -0.3557 -0.4291 -0.0008
 1836SOL    HW116970   4.347   2.236  10.316  0.6619 -0.3245  0.9134
 1836SOL    HW216971   4.213   2.254  10.364 -0.2407 -0.7004  3.2536
 1837SOL     OW16972   4.659   3.080   0.995  0.2016  0.0321 -0.0045
 1837SOL    HW116973   4.683   3.057   1.084  0.8862 -0.1959 -0.2522
 1837SOL    HW216974   0.003   3.138   0.961  0.3617 -0.2712 -0.2029
 1838SOL     OW16975   2.493   4.143   9.645  0.2188 -0.2187  0.0429
 1838SOL    HW116976   2.505   4.124   9.738  2.0250  1.8890  0.2631
 1838SOL    HW216977   2.399   4.161   9.639  0.1495 -1.0421 -1.2257
 1839SOL     OW16978   2.209   2.515   0.134 -0.3764 -0.2348  0.2526
 1839SOL    HW116979   2.156   2.549   0.206 -0.1119 -1.5905  1.0874
 1839SOL    HW216980   2.220   2.590   0.075  2.2017 -1.9854 -1.4808
 1840SOL     OW16981   0.268   2.897   2.067  0.7248  0.1215  0.0647
 1840SOL    HW116982   0.205   2.883   1.996 -1.8056  2.9873  1.7404
 1840SOL    HW216983   0.341   2.866   2.013 -0.4488  1.7805 -2.5192
 1841SOL     OW16984   3.573   1.217   3.632 -0.6026  0.0187 -0.0573
 1841SOL    HW116985   3.523   1.137   3.617  1.0526 -1.4593  2.3185
 1841SOL    HW216986   3.561   1.247   3.542  1.5054  0.3679 -0.2148
 1842SOL     OW16987   4.133   0.149   2.766 -0.2897 -0.3380 -0.0326
 1842SOL    HW116988   4.148   0.147   2.671 -0.7105  1.3046 -0.1321
 1842SOL    HW216989   4.219   0.122   2.797  0.6479  2.5120 -0.1637
 1843SOL     OW16990   0.433   2.507   2.842  0.0551 -0.5486 -0.3485
 1843SOL    HW116991   0.398   2.460   2.767  3.2129 -0.8107 -1.6571
 1843SOL    HW216992   0.521   2.468   2.839  0.3090  0.0407 -0.5130
 1844SOL     OW16993   3.657   3.297   7.535 -0.0376 -0.0173  0.1115
 1844SOL    HW116994   3.701   3.340   7.462  0.1165 -0.2289  0.0788
 1844SOL    HW216995   3.631   3.371   7.589 -0.5023  1.2036 -1.8042
 1845SOL     OW16996   2.852   2.180  15.620 -0.2425 -0.4379  0.5236
 1845SOL    HW116997   2.835   2.101  15.671 -0.8999 -0.7964 -0.2423
 1845SOL    HW216998   2.894   2.149  15.540  1.0213 -0.5770  1.2337
 1846SOL     OW16999   4.363   2.367   3.375  0.0083 -0.8503 -0.0738
 1846SOL    HW117000   4.439   2.315   3.402  1.0378 -0.2164 -1.7827
 1846SOL    HW217001   4.324   2.306   3.313  1.4483 -1.1928 -0.6349
 1847SOL     OW17002   0.417   1.578  14.378 -1.0512  0.3641 -0.0977
 1847SOL    HW117003   0.360   1.559  14.453  0.1547  0.0635  0.7429
 1847SOL    HW217004   0.355   1.555  14.309 -2.6683  0.7641  1.2134
 1848SOL     OW17005   0.142   3.693   2.247  0.2682  0.0180 -0.0229
 1848SOL    HW117006   0.164   3.782   2.220  0.9545  0.0605  0.6763
 1848SOL    HW217007   0.066   3.715   2.301  1.8961  2.1648  1.3770
 1849SOL     OW17008   1.638   2.407   2.200 -0.3081  0.6339  0.3099
 1849SOL    HW117009   1.585   2.480   2.167  1.6598  1.2944 -1.3932
 1849SOL    HW217010   1.642   2.440   2.290  3.1893  1.2844 -0.0871
 1850SOL     OW17011   2.706   2.958   9.422  0.5341 -0.0638 -0.7186
 1850SOL    HW117012   2.647   3.026   9.391 -1.0503 -1.1023  0.0432
 1850SOL    HW217013   2.737   2.997   9.505 -0.5823 -2.9820  1.0464
 1851SOL     OW17014   0.970   2.168  11.629  0.1145  0.0594  0.2539
 1851SOL    HW117015   0.916   2.096  11.597 -0.7020  0.8333 -0.1071
 1851SOL    HW217016   1.055   2.153  11.589 -0.0188  2.8100 -1.0887
 1852SOL     OW17017   1.740   1.977   0.778 -0.5051 -0.3283  0.6687
 1852SOL    HW117018   1.773   2.066   0.763 -0.0789 -0.5149  0.4946
 1852SOL    HW217019   1.823   1.934   0.759 -0.9046 -1.2511  1.0660
 1853SOL     OW17020   3.243   3.739   7.257  0.1579 -0.3830  0.0884
 1853SOL    HW117021   3.219   3.797   7.185  1.7674 -0.0554 -0.1773
 1853SOL    HW217022   3.228   3.804   7.327  1.5551 -0.1426  0.1527
 1854SOL     OW17023   3.933   4.609  10.885  0.3472 -0.2392  0.1663
 1854SOL    HW117024   3.883   4.624  10.966 -2.0127  2.3800 -1.7723
 1854SOL    HW217025   4.010   4.563  10.919  0.1226 -2.0919 -1.8963
 1855SOL     OW17026   1.322   2.932   4.101 -0.4634 -0.0319  0.0185
 1855SOL    HW117027   1.250   2.888   4.057 -1.3810  1.1469  0.3578
 1855SOL    HW217028   1.351   2.855   4.152 -2.2090 -0.9664 -0.4156
 1856SOL     OW17029   0.842   2.667  14.274 -0.3912  0.0851  0.6955
 1856SOL    HW117030   0.773   2.727  14.301  1.0998  1.8238  0.6906
 1856SOL    HW217031   0.890   2.647  14.355  0.8987  1.4336  0.2763
 1857SOL     OW17032   4.538   2.735  11.080 -0.9239  0.4323  0.0044
 1857SOL    HW117033   4.481   2.725  11.157  0.3641 -0.0864  0.8910
 1857SOL    HW217034   4.568   2.826  11.089  1.6000 -0.5059  1.0326
 1858SOL     OW17035   0.788   0.498   3.647  0.4254  0.0011  0.1552
 1858SOL    HW117036   0.867   0.450   3.621  0.9171  0.7697  0.2558
 1858SOL    HW217037   0.806   0.591   3.635  2.2563 -0.4033 -0.3420
 1859SOL     OW17038   2.445   2.534   7.303  0.0323  0.7254 -0.1167
 1859SOL    HW117039   2.495   2.587   7.364  0.9737 -3.4014  2.6648
 1859SOL    HW217040   2.393   2.592   7.247  1.6814  1.5502 -0.8077
 1860SOL     OW17041   4.219   3.419   7.798  0.0719 -0.3478 -0.0927
 1860SOL    HW117042   4.236   3.373   7.716  0.5469 -2.2592  1.0740
 1860SOL    HW217043   4.245   3.346   7.854 -2.2550 -0.2240  1.1615
 1861SOL     OW17044   1.708   1.224   8.436  0.6168 -0.4112 -0.0226
 1861SOL    HW117045   1.714   1.312   8.400  1.7921  0.6766  2.8452
 1861SOL    HW217046   1.676   1.236   8.525  3.4522  0.9744  0.7986
 1862SOL     OW17047   2.471   2.458   0.244 -0.2883  0.3229 -0.2681
 1862SOL    HW117048   2.394   2.473   0.190 -1.3449 -1.4592  0.7464
 1862SOL    HW217049   2.547   2.467   0.186  0.3348  0.6288  0.5949
 1863SOL     OW17050   1.907   1.083   2.616 -0.2132 -0.2209  0.4539
 1863SOL    HW117051   1.893   1.174   2.590 -2.0158  0.2752  3.1179
 1863SOL    HW217052   1.817   1.050   2.605 -1.6685  3.5610  1.1764
 1864SOL     OW17053   4.584   2.666   1.224 -0.4271  0.0632 -0.1657
 1864SOL    HW117054   4.528   2.673   1.146 -2.0498  1.4621  1.1440
 1864SOL    HW217055   4.614   2.575   1.222  0.1271  0.2395  0.1598
 1865SOL     OW17056   2.080   1.656   9.078 -0.2614 -0.6222  0.0897
 1865SOL    HW117057   2.156   1.654   9.136 -1.5937 -0.9553  1.8212
 1865SOL    HW217058   2.118   1.614   9.001 -0.1197  2.0253 -1.2746
 1866SOL     OW17059   3.673   4.609   8.070  0.2820  0.2257  0.9018
 1866SOL    HW117060   3.605   4.541   8.062 -1.9650  2.3571  1.7829
 1866SOL    HW217061   3.625   4.691   8.055 -0.7069 -0.3821  0.7443
 1867SOL     OW17062   4.547   2.321   2.502  0.3002 -0.1923 -0.2110
 1867SOL    HW117063   4.526   2.309   2.410  0.8507 -1.0580 -0.2225
 1867SOL    HW217064   4.479   2.261   2.531 -2.6802  3.0522 -0.4481
 1868SOL     OW17065   2.924   2.986   5.044  0.4044  0.2748 -0.0722
 1868SOL    HW117066   2.970   2.936   4.976  1.1348  1.4095 -0.3935
 1868SOL    HW217067   2.846   3.028   5.007 -0.9090  0.0687  2.4776
 1869SOL     OW17068   3.822   0.704   5.483 -0.5219  0.1831  0.4476
 1869SOL    HW117069   3.863   0.662   5.407  1.6668  0.7016  1.3416
 1869SOL    HW217070   3.789   0.784   5.442  0.3713 -0.6832 -1.9964
 1870SOL     OW17071   4.394   2.414   5.134  0.5067 -0.2044 -0.0552
 1870SOL    HW117072   4.321   2.383   5.188  0.6533  1.1135  0.8853
 1870SOL    HW217073   4.420   2.478   5.200 -0.8145  1.1086 -0.8066
 1871SOL     OW17074   1.175   4.469   3.900 -0.5888  0.3952  0.5369
 1871SOL    HW117075   1.133   4.400   3.849  1.1627 -0.2759  0.0065
 1871SOL    HW217076   1.253   4.421   3.926  0.3375  1.6098  0.0196
 1872SOL     OW17077   4.274   4.539  15.587  0.6285 -0.3621  0.9006
 1872SOL    HW117078   4.242   4.625  15.559 -1.1836 -1.0928  0.7386
 1872SOL    HW217079   4.254   4.549  15.680 -1.2454 -0.2384  0.4765
 1873SOL     OW17080   1.162   1.862   3.604 -0.0058 -0.4433  0.1067
 1873SOL    HW117081   1.217   1.896   3.675  0.1068 -0.5315  0.0606
 1873SOL    HW217082   1.098   1.807   3.650 -1.7402  0.5591 -1.0680
 1874SOL     OW17083   3.943   1.689   6.811  0.1481 -0.1026 -0.4487
 1874SOL    HW117084   3.962   1.780   6.831 -2.7815  0.6775 -1.2138
 1874SOL    HW217085   3.851   1.679   6.834  0.5024  3.5085  2.4218
 1875SOL     OW17086   2.771   0.165  17.645 -0.0924 -0.4986  0.6759
 1875SOL    HW117087   2.856   0.151  17.605 -0.8035 -0.6530 -0.7615
 1875SOL    HW217088   2.722   0.090  17.611  0.1442  0.4048 -1.6248
 1876SOL     OW17089   2.507   2.230   8.710 -0.4185 -0.0053  0.4403
 1876SOL    HW117090   2.472   2.214   8.797  1.2083  0.1386  1.1180
 1876SOL    HW217091   2.577   2.168   8.691 -0.1215  0.9508 -1.6457
 1877SOL     OW17092   0.564   0.952   7.578 -0.0194 -0.1750 -0.0719
 1877SOL    HW117093   0.546   0.994   7.494 -2.1866 -2.1972 -0.6286
 1877SOL    HW217094   0.630   0.888   7.551  1.2046  0.0232  2.4328
 1878SOL     OW17095   2.290   4.527   4.186 -0.4640 -0.1320 -0.3477
 1878SOL    HW117096   2.377   4.561   4.166  0.1716 -2.4005 -1.3999
 1878SOL    HW217097   2.295   4.438   4.151  0.3582 -1.2693  2.6830
 1879SOL     OW17098   0.179   3.165   1.733 -0.3243  0.6096  0.0721
 1879SOL    HW117099   0.217   3.139   1.649  3.1845 -1.9293  2.4388
 1879SOL    HW217100   0.097   3.116   1.723 -0.0253 -0.0518  0.8652
 1880SOL     OW17101   3.649   1.191  15.818 -0.0778  0.3361 -0.1294
 1880SOL    HW117102   3.603   1.133  15.879  0.5648 -1.3146 -1.2327
 1880SOL    HW217103   3.572   1.223  15.771  0.5600  2.2584  0.1264
 1881SOL     OW17104   0.486   2.350  10.596  0.4520  0.5097  0.5053
 1881SOL    HW117105   0.555   2.318  10.654  1.1828  0.6267 -0.2839
 1881SOL    HW217106   0.436   2.269  10.587  1.3357 -0.0413  0.5357
 1882SOL     OW17107   3.806   1.006  13.373 -0.1094  0.0353  0.1568
 1882SOL    HW117108   3.832   0.921  13.337  1.6024  0.1007  1.2569
 1882SOL    HW217109   3.742   1.036  13.308 -1.3755 -1.5769  0.6610
 1883SOL     OW17110   1.925   3.136   7.570 -0.0320 -0.2603  0.2272
 1883SOL    HW117111   1.943   3.110   7.661  0.2387 -2.0936 -0.3467
 1883SOL    HW217112   2.015   3.160   7.548 -0.5075  1.2528 -0.0434
 1884SOL     OW17113   3.840   1.168  15.142 -0.1934  0.4599 -0.0504
 1884SOL    HW117114   3.747   1.184  15.157 -0.6188  0.2521 -2.3578
 1884SOL    HW217115   3.855   1.230  15.070  2.0364  1.4457  1.2800
 1885SOL     OW17116   0.386   3.538   5.571  0.1815 -0.0065  0.8215
 1885SOL    HW117117   0.352   3.575   5.652 -2.0007  0.8694 -0.4929
 1885SOL    HW217118   0.356   3.448   5.566 -1.9230  0.7458  0.0585
 1886SOL     OW17119   4.491   3.575  14.217  0.3997  0.0739 -0.2255
 1886SOL    HW117120   4.419   3.636  14.203  2.0201  1.4217 -2.7390
 1886SOL    HW217121   4.531   3.606  14.298  1.5977  2.5037 -1.7323
 1887SOL     OW17122   2.916   1.491   0.159  0.9851 -0.3249 -0.4599
 1887SOL    HW117123   2.928   1.399   0.137  0.7581 -0.2254 -0.9996
 1887SOL    HW217124   2.872   1.524   0.081 -1.6682 -1.5371  0.5141
 1888SOL     OW17125   0.835   0.274   5.871 -0.4227  0.1525 -1.0126
 1888SOL    HW117126   0.821   0.362   5.907 -3.1144 -1.8321  2.7710
 1888SOL    HW217127   0.819   0.214   5.944 -3.7466 -0.3802 -2.1917
 1889SOL     OW17128   2.088   2.311   8.350  0.5197  0.2814 -0.0749
 1889SOL    HW117129   2.071   2.232   8.298 -0.1895 -1.9229  3.4941
 1889SOL    HW217130   2.150   2.275   8.414 -0.8035 -0.9403  0.5260
 1890SOL     OW17131   4.206   4.500   9.067 -0.0611  0.4010  0.2474
 1890SOL    HW117132   4.120   4.537   9.046 -0.6688 -0.8624  0.5101
 1890SOL    HW217133   4.236   4.559   9.136  0.7789 -0.9995  1.0964
 1891SOL     OW17134   1.395   2.572   1.257 -0.0354  0.1998 -0.3199
 1891SOL    HW117135   1.413   2.650   1.309 -0.5775 -0.8867  1.4868
 1891SOL    HW217136   1.416   2.604   1.169  1.8505  0.5041  0.2483
 1892SOL     OW17137   1.391   1.833   0.543  0.2495  0.1487 -0.0920
 1892SOL    HW117138   1.398   1.868   0.454 -1.0504  1.3522  0.2885
 1892SOL    HW217139   1.296   1.822   0.549  0.2006  1.2374  1.0481
 1893SOL     OW17140   0.289   0.952   8.531 -0.4876  0.2766  0.2452
 1893SOL    HW117141   0.239   0.953   8.449 -0.7265  0.6085  0.3925
 1893SOL    HW217142   0.360   1.014   8.516 -0.8283  0.9636  1.4591
 1894SOL     OW17143   1.521   0.642   1.975 -0.6839  0.4391 -0.1009
 1894SOL    HW117144   1.450   0.661   2.036 -0.9667 -1.8493  0.3119
 1894SOL    HW217145   1.490   0.556   1.945 -0.0855  0.8871 -2.0043
 1895SOL     OW17146   0.898   3.038   6.041  0.1388 -0.5242 -0.0299
 1895SOL    HW117147   0.979   3.088   6.037  0.1093 -0.4628  0.1210
 1895SOL    HW217148   0.868   3.055   6.131 -0.4765 -0.8223 -0.1772
 1896SOL     OW17149   4.519   4.302   6.176 -0.2632 -0.7959 -0.2508
 1896SOL    HW117150   4.502   4.326   6.085 -1.1048  1.2801  0.4552
 1896SOL    HW217151   4.592   4.361   6.194  0.0934 -1.2362 -0.2352
 1897SOL     OW17152   4.362   2.690   5.862 -0.4078  0.0702  0.5690
 1897SOL    HW117153   4.353   2.779   5.828  0.9330 -0.0649 -0.1253
 1897SOL    HW217154   4.446   2.669   5.822  0.3784  1.3025  1.6143
 1898SOL     OW17155   2.838   1.174   9.454 -0.4653  0.0012 -0.1667
 1898SOL    HW117156   2.811   1.266   9.449 -2.3468 -0.3461  3.9462
 1898SOL    HW217157   2.887   1.157   9.373  2.1037  2.9017  0.7579
 1899SOL     OW17158   0.363   2.249   6.537  0.6920  0.0654 -0.2076
 1899SOL    HW117159   0.450   2.278   6.565  0.6957 -0.9364  0.8094
 1899SOL    HW217160   0.374   2.252   6.442 -0.2098 -1.9464 -0.3833
 1900SOL     OW17161   4.403   1.146   2.271  0.1462  0.2629 -0.0248
 1900SOL    HW117162   4.484   1.099   2.292 -0.2758 -0.5101 -0.1409
 1900SOL    HW217163   4.429   1.220   2.216  0.0607  0.2575 -0.0722
 1901SOL     OW17164   1.006   3.528   7.125 -0.0426  0.2397  0.3670
 1901SOL    HW117165   0.912   3.544   7.114  0.3488  2.4725  0.1204
 1901SOL    HW217166   1.036   3.619   7.128 -0.3323  0.3624 -0.3594
 1902SOL     OW17167   0.477   4.415  16.608  0.3642 -0.2885  0.5822
 1902SOL    HW117168   0.474   4.510  16.619 -0.0960 -0.4386  1.7237
 1902SOL    HW217169   0.405   4.407  16.546  1.1060  0.2281 -0.3441
 1903SOL     OW17170   2.185   0.663   4.652  0.7593  0.4396  0.2880
 1903SOL    HW117171   2.151   0.583   4.692 -2.0630  2.1753  1.3237
 1903SOL    HW217172   2.132   0.662   4.572  0.0104 -0.0378  0.7960
 1904SOL     OW17173   4.478   4.305   3.391 -0.6183 -0.0127 -0.4355
 1904SOL    HW117174   4.529   4.240   3.440  0.8956  1.9248  0.5704
 1904SOL    HW217175   4.548   4.362   3.362 -0.5906  0.1606 -0.0326
 1905SOL     OW17176   4.474   2.300   8.474 -0.4853  0.0590  0.2312
 1905SOL    HW117177   4.379   2.284   8.478 -0.2085 -1.7016 -0.0962
 1905SOL    HW217178   4.482   2.361   8.401 -0.9701 -0.9820 -0.7014
 1906SOL     OW17179   0.235   4.376  15.284  0.5281 -0.1388 -0.2189
 1906SOL    HW117180   0.142   4.390  15.303  1.0850  0.1991  2.2528
 1906SOL    HW217181   0.242   4.381  15.188 -0.5093  1.3386 -0.2176
 1907SOL     OW17182   1.143   3.696   8.791 -0.0587  0.2743  0.1979
 1907SOL    HW117183   1.101   3.659   8.713  0.4723 -2.2408  1.0873
 1907SOL    HW217184   1.235   3.676   8.777 -0.6607 -1.0236 -1.9760
 1908SOL     OW17185   1.367   2.140  10.439 -0.1507 -0.6160 -0.4929
 1908SOL    HW117186   1.363   2.218  10.495  2.2071 -1.8183  1.3520
 1908SOL    HW217187   1.331   2.074  10.498 -1.0765 -1.2279 -1.7486
 1909SOL     OW17188   3.299   4.595  16.049 -0.1802 -0.5157  0.6944
 1909SOL    HW117189   3.347   4.634  16.122  1.9947 -1.0839 -0.4401
 1909SOL    HW217190   3.358   4.527  16.016 -1.1956 -0.7120 -0.7082
 1910SOL     OW17191   1.871   1.944  15.779 -0.3732  0.0431 -0.7377
 1910SOL    HW117192   1.837   1.983  15.698 -1.5958  0.6593  0.0734
 1910SOL    HW217193   1.925   2.015  15.813 -2.2125  0.9672  0.3080
 1911SOL     OW17194   3.728   2.557   2.918  0.3883 -0.9163 -0.5099
 1911SOL    HW117195   3.644   2.511   2.931 -1.0508  1.4158 -1.6386
 1911SOL    HW217196   3.795   2.490   2.903 -0.2236 -1.9220  1.1858
 1912SOL     OW17197   2.056   0.999   2.843  0.1323 -0.0645 -0.9351
 1912SOL    HW117198   2.033   1.082   2.883 -2.1377 -1.0551 -0.1803
 1912SOL    HW217199   2.003   1.007   2.763  0.2574  1.1937 -0.8876
 1913SOL     OW17200   1.395   2.029   8.150 -0.5084 -0.5633  0.2886
 1913SOL    HW117201   1.373   1.992   8.236 -1.0966  0.8051  0.7153
 1913SOL    HW217202   1.369   2.121   8.153  1.0636 -0.1218  0.4573
 1914SOL     OW17203   2.766   3.718  11.470  0.0354 -0.7563  0.2331
 1914SOL    HW117204   2.757   3.719  11.375 -1.6744 -2.3740  0.3868
 1914SOL    HW217205   2.853   3.757  11.480  0.3368 -0.2931 -4.1287
 1915SOL     OW17206   1.867   2.906  14.547 -0.1256  0.1955 -0.5056
 1915SOL    HW117207   1.815   2.827  14.533 -0.5291  0.6112 -1.3778
 1915SOL    HW217208   1.884   2.905  14.641 -0.2138  0.4068 -0.4858
 1916SOL     OW17209   4.288   2.604  10.938  0.1521 -0.0419  0.2363
 1916SOL    HW117210   4.312   2.600  11.031 -0.5825  0.2692  0.4405
 1916SOL    HW217211   4.201   2.563  10.937  0.4480 -0.5434 -3.0675
 1917SOL     OW17212   3.087   1.224   9.909 -0.2354  0.0445 -0.3948
 1917SOL    HW117213   3.082   1.319   9.897 -0.5101  0.2765  1.6064
 1917SOL    HW217214   3.170   1.232   9.956  1.0789 -0.9343 -2.5332
 1918SOL     OW17215   0.934   1.836  12.629  0.3617 -0.2618 -0.1387
 1918SOL    HW117216   0.848   1.798  12.614 -0.5493  1.5376  0.6403
 1918SOL    HW217217   0.995   1.778  12.582 -0.3537 -2.1602  1.2909
 1919SOL     OW17218   4.520   0.144   2.361 -0.0706 -0.2281 -0.1750
 1919SOL    HW117219   4.515   0.129   2.267  0.0543 -1.1122 -0.0379
 1919SOL    HW217220   4.604   0.186   2.378  0.7427 -2.0702  0.2906
 1920SOL     OW17221   0.044   3.044   8.547  0.1421  0.5583 -0.2108
 1920SOL    HW117222   0.119   3.056   8.489  0.5298 -2.1447 -0.2439
 1920SOL    HW217223   0.088   3.001   8.620  1.1327  0.5242 -0.8315
 1921SOL     OW17224   0.637   4.178  16.456  0.3347  0.4704  0.1462
 1921SOL    HW117225   0.584   4.239  16.508  1.1412 -0.0506  1.5842
 1921SOL    HW217226   0.677   4.124  16.524 -0.0920  0.2795  0.2453
 1922SOL     OW17227   0.562   3.915   8.614  0.0114 -0.4315 -0.2642
 1922SOL    HW117228   0.637   3.860   8.635 -0.3053 -0.8133 -0.1336
 1922SOL    HW217229   0.583   3.992   8.667 -1.1604  0.6953 -1.4485
 1923SOL     OW17230   0.618   1.155  13.752  0.0873  0.4667 -0.5584
 1923SOL    HW117231   0.660   1.217  13.693 -0.9589  1.2197 -0.5041
 1923SOL    HW217232   0.544   1.120  13.703  0.8177  1.2323 -2.2023
 1924SOL     OW17233   2.628   4.122   4.212  0.6832  0.1497  0.3152
 1924SOL    HW117234   2.666   4.199   4.253  0.2242 -0.2676  1.5206
 1924SOL    HW217235   2.677   4.113   4.131 -0.4331 -1.1627 -0.2250
 1925SOL     OW17236   3.556   0.137   3.580 -0.1907  0.0145 -0.0094
 1925SOL    HW117237   3.650   0.143   3.564 -0.5887  1.5682 -1.7157
 1925SOL    HW217238   3.530   0.058   3.533  0.4945  0.4446 -1.1056
 1926SOL     OW17239   1.030   1.822   6.191 -0.4521 -0.3278 -0.4958
 1926SOL    HW117240   0.998   1.733   6.205  0.8063 -0.6900  0.0459
 1926SOL    HW217241   0.989   1.840   6.107 -1.0906  3.3843  0.5880
 1927SOL     OW17242   3.548   0.015   4.437 -0.8455  0.0768 -0.2804
 1927SOL    HW117243   3.470   0.003   4.491 -0.5233 -0.6031  0.0371
 1927SOL    HW217244   3.519   0.005   4.347  1.9083 -0.7482 -1.0867
 1928SOL     OW17245   1.990   4.458   3.018  0.1828  0.1514 -0.3748
 1928SOL    HW117246   2.067   4.493   3.061 -1.7014  1.6937  1.6897
 1928SOL    HW217247   1.925   4.508   3.067  0.9618  1.2553 -0.4753
 1929SOL     OW17248   3.392   1.409   3.925  0.3604  0.5010  0.1933
 1929SOL    HW117249   3.410   1.421   4.018  0.3758 -0.4111  0.3120
 1929SOL    HW217250   3.443   1.333   3.896 -0.7060 -0.9446  2.0619
 1930SOL     OW17251   3.529   1.165   9.066 -0.1580  0.0518 -0.3048
 1930SOL    HW117252   3.581   1.133   9.140  1.5653  1.1815 -1.0371
 1930SOL    HW217253   3.504   1.250   9.102  0.1035 -0.3858  0.8944
 1931SOL     OW17254   1.416   0.358   1.133  0.2895  0.2656 -0.2436
 1931SOL    HW117255   1.426   0.422   1.204  0.4559  1.3901 -1.2785
 1931SOL    HW217256   1.322   0.366   1.114  0.0971 -0.6693  0.3101
 1932SOL     OW17257   3.392   4.466   1.559  0.2063 -0.1067 -0.3529
 1932SOL    HW117258   3.475   4.494   1.597  1.2164 -1.2237 -1.7614
 1932SOL    HW217259   3.324   4.485   1.624 -0.4340 -0.2984 -0.9726
 1933SOL     OW17260   0.410   0.518  12.631  0.0118  0.3617  0.0385
 1933SOL    HW117261   0.364   0.533  12.548  2.0937 -2.3959 -1.6117
 1933SOL    HW217262   0.414   0.606  12.669 -0.7335 -0.2546  1.5521
 1934SOL     OW17263   3.090   4.111   6.135 -0.4247 -0.1503 -0.1827
 1934SOL    HW117264   3.001   4.081   6.118 -0.7304  0.9953 -0.5917
 1934SOL    HW217265   3.074   4.204   6.150 -0.2527 -0.2161  0.3926
 1935SOL     OW17266   2.558   0.632  16.956  0.0139 -0.4089 -0.4855
 1935SOL    HW117267   2.529   0.683  16.881 -0.3676 -1.7525 -1.2433
 1935SOL    HW217268   2.647   0.606  16.930 -0.7270 -4.0956  0.7276
 1936SOL     OW17269   2.306   4.618  12.952  0.0179  0.2942 -0.1301
 1936SOL    HW117270   2.237   4.556  12.975 -0.1073  0.4986  0.0458
 1936SOL    HW217271   2.364   4.558  12.906 -0.4411 -1.3754  1.5084
 1937SOL     OW17272   2.586   0.986   4.339  0.8821 -0.0501 -0.0162
 1937SOL    HW117273   2.576   0.961   4.430 -0.7837  1.6286  0.2521
 1937SOL    HW217274   2.617   1.076   4.352  0.1174 -0.0823  1.9831
 1938SOL     OW17275   2.749   2.359   6.269 -0.3471  0.2319 -0.5382
 1938SOL    HW117276   2.679   2.334   6.330  0.6704  2.0227  1.3421
 1938SOL    HW217277   2.820   2.304   6.302 -0.7767  0.8628  1.4781
 1939SOL     OW17278   1.809   2.452   3.488  0.0188 -0.0084 -0.1600
 1939SOL    HW117279   1.891   2.498   3.470 -0.2145  0.2075 -0.6611
 1939SOL    HW217280   1.799   2.472   3.581 -1.9914 -0.5123 -0.2615
 1940SOL     OW17281   2.642   4.071   8.034  0.6208  0.3757 -0.1708
 1940SOL    HW117282   2.612   4.161   8.023  2.0048  0.8975  0.4500
 1940SOL    HW217283   2.594   4.039   8.111 -0.3336 -0.1761 -0.9838
 1941SOL     OW17284   1.339   4.057   1.933  0.4027 -0.8268  0.0525
 1941SOL    HW117285   1.317   3.965   1.915  1.3190 -0.6718 -1.8756
 1941SOL    HW217286   1.423   4.057   1.887  0.6585  0.8295  0.5117
 1942SOL     OW17287   4.426   1.492   9.056 -0.0664  0.1798  0.1957
 1942SOL    HW117288   4.340   1.534   9.051  0.2881  1.3488  4.4757
 1942SOL    HW217289   4.484   1.567   9.073  0.6126 -0.5512  1.0977
 1943SOL     OW17290   2.598   1.408  13.285 -0.1071 -0.3595 -0.3225
 1943SOL    HW117291   2.535   1.337  13.271  0.3014 -1.1512  1.9302
 1943SOL    HW217292   2.679   1.368  13.254 -0.8127 -1.4932 -0.7373
 1944SOL     OW17293   2.566   4.536   8.771  0.1139 -0.7668  0.5226
 1944SOL    HW117294   2.651   4.569   8.799  0.1209 -0.0306 -0.3621
 1944SOL    HW217295   2.596   4.486   8.695  0.9294 -0.6700  0.7838
 1945SOL     OW17296   0.938   3.214   4.470 -0.1963 -0.0331 -0.1769
 1945SOL    HW117297   0.988   3.167   4.536 -4.1714 -3.0558  0.7115
 1945SOL    HW217298   0.907   3.289   4.521 -1.1714  0.0591 -0.9106
 1946SOL     OW17299   2.347   2.203   8.929 -0.3733 -0.4526  0.3884
 1946SOL    HW117300   2.377   2.250   9.007 -1.4049 -0.3782  0.7361
 1946SOL    HW217301   2.321   2.121   8.972 -1.6559 -0.9464 -1.3321
 1947SOL     OW17302   1.938   4.722   5.150 -0.1362  0.2727 -0.4653
 1947SOL    HW117303   1.860   0.041   5.116  0.4042  0.8173 -1.0098
 1947SOL    HW217304   1.999   0.002   5.076 -0.2418 -1.1709 -0.6422
 1948SOL     OW17305   2.212   0.359   6.067 -0.0745 -0.1933  0.2313
 1948SOL    HW117306   2.161   0.419   6.120  0.4058  0.0060  0.4693
 1948SOL    HW217307   2.197   0.400   5.982  1.9391  1.6812  0.7827
 1949SOL     OW17308   3.141   4.153   7.964  0.0011 -1.1398  0.0916
 1949SOL    HW117309   3.061   4.148   8.017 -0.7514  3.0909 -0.6832
 1949SOL    HW217310   3.102   4.119   7.884  0.1649 -0.2750 -0.3482
 1950SOL     OW17311   4.507   2.257   6.490 -0.0679 -0.3325  0.0369
 1950SOL    HW117312   4.483   2.170   6.458  0.2192  0.0194 -1.1441
 1950SOL    HW217313   4.521   2.297   6.404 -1.2252 -0.3026 -0.1476
 1951SOL     OW17314   0.089   0.104   5.252 -0.1384 -0.2330  0.2729
 1951SOL    HW117315   0.081   0.143   5.339 -0.6198 -0.8149  0.4943
 1951SOL    HW217316   0.140   0.024   5.267  2.0486  1.2122  0.5150
 1952SOL     OW17317   1.279   2.379   5.308 -0.3546  0.8864 -0.1026
 1952SOL    HW117318   1.302   2.288   5.324 -0.3907  0.4371 -2.7092
 1952SOL    HW217319   1.367   2.416   5.305  1.3355 -3.1001  0.8249
 1953SOL     OW17320   0.723   1.322  16.271 -0.2725 -0.3170 -0.3101
 1953SOL    HW117321   0.754   1.247  16.321 -0.6011 -0.2057  0.0583
 1953SOL    HW217322   0.652   1.288  16.217 -0.2091  0.2746 -0.7677
 1954SOL     OW17323   1.398   2.127   3.762 -0.2757 -0.2032  0.2094
 1954SOL    HW117324   1.486   2.156   3.737 -1.3154  1.1893 -1.8643
 1954SOL    HW217325   1.339   2.183   3.712 -2.0389 -0.9487  1.4829
 1955SOL     OW17326   1.546   0.744   9.062 -0.1547  0.3748  0.3105
 1955SOL    HW117327   1.547   0.655   9.096 -1.0622 -0.3368 -1.5433
 1955SOL    HW217328   1.604   0.787   9.125  0.3166  1.1564 -0.6473
 1956SOL     OW17329   2.925   2.401   5.509  0.3312 -0.3817  0.1090
 1956SOL    HW117330   2.901   2.428   5.598 -1.7204 -0.1825 -0.5009
 1956SOL    HW217331   3.009   2.442   5.492  0.7767 -0.6399  1.6749
 1957SOL     OW17332   2.673   3.462  11.452 -0.6985  0.2317 -0.1643
 1957SOL    HW117333   2.694   3.538  11.505  1.4790 -0.8243  0.4950
 1957SOL    HW217334   2.754   3.414  11.471 -1.9188 -2.0540 -0.7322
 1958SOL     OW17335   2.571   1.655  12.418  0.4458  0.2858 -0.1664
 1958SOL    HW117336   2.547   1.592  12.350 -3.2784 -0.3470  1.7148
 1958SOL    HW217337   2.507   1.631  12.486 -0.3328 -0.7025 -1.2567
 1959SOL     OW17338   0.486   2.486  14.441 -0.4376 -0.1159  0.3239
 1959SOL    HW117339   0.538   2.407  14.429 -2.2659 -0.9452 -2.2106
 1959SOL    HW217340   0.418   2.477  14.374  1.7935 -0.0252 -1.9917
 1960SOL     OW17341   0.387   2.771   7.478 -0.0356 -0.0747 -0.3601
 1960SOL    HW117342   0.328   2.707   7.519  1.0737 -1.0429 -0.2474
 1960SOL    HW217343   0.466   2.718   7.463 -0.7501 -0.3233 -3.0895
 1961SOL     OW17344   0.601   2.797   7.167  0.3442  0.0277  0.1703
 1961SOL    HW117345   0.558   2.847   7.236  0.8740  0.4152  0.2266
 1961SOL    HW217346   0.688   2.838   7.165  0.0481  0.6402 -0.0941
 1962SOL     OW17347   4.344   1.529   4.120 -0.1428 -0.5327 -0.1487
 1962SOL    HW117348   4.264   1.578   4.136  0.0572 -0.3617  0.3157
 1962SOL    HW217349   4.392   1.556   4.198  1.0193  0.6848 -1.2936
 1963SOL     OW17350   3.615   3.727   3.491 -0.0315  0.3604 -0.3404
 1963SOL    HW117351   3.697   3.680   3.479  0.9893  1.6754  1.3932
 1963SOL    HW217352   3.643   3.813   3.522  0.9791 -0.1803  0.2554
 1964SOL     OW17353   0.571   1.191   2.544 -0.5706  0.4351 -0.4404
 1964SOL    HW117354   0.530   1.277   2.546 -0.5567  0.4395 -0.3529
 1964SOL    HW217355   0.659   1.218   2.517  0.8172 -2.0933  1.5393
 1965SOL     OW17356   1.762   0.740  10.610 -0.7517  0.4466 -0.3611
 1965SOL    HW117357   1.725   0.789  10.683 -0.4323  2.0672 -1.2897
 1965SOL    HW217358   1.842   0.791  10.597 -0.4284  0.8722  3.4712
 1966SOL     OW17359   3.407   3.122  13.603  0.1359 -0.2300  0.1213
 1966SOL    HW117360   3.317   3.134  13.573 -0.3684  1.6984  2.4427
 1966SOL    HW217361   3.449   3.206  13.589  0.4586 -0.4790 -0.3898
 1967SOL     OW17362   2.062   0.474   4.964  0.0294  0.5588 -0.4098
 1967SOL    HW117363   2.028   0.555   5.001 -1.5892 -0.2418 -0.1298
 1967SOL    HW217364   2.151   0.492   4.993 -0.1247  0.2977  0.2270
 1968SOL     OW17365   2.552   1.934   7.578  0.5082  0.2738  0.5259
 1968SOL    HW117366   2.520   1.987   7.651  1.6509  0.0907  1.1487
 1968SOL    HW217367   2.619   1.889   7.628  0.7274 -0.3981 -0.3718
 1969SOL     OW17368   1.547   2.887   2.091 -0.3412 -0.3572 -0.3435
 1969SOL    HW117369   1.458   2.889   2.125 -0.4156 -1.5997 -0.4720
 1969SOL    HW217370   1.538   2.823   2.020 -1.5623 -0.1160 -0.4008
 1970SOL     OW17371   4.547   1.700   7.492  0.0727  0.2860 -0.1367
 1970SOL    HW117372   4.620   1.650   7.527 -1.8912 -1.4060  1.5353
 1970SOL    HW217373   4.523   1.749   7.571  0.8380 -0.4969  0.5875
 1971SOL     OW17374   0.241   2.149   3.094  0.2773 -0.8717  0.2137
 1971SOL    HW117375   0.321   2.194   3.121  0.7984 -1.1099 -0.9791
 1971SOL    HW217376   0.283   2.104   3.021  0.1559 -2.0233  0.8473
 1972SOL     OW17377   1.470   3.914   7.024  0.2774  0.1830  0.0538
 1972SOL    HW117378   1.398   3.879   6.972  1.0601 -2.2097  0.5715
 1972SOL    HW217379   1.491   3.983   6.961 -3.0477  0.9745 -0.1742
 1973SOL     OW17380   1.910   2.345   9.514 -0.0505  0.0969  0.2780
 1973SOL    HW117381   1.987   2.394   9.483 -1.1922  1.1464 -0.8854
 1973SOL    HW217382   1.937   2.316   9.602  0.8330 -1.3309 -0.4477
 1974SOL     OW17383   4.578   0.374  16.869 -0.1089  0.3350 -0.0177
 1974SOL    HW117384   4.554   0.350  16.779  0.6315 -1.2544  0.2017
 1974SOL    HW217385   4.529   0.455  16.881  1.4315  1.8901 -4.2004
 1975SOL     OW17386   1.061   0.968   6.328  0.0472  0.0817 -0.4930
 1975SOL    HW117387   1.115   1.028   6.379  0.5998 -0.1917 -0.7546
 1975SOL    HW217388   1.043   1.014   6.247 -1.6000  0.7295  0.2324
 1976SOL     OW17389   4.484   1.755   9.430  0.1520  0.1999 -0.2821
 1976SOL    HW117390   4.410   1.706   9.396  1.5097  0.0055 -2.9931
 1976SOL    HW217391   4.459   1.847   9.424  0.2303  0.2712  0.3970
 1977SOL     OW17392   4.086   4.567   4.557  0.7229  0.1552  0.1642
 1977SOL    HW117393   4.119   4.592   4.643  1.8168  1.2192 -0.5651
 1977SOL    HW217394   4.077   4.652   4.515  2.4187  0.2114 -0.0644
 1978SOL     OW17395   3.807   4.108  15.334  0.1175  0.0784 -0.8402
 1978SOL    HW117396   3.767   4.092  15.419 -0.4010  1.6113 -0.8004
 1978SOL    HW217397   3.763   4.043  15.279 -1.9993  1.4886 -0.8404
 1979SOL     OW17398   2.858   0.429  17.287  0.1580  0.4263 -0.2349
 1979SOL    HW117399   2.797   0.418  17.361  0.4560 -2.7339 -0.4484
 1979SOL    HW217400   2.940   0.383  17.307  0.9642  1.3263 -1.5335
 1980SOL     OW17401   2.911   3.309  11.495  0.1205 -0.9315  0.1168
 1980SOL    HW117402   2.898   3.256  11.417 -1.4223  0.2952 -0.4595
 1980SOL    HW217403   3.000   3.291  11.526  0.2641  1.4639  1.1265
 1981SOL     OW17404   4.603   1.815   0.503 -0.3399  0.1305  0.3390
 1981SOL    HW117405   4.673   1.873   0.533  1.6378 -1.5232 -1.1092
 1981SOL    HW217406   4.635   1.726   0.514  1.3776  0.6942 -0.1246
 1982SOL     OW17407   0.437   3.790   7.528  0.2495 -0.4067 -0.1056
 1982SOL    HW117408   0.478   3.828   7.606  1.0464  0.0569 -0.7473
 1982SOL    HW217409   0.358   3.755   7.569 -0.1126 -0.0026 -0.4700
 1983SOL     OW17410   3.864   0.815  10.229 -0.1873 -0.2141  0.2845
 1983SOL    HW117411   3.790   0.824  10.290 -0.6832  0.3479 -0.3927
 1983SOL    HW217412   3.933   0.872  10.262  0.8861 -2.0726  1.2344
 1984SOL     OW17413   3.236   0.954  14.989  0.4241 -0.3971 -0.2457
 1984SOL    HW117414   3.156   0.918  14.950 -0.3480  0.5501  0.4402
 1984SOL    HW217415   3.252   0.885  15.053  0.2216  0.1777  0.4213
 1985SOL     OW17416   1.211   4.544  12.729 -0.2608  0.4556  0.8040
 1985SOL    HW117417   1.193   4.458  12.766  0.9004  0.5683  1.6348
 1985SOL    HW217418   1.306   4.553  12.730 -0.5541  4.0198 -3.4574
 1986SOL     OW17419   2.954   1.008   1.749 -0.4668 -0.1364 -0.3638
 1986SOL    HW117420   2.989   0.968   1.829 -0.4701  3.2821  1.3277
 1986SOL    HW217421   2.943   0.934   1.689  0.1927  0.0944 -0.7695
 1987SOL     OW17422   4.401   3.813  11.940  0.2981  0.2616  0.1292
 1987SOL    HW117423   4.416   3.905  11.918  0.4187  0.0629 -0.6139
 1987SOL    HW217424   4.346   3.824  12.018  0.4792  0.8328  0.1725
 1988SOL     OW17425   0.402   1.442   3.778  0.0691  0.1752 -0.1989
 1988SOL    HW117426   0.442   1.512   3.830  1.2039  0.1230 -1.0015
 1988SOL    HW217427   0.309   1.456   3.796 -0.7144 -2.2037 -2.3672
 1989SOL     OW17428   0.931   3.821   3.143 -0.1574  0.0836  0.6362
 1989SOL    HW117429   1.021   3.837   3.173  0.9580  0.9504 -3.1066
 1989SOL    HW217430   0.937   3.735   3.103 -2.3559  0.8962 -1.4505
 1990SOL     OW17431   3.178   0.028   1.638 -0.4493 -0.2115 -0.8976
 1990SOL    HW117432   3.100   0.053   1.686 -2.1068 -0.3739 -3.5018
 1990SOL    HW217433   3.137   4.697   1.571  2.0177 -2.0039 -0.9606
 1991SOL     OW17434   2.528   1.033   2.958  0.1456  0.5134 -0.7804
 1991SOL    HW117435   2.587   0.997   2.892  0.9844  0.0493  0.2037
 1991SOL    HW217436   2.444   1.001   2.927  0.6488  0.3672 -1.9727
 1992SOL     OW17437   2.510   4.503   7.849 -0.5368  0.4320  0.2919
 1992SOL    HW117438   2.549   4.445   7.784  1.4396  1.9145  0.1498
 1992SOL    HW217439   2.429   4.459   7.873 -0.0253 -1.0603 -0.7338
 1993SOL     OW17440   2.456   1.640   1.668 -0.0429 -0.1905  0.3238
 1993SOL    HW117441   2.550   1.654   1.683  0.5426 -1.7602 -1.8496
 1993SOL    HW217442   2.448   1.546   1.681  0.2773 -0.2470  0.1242
 1994SOL     OW17443   1.254   2.208  17.387 -0.3177  0.2048  0.2255
 1994SOL    HW117444   1.194   2.278  17.412  1.3926  1.3291  1.1511
 1994SOL    HW217445   1.218   2.172  17.306 -1.2487 -1.6018  1.4420
 1995SOL     OW17446   3.451   4.511   5.446 -0.1471  0.1669  0.2224
 1995SOL    HW117447   3.358   4.510   5.469  0.0974  3.2825  1.2453
 1995SOL    HW217448   3.489   4.559   5.519  0.4470 -1.4585  0.9714
 1996SOL     OW17449   2.346   2.494  15.546  0.0671  0.3150 -0.0868
 1996SOL    HW117450   2.331   2.570  15.603  1.9899 -0.2572  1.1775
 1996SOL    HW217451   2.326   2.425  15.609 -1.6697 -0.9273 -1.9862
 1997SOL     OW17452   1.027   0.056   7.258  0.5629 -0.1102 -0.1766
 1997SOL    HW117453   1.027   4.721   7.334 -1.5952 -0.2441 -0.2729
 1997SOL    HW217454   1.053   0.142   7.290 -0.0757 -0.0137  0.0817
 1998SOL     OW17455   1.585   3.911  10.974  0.3138 -0.2208  0.5630
 1998SOL    HW117456   1.549   3.976  10.914  2.2411  0.3034 -0.0066
 1998SOL    HW217457   1.547   3.831  10.938 -0.6172  0.0157  1.0235
 1999SOL     OW17458   3.751   0.072   2.233 -0.8391 -0.1601 -0.0150
 1999SOL    HW117459   3.824   0.111   2.282  1.0948 -2.7683 -0.8357
 1999SOL    HW217460   3.680   0.126   2.267 -1.4036  0.1641 -1.7122
 2000SOL     OW17461   1.919   2.052  11.688  0.2515 -0.1922 -0.0336
 2000SOL    HW117462   1.892   2.042  11.780 -1.7642  0.9316 -0.5022
 2000SOL    HW217463   2.012   2.035  11.705  0.0763 -0.0656  1.0539
 2001SOL     OW17464   3.555   4.686   4.121  0.6500  0.3950 -0.1525
 2001SOL    HW117465   3.563   4.594   4.096 -0.9713  0.1428  0.2094
 2001SOL    HW217466   3.626   0.003   4.071  1.2348 -1.7169 -1.0609
 2002SOL     OW17467   2.125   3.286   7.203 -0.2117 -0.9162 -0.1677
 2002SOL    HW117468   2.067   3.212   7.222 -0.1957 -1.0794 -0.7426
 2002SOL    HW217469   2.145   3.260   7.113  0.5479  0.1976 -0.3157
 2003SOL     OW17470   2.847   2.597  14.057 -0.2581  0.4723 -0.5519
 2003SOL    HW117471   2.808   2.672  14.011  0.5934  1.6879  0.7407
 2003SOL    HW217472   2.814   2.531  13.996 -2.0518  0.5430  0.3339
 2004SOL     OW17473   0.408   2.672   5.166 -0.0928  0.2447  0.0592
 2004SOL    HW117474   0.365   2.604   5.115  2.3191 -0.7359 -0.6637
 2004SOL    HW217475   0.445   2.608   5.226  0.2358  0.6810  0.3232
 2005SOL     OW17476   0.778   4.006   3.865 -0.6297 -0.1240  0.0650
 2005SOL    HW117477   0.733   4.046   3.791 -0.5204  1.3337  0.7905
 2005SOL    HW217478   0.702   3.978   3.916 -0.6166  2.5201  1.5054
 2006SOL     OW17479   1.606   4.552   6.665  0.4465  0.0089  0.1709
 2006SOL    HW117480   1.565   4.556   6.752 -0.0513 -0.7167 -0.0360
 2006SOL    HW217481   1.682   4.608   6.681 -0.6308  0.8077  2.5406
 2007SOL     OW17482   0.630   4.145   3.659 -0.1540  0.2342  0.2214
 2007SOL    HW117483   0.537   4.126   3.644 -0.5934  2.2704  0.4099
 2007SOL    HW217484   0.657   4.157   3.568 -0.6216  0.5334  0.1170
 2008SOL     OW17485   2.747   4.521   1.766 -0.0761 -0.1041  0.2090
 2008SOL    HW117486   2.817   4.537   1.830 -0.1027 -0.5197  0.3416
 2008SOL    HW217487   2.753   4.603   1.718 -2.7474 -0.4162 -0.6528
 2009SOL     OW17488   1.215   3.100   4.589  0.5017 -0.0306 -0.1570
 2009SOL    HW117489   1.237   3.095   4.496 -0.9582 -1.9869 -0.4036
 2009SOL    HW217490   1.248   3.181   4.627  0.0251  0.2149 -0.2606
 2010SOL     OW17491   0.617   3.420   7.460 -0.6328 -0.2401  0.3039
 2010SOL    HW117492   0.594   3.329   7.478 -0.9471 -0.0856  0.6971
 2010SOL    HW217493   0.551   3.462   7.515 -1.4835 -2.8582  1.2995
 2011SOL     OW17494   1.332   2.717   3.701 -0.1947 -0.1912  0.0419
 2011SOL    HW117495   1.277   2.789   3.733  0.7649  1.3066 -1.6360
 2011SOL    HW217496   1.388   2.772   3.646  0.2901 -0.5369  0.1952
 2012SOL     OW17497   2.829   0.449   6.693  0.0238  0.2524 -0.1252
 2012SOL    HW117498   2.746   0.496   6.707 -0.1536 -0.4351  1.0646
 2012SOL    HW217499   2.821   0.368   6.743  0.9473  0.0531 -0.3075
 2013SOL     OW17500   1.726   3.271   8.605  0.2340 -0.4511  0.1157
 2013SOL    HW117501   1.820   3.257   8.619  0.6813  0.8166 -1.5484
 2013SOL    HW217502   1.732   3.365   8.587  1.2544  0.0598  3.1652
 2014SOL     OW17503   2.122   0.128   4.402 -0.6275 -0.1543  0.4644
 2014SOL    HW117504   2.105   0.041   4.366 -0.7921  0.2175 -0.3542
 2014SOL    HW217505   2.112   0.181   4.323  1.6236  1.4509  1.2436
 2015SOL     OW17506   4.279   4.670   2.166 -0.1608 -0.2143 -0.4430
 2015SOL    HW117507   4.334   4.598   2.136 -0.2634 -0.9938  1.2649
 2015SOL    HW217508   4.321   0.026   2.134  1.6475 -0.5522  1.0939
 2016SOL     OW17509   0.673   3.283   2.858  0.8043 -0.2400  0.1323
 2016SOL    HW117510   0.763   3.253   2.872  0.8403  0.0825  0.5795
 2016SOL    HW217511   0.658   3.337   2.935  1.0858  0.0627 -0.0234
 2017SOL     OW17512   0.681   2.209   8.733 -0.4726  0.1445 -0.1257
 2017SOL    HW117513   0.674   2.272   8.804  1.1859  0.9381 -0.6681
 2017SOL    HW217514   0.658   2.128   8.778 -0.8735  0.1148 -0.3835
 2018SOL     OW17515   3.998   0.545  11.776  0.1976  0.4658 -0.2817
 2018SOL    HW117516   3.993   0.481  11.847 -2.6211  1.7165  0.6614
 2018SOL    HW217517   3.986   0.484  11.703 -0.7684  1.7143 -1.1730
 2019SOL     OW17518   2.826   3.345   7.969 -0.4360 -0.3757 -0.3228
 2019SOL    HW117519   2.874   3.310   8.044  0.3518 -0.6544 -0.9561
 2019SOL    HW217520   2.740   3.333   8.009  1.7802 -2.3491  3.8651
 2020SOL     OW17521   3.861   0.573   2.981  0.2680 -0.4658 -0.2606
 2020SOL    HW117522   3.776   0.543   3.014 -0.0063 -0.8105 -1.2832
 2020SOL    HW217523   3.905   0.493   2.951  1.2316 -1.2631  3.2462
 2021SOL     OW17524   2.271   4.100   3.287  0.0001 -0.1396 -0.1449
 2021SOL    HW117525   2.291   4.132   3.199  0.4524 -0.3431 -0.1162
 2021SOL    HW217526   2.283   4.168   3.353 -0.2517 -0.6785  0.4516
 2022SOL     OW17527   0.516   3.825   0.350  0.1262  0.4905  0.0588
 2022SOL    HW117528   0.452   3.760   0.379 -0.2230  1.7069  2.0084
 2022SOL    HW217529   0.593   3.778   0.383 -0.1639 -0.2321 -0.2760
 2023SOL     OW17530   1.150   1.503   2.442 -0.3581  0.2248  0.1778
 2023SOL    HW117531   1.206   1.579   2.426  0.4761 -0.2248  0.9552
 2023SOL    HW217532   1.222   1.448   2.472  0.8243  1.8982  0.4093
 2024SOL     OW17533   3.016   0.022   8.299  0.1657  0.0388  0.2023
 2024SOL    HW117534   3.076   0.031   8.224 -1.4293 -1.8468 -1.2960
 2024SOL    HW217535   3.010   0.114   8.324  0.2830  0.1827 -0.2898
 2025SOL     OW17536   2.144   0.996  15.302  0.0245 -0.0578 -0.2480
 2025SOL    HW117537   2.199   1.054  15.250 -0.8347  0.3129 -0.7371
 2025SOL    HW217538   2.141   1.042  15.386  2.8772  0.5044 -0.4597
 2026SOL     OW17539   0.949   4.548   3.287  0.5102 -0.1128  0.6182
 2026SOL    HW117540   0.926   4.574   3.377 -3.4471  0.1854 -0.4753
 2026SOL    HW217541   0.890   4.604   3.236  0.6352 -0.5066  0.0497
 2027SOL     OW17542   2.806   2.718   9.786  0.0057  0.0756  0.1543
 2027SOL    HW117543   2.714   2.727   9.809 -0.0862 -1.0226  0.2523
 2027SOL    HW217544   2.841   2.661   9.855  0.3528  0.9516  0.6975
 2028SOL     OW17545   0.880   4.078  15.347 -0.2309 -0.2089  0.0259
 2028SOL    HW117546   0.786   4.089  15.361  0.1599  0.0245  2.4760
 2028SOL    HW217547   0.894   4.098  15.255  0.6263  0.7171  0.3623
 2029SOL     OW17548   3.235   2.404   2.911  0.4881  0.3117  0.1520
 2029SOL    HW117549   3.205   2.356   2.834 -0.2222 -0.1696  0.7277
 2029SOL    HW217550   3.329   2.413   2.897  0.5585 -0.5530  0.0564
 2030SOL     OW17551   1.140   3.153   9.980 -0.1736 -0.3949 -0.0533
 2030SOL    HW117552   1.229   3.154   9.946  0.3409 -1.3431  1.2746
 2030SOL    HW217553   1.130   3.240  10.019 -0.9809  0.4802 -2.1987
 2031SOL     OW17554   2.154   4.643   0.841  0.1811 -0.1665  0.1829
 2031SOL    HW117555   2.208   4.565   0.854  1.9663  0.7172 -1.7564
 2031SOL    HW217556   2.109   4.605   0.765 -1.0996  0.8445  0.4404
 2032SOL     OW17557   2.054   1.815   8.790  0.4941 -0.2752 -0.6591
 2032SOL    HW117558   2.124   1.753   8.811 -1.0090 -1.9176 -0.5170
 2032SOL    HW217559   2.055   1.879   8.861 -1.2469 -2.5664  1.4466
 2033SOL     OW17560   2.554   4.106  17.265  0.6151  0.1657 -0.7353
 2033SOL    HW117561   2.630   4.143  17.219  0.1799  2.5743  0.4463
 2033SOL    HW217562   2.495   4.180  17.283 -0.9767 -1.1937 -0.4138
 2034SOL     OW17563   0.457   0.298   4.242 -0.4725 -0.1618  0.0515
 2034SOL    HW117564   0.540   0.295   4.289  0.1472  0.5678 -0.9965
 2034SOL    HW217565   0.450   0.391   4.221 -0.1014 -0.1169  0.1336
 2035SOL     OW17566   2.023   0.375   7.861 -0.1926 -0.0747  0.0433
 2035SOL    HW117567   1.966   0.328   7.922  0.3886 -1.1717 -0.2495
 2035SOL    HW217568   2.104   0.325   7.872 -0.5381 -0.6534 -0.0081
 2036SOL     OW17569   4.292   0.256  16.089  0.0398 -0.2921  0.3732
 2036SOL    HW117570   4.370   0.303  16.118  1.3496 -1.2382 -1.6142
 2036SOL    HW217571   4.229   0.328  16.086  0.5958  0.1657 -0.4974
 2037SOL     OW17572   3.891   0.746   2.150 -0.1810  0.1745 -0.1789
 2037SOL    HW117573   3.809   0.715   2.110  0.8191 -2.5124 -0.1537
 2037SOL    HW217574   3.874   0.839   2.132  0.2171  0.0596 -1.1800
 2038SOL     OW17575   3.205   3.678   2.175  0.1222 -0.2507 -0.1231
 2038SOL    HW117576   3.282   3.634   2.213 -0.9926  0.9883  3.6006
 2038SOL    HW217577   3.148   3.673   2.252  0.6129 -0.3386  0.2358
 2039SOL     OW17578   0.817   1.847   7.139 -0.1248  0.0720 -0.2808
 2039SOL    HW117579   0.895   1.864   7.192  0.6187 -0.9791 -1.0587
 2039SOL    HW217580   0.747   1.894   7.185  2.2676  2.4574  0.8718
 2040SOL     OW17581   3.151   2.084   8.756  0.5987  0.6261  0.7133
 2040SOL    HW117582   3.228   2.047   8.799  0.7055  0.9992  0.8375
 2040SOL    HW217583   3.101   2.128   8.825 -1.6101 -0.4319 -0.2343
 2041SOL     OW17584   2.644   4.156   1.541 -0.4320  1.0097  0.2578
 2041SOL    HW117585   2.609   4.206   1.467  1.2701 -0.9281 -1.8584
 2041SOL    HW217586   2.617   4.202   1.620 -1.5165  0.6234  0.1141
 2042SOL     OW17587   4.615   3.619   2.767  0.0142  0.2478 -0.1300
 2042SOL    HW117588   4.657   3.567   2.835 -0.5871  1.2313  1.0004
 2042SOL    HW217589   4.542   3.558   2.753  1.5270 -1.4020 -0.8302
 2043SOL     OW17590   1.399   3.800  12.074 -0.2709  0.3780 -0.1952
 2043SOL    HW117591   1.343   3.733  12.035  1.3230 -0.8105 -0.4361
 2043SOL    HW217592   1.394   3.868  12.007 -3.0926  0.3252 -0.0613
 2044SOL     OW17593   0.905   0.267  16.473 -0.2125  0.4020  0.4925
 2044SOL    HW117594   0.952   0.323  16.535  0.4895  0.6483 -0.2705
 2044SOL    HW217595   0.919   0.179  16.510 -0.7363 -0.0155 -0.3042
 2045SOL     OW17596   2.172   1.148   1.535 -0.3699 -0.1849  0.3872
 2045SOL    HW117597   2.117   1.097   1.594  0.0858 -1.0120  0.0990
 2045SOL    HW217598   2.111   1.166   1.463 -1.5523 -0.2710  1.3753
 2046SOL     OW17599   3.023   1.664   2.348  0.5772  0.2862  0.1730
 2046SOL    HW117600   3.014   1.760   2.345  5.1420  0.7257  0.8154
 2046SOL    HW217601   3.083   1.654   2.422  0.6543  1.2735  0.2488
 2047SOL     OW17602   3.223   2.960   3.070  0.0848 -0.0531  0.1616
 2047SOL    HW117603   3.160   2.925   3.134 -1.6811  2.7239 -0.0212
 2047SOL    HW217604   3.267   2.877   3.053  1.0166  0.8068 -1.6267
 2048SOL     OW17605   1.086   1.096  10.487  0.0429  0.1448 -0.0289
 2048SOL    HW117606   1.107   1.003  10.482  1.2738  0.4885 -1.3389
 2048SOL    HW217607   1.076   1.122  10.396 -0.3946  0.3951  0.0919
 2049SOL     OW17608   2.804   1.249   4.547  0.1963 -0.2532  0.4785
 2049SOL    HW117609   2.857   1.226   4.470 -2.1074 -0.4825 -1.0484
 2049SOL    HW217610   2.814   1.344   4.548 -2.0847 -0.0410  1.5912
 2050SOL     OW17611   0.394   0.487   9.311  0.0494  0.0661 -0.0133
 2050SOL    HW117612   0.445   0.565   9.290  0.4816 -0.7349 -1.9570
 2050SOL    HW217613   0.440   0.423   9.257 -0.1027  0.2722 -0.3891
 2051SOL     OW17614   1.952   1.131   5.537  0.0049 -0.9596 -0.0009
 2051SOL    HW117615   2.005   1.147   5.616  0.4375 -1.1265 -0.2548
 2051SOL    HW217616   1.876   1.187   5.550  0.7627 -0.2270  1.3895
 2052SOL     OW17617   4.088   3.499   8.716 -0.7128  0.3664  0.2745
 2052SOL    HW117618   4.102   3.589   8.745  0.6892  0.4384 -0.6670
 2052SOL    HW217619   4.026   3.468   8.782 -1.9131 -0.2244 -1.1409
 2053SOL     OW17620   1.622   1.663   0.565 -0.3630  0.0802 -0.4381
 2053SOL    HW117621   1.545   1.711   0.536  1.3576  2.4398 -1.1917
 2053SOL    HW217622   1.640   1.624   0.479  0.8183  1.8999 -1.0182
 2054SOL     OW17623   1.935   0.100   5.417 -0.1032 -0.2409  0.4092
 2054SOL    HW117624   2.009   0.159   5.430  0.4632 -1.3641  2.3373
 2054SOL    HW217625   1.941   0.090   5.322  2.2887  1.9646  0.3162
 2055SOL     OW17626   4.346   1.523   7.521  0.3565  0.0517  0.2998
 2055SOL    HW117627   4.371   1.487   7.606 -3.3431  0.4607  1.5702
 2055SOL    HW217628   4.409   1.588   7.490  0.6144 -2.0216 -3.4432
 2056SOL     OW17629   0.893   4.635   3.597  0.5639  1.0676 -0.2326
 2056SOL    HW117630   0.862   4.570   3.661  1.2529  2.0235  1.0611
 2056SOL    HW217631   0.805   4.670   3.583 -0.0182  0.0522  0.7803
 2057SOL     OW17632   2.659   1.113   7.531  0.3663  0.4971 -0.2010
 2057SOL    HW117633   2.618   1.027   7.523  0.0809  0.5538  0.6267
 2057SOL    HW217634   2.746   1.088   7.562  0.6329  0.5963 -0.8707
 2058SOL     OW17635   4.019   3.267   2.974  0.2400 -0.7820  0.4091
 2058SOL    HW117636   4.036   3.206   2.902  2.4450  0.3539 -0.0249
 2058SOL    HW217637   4.079   3.241   3.043 -1.3142 -2.2062  1.2328
 2059SOL     OW17638   3.642   2.809   5.193 -0.2795 -0.1492  0.0400
 2059SOL    HW117639   3.581   2.765   5.134  1.0273  1.2843 -2.3756
 2059SOL    HW217640   3.588   2.885   5.216  3.2935  3.0016 -2.0286
 2060SOL     OW17641   0.507   4.595  16.005  0.0305  0.4152  0.5815
 2060SOL    HW117642   0.485   4.502  15.993 -3.2879  1.2252  0.4728
 2060SOL    HW217643   0.593   4.589  16.048  0.9732 -1.1299 -1.5168
 2061SOL     OW17644   0.135   2.757  15.457 -0.1447  0.2456 -0.8876
 2061SOL    HW117645   0.044   2.785  15.444  0.0274  1.7539  1.1169
 2061SOL    HW217646   0.127   2.696  15.530  0.3940  0.2608 -0.8162
 2062SOL     OW17647   1.722   0.296   3.949 -0.4724 -0.4749 -0.4165
 2062SOL    HW117648   1.633   0.317   3.921 -0.9154 -1.4707  0.2595
 2062SOL    HW217649   1.746   0.231   3.883 -0.6870 -2.6265  1.6589
 2063SOL     OW17650   0.664   0.969  12.071  0.0334  0.3928  0.0506
 2063SOL    HW117651   0.614   0.887  12.064  0.9021 -0.1094 -0.3240
 2063SOL    HW217652   0.693   0.975  11.980  1.5854  0.2920  0.5414
 2064SOL     OW17653   1.460   2.493  15.976  0.0008 -0.3768 -0.1072
 2064SOL    HW117654   1.460   2.422  15.911 -1.5834 -0.3293 -0.1441
 2064SOL    HW217655   1.472   2.559  15.908  0.7714 -1.7504 -1.3314
 2065SOL     OW17656   3.952   4.012   7.704  0.1765  0.4705  0.0946
 2065SOL    HW117657   4.020   4.075   7.683  1.1741 -0.5745  0.1808
 2065SOL    HW217658   3.910   4.056   7.778  1.1769  0.7029  0.5308
 2066SOL     OW17659   3.501   2.518   5.232  0.2334 -0.4390 -0.0649
 2066SOL    HW117660   3.435   2.585   5.251  0.4542 -0.6305  1.3473
 2066SOL    HW217661   3.460   2.444   5.278  0.9335 -0.0507  1.1863
 2067SOL     OW17662   2.399   4.166  16.201 -0.1092  0.1373  0.0287
 2067SOL    HW117663   2.349   4.089  16.226  0.5721 -0.6191 -0.9164
 2067SOL    HW217664   2.341   4.232  16.164 -0.1880  0.3459  0.5319
 2068SOL     OW17665   3.284   0.695  16.046  0.0479 -0.3013  0.2060
 2068SOL    HW117666   3.204   0.713  16.096  0.0694 -0.4738  0.3024
 2068SOL    HW217667   3.281   0.771  15.988 -3.1046 -2.0587 -1.9159
 2069SOL     OW17668   3.542   3.309   0.200 -0.0426 -0.2794  0.0874
 2069SOL    HW117669   3.490   3.274   0.127 -0.1394 -2.8899  1.4444
 2069SOL    HW217670   3.593   3.235   0.233  1.2045  0.7943  0.5551
 2070SOL     OW17671   0.047   1.599   4.662  0.0301  0.5798  0.4876
 2070SOL    HW117672   0.126   1.571   4.616  0.0743  0.7518  0.4584
 2070SOL    HW217673   0.050   1.539   4.736  1.8349  0.5679  0.4078
 2071SOL     OW17674   1.932   2.119  13.142 -0.2706 -0.3973  0.2780
 2071SOL    HW117675   2.013   2.094  13.096  0.0094 -2.2835  1.7768
 2071SOL    HW217676   1.901   2.032  13.165 -0.6326  0.4431  2.9344
 2072SOL     OW17677   1.671   2.366  12.010  0.0020  0.1184 -0.0095
 2072SOL    HW117678   1.761   2.381  12.037  0.5687 -3.8452  0.1966
 2072SOL    HW217679   1.657   2.294  12.071  2.8264  0.0863  0.5538
 2073SOL     OW17680   1.332   2.981   8.728 -0.1671 -0.3214 -0.0548
 2073SOL    HW117681   1.423   3.012   8.721  0.4273 -1.8281  0.8981
 2073SOL    HW217682   1.315   3.011   8.817  0.9427 -1.1282  0.4235
 2074SOL     OW17683   3.968   0.480  15.261 -0.2923  0.2602  0.6237
 2074SOL    HW117684   3.929   0.406  15.307 -1.8983 -0.0954 -1.3062
 2074SOL    HW217685   3.957   0.537  15.337 -0.7238  0.9752  0.0243
 2075SOL     OW17686   1.639   2.268   5.616 -0.5442 -0.2709  0.1021
 2075SOL    HW117687   1.609   2.177   5.611 -0.4819 -0.2544 -0.5664
 2075SOL    HW217688   1.624   2.280   5.710 -0.2167 -0.6149  0.2007
 2076SOL     OW17689   3.118   1.289   2.209  0.1561 -0.6859  0.6747
 2076SOL    HW117690   3.058   1.224   2.171 -0.4852  0.7166 -0.7141
 2076SOL    HW217691   3.185   1.229   2.242  2.1520  0.3597 -1.5034
 2077SOL     OW17692   3.710   4.274   7.111 -0.2902 -0.0933  0.5098
 2077SOL    HW117693   3.681   4.287   7.201  0.1898 -3.5976  1.1866
 2077SOL    HW217694   3.806   4.278   7.117 -0.2050 -1.7391  0.4402
 2078SOL     OW17695   1.362   3.469   1.306  0.2467 -0.4142 -0.4985
 2078SOL    HW117696   1.452   3.470   1.339  0.4735 -0.6984 -1.0980
 2078SOL    HW217697   1.310   3.425   1.373  0.7927  0.2483  0.3603
 2079SOL     OW17698   3.444   0.383  10.203  0.3468  0.1508 -0.2029
 2079SOL    HW117699   3.376   0.323  10.172  1.1466 -0.1004 -1.4995
 2079SOL    HW217700   3.437   0.361  10.296  0.2279 -1.8255 -0.6639
 2080SOL     OW17701   4.012   1.287   6.467 -0.1619  0.4889  0.1450
 2080SOL    HW117702   4.006   1.233   6.546  1.2989 -0.8867 -0.6841
 2080SOL    HW217703   3.988   1.374   6.497 -3.1304  0.4312 -2.0477
 2081SOL     OW17704   4.641   2.115   6.714 -0.1917  0.2039  0.5557
 2081SOL    HW117705   4.567   2.059   6.691 -1.4773  1.9911  0.3388
 2081SOL    HW217706   4.628   2.195   6.664 -1.8294 -0.2436  0.2415
 2082SOL     OW17707   1.980   2.787   1.315 -0.3591  0.4133  0.0122
 2082SOL    HW117708   1.901   2.838   1.296 -0.3642  0.4093  0.0225
 2082SOL    HW217709   1.971   2.718   1.250 -0.1977 -0.6268  1.0933
 2083SOL     OW17710   1.021   3.068   8.813  0.0704  0.6838 -0.3467
 2083SOL    HW117711   1.087   2.998   8.810 -1.8999 -1.1622 -0.3904
 2083SOL    HW217712   0.946   3.014   8.835 -0.1244  0.5293 -1.3647
 2084SOL     OW17713   3.051   0.649   7.286 -0.2694  0.2963 -0.4238
 2084SOL    HW117714   3.110   0.631   7.212 -2.5269 -1.0062 -1.9033
 2084SOL    HW217715   3.079   0.575   7.339  2.2773  1.0032 -0.7636
 2085SOL     OW17716   3.110   1.206   5.949 -0.1252 -0.8965  0.3981
 2085SOL    HW117717   3.110   1.115   5.981  1.3615 -1.3521 -0.9146
 2085SOL    HW217718   3.021   1.205   5.913 -0.3127  1.0450  0.8043
 2086SOL     OW17719   2.483   3.092   8.288 -0.2833  0.1939  0.7718
 2086SOL    HW117720   2.494   3.179   8.326 -0.4270  0.2957  0.5790
 2086SOL    HW217721   2.502   3.046   8.370 -1.0125  0.2456  0.9740
 2087SOL     OW17722   0.786   1.079  12.705 -0.2653 -0.2901 -0.2830
 2087SOL    HW117723   0.715   1.036  12.752 -1.0453  0.7759 -0.4985
 2087SOL    HW217724   0.850   1.010  12.723 -0.4423 -0.8190 -1.6536
 2088SOL     OW17725   2.876   1.857   4.712 -0.4473  0.1149  0.3861
 2088SOL    HW117726   2.896   1.898   4.628  2.8247 -0.3484  0.9322
 2088SOL    HW217727   2.781   1.851   4.705 -0.3977 -0.7126  0.3336
 2089SOL     OW17728   0.845   1.353   4.964  0.1416  0.3508 -0.2373
 2089SOL    HW117729   0.940   1.369   4.970 -0.1779  2.5479 -1.0971
 2089SOL    HW217730   0.811   1.416   4.901 -0.2666  0.1779 -0.1850
 2090SOL     OW17731   4.641   4.087   7.099 -0.2888  0.0985  0.1241
 2090SOL    HW117732   4.575   4.156   7.105 -0.7719 -0.4272  0.9902
 2090SOL    HW217733   4.604   4.018   7.044  1.0295 -1.1469  0.8321
 2091SOL     OW17734   4.299   4.181   2.985 -0.5621  0.4913 -0.5674
 2091SOL    HW117735   4.282   4.121   2.913  3.1680 -0.9815 -0.2332
 2091SOL    HW217736   4.251   4.137   3.055  1.5533  0.2952  0.7523
 2092SOL     OW17737   0.938   1.542   6.560  0.0884  1.1181  0.0506
 2092SOL    HW117738   0.863   1.534   6.501  0.6801  0.3111 -0.6039
 2092SOL    HW217739   0.961   1.634   6.546 -1.9674  1.4431 -1.1467
 2093SOL     OW17740   2.648   0.551   2.195 -0.0088  0.2712  0.8038
 2093SOL    HW117741   2.640   0.498   2.274  0.6861 -0.9286  0.0820
 2093SOL    HW217742   2.575   0.516   2.144  0.5079  0.7412 -0.2650
 2094SOL     OW17743   2.078   3.061   6.656 -0.2037 -0.3260  0.5898
 2094SOL    HW117744   2.131   3.012   6.593  0.0480 -0.4774  0.9208
 2094SOL    HW217745   2.093   3.151   6.626 -0.8018 -0.2840  0.3994
 2095SOL     OW17746   4.097   1.273   0.620  0.0140 -0.2150  0.5942
 2095SOL    HW117747   4.059   1.321   0.693  0.5057  0.7299  0.2406
 2095SOL    HW217748   4.190   1.296   0.622  0.1378 -0.6683  0.2290
 2096SOL     OW17749   0.453   0.589   9.585 -0.1949  0.1604 -0.0165
 2096SOL    HW117750   0.447   0.506   9.632  0.0541  0.1706  0.0359
 2096SOL    HW217751   0.427   0.548   9.502  2.0604 -1.2749 -0.0326
 2097SOL     OW17752   2.146   2.388   0.593 -0.0149  0.1524 -0.6023
 2097SOL    HW117753   2.133   2.483   0.600  1.0731  0.2977 -0.6043
 2097SOL    HW217754   2.063   2.363   0.552 -0.6149 -1.3149  1.5249
 2098SOL     OW17755   4.683   3.151   3.427 -0.1266  0.3874 -0.0994
 2098SOL    HW117756   4.701   3.243   3.406  2.1144  0.1998  1.0864
 2098SOL    HW217757   0.035   3.115   3.381 -1.3021 -1.8487 -0.2953
 2099SOL     OW17758   3.510   2.016  15.333  0.2069  0.0324 -0.1488
 2099SOL    HW117759   3.421   2.015  15.297  0.3902  1.3807 -0.6370
 2099SOL    HW217760   3.562   2.025  15.253  0.1535 -1.3745 -0.3472
 2100SOL     OW17761   4.123   2.299   6.221  0.1044 -0.2087  0.0454
 2100SOL    HW117762   4.158   2.258   6.300 -1.9338 -0.7101  0.6973
 2100SOL    HW217763   4.088   2.220   6.180  0.1003  0.8568 -2.0135
 2101SOL     OW17764   4.115   1.026   2.087  0.0051 -0.6277  0.0220
 2101SOL    HW117765   4.135   1.118   2.069 -0.9519 -0.0508  1.8835
 2101SOL    HW217766   4.019   1.030   2.086 -0.0225 -1.4122 -0.4927
 2102SOL     OW17767   3.190   1.409   2.708  0.1711  0.0669 -0.3395
 2102SOL    HW117768   3.172   1.465   2.632  2.4864 -0.5325 -1.3321
 2102SOL    HW217769   3.255   1.352   2.667  0.2392 -0.6113  0.7073
 2103SOL     OW17770   1.671   2.541   7.757 -0.4220  0.4126 -0.1277
 2103SOL    HW117771   1.720   2.524   7.837  1.7388  1.8783 -1.1400
 2103SOL    HW217772   1.623   2.624   7.759 -1.3235 -0.1245  0.3122
 2104SOL     OW17773   3.589   1.734   9.066  0.2406  0.0220  0.0912
 2104SOL    HW117774   3.622   1.774   8.986  0.9910  3.1507  1.9522
 2104SOL    HW217775   3.633   1.786   9.134 -1.3549 -0.4334  1.4736
 2105SOL     OW17776   4.159   0.352   5.890  0.4550 -0.1412  0.0440
 2105SOL    HW117777   4.203   0.433   5.913  0.2286  0.1467 -0.5453
 2105SOL    HW217778   4.116   0.335   5.974  0.2939 -0.4261 -0.0960
 2106SOL     OW17779   1.794   4.080   1.939  0.3445 -0.0017 -0.4396
 2106SOL    HW117780   1.888   4.100   1.948  0.7730 -2.4884  0.5879
 2106SOL    HW217781   1.794   4.034   1.855  1.0711  1.9082 -1.4702
 2107SOL     OW17782   2.767   2.611   6.129 -0.3968  0.0648 -0.1904
 2107SOL    HW117783   2.797   2.691   6.174 -1.4059  0.3192  0.0278
 2107SOL    HW217784   2.803   2.540   6.182 -0.4579  1.2604  1.4829
 2108SOL     OW17785   4.277   0.025   5.367 -0.3463  0.3436  0.6909
 2108SOL    HW117786   4.273   4.709   5.454  1.9312 -0.3520  0.4841
 2108SOL    HW217787   4.363   4.714   5.341 -1.4806 -0.8721 -1.4469
 2109SOL     OW17788   1.560   2.820  10.789  0.0514 -0.1361 -0.5039
 2109SOL    HW117789   1.576   2.731  10.820  1.1591 -0.0671 -0.9009
 2109SOL    HW217790   1.646   2.838  10.751  0.2235 -0.7788 -0.4187
 2110SOL     OW17791   4.300   4.400  15.002  0.5399 -0.4837 -0.0206
 2110SOL    HW117792   4.324   4.375  15.091 -0.0687  2.2979  0.9321
 2110SOL    HW217793   4.206   4.418  15.009  0.7574  0.5107  0.4307
 2111SOL     OW17794   2.268   3.050   3.892  0.4821 -0.0147 -0.0292
 2111SOL    HW117795   2.207   2.982   3.863  0.9479 -0.2712 -0.4055
 2111SOL    HW217796   2.208   3.121   3.914 -0.7318 -0.8497 -0.6407
 2112SOL     OW17797   2.231   2.671   4.023  0.0263  0.5532 -0.6989
 2112SOL    HW117798   2.242   2.577   4.006 -0.0213  0.1805  1.3045
 2112SOL    HW217799   2.321   2.679   4.057  0.2735 -0.5839 -1.0959
 2113SOL     OW17800   1.569   1.983   2.678 -0.3371  0.2045  0.0142
 2113SOL    HW117801   1.622   1.916   2.720  0.1615  0.5086 -0.1221
 2113SOL    HW217802   1.482   1.957   2.705  0.0330 -0.5871  0.4185
 2114SOL     OW17803   1.291   2.291   7.546 -0.5502  0.1356  0.2180
 2114SOL    HW117804   1.219   2.326   7.494  0.8137  0.5906 -1.3468
 2114SOL    HW217805   1.289   2.348   7.623 -0.7254 -1.9654  1.7806
 2115SOL     OW17806   2.184   1.224  17.405 -0.2526  0.1428 -0.0330
 2115SOL    HW117807   2.167   1.319  17.408 -0.6896  0.0801 -0.6230
 2115SOL    HW217808   2.172   1.215  17.500  0.2215  0.3325  0.0444
 2116SOL     OW17809   3.660   4.391   0.096 -0.1060 -0.0275  0.3018
 2116SOL    HW117810   3.745   4.362   0.128  0.2363  1.0268  0.3228
 2116SOL    HW217811   3.620   4.424   0.177  1.5021  2.0627  0.2187
 2117SOL     OW17812   1.824   3.688  17.163 -0.4342 -0.3000 -0.5167
 2117SOL    HW117813   1.742   3.650  17.195  0.7129 -1.2082  1.3270
 2117SOL    HW217814   1.811   3.782  17.150 -1.3715 -0.2058  1.1193
 2118SOL     OW17815   1.245   3.249   6.604 -1.0562  0.0192 -0.6433
 2118SOL    HW117816   1.221   3.158   6.585  1.2614 -0.6375 -0.5026
 2118SOL    HW217817   1.161   3.295   6.613 -0.8454  0.1109  0.8389
 2119SOL     OW17818   1.961   1.215   6.386 -0.8318 -0.4776 -0.4380
 2119SOL    HW117819   1.978   1.171   6.303 -2.3088 -2.1041  0.1251
 2119SOL    HW217820   2.048   1.230   6.423 -1.0500  0.1155 -0.1714
 2120SOL     OW17821   2.969   2.781   7.655  0.0330 -0.2795  0.1191
 2120SOL    HW117822   3.059   2.763   7.682  1.6753  4.7706 -2.0032
 2120SOL    HW217823   2.920   2.781   7.738 -2.5255  0.3232 -1.3958
 2121SOL     OW17824   1.241   0.709  10.272  0.0480  0.3722  0.7077
 2121SOL    HW117825   1.215   0.621  10.297  1.0010  0.3324  1.5200
 2121SOL    HW217826   1.315   0.729  10.330  1.2173  2.0138 -1.3409
 2122SOL     OW17827   4.401   3.562   5.053  0.2444  0.4193 -0.4064
 2122SOL    HW117828   4.336   3.535   5.118 -2.3982  3.0434 -1.9912
 2122SOL    HW217829   4.443   3.626   5.110 -0.3043  0.4633 -0.0501
 2123SOL     OW17830   2.223   0.208   5.489 -0.0533  0.3848 -0.2308
 2123SOL    HW117831   2.304   0.158   5.503  0.8045  1.9202  0.3413
 2123SOL    HW217832   2.211   0.205   5.394  1.0569 -0.6301 -0.3458
 2124SOL     OW17833   2.214   0.277   2.518  0.7529  0.0665  0.5375
 2124SOL    HW117834   2.119   0.283   2.513  0.9326  1.7905 -0.7071
 2124SOL    HW217835   2.221   0.298   2.611  0.6739  0.7650  0.3816
 2125SOL     OW17836   4.679   3.084   6.468 -0.5477  0.4302  0.1693
 2125SOL    HW117837   4.605   3.025   6.475 -0.0930 -0.1093  0.4509
 2125SOL    HW217838   0.013   3.030   6.414  2.2085  2.2438  1.2956
 2126SOL     OW17839   0.809   0.581   4.610  0.5372 -0.1406 -0.2573
 2126SOL    HW117840   0.770   0.498   4.639 -1.8638  0.1717 -2.5322
 2126SOL    HW217841   0.895   0.556   4.642  0.5735 -1.0200 -1.0396
 2127SOL     OW17842   0.884   0.407   3.930  0.2842 -0.2761 -0.3087
 2127SOL    HW117843   0.814   0.406   3.995  2.7068  0.0415  2.2857
 2127SOL    HW217844   0.896   0.501   3.917  2.1868 -0.3655  0.7603
 2128SOL     OW17845   0.597   2.738  13.662 -0.1838 -0.2052 -0.6521
 2128SOL    HW117846   0.624   2.814  13.713  2.2267 -0.8946 -0.9402
 2128SOL    HW217847   0.505   2.735  13.689  0.4700 -0.2924  1.5624
 2129SOL     OW17848   4.580   0.126  11.360  1.3451  0.2618 -0.1827
 2129SOL    HW117849   4.562   0.104  11.269 -0.7793  1.2266  0.0194
 2129SOL    HW217850   4.511   0.188  11.381 -0.1616 -0.9747 -1.5064
 2130SOL     OW17851   1.162   1.736   1.063 -0.4917 -0.3562  0.5590
 2130SOL    HW117852   1.078   1.694   1.082 -0.1667 -0.4991  1.6653
 2130SOL    HW217853   1.139   1.799   0.995 -1.4209 -1.3365 -0.0418
 2131SOL     OW17854   2.098   1.904   4.167 -0.1157 -0.1456  0.3283
 2131SOL    HW117855   2.185   1.870   4.185  1.2963  2.3234 -1.8334
 2131SOL    HW217856   2.036   1.832   4.176 -0.2744  0.2121  2.1157
 2132SOL     OW17857   1.841   1.079   8.740 -0.3634 -0.1423 -0.3201
 2132SOL    HW117858   1.903   1.010   8.714  0.5811 -0.4580  2.7995
 2132SOL    HW217859   1.876   1.147   8.682 -2.8572 -0.7890 -2.5797
 2133SOL     OW17860   4.518   0.395   8.997 -0.3890 -0.0808  0.6574
 2133SOL    HW117861   4.590   0.457   8.987  0.4557 -1.2366 -0.4441
 2133SOL    HW217862   4.440   0.438   8.963  0.2235 -0.3956 -1.1666
 2134SOL     OW17863   1.971   3.833   6.072 -0.8420  0.0367  0.2758
 2134SOL    HW117864   1.996   3.907   6.128 -0.3690 -0.0374  0.1576
 2134SOL    HW217865   1.936   3.878   5.995  1.3919  1.3569  0.0543
 2135SOL     OW17866   2.329   0.388   3.641 -0.2327  0.1087  0.1829
 2135SOL    HW117867   2.403   0.394   3.702 -0.8156  1.1698  0.7960
 2135SOL    HW217868   2.336   0.297   3.612 -0.7172  0.7286 -1.8557
 2136SOL     OW17869   4.454   2.045   9.325  0.2140  0.7293  0.4066
 2136SOL    HW117870   4.451   2.126   9.376  0.8306  1.0246 -0.0337
 2136SOL    HW217871   4.537   2.051   9.278 -0.6442 -1.2960 -1.3943
 2137SOL     OW17872   1.326   3.022  11.007  0.6384  0.1708 -0.2150
 2137SOL    HW117873   1.415   3.032  11.041 -0.0321  1.0631  1.2645
 2137SOL    HW217874   1.300   2.933  11.032 -0.1532  0.6226  0.5591
 2138SOL     OW17875   2.022   4.111   9.136 -0.2583  0.0921 -0.0866
 2138SOL    HW117876   1.950   4.071   9.185  0.3648  0.2086  0.9342
 2138SOL    HW217877   2.076   4.118   9.215 -1.6040  0.1400  0.8444
 2139SOL     OW17878   0.713   2.381   1.407 -0.2095 -0.1514 -0.2730
 2139SOL    HW117879   0.620   2.358   1.413 -0.1836  0.2625  1.5812
 2139SOL    HW217880   0.715   2.410   1.316  0.2910 -0.7271 -0.4450
 2140SOL     OW17881   4.722   2.027   8.414  0.3806 -1.1822  0.5177
 2140SOL    HW117882   0.061   2.090   8.450 -2.4977  0.8927  1.9692
 2140SOL    HW217883   4.646   2.031   8.472  0.7624  0.1014  0.9300
 2141SOL     OW17884   4.057   2.854   3.665 -0.2009  0.2602  0.5215
 2141SOL    HW117885   4.045   2.773   3.715  0.1037  0.0334  0.2242
 2141SOL    HW217886   4.152   2.844   3.653 -0.3854 -1.9912  0.8815
 2142SOL     OW17887   4.358   1.444   1.005  0.3786  0.0645 -0.2587
 2142SOL    HW117888   4.437   1.411   1.048  1.2055 -0.1404 -1.9325
 2142SOL    HW217889   4.383   1.431   0.914  0.3076  0.2045 -0.2994
 2143SOL     OW17890   2.568   3.369   2.134 -0.1379 -0.0938  0.0680
 2143SOL    HW117891   2.503   3.358   2.065  1.5710  1.5848 -1.8254
 2143SOL    HW217892   2.573   3.289   2.186  0.4739  1.0193  1.7184
 2144SOL     OW17893   2.594   0.404   5.595  0.5211 -0.6168  0.1760
 2144SOL    HW117894   2.624   0.335   5.654 -0.4150 -0.7284  0.5272
 2144SOL    HW217895   2.584   0.476   5.657  1.4421  1.2387 -1.8560
 2145SOL     OW17896   4.105   3.110  15.329 -0.3291  0.0333 -0.5677
 2145SOL    HW117897   4.035   3.148  15.383  1.0591  1.8765 -0.0613
 2145SOL    HW217898   4.147   3.183  15.284 -0.6641 -0.8170 -2.2707
 2146SOL     OW17899   3.800   3.150   3.113  0.0308 -0.2235  0.7012
 2146SOL    HW117900   3.818   3.174   3.022 -0.3885  3.0407  1.4889
 2146SOL    HW217901   3.886   3.144   3.154  0.3648 -1.0405 -0.1264
 2147SOL     OW17902   1.213   0.210   4.207  0.2112 -0.6146 -0.0576
 2147SOL    HW117903   1.244   0.147   4.271  0.7942 -0.1365  0.1234
 2147SOL    HW217904   1.233   0.296   4.246 -1.3407 -0.2329 -0.0882
 2148SOL     OW17905   0.791   2.323   0.895 -0.1567  0.1960  0.5421
 2148SOL    HW117906   0.885   2.308   0.899 -0.1332  0.6955  1.8470
 2148SOL    HW217907   0.771   2.332   0.802 -2.9081  0.0635  1.1263
 2149SOL     OW17908   0.828   1.842  11.974 -0.3628 -0.1571  0.5199
 2149SOL    HW117909   0.879   1.769  11.938  1.3667  1.3502 -0.1362
 2149SOL    HW217910   0.777   1.791  12.037 -0.1533 -1.9415 -0.7575
 2150SOL     OW17911   3.059   0.205  13.561 -0.4192 -0.0890 -0.6016
 2150SOL    HW117912   3.084   0.183  13.651  0.1506  1.2870 -0.4221
 2150SOL    HW217913   3.027   0.120  13.531 -0.1460 -0.2290 -0.5017
 2151SOL     OW17914   1.610   1.189   3.568  0.4072 -0.1757 -0.0320
 2151SOL    HW117915   1.601   1.172   3.474 -1.9485 -1.1026  0.3568
 2151SOL    HW217916   1.563   1.118   3.612  0.3016  0.5385  1.0009
 2152SOL     OW17917   1.015   2.909  13.369 -0.7700  0.0101 -0.2645
 2152SOL    HW117918   1.000   2.908  13.464  2.2532 -0.5981  0.1845
 2152SOL    HW217919   0.928   2.888  13.335 -0.7697 -0.2181 -0.1232
 2153SOL     OW17920   3.910   3.261  10.736  0.2485  0.5615 -0.4081
 2153SOL    HW117921   3.984   3.201  10.750  0.9725  1.4474 -0.4164
 2153SOL    HW217922   3.960   3.339  10.759  0.9289  0.4580 -1.5652
 2154SOL     OW17923   2.355   1.787   4.173 -0.8481  0.1383 -0.0665
 2154SOL    HW117924   2.375   1.707   4.223  0.8750 -0.2612 -1.3812
 2154SOL    HW217925   2.395   1.760   4.091 -0.4846 -1.6422  0.6897
 2155SOL     OW17926   1.679   0.437   3.127 -0.4204 -0.2704  0.1276
 2155SOL    HW117927   1.733   0.515   3.122  2.2568 -2.1676 -0.6167
 2155SOL    HW217928   1.592   0.474   3.141  0.3128  1.6411 -0.3547
 2156SOL     OW17929   2.653   3.602  14.125 -0.6363  0.4447 -0.6098
 2156SOL    HW117930   2.735   3.641  14.157 -1.0167  0.1944  0.6784
 2156SOL    HW217931   2.690   3.539  14.063  2.5106  0.9637  0.6978
 2157SOL     OW17932   0.695   1.927   1.876 -0.4042 -0.0890  0.1092
 2157SOL    HW117933   0.708   1.961   1.787 -1.8512  2.0439  0.7199
 2157SOL    HW217934   0.767   1.948   1.936 -0.6307  0.6260  0.1308
 2158SOL     OW17935   3.739   1.561   4.607 -0.4223  0.6075  0.0516
 2158SOL    HW117936   3.784   1.594   4.685 -0.7856 -0.3586  0.6674
 2158SOL    HW217937   3.803   1.503   4.564 -0.5723  0.5016 -0.0297
 2159SOL     OW17938   1.623   3.568  12.203 -0.5801 -0.1408  0.3505
 2159SOL    HW117939   1.679   3.538  12.132 -0.2231 -1.3270  1.1354
 2159SOL    HW217940   1.587   3.649  12.168 -2.1228 -0.4345  1.2536
 2160SOL     OW17941   2.712   2.734   4.383  0.3133  0.9663  0.1610
 2160SOL    HW117942   2.642   2.787   4.345  0.2417  1.1973  0.6163
 2160SOL    HW217943   2.675   2.646   4.388  0.9025  0.7071 -0.0183
 2161SOL     OW17944   2.156   2.604   2.748  0.0870  0.6987 -0.1725
 2161SOL    HW117945   2.086   2.545   2.721 -0.2333  1.0891 -0.1825
 2161SOL    HW217946   2.190   2.546   2.816 -0.8588 -0.2993 -0.5554
 2162SOL     OW17947   0.255   2.098  12.820  0.2482  0.3164 -0.3765
 2162SOL    HW117948   0.324   2.053  12.770 -0.6601  1.4464 -2.6622
 2162SOL    HW217949   0.182   2.055  12.776 -1.3152  0.2293  2.3023
 2163SOL     OW17950   2.066   0.924   8.676 -0.0368 -0.3191  0.0162
 2163SOL    HW117951   2.118   0.846   8.693  2.1796  1.2257  0.2779
 2163SOL    HW217952   2.116   0.977   8.738 -1.1977  0.0756  0.6156
 2164SOL     OW17953   1.948   3.973   7.326  0.0781  0.0408  0.3080
 2164SOL    HW117954   2.015   4.026   7.368  1.2688 -0.6800 -0.6730
 2164SOL    HW217955   1.976   3.970   7.234 -0.3261 -0.3108  0.1962
 2165SOL     OW17956   0.740   4.479  16.577 -0.8189  0.3693 -0.0798
 2165SOL    HW117957   0.656   4.444  16.607 -0.0995 -0.1526  1.3694
 2165SOL    HW217958   0.793   4.431  16.641 -2.3520 -0.4548  0.5718
 2166SOL     OW17959   2.610   3.712   8.735  0.0973  0.0373 -0.3127
 2166SOL    HW117960   2.668   3.777   8.697  1.2360 -0.2603  0.9190
 2166SOL    HW217961   2.628   3.723   8.829  1.4880 -2.0663 -0.3335
 2167SOL     OW17962   1.177   3.208  10.333  0.3691  0.3244  0.0101
 2167SOL    HW117963   1.271   3.202  10.351  0.0594 -0.7494  1.2675
 2167SOL    HW217964   1.164   3.117  10.306  0.2779  0.0045  1.1189
 2168SOL     OW17965   3.238   0.149   7.378 -0.0731 -0.0350  0.6246
 2168SOL    HW117966   3.179   0.152   7.302 -1.2238 -1.6652  1.4626
 2168SOL    HW217967   3.203   0.215   7.438  0.6242  0.4632  0.4810
 2169SOL     OW17968   3.696   3.273   2.457  0.2055 -0.5554 -0.0410
 2169SOL    HW117969   3.703   3.211   2.529 -2.3059  0.9150  1.4412
 2169SOL    HW217970   3.771   3.240   2.407  1.0015  1.0886  0.0997
 2170SOL     OW17971   2.647   2.432   1.645  0.0683  0.4001  0.2274
 2170SOL    HW117972   2.654   2.392   1.732  1.6622  0.5419  0.1673
 2170SOL    HW217973   2.578   2.496   1.661  1.5811  2.2508 -0.6196
 2171SOL     OW17974   2.583   2.714   2.617  0.4250  0.8062  0.4062
 2171SOL    HW117975   2.504   2.725   2.563 -0.5495 -1.1745  1.4256
 2171SOL    HW217976   2.624   2.797   2.594  1.2862  0.2813  0.0488
 2172SOL     OW17977   2.336   1.736   1.336 -0.2250  0.4452 -0.1595
 2172SOL    HW117978   2.289   1.735   1.252  0.0895 -0.2565 -0.3254
 2172SOL    HW217979   2.371   1.825   1.329 -1.9680  1.1567  0.0199
 2173SOL     OW17980   2.460   3.413  10.576  0.3308  0.6684  0.1689
 2173SOL    HW117981   2.399   3.453  10.638 -1.5552 -2.7250  0.4526
 2173SOL    HW217982   2.412   3.399  10.495 -2.4441 -0.0307  1.9513
 2174SOL     OW17983   0.815   1.108   3.256 -0.3595  0.5496  0.0496
 2174SOL    HW117984   0.902   1.076   3.278 -0.4109 -0.2596 -0.9160
 2174SOL    HW217985   0.773   1.035   3.211  2.5616  0.7038 -2.9731
 2175SOL     OW17986   0.767   4.305  10.191 -0.3040 -0.4665 -0.5169
 2175SOL    HW117987   0.712   4.380  10.169 -0.9171 -1.3176 -1.8587
 2175SOL    HW217988   0.854   4.338  10.172 -0.8885 -0.2392 -2.8043
 2176SOL     OW17989   2.867   2.605   9.561 -0.4701  0.1330  0.2899
 2176SOL    HW117990   2.840   2.644   9.644 -0.0410 -0.3987  0.6824
 2176SOL    HW217991   2.961   2.597   9.575 -0.5609  0.2624  0.9964
 2177SOL     OW17992   0.105   4.029   6.363  0.3470 -0.5021 -0.2418
 2177SOL    HW117993   0.032   4.084   6.334 -0.4816 -3.1136 -3.1585
 2177SOL    HW217994   0.154   4.089   6.419  1.0768 -0.3090 -1.0753
 2178SOL     OW17995   2.181   1.201   6.019 -0.4660 -0.6642 -0.0799
 2178SOL    HW117996   2.249   1.264   6.043  1.5556 -2.9184  0.0402
 2178SOL    HW217997   2.230   1.120   6.032 -1.5049 -1.2556  0.1821
 2179SOL     OW17998   1.380   2.051  11.132  0.7211  0.1860  0.1237
 2179SOL    HW117999   1.342   1.969  11.101  2.3637 -0.3017 -0.5952
 2179SOL    HW218000   1.307   2.112  11.144 -0.2699 -0.3102 -3.3734
 2180SOL     OW18001   2.212   3.883   6.663 -0.0407  0.3056  0.2601
 2180SOL    HW118002   2.124   3.871   6.629 -0.2089  2.3726 -0.0835
 2180SOL    HW218003   2.250   3.805   6.623  1.2870  0.4349  1.2403
 2181SOL     OW18004   3.843   1.540   9.213 -0.2773 -0.4435 -0.1764
 2181SOL    HW118005   3.771   1.479   9.205 -0.1528 -0.4370 -1.3511
 2181SOL    HW218006   3.797   1.618   9.244 -0.2069 -1.0134  1.3535
 2182SOL     OW18007   3.645   1.936   4.687 -0.2525 -0.3701 -0.8085
 2182SOL    HW118008   3.579   1.955   4.620 -2.0712 -1.8992  0.5415
 2182SOL    HW218009   3.724   1.906   4.642 -1.7564 -4.8974 -0.3836
 2183SOL     OW18010   0.607   1.645   2.291  0.1377  0.7657 -0.6503
 2183SOL    HW118011   0.544   1.628   2.220  0.1778  1.0487 -0.7538
 2183SOL    HW218012   0.589   1.737   2.312  0.1303  0.9095 -1.2853
 2184SOL     OW18013   4.074   0.339  10.366 -0.1697 -0.5030  0.9598
 2184SOL    HW118014   4.164   0.323  10.338  0.2263 -2.3549  3.3093
 2184SOL    HW218015   4.046   0.421  10.326  1.8935  0.3891  1.3607
 2185SOL     OW18016   4.032   3.881   1.877  0.0871  0.4925 -0.2985
 2185SOL    HW118017   4.054   3.921   1.794  2.7896  1.6274  0.9693
 2185SOL    HW218018   4.121   3.860   1.906  0.1394  1.6723  0.4077
 2186SOL     OW18019   2.971   3.158   9.285 -0.1382  0.2632  0.0945
 2186SOL    HW118020   2.883   3.181   9.255 -0.6561  1.4357  2.4371
 2186SOL    HW218021   2.961   3.064   9.303 -0.2767  0.5897  1.7474
 2187SOL     OW18022   4.346   3.417   9.755  0.4423  0.1322 -0.1325
 2187SOL    HW118023   4.355   3.430   9.850  2.3441  0.1270 -0.3144
 2187SOL    HW218024   4.264   3.466   9.745 -0.2284 -0.8439  0.5279
 2188SOL     OW18025   3.016   1.536   4.446 -0.7716 -0.2706 -0.3553
 2188SOL    HW118026   2.931   1.529   4.490 -0.4189  0.4029  0.4316
 2188SOL    HW218027   3.000   1.611   4.389 -1.2162  1.3091  1.8202
 2189SOL     OW18028   3.947   4.099   9.696  0.0036  0.7259 -0.1500
 2189SOL    HW118029   3.868   4.079   9.646 -0.5413  0.9535  0.6334
 2189SOL    HW218030   3.971   4.172   9.640  0.0760  0.6710 -0.1910
 2190SOL     OW18031   2.792   1.950  15.727  0.7982  0.5883 -0.4732
 2190SOL    HW118032   2.772   1.976  15.817 -1.4444 -2.5295 -0.0626
 2190SOL    HW218033   2.710   1.900  15.724  0.7352  0.5680  1.1380
 2191SOL     OW18034   3.974   2.194   4.737  0.0691  0.4815 -0.2262
 2191SOL    HW118035   3.989   2.251   4.812  0.4699 -0.3672  0.3297
 2191SOL    HW218036   3.950   2.259   4.671 -0.6412  2.1980  1.7177
 2192SOL     OW18037   0.222   0.392  14.227 -0.0895  0.0562  0.2881
 2192SOL    HW118038   0.246   0.349  14.145  0.5700 -0.2277  0.6224
 2192SOL    HW218039   0.304   0.386  14.277 -1.3825 -2.4937  2.1296
 2193SOL     OW18040   2.549   1.312   4.705 -0.1390  0.1901  0.0625
 2193SOL    HW118041   2.545   1.407   4.690 -1.5563 -0.2461 -2.2046
 2193SOL    HW218042   2.599   1.308   4.787  1.0457  0.2781 -0.6561
 2194SOL     OW18043   1.692   2.698   5.832  0.4119  0.2302 -0.3793
 2194SOL    HW118044   1.673   2.645   5.755 -0.6212  0.7775 -0.4914
 2194SOL    HW218045   1.684   2.784   5.792 -2.2993 -0.5388 -1.4638
 2195SOL     OW18046   2.653   2.321  17.662  0.4467 -0.2951 -0.2947
 2195SOL    HW118047   2.747   2.305  17.662  0.6127  0.7849  2.1013
 2195SOL    HW218048   2.651   2.415  17.679  0.2358 -0.4448  0.4992
 2196SOL     OW18049   4.569   1.183  10.839 -0.2828 -0.3941  0.0718
 2196SOL    HW118050   4.621   1.246  10.789 -2.7090  0.8439 -0.8916
 2196SOL    HW218051   4.526   1.231  10.909  0.2340 -0.0077  0.1226
 2197SOL     OW18052   3.472   1.281   3.071 -0.5426 -0.0015 -0.1255
 2197SOL    HW118053   3.387   1.307   3.038 -0.9806  0.5342  1.4096
 2197SOL    HW218054   3.479   1.193   3.034 -1.1080  0.6043 -1.6623
 2198SOL     OW18055   0.544   0.740   3.547  0.8509 -0.4554 -0.0747
 2198SOL    HW118056   0.456   0.711   3.571  0.4624 -1.7154 -2.9306
 2198SOL    HW218057   0.551   0.822   3.594 -2.4351  0.8387 -1.7945
 2199SOL     OW18058   2.035   3.711   7.849  0.1032  0.0082 -0.2837
 2199SOL    HW118059   1.974   3.754   7.908 -0.2963 -1.3522  0.3048
 2199SOL    HW218060   2.085   3.788   7.823 -0.8724 -0.3458 -3.2878
 2200SOL     OW18061   2.867   4.356   8.953  0.2805 -0.5522 -0.2841
 2200SOL    HW118062   2.913   4.281   8.990  0.7868  1.0880  2.4305
 2200SOL    HW218063   2.937   4.421   8.950  0.7119 -1.1303 -2.4868
 2201SOL     OW18064   0.825   0.413   2.924 -0.1562 -0.2010  0.0721
 2201SOL    HW118065   0.750   0.463   2.894  0.5940 -0.0108 -1.4738
 2201SOL    HW218066   0.817   0.340   2.863  2.1391 -1.3873  1.1670
 2202SOL     OW18067   2.888   4.232  17.408 -0.1727  0.9992 -0.8198
 2202SOL    HW118068   2.831   4.215  17.333  0.0405  0.5898 -0.8883
 2202SOL    HW218069   2.845   4.168  17.464 -0.3114 -0.9529 -3.1584
 2203SOL     OW18070   4.040   0.086   8.836  0.1430 -0.5456  0.0679
 2203SOL    HW118071   3.984   0.054   8.906  0.3688 -2.2537 -0.5435
 2203SOL    HW218072   4.052   0.008   8.782  3.2867 -0.4838  0.6403
 2204SOL     OW18073   1.309   2.166  15.549  0.2726  0.3453  0.2489
 2204SOL    HW118074   1.255   2.121  15.614 -2.6462  0.2712 -2.2590
 2204SOL    HW218075   1.254   2.167  15.471  3.0389  0.5169 -1.7203
 2205SOL     OW18076   2.665   0.937   9.780 -0.3620 -0.5393 -0.3933
 2205SOL    HW118077   2.756   0.927   9.753 -0.4538 -2.0559 -0.1348
 2205SOL    HW218078   2.641   1.013   9.727  0.3496 -1.3713 -1.9114
 2206SOL     OW18079   1.142   3.129  14.919 -0.7610 -0.0812 -0.3661
 2206SOL    HW118080   1.109   3.204  14.969  2.1773  1.7878 -1.2398
 2206SOL    HW218081   1.110   3.054  14.970 -0.4758 -1.7172 -2.6079
 2207SOL     OW18082   1.379   2.416   3.624 -0.0834  0.4583  0.0181
 2207SOL    HW118083   1.284   2.421   3.623 -0.2470 -2.6079 -0.2737
 2207SOL    HW218084   1.404   2.501   3.659 -2.3552 -0.2534  3.3130
 2208SOL     OW18085   2.976   1.580  17.573 -0.0921  0.0475  0.4560
 2208SOL    HW118086   2.990   1.641  17.500 -1.1060  0.8586  0.9382
 2208SOL    HW218087   3.069   1.561  17.585 -0.4488 -0.4948  2.3562
 2209SOL     OW18088   0.026   2.574   2.523  0.3468  0.0514  0.3384
 2209SOL    HW118089   0.068   2.649   2.564  0.7635 -1.0888  1.9694
 2209SOL    HW218090   0.057   2.493   2.563 -0.1412 -0.0926  0.4278
 2210SOL     OW18091   2.723   3.169   3.844  0.1154  0.0694  0.3618
 2210SOL    HW118092   2.672   3.148   3.765  1.8847 -0.0789 -0.7385
 2210SOL    HW218093   2.769   3.249   3.821  1.4553 -0.2817  1.8773
 2211SOL     OW18094   4.234   0.869   5.291 -0.1759  0.3559  0.7076
 2211SOL    HW118095   4.279   0.826   5.219 -0.9619  0.0207  0.4101
 2211SOL    HW218096   4.297   0.929   5.332  0.7922 -0.3584  0.2545
 2212SOL     OW18097   2.573   0.590  17.227  0.4271  0.2043  0.0339
 2212SOL    HW118098   2.652   0.539  17.211 -0.1036 -1.0222  1.3508
 2212SOL    HW218099   2.555   0.619  17.138 -2.1591 -2.4504 -0.2903
 2213SOL     OW18100   2.488   2.593  14.957  0.3033 -1.0233 -0.3995
 2213SOL    HW118101   2.572   2.611  14.999  0.8075  1.5877 -2.4959
 2213SOL    HW218102   2.484   2.498  14.947 -0.1635 -1.1622  1.1244
 2214SOL     OW18103   2.903   2.421   4.401  0.2758  0.5116  0.1778
 2214SOL    HW118104   2.808   2.434   4.406  0.3556  1.3953 -0.5738
 2214SOL    HW218105   2.927   2.412   4.309  0.2781 -1.1192  0.3508
 2215SOL     OW18106   0.323   4.106   3.666 -0.5567  0.3503 -0.0275
 2215SOL    HW118107   0.320   4.190   3.712 -0.9857  0.3058  0.0317
 2215SOL    HW218108   0.250   4.103   3.604  0.5108 -0.9882 -1.1888
 2216SOL     OW18109   4.190   0.501   2.650  0.1569 -0.0279  0.3011
 2216SOL    HW118110   4.137   0.431   2.686 -0.3301  0.4132  0.4472
 2216SOL    HW218111   4.148   0.582   2.680 -0.6008  0.0416 -0.9394
 2217SOL     OW18112   3.116   1.267  13.693  0.1436  0.3216  0.2343
 2217SOL    HW118113   3.204   1.228  13.697  1.4850  3.1317 -1.8724
 2217SOL    HW218114   3.051   1.197  13.692 -2.1682  2.4795  1.0966
 2218SOL     OW18115   3.747   2.377   8.686 -0.1695 -0.2621 -0.1574
 2218SOL    HW118116   3.651   2.370   8.692 -0.1368 -0.3313  0.3505
 2218SOL    HW218117   3.770   2.373   8.779  0.2709 -0.6949 -0.2882
 2219SOL     OW18118   4.171   3.748   6.264  0.4415  0.4983  0.1753
 2219SOL    HW118119   4.212   3.707   6.188 -0.6141  1.8885 -1.1510
 2219SOL    HW218120   4.183   3.684   6.333 -1.3213 -2.2017 -2.0350
 2220SOL     OW18121   4.365   2.682   4.912 -0.2365  0.2934 -0.0502
 2220SOL    HW118122   4.383   2.749   4.847  2.0513 -0.8595 -0.6361
 2220SOL    HW218123   4.304   2.626   4.863  1.4696 -0.7686 -1.0040
 2221SOL     OW18124   3.751   3.901  12.059 -0.0454 -0.2135  0.0866
 2221SOL    HW118125   3.811   3.970  12.088 -1.9611 -0.2010  3.9353
 2221SOL    HW218126   3.671   3.923  12.105 -0.0050 -0.2972  0.1952
 2222SOL     OW18127   4.603   3.190   8.702 -0.4543  0.1296  0.0167
 2222SOL    HW118128   4.635   3.270   8.660 -1.9778  1.0050  0.5015
 2222SOL    HW218129   4.642   3.135   8.634 -0.5556 -0.1059  0.1481
 2223SOL     OW18130   3.823   1.005  14.464 -0.2168 -0.1995 -0.2062
 2223SOL    HW118131   3.739   1.051  14.471  0.0019  0.0141  1.0440
 2223SOL    HW218132   3.796   0.938  14.401 -1.7734 -0.5167  0.7813
 2224SOL     OW18133   1.719   3.551   8.122 -0.6876 -0.0712 -0.3137
 2224SOL    HW118134   1.763   3.476   8.162 -2.5464 -1.4660 -0.8557
 2224SOL    HW218135   1.643   3.563   8.179  0.2562  2.1709  0.4889
 2225SOL     OW18136   1.535   4.388  15.525  0.0370 -0.3429  0.3910
 2225SOL    HW118137   1.474   4.335  15.577 -0.1406 -2.1997 -1.7157
 2225SOL    HW218138   1.479   4.463  15.504  0.3066  0.4917  2.6061
 2226SOL     OW18139   1.093   1.809   0.592 -0.1566  0.0973 -0.0893
 2226SOL    HW118140   1.069   1.740   0.530  0.7361 -0.3233  0.0435
 2226SOL    HW218141   1.038   1.781   0.665  1.3662  0.6919  1.2688
 2227SOL     OW18142   3.880   0.332   5.433 -0.5017  0.1416  0.1615
 2227SOL    HW118143   3.844   0.404   5.381 -3.6934 -2.5398 -1.4086
 2227SOL    HW218144   3.861   0.254   5.380  2.4930 -0.6561  0.2518
 2228SOL     OW18145   1.419   1.790   3.733  0.7103  0.2035 -0.6601
 2228SOL    HW118146   1.479   1.788   3.808 -0.2169 -2.4020  0.0250
 2228SOL    HW218147   1.368   1.709   3.740  2.0130 -0.4929  0.8204
 2229SOL     OW18148   3.891   0.152  14.425  0.0479 -0.1152  0.2505
 2229SOL    HW118149   3.833   0.227  14.439 -0.4593 -0.9445  2.5319
 2229SOL    HW218150   3.842   0.097  14.363  0.7883  4.4619 -4.3624
 2230SOL     OW18151   1.621   2.453   1.219  0.6708  0.0308  0.2416
 2230SOL    HW118152   1.616   2.367   1.261  0.4203 -0.7513 -1.3477
 2230SOL    HW218153   1.535   2.482   1.248  0.1985 -1.6314  0.5177
 2231SOL     OW18154   2.571   3.613   6.449  0.8354 -0.6801 -0.2927
 2231SOL    HW118155   2.495   3.556   6.436 -1.0040  1.0509  2.9165
 2231SOL    HW218156   2.546   3.699   6.415  1.1455 -1.1629 -1.7630
 2232SOL     OW18157   3.151   1.889   5.192 -0.1360  0.3950 -0.1652
 2232SOL    HW118158   3.120   1.923   5.109  1.4447 -0.3372 -1.0574
 2232SOL    HW218159   3.207   1.959   5.226  1.6615 -1.1121 -0.0347
 2233SOL     OW18160   1.531   4.508  15.940  0.4571  0.1823 -0.2120
 2233SOL    HW118161   1.451   4.501  15.888 -0.0135  0.1585  0.5187
 2233SOL    HW218162   1.604   4.520  15.879  1.0117  0.2554  0.4707
 2234SOL     OW18163   2.853   1.686   5.539 -0.2910  0.1924  0.5116
 2234SOL    HW118164   2.894   1.759   5.584  2.8087  0.0245 -2.0004
 2234SOL    HW218165   2.917   1.673   5.469 -1.9364 -1.3841 -0.7245
 2235SOL     OW18166   4.087   1.958   1.353 -0.7545 -0.1381  0.3907
 2235SOL    HW118167   4.032   1.890   1.315 -0.1455  1.4778 -3.4806
 2235SOL    HW218168   4.022   1.997   1.412 -1.5211 -1.5550  0.4827
 2236SOL     OW18169   4.518   4.529  16.923  0.6307  0.1602  0.1138
 2236SOL    HW118170   4.606   4.559  16.943  0.4761 -0.8917  2.3799
 2236SOL    HW218171   4.500   4.583  16.847  1.1123  2.3401  1.5441
 2237SOL     OW18172   4.549   0.918   1.980 -0.5722  0.5313 -0.0428
 2237SOL    HW118173   4.570   0.835   2.024 -1.0663 -0.6564 -2.0248
 2237SOL    HW218174   4.455   0.905   1.970 -0.7437  2.0709 -0.2889
 2238SOL     OW18175   4.564   3.821   1.060  0.3825  0.0428 -0.9248
 2238SOL    HW118176   4.531   3.893   1.005 -0.3732  0.7999  0.4962
 2238SOL    HW218177   4.533   3.849   1.146  0.0129 -0.5812 -0.8534
 2239SOL     OW18178   1.701   2.594   6.099 -0.4842 -0.3715 -0.3746
 2239SOL    HW118179   1.713   2.499   6.095  1.0893 -0.2997  2.3516
 2239SOL    HW218180   1.681   2.617   6.008  2.2296 -0.6714 -1.0582
 2240SOL     OW18181   2.186   3.679   1.852 -0.1093  0.4715 -0.2370
 2240SOL    HW118182   2.173   3.620   1.926 -1.9775 -0.0663 -0.9974
 2240SOL    HW218183   2.281   3.682   1.839  0.2414  0.9558  2.3603
 2241SOL     OW18184   0.848   2.087   7.550 -0.0284 -0.0331 -0.4412
 2241SOL    HW118185   0.886   2.159   7.601 -0.4093 -1.6577  2.1495
 2241SOL    HW218186   0.795   2.046   7.619  0.7206  1.7886  1.2143
 2242SOL     OW18187   0.085   1.638   3.213 -0.6786 -0.5740  0.6012
 2242SOL    HW118188   0.026   1.610   3.144  1.7927 -0.0823 -1.7189
 2242SOL    HW218189   0.043   1.723   3.229  0.6328  0.4554 -1.4044
 2243SOL     OW18190   0.469   1.877  10.167  0.6817  0.1413  0.3490
 2243SOL    HW118191   0.450   1.838  10.081  0.7786 -1.0802  0.8782
 2243SOL    HW218192   0.538   1.939  10.143  1.3461 -0.7948 -0.1724
 2244SOL     OW18193   1.945   3.326  12.430  0.3060  0.0165 -0.2134
 2244SOL    HW118194   2.022   3.339  12.374  1.3115  0.1296  1.1901
 2244SOL    HW218195   1.919   3.414  12.457 -3.2985 -1.0025 -0.4109
 2245SOL     OW18196   2.387   3.832   7.487  0.4851 -0.3347  0.0853
 2245SOL    HW118197   2.474   3.793   7.495  0.0937 -1.0845  0.7068
 2245SOL    HW218198   2.417   3.919   7.513  0.0762 -0.0431 -0.4263
 2246SOL     OW18199   4.391   1.719   3.695  0.6208 -0.1455  0.4961
 2246SOL    HW118200   4.475   1.728   3.650  1.0065  0.2868  1.3035
 2246SOL    HW218201   4.425   1.670   3.770 -1.0688 -0.6607  0.9292
 2247SOL     OW18202   4.435   2.016   0.579 -0.3896 -0.3202 -0.3709
 2247SOL    HW118203   4.480   2.085   0.531  1.9551 -1.5106  0.1297
 2247SOL    HW218204   4.495   1.945   0.558 -0.9533 -0.2241 -2.2673
 2248SOL     OW18205   1.758   1.734   8.103 -0.4067 -0.3333 -0.1418
 2248SOL    HW118206   1.718   1.815   8.071  1.7906  0.9576  0.3914
 2248SOL    HW218207   1.699   1.697   8.169 -0.3956  1.8180  1.0525
 2249SOL     OW18208   0.041   4.244   3.268 -0.1932  0.1422 -0.0672
 2249SOL    HW118209   0.063   4.241   3.175  2.4510  0.7959  0.5221
 2249SOL    HW218210   0.106   4.308   3.299  0.4495 -0.4830 -0.1276
 2250SOL     OW18211   1.425   2.314  11.295  0.1496  0.1397 -0.1997
 2250SOL    HW118212   1.494   2.252  11.271 -0.5379 -0.7668  0.1771
 2250SOL    HW218213   1.393   2.335  11.207  1.0686  4.2126  0.4605
 2251SOL     OW18214   1.528   0.674   1.435 -0.1813  0.0941 -0.2928
 2251SOL    HW118215   1.594   0.658   1.368  2.6253  2.5718  1.9036
 2251SOL    HW218216   1.454   0.635   1.388  1.4594 -2.2262 -0.9530
 2252SOL     OW18217   0.032   0.344   3.002  0.3009  0.5777  0.3466
 2252SOL    HW118218   4.709   0.419   2.966 -2.1889 -2.4705 -2.7565
 2252SOL    HW218219   0.079   0.388   3.073 -0.7494  1.3735  0.5420
 2253SOL     OW18220   0.659   0.687   8.085  0.5254 -0.0384  0.1813
 2253SOL    HW118221   0.569   0.696   8.052  0.2705 -0.1436  0.8418
 2253SOL    HW218222   0.652   0.595   8.109  3.1688 -0.0966  0.7213
 2254SOL     OW18223   3.880   4.605  15.682  0.0150  0.2145  0.3260
 2254SOL    HW118224   3.848   4.522  15.718 -0.4772  0.1795 -0.1916
 2254SOL    HW218225   3.875   4.666  15.755  2.2061  0.2327  0.4447
 2255SOL     OW18226   2.648   4.250   2.197 -0.1900  0.2882 -0.0390
 2255SOL    HW118227   2.692   4.174   2.235  1.3009  0.1629 -2.0154
 2255SOL    HW218228   2.714   4.318   2.211 -1.1217  1.0756  0.5234
 2256SOL     OW18229   3.474   0.533  15.515  0.5186 -0.7377  0.3453
 2256SOL    HW118230   3.400   0.473  15.525 -0.6034  0.7636  1.2251
 2256SOL    HW218231   3.426   0.613  15.493  0.7583 -0.6595  0.1103
 2257SOL     OW18232   2.338   2.459   6.404  0.9153 -0.3730  0.0436
 2257SOL    HW118233   2.273   2.519   6.367  0.4528  0.5232  2.3553
 2257SOL    HW218234   2.344   2.490   6.494  2.1701 -1.3610  0.3027
 2258SOL     OW18235   1.774   2.225   4.825 -0.0366  0.1237  0.6593
 2258SOL    HW118236   1.803   2.168   4.754  0.8853 -0.1692  1.2693
 2258SOL    HW218237   1.680   2.217   4.814 -0.0655  0.8369  0.3669
 2259SOL     OW18238   4.526   3.375   8.282  0.4452 -0.1168 -0.8645
 2259SOL    HW118239   4.530   3.471   8.287 -0.3773 -0.2894  3.0150
 2259SOL    HW218240   4.491   3.357   8.369 -1.5315  1.4527 -1.3209
 2260SOL     OW18241   4.514   1.642   5.513  0.0587  0.6231  0.2980
 2260SOL    HW118242   4.506   1.571   5.449  1.3676  1.0002 -0.2951
 2260SOL    HW218243   4.528   1.595   5.595 -2.6070 -1.1411 -0.2614
 2261SOL     OW18244   4.156   1.918   5.018 -0.6825 -0.0107 -0.5220
 2261SOL    HW118245   4.230   1.857   5.023 -0.8921 -0.1605  0.6837
 2261SOL    HW218246   4.086   1.879   5.070 -2.3273  1.2936 -1.7709
 2262SOL     OW18247   1.751   3.870   5.144  0.6705  0.2966 -0.2619
 2262SOL    HW118248   1.772   3.888   5.235 -0.1788  1.5890 -0.3101
 2262SOL    HW218249   1.796   3.942   5.098  0.6693 -0.1323 -0.9428
 2263SOL     OW18250   3.601   0.685  10.932  0.3599  0.0387 -0.0925
 2263SOL    HW118251   3.593   0.611  10.872  1.0288  1.1666 -1.5611
 2263SOL    HW218252   3.628   0.748  10.865  1.0370 -1.0250 -0.8207
 2264SOL     OW18253   0.082   0.537  16.838  0.2128 -0.2741  0.3971
 2264SOL    HW118254   0.017   0.479  16.879  0.8846 -1.5721 -0.3557
 2264SOL    HW218255   0.066   0.522  16.745 -0.9326 -1.1094  0.7232
 2265SOL     OW18256   1.456   1.803   4.195  0.4543 -0.1293  0.0422
 2265SOL    HW118257   1.536   1.780   4.147  1.3975  1.1575  1.0142
 2265SOL    HW218258   1.428   1.712   4.208  1.8589 -0.6140 -0.3321
 2266SOL     OW18259   3.792   1.766  16.306  0.0673 -0.7979 -0.2602
 2266SOL    HW118260   3.829   1.727  16.386  0.1701  0.8697  0.5024
 2266SOL    HW218261   3.789   1.685  16.254  1.0017 -0.6596 -0.5330
 2267SOL     OW18262   0.169   4.051   2.505 -0.4169  0.5791 -0.2343
 2267SOL    HW118263   0.216   4.108   2.444  1.9170 -2.9769 -1.7458
 2267SOL    HW218264   0.197   3.960   2.494 -1.3507  0.2553  0.0278
 2268SOL     OW18265   1.680   3.594   2.410 -0.6416 -0.1124 -0.2585
 2268SOL    HW118266   1.631   3.672   2.383 -0.0847  1.1535  2.3338
 2268SOL    HW218267   1.626   3.525   2.371 -2.9735 -0.5849  3.7384
 2269SOL     OW18268   2.742   4.667  16.829 -0.1592  0.2161 -0.1250
 2269SOL    HW118269   2.696   4.721  16.765  0.2409  1.8343  0.9384
 2269SOL    HW218270   2.712   4.579  16.808  0.2310 -0.0762  0.5330
 2270SOL     OW18271   1.480   0.979  17.491 -0.0619  0.1383 -0.1967
 2270SOL    HW118272   1.427   1.054  17.465 -0.8955  0.5340  2.6106
 2270SOL    HW218273   1.554   1.018  17.538 -0.9082  1.8350 -0.2503
 2271SOL     OW18274   2.332   0.032   7.938 -0.0050  0.5183 -0.8734
 2271SOL    HW118275   2.323   0.109   7.994  1.0636 -0.0509  0.0643
 2271SOL    HW218276   2.426   0.023   7.923  0.0690 -0.2762  0.0459
 2272SOL     OW18277   3.926   3.085   0.964 -0.2201  0.5447 -0.5565
 2272SOL    HW118278   3.858   3.019   0.948  0.8272 -0.7789  0.3958
 2272SOL    HW218279   3.879   3.162   0.934 -3.2718  0.4846  3.9976
 2273SOL     OW18280   2.157   2.455  15.818  0.2105  0.0079 -0.0144
 2273SOL    HW118281   2.132   2.473  15.909 -0.2302  0.6343 -0.2573
 2273SOL    HW218282   2.225   2.388  15.826 -0.5222 -0.8409 -0.9144
 2274SOL     OW18283   1.543   0.587   5.614  0.0037 -0.0528 -0.1599
 2274SOL    HW118284   1.506   0.579   5.526  0.9542  2.8286 -0.8353
 2274SOL    HW218285   1.535   0.497   5.645 -0.6916 -0.9598 -2.9885
 2275SOL     OW18286   0.415   1.853   9.416  0.3069  0.1887 -0.1506
 2275SOL    HW118287   0.423   1.925   9.479 -0.2562 -0.3001  0.4682
 2275SOL    HW218288   0.365   1.795   9.472  1.3902  1.3751  2.0659
 2276SOL     OW18289   3.968   0.092  12.962  0.3137 -0.2253  0.4753
 2276SOL    HW118290   3.944   0.008  13.001  0.9853 -0.4853  0.3279
 2276SOL    HW218291   3.881   0.128  12.948 -0.4738 -3.1390 -2.1090
 2277SOL     OW18292   0.512   1.671  13.683 -0.4380  0.2852 -0.6177
 2277SOL    HW118293   0.541   1.659  13.592  0.3346  0.5838 -0.4098
 2277SOL    HW218294   0.444   1.738  13.676  0.3792  1.0133 -1.6118
 2278SOL     OW18295   4.143   3.699  13.069 -0.1336  0.1488 -1.0162
 2278SOL    HW118296   4.140   3.714  12.975  1.9046 -1.2116 -1.2946
 2278SOL    HW218297   4.207   3.761  13.106 -1.7793  1.1012  0.2536
 2279SOL     OW18298   0.231   1.599  13.396  0.2106  0.1873  0.1651
 2279SOL    HW118299   0.194   1.687  13.383 -0.6045 -0.0310  1.0223
 2279SOL    HW218300   0.321   1.622  13.419  0.9207 -2.1622 -0.2833
 2280SOL     OW18301   4.350   3.073  15.106  0.8204 -0.1728 -0.2423
 2280SOL    HW118302   4.306   3.056  15.023 -0.2649 -0.7106  0.4494
 2280SOL    HW218303   4.437   3.104  15.081  0.6698  3.0697  3.2924
 2281SOL     OW18304   0.186   0.369   3.233  0.1548 -0.2726 -0.0054
 2281SOL    HW118305   0.247   0.313   3.281 -1.0256 -1.1623  0.4452
 2281SOL    HW218306   0.238   0.446   3.209  0.1246 -0.1982  0.1684
 2282SOL     OW18307   3.305   1.175  15.125  0.0010  0.2760  0.4874
 2282SOL    HW118308   3.276   1.111  15.059  3.4313 -1.4513  0.6524
 2282SOL    HW218309   3.233   1.238  15.123  0.2050  0.4639 -1.0754
 2283SOL     OW18310   2.784   4.465   2.997  0.4006 -0.0343  0.2521
 2283SOL    HW118311   2.870   4.488   2.962  0.1764 -0.4494 -0.5730
 2283SOL    HW218312   2.767   4.374   2.971  2.4126 -1.0136  2.3157
 2284SOL     OW18313   2.277   4.405  13.924  0.6638 -0.3088  0.1400
 2284SOL    HW118314   2.350   4.377  13.869  0.7302 -1.9116  1.0571
 2284SOL    HW218315   2.217   4.332  13.932 -1.9908  1.5622 -2.7627
 2285SOL     OW18316   1.009   4.653   5.847  0.3942  0.2941  0.1435
 2285SOL    HW118317   1.030   4.560   5.853  0.4916  0.3482  0.6239
 2285SOL    HW218318   0.916   4.642   5.828  0.3100 -1.4681  1.5778
 2286SOL     OW18319   0.415   1.370   5.412  0.4772  0.0009 -0.5058
 2286SOL    HW118320   0.426   1.396   5.503  2.6971 -1.7052 -0.2835
 2286SOL    HW218321   0.492   1.316   5.391 -0.3320 -1.6203  0.7052
 2287SOL     OW18322   1.167   4.501   2.664  0.3440  0.2349 -0.1273
 2287SOL    HW118323   1.255   4.464   2.672 -0.3217 -1.3548 -0.3151
 2287SOL    HW218324   1.145   4.530   2.753  0.0907 -1.9050  0.5031
 2288SOL     OW18325   0.311   0.559   8.738  0.3549  0.1409  0.1282
 2288SOL    HW118326   0.289   0.466   8.740 -1.1134  0.4921  0.1368
 2288SOL    HW218327   0.318   0.556   8.834 -1.9270  2.1265  0.3539
 2289SOL     OW18328   3.528   0.831  17.245  0.0400  0.3755 -0.7838
 2289SOL    HW118329   3.485   0.854  17.163 -1.3490  0.8222  0.0559
 2289SOL    HW218330   3.619   0.834  17.217  0.6905  0.3162  1.3219
 2290SOL     OW18331   3.462   3.909  14.708  0.0711  0.1614 -0.8578
 2290SOL    HW118332   3.456   3.874  14.619 -0.7544 -0.6018 -0.5043
 2290SOL    HW218333   3.539   3.966  14.704 -2.0530  3.1135  0.0217
 2291SOL     OW18334   3.547   2.775   3.221 -0.1961  0.2714 -0.0087
 2291SOL    HW118335   3.506   2.781   3.307  3.4212  2.8455  1.5604
 2291SOL    HW218336   3.480   2.719   3.182  1.2922 -0.7100 -1.1786
 2292SOL     OW18337   3.141   3.992  10.907  0.1116 -0.4936  0.0053
 2292SOL    HW118338   3.216   4.032  10.951 -0.4417  2.2444 -1.4922
 2292SOL    HW218339   3.075   4.062  10.907  1.0571  0.4025  0.0441
 2293SOL     OW18340   0.212   3.936   2.172 -1.1403  0.2010  0.1592
 2293SOL    HW118341   0.205   3.998   2.100 -2.4391  0.0949  0.1965
 2293SOL    HW218342   0.241   4.003   2.234 -1.5072 -0.2798  0.8586
 2294SOL     OW18343   1.920   4.266   8.508  0.5129 -0.0148 -0.2107
 2294SOL    HW118344   1.898   4.201   8.574 -2.3850  2.4831  1.2884
 2294SOL    HW218345   1.951   4.334   8.568  0.2739 -1.3398  1.3930
 2295SOL     OW18346   1.230   1.963   4.948 -0.2982  0.2860  0.5467
 2295SOL    HW118347   1.219   1.869   4.937 -2.6427  0.5265  0.7557
 2295SOL    HW218348   1.183   1.993   4.870 -0.1214  2.2756  1.1880
 2296SOL     OW18349   3.406   3.022  13.013  0.1691 -0.2901 -0.6280
 2296SOL    HW118350   3.444   3.063  13.091  1.3707 -1.3658 -0.6412
 2296SOL    HW218351   3.331   2.977  13.052  0.1606 -0.0885 -0.4112
 2297SOL     OW18352   1.136   0.486   8.145 -0.5135 -0.3363 -0.2852
 2297SOL    HW118353   1.123   0.403   8.100 -1.0441  0.1426 -1.0064
 2297SOL    HW218354   1.118   0.453   8.234  0.1846 -1.0064 -0.3924
 2298SOL     OW18355   2.662   0.357   4.898 -0.2449 -0.3058 -0.4556
 2298SOL    HW118356   2.659   0.332   4.990 -3.9575 -1.4496 -0.8601
 2298SOL    HW218357   2.720   0.288   4.864  1.3417  0.5308  0.5698
 2299SOL     OW18358   2.167   4.217   4.431 -0.1749  0.6286 -0.4524
 2299SOL    HW118359   2.230   4.146   4.438  0.9928  1.7682  0.3757
 2299SOL    HW218360   2.131   4.199   4.344  1.8413 -0.4850 -1.0494
 2300SOL     OW18361   3.362   1.962   6.742  0.2864 -0.5387  0.3236
 2300SOL    HW118362   3.317   1.981   6.659  2.2856  3.2048  0.1281
 2300SOL    HW218363   3.424   1.894   6.717  2.7322  1.3516  1.3133
 2301SOL     OW18364   2.830   3.178   2.325  0.1694 -0.2008 -0.1515
 2301SOL    HW118365   2.868   3.090   2.327 -0.4522 -0.4565  0.2463
 2301SOL    HW218366   2.745   3.162   2.284 -0.8310  1.1894  1.3911
 2302SOL     OW18367   1.754   2.945   7.495  0.1532 -0.3668 -0.0416
 2302SOL    HW118368   1.823   2.881   7.477  1.4143  1.6097 -2.2470
 2302SOL    HW218369   1.797   3.027   7.521  0.3731 -0.3138 -0.5620
 2303SOL     OW18370   0.569   2.863   3.241  0.3144 -0.5259  0.1608
 2303SOL    HW118371   0.506   2.905   3.183  0.6899 -2.3260 -1.5416
 2303SOL    HW218372   0.565   2.913   3.322 -0.9855  2.3162 -1.6647
 2304SOL     OW18373   2.918   4.523   6.757 -0.2834  0.1244 -0.4134
 2304SOL    HW118374   2.845   4.581   6.779  0.6023  1.0881 -0.0160
 2304SOL    HW218375   2.953   4.557   6.675  1.1557  2.2257  1.0538
 2305SOL     OW18376   2.439   0.898   6.642  0.1159  0.9610 -0.0186
 2305SOL    HW118377   2.414   0.989   6.625  0.9148  0.8427 -1.7296
 2305SOL    HW218378   2.375   0.882   6.712 -0.7622  0.6148 -0.9099
 2306SOL     OW18379   3.576   2.666   3.631  0.5176  0.9916  0.6466
 2306SOL    HW118380   3.565   2.660   3.726 -1.5735 -3.2222  0.1339
 2306SOL    HW218381   3.511   2.730   3.603  0.3899 -0.0691 -1.4251
 2307SOL     OW18382   4.494   1.844   7.718 -0.0375 -0.1834  0.2997
 2307SOL    HW118383   4.551   1.920   7.707 -0.1386  0.0672  1.5374
 2307SOL    HW218384   4.472   1.853   7.810  1.3990 -1.8246  0.8059
 2308SOL     OW18385   1.815   4.674   6.961  0.2515 -0.1700  0.1117
 2308SOL    HW118386   1.797   0.034   6.919 -0.6197  0.0974  1.0387
 2308SOL    HW218387   1.728   4.636   6.970 -0.2082  0.5296 -1.4732
 2309SOL     OW18388   3.895   1.646  14.331 -0.2112 -0.4039 -0.1397
 2309SOL    HW118389   3.892   1.579  14.262 -0.6506 -0.7767  0.2417
 2309SOL    HW218390   3.990   1.654  14.343  0.2450 -3.7809 -1.3443
 2310SOL     OW18391   3.798   1.274   3.790 -1.0219 -0.2907 -0.0927
 2310SOL    HW118392   3.720   1.258   3.737 -0.6351 -2.8459  0.1455
 2310SOL    HW218393   3.784   1.221   3.868  4.7969 -1.3334  0.2427
 2311SOL     OW18394   0.185   1.474   3.534  0.0359 -0.3152 -0.3059
 2311SOL    HW118395   0.214   1.469   3.443 -1.7181  2.0492 -0.9760
 2311SOL    HW218396   0.111   1.414   3.539 -0.8487  0.8000 -0.0781
 2312SOL     OW18397   1.439   1.678   4.552  0.4263  0.8729  0.8580
 2312SOL    HW118398   1.435   1.635   4.637 -2.5562 -1.6010 -0.5195
 2312SOL    HW218399   1.530   1.691   4.526  0.7617 -0.0751  1.5658
 2313SOL     OW18400   3.127   4.571   2.462 -0.3641  0.0709  0.2991
 2313SOL    HW118401   3.113   4.565   2.367 -1.1624  0.8051  0.3749
 2313SOL    HW218402   3.215   4.533   2.470 -0.6744 -0.5018  0.9629
 2314SOL     OW18403   1.551   3.683  10.781  0.5007 -0.0901  0.1721
 2314SOL    HW118404   1.628   3.642  10.742  0.6718  0.9672 -0.5750
 2314SOL    HW218405   1.479   3.644  10.730  1.8350 -0.9940 -1.0369
 2315SOL     OW18406   1.058   0.345   5.086 -0.0578  0.1539 -0.6767
 2315SOL    HW118407   1.062   0.305   4.999 -0.8823  1.4829 -1.3301
 2315SOL    HW218408   1.110   0.424   5.075  1.2376 -0.7167 -0.7451
 2316SOL     OW18409   0.568   4.424   3.865  0.3723 -0.4195 -0.1416
 2316SOL    HW118410   0.624   4.365   3.914  0.6659 -0.3929 -0.4478
 2316SOL    HW218411   0.621   4.503   3.878  0.4833 -1.0022  2.9231
 2317SOL     OW18412   2.031   3.122   2.475  0.5547 -0.1733  0.1222
 2317SOL    HW118413   2.099   3.105   2.409  0.0890  0.2563 -0.4741
 2317SOL    HW218414   2.007   3.035   2.506  1.3366 -0.5036 -0.1835
 2318SOL     OW18415   2.472   1.644  15.413 -0.8789 -0.7721  0.2772
 2318SOL    HW118416   2.517   1.643  15.328  0.8184  0.5543  1.1578
 2318SOL    HW218417   2.511   1.716  15.463  0.1602 -1.7115  0.8316
 2319SOL     OW18418   3.065   2.800   7.027  0.0951  0.2767 -0.0954
 2319SOL    HW118419   3.139   2.751   6.990  0.0403 -0.3489  0.6339
 2319SOL    HW218420   3.036   2.859   6.957  0.6661 -1.2417 -1.6102
 2320SOL     OW18421   2.006   1.157   1.285  0.2966 -0.0367 -0.0895
 2320SOL    HW118422   1.988   1.065   1.267 -1.1632  0.4245 -0.9439
 2320SOL    HW218423   2.097   1.172   1.257  1.1202 -1.1266  1.9440
 2321SOL     OW18424   4.027   2.846   0.329 -0.1424 -0.2937  0.3187
 2321SOL    HW118425   3.969   2.913   0.365 -0.1666  0.0056 -0.2744
 2321SOL    HW218426   4.078   2.833   0.409  1.2687 -0.1974 -0.5655
 2322SOL     OW18427   4.700   2.255   4.863 -0.3792 -0.0634 -0.0546
 2322SOL    HW118428   0.071   2.262   4.849 -0.3375 -4.0498 -1.5688
 2322SOL    HW218429   4.684   2.310   4.940  0.9301 -1.1565  0.9997
 2323SOL     OW18430   1.732   2.830   2.834  0.1536 -0.0435 -0.4029
 2323SOL    HW118431   1.748   2.918   2.801  1.1305  0.8719  2.5247
 2323SOL    HW218432   1.692   2.780   2.763 -0.4995  0.2207 -0.2166
 2324SOL     OW18433   2.167   1.381   5.051  0.3186  0.3959 -0.1773
 2324SOL    HW118434   2.144   1.450   4.990 -1.3647  0.9042  1.0562
 2324SOL    HW218435   2.186   1.311   4.988 -0.9624 -0.6791  0.6240
 2325SOL     OW18436   3.956   0.381   3.836  0.1314  0.2262  0.3225
 2325SOL    HW118437   3.934   0.320   3.906 -0.1557  0.3641  0.3526
 2325SOL    HW218438   3.875   0.429   3.815  1.0490  0.5113 -2.5868
 2326SOL     OW18439   0.612   2.982  13.804  0.9369 -0.1743  0.1294
 2326SOL    HW118440   0.665   3.042  13.753  1.9179 -0.6327  0.6065
 2326SOL    HW218441   0.525   3.021  13.799 -0.6983 -3.6847  0.8617
 2327SOL     OW18442   1.246   1.664   2.889 -0.7493  0.3439 -0.2431
 2327SOL    HW118443   1.270   1.705   2.806  3.3945  0.4225  1.0046
 2327SOL    HW218444   1.164   1.709   2.909 -2.2798 -2.5760  0.1254
 2328SOL     OW18445   0.594   3.748  15.440  0.1585  0.5025  0.2353
 2328SOL    HW118446   0.669   3.779  15.389  0.4296 -1.4331 -0.5610
 2328SOL    HW218447   0.518   3.791  15.401  0.7356  2.6030  1.4614
 2329SOL     OW18448   3.521   3.218  13.153  0.0038  0.0383  0.2211
 2329SOL    HW118449   3.563   3.210  13.238 -2.8385  1.9747  1.8036
 2329SOL    HW218450   3.574   3.283  13.107  0.5819 -1.2447 -0.9296
 2330SOL     OW18451   2.481   0.102   8.636 -0.4500  0.5608 -0.2032
 2330SOL    HW118452   2.563   0.101   8.587  0.1300 -1.5287  0.8048
 2330SOL    HW218453   2.501   0.033   8.700  1.7247  0.1384 -1.3634
 2331SOL     OW18454   2.072   1.014   7.583 -0.5726  0.5059  0.2906
 2331SOL    HW118455   2.055   1.062   7.664 -0.1053  0.0176  0.6808
 2331SOL    HW218456   2.135   1.069   7.538 -0.3570  0.1083  0.1021
 2332SOL     OW18457   1.094   3.589   1.336 -0.3012 -0.0015  0.1192
 2332SOL    HW118458   1.056   3.511   1.296  1.2760 -0.1922 -0.9872
 2332SOL    HW218459   1.180   3.557   1.311 -0.7515 -0.4123 -0.8776
 2333SOL     OW18460   1.694   0.796   5.647 -0.2560 -0.1154 -0.1921
 2333SOL    HW118461   1.654   0.710   5.633 -0.5990  0.1756 -0.9825
 2333SOL    HW218462   1.667   0.801   5.739  0.2103  1.5336 -0.1379
 2334SOL     OW18463   1.761   1.588  15.646 -0.0386 -0.1723  1.0616
 2334SOL    HW118464   1.731   1.561  15.733 -2.9661  2.9706  1.0313
 2334SOL    HW218465   1.687   1.560  15.592 -1.0470  2.4036  1.0723
 2335SOL     OW18466   0.288   1.134  11.381  0.0161  0.4186 -0.3889
 2335SOL    HW118467   0.265   1.055  11.429  0.9308  1.9366  2.5531
 2335SOL    HW218468   0.281   1.101  11.292 -0.2310  0.4499 -0.3823
 2336SOL     OW18469   0.725   1.468   5.171 -0.2664 -0.1121  0.3137
 2336SOL    HW118470   0.793   1.535   5.161  0.1932 -0.6690 -0.2244
 2336SOL    HW218471   0.765   1.385   5.148  0.9066  0.6741 -0.4648
 2337SOL     OW18472   2.067   1.487   0.112  0.2932 -0.6255  0.1163
 2337SOL    HW118473   2.101   1.400   0.133  2.9603 -0.0215 -1.7895
 2337SOL    HW218474   2.151   1.533   0.110  0.9113 -1.8585 -1.9561
 2338SOL     OW18475   4.014   2.763   5.377  0.0524  0.3642  0.0484
 2338SOL    HW118476   3.957   2.687   5.368  0.2025  0.4950 -1.8776
 2338SOL    HW218477   4.095   2.742   5.332  0.8106  0.7044  1.2603
 2339SOL     OW18478   4.429   4.021   5.934 -0.0510 -0.1061 -0.8138
 2339SOL    HW118479   4.496   4.089   5.925 -1.7298  1.6080 -0.4394
 2339SOL    HW218480   4.387   4.034   6.019  1.5122  1.2117 -0.2452
 2340SOL     OW18481   0.521   0.067   3.129 -0.3668  0.4443 -0.4137
 2340SOL    HW118482   0.613   0.083   3.154 -1.0328 -1.1027  3.1647
 2340SOL    HW218483   0.519   4.695   3.130 -0.0699  0.4117 -4.0743
 2341SOL     OW18484   3.260   1.308   0.772  0.1534 -0.6577  0.1020
 2341SOL    HW118485   3.231   1.354   0.851 -0.2213  1.1130 -1.0645
 2341SOL    HW218486   3.233   1.364   0.699  2.4684 -1.9258 -1.7378
 2342SOL     OW18487   3.310   3.143   2.810  0.1037  0.1463  0.1740
 2342SOL    HW118488   3.294   3.073   2.873  0.9075  0.1392  0.3709
 2342SOL    HW218489   3.312   3.087   2.732  0.4761 -0.4334  0.6022
 2343SOL     OW18490   2.295   3.415   7.354 -0.7894 -0.4508 -0.5104
 2343SOL    HW118491   2.276   3.360   7.430  1.6333 -1.3687 -0.5656
 2343SOL    HW218492   2.235   3.377   7.290  0.9264  1.6239 -3.3475
 2344SOL     OW18493   1.916   3.731  15.783 -0.0788  0.0783  0.1014
 2344SOL    HW118494   1.894   3.668  15.715 -1.3651  2.4709 -1.6801
 2344SOL    HW218495   1.833   3.775  15.801 -0.3406  0.4635 -2.0546
 2345SOL     OW18496   2.938   3.192  11.248  0.0334  0.0797  0.1966
 2345SOL    HW118497   2.849   3.216  11.221  0.0915 -1.1256 -1.0860
 2345SOL    HW218498   2.939   3.115  11.191  2.0089  0.5271 -0.3729
 2346SOL     OW18499   2.281   3.989   2.929  0.6038  0.1479 -0.4645
 2346SOL    HW118500   2.248   4.030   2.849 -0.0929 -2.8579 -1.7459
 2346SOL    HW218501   2.196   3.982   2.974  0.8018 -0.4737 -0.1822
 2347SOL     OW18502   2.932   2.968   8.530  1.0002 -0.6316  0.3944
 2347SOL    HW118503   2.898   3.036   8.472 -0.2500 -2.8102 -1.4417
 2347SOL    HW218504   2.881   2.895   8.494  0.5921 -0.3866  0.4807
 2348SOL     OW18505   0.216   2.976   7.172  0.1120 -0.4457 -0.4307
 2348SOL    HW118506   0.174   3.043   7.118  0.2277  0.6059  0.7905
 2348SOL    HW218507   0.308   3.001   7.171 -0.1285  0.4506 -0.2465
 2349SOL     OW18508   4.668   3.315   2.571  0.5227  0.3645 -0.5123
 2349SOL    HW118509   4.628   3.263   2.640  0.4745  2.2966  0.9148
 2349SOL    HW218510   4.641   3.266   2.493  1.3252 -0.0420 -0.5310
 2350SOL     OW18511   3.052   2.483   2.576  0.6364 -0.4253 -0.1287
 2350SOL    HW118512   3.059   2.569   2.534 -0.0721 -0.3468 -0.0809
 2350SOL    HW218513   2.959   2.486   2.599  0.3592  0.0517 -1.2807
 2351SOL     OW18514   3.192   2.262   6.503  0.0207  0.4892 -0.0018
 2351SOL    HW118515   3.213   2.171   6.522  3.0971  1.3599  0.7664
 2351SOL    HW218516   3.280   2.298   6.492  0.4271 -0.7449 -0.7699
 2352SOL     OW18517   0.427   0.654   6.841 -0.0427  0.0570 -0.6831
 2352SOL    HW118518   0.393   0.567   6.860  1.7899 -1.1897 -3.0477
 2352SOL    HW218519   0.357   0.707   6.879 -0.4200 -0.2897 -0.9019
 2353SOL     OW18520   2.062   0.335   1.464 -0.6091  0.0612 -0.3797
 2353SOL    HW118521   1.970   0.330   1.437 -0.2578 -0.3294 -1.4911
 2353SOL    HW218522   2.094   0.417   1.426 -0.2503 -0.1541 -0.5443
 2354SOL     OW18523   0.101   3.308  12.795 -0.0903 -0.0916 -0.2799
 2354SOL    HW118524   0.083   3.218  12.824  0.0312 -0.1758 -0.4668
 2354SOL    HW218525   0.159   3.288  12.722  0.3372 -0.2104  0.0933
 2355SOL     OW18526   1.853   0.573   1.571 -0.2007 -0.6540 -0.6060
 2355SOL    HW118527   1.759   0.587   1.563 -0.2464 -1.0091 -0.6970
 2355SOL    HW218528   1.883   0.632   1.502 -0.3156 -1.7098 -1.5471
 2356SOL     OW18529   3.827   3.815   8.463 -0.7940 -0.0215 -0.0713
 2356SOL    HW118530   3.874   3.785   8.385 -1.8016 -2.7111  0.3389
 2356SOL    HW218531   3.836   3.736   8.517 -0.4087  0.6875  0.9092
 2357SOL     OW18532   4.576   1.843   3.246  0.1744 -0.2354  0.3981
 2357SOL    HW118533   4.512   1.805   3.186 -0.5475  1.2567  0.2061
 2357SOL    HW218534   4.631   1.897   3.189 -0.0924  1.7943  2.0669
 2358SOL     OW18535   1.451   2.057  10.775  0.2529  0.3097 -0.0317
 2358SOL    HW118536   1.466   1.977  10.825  0.6370 -0.2637 -1.0705
 2358SOL    HW218537   1.427   2.000  10.703 -2.7974 -0.5488  1.6441
 2359SOL     OW18538   2.119   1.957   3.875  0.4364  0.3125  0.4764
 2359SOL    HW118539   2.100   1.864   3.879 -0.8554  0.4140 -3.3886
 2359SOL    HW218540   2.135   1.974   3.968  0.1122  0.3480  0.5260
 2360SOL     OW18541   2.651   1.019   5.647 -0.3693  0.2441  0.3190
 2360SOL    HW118542   2.562   1.054   5.642 -0.4415  0.1794  1.1458
 2360SOL    HW218543   2.661   0.983   5.735  0.2841 -1.6241 -0.5258
 2361SOL     OW18544   1.662   4.594   5.637  0.0722 -0.5008 -0.0146
 2361SOL    HW118545   1.575   4.619   5.667  0.1415 -0.5853  0.2578
 2361SOL    HW218546   1.641   4.618   5.547  1.3680  1.5725  0.2186
 2362SOL     OW18547   0.068   4.642   6.026 -0.5265  0.0893  0.2786
 2362SOL    HW118548   0.012   4.676   5.957  0.2374 -1.5357 -1.1461
 2362SOL    HW218549   0.071   4.700   6.102 -1.8027 -0.0391  0.4201
 2363SOL     OW18550   3.470   1.691   2.864 -0.8558 -0.2283 -0.0240
 2363SOL    HW118551   3.500   1.604   2.837 -1.8668 -0.5338 -0.1498
 2363SOL    HW218552   3.462   1.727   2.775  1.4237  1.3962  0.4334
 2364SOL     OW18553   1.402   4.477  16.186  0.2206  0.5368 -0.1279
 2364SOL    HW118554   1.440   4.504  16.103 -0.4240  0.0553 -0.5809
 2364SOL    HW218555   1.455   4.533  16.242 -0.0432 -0.1399  0.8104
 2365SOL     OW18556   1.179   2.656   8.333 -0.2160 -0.2171  1.3439
 2365SOL    HW118557   1.173   2.735   8.386 -1.3240 -0.4822  1.6048
 2365SOL    HW218558   1.269   2.630   8.354 -0.7705 -2.0533  1.4226
 2366SOL     OW18559   2.603   3.606   2.675  0.0882  0.3478  0.5554
 2366SOL    HW118560   2.535   3.648   2.622 -0.1502 -0.9746 -0.1648
 2366SOL    HW218561   2.572   3.516   2.673 -1.3345  0.8306  0.9114
 2367SOL     OW18562   3.648   2.820   1.462 -1.0993 -0.4187  0.0596
 2367SOL    HW118563   3.635   2.874   1.384 -1.6011  1.1313  1.2228
 2367SOL    HW218564   3.680   2.878   1.531 -2.1234 -0.1147  0.2716
 2368SOL     OW18565   2.317   3.734   7.839  0.6902  0.2235  0.0990
 2368SOL    HW118566   2.254   3.730   7.767  0.1886 -2.5647  0.6821
 2368SOL    HW218567   2.401   3.743   7.795  0.1845 -1.2495 -1.1465
 2369SOL     OW18568   2.546   3.109   3.636  0.4828  0.1657  0.6437
 2369SOL    HW118569   2.561   3.091   3.543 -1.0446 -1.4737  0.7164
 2369SOL    HW218570   2.501   3.193   3.632 -0.4576 -0.5402 -4.4858
 2370SOL     OW18571   3.237   1.785   2.076 -0.4251  0.5291 -0.1603
 2370SOL    HW118572   3.232   1.690   2.074  0.9384  0.5005 -2.0269
 2370SOL    HW218573   3.330   1.804   2.068 -0.7726  1.6399 -1.5093
 2371SOL     OW18574   1.217   3.606   2.396  0.3407 -0.0731 -0.1510
 2371SOL    HW118575   1.216   3.701   2.396  0.4258 -0.0607  2.4047
 2371SOL    HW218576   1.294   3.597   2.453  0.3087  0.1059 -0.0802
 2372SOL     OW18577   1.119   1.582   7.336 -1.1002  0.0331  0.1684
 2372SOL    HW118578   1.122   1.572   7.240  0.5285 -1.6075  0.3810
 2372SOL    HW218579   1.031   1.619   7.344  0.1413  2.4827  2.4125
 2373SOL     OW18580   2.453   3.453   7.636 -0.2480 -0.0367 -0.5149
 2373SOL    HW118581   2.372   3.404   7.648  0.1204 -0.5764 -0.2508
 2373SOL    HW218582   2.524   3.398   7.668  0.6100  2.7751  2.3182
 2374SOL     OW18583   2.314   4.105   1.930  0.4059  0.3554 -0.5492
 2374SOL    HW118584   2.373   4.181   1.927 -1.5483  2.0420  3.2857
 2374SOL    HW218585   2.372   4.030   1.933  2.8471  2.2708  0.3626
 2375SOL     OW18586   0.348   0.480   1.081 -0.7769  0.6485 -0.4121
 2375SOL    HW118587   0.409   0.493   1.008  0.3853  0.9215  0.6239
 2375SOL    HW218588   0.307   0.401   1.044  0.2319  0.0532 -0.2634
 2376SOL     OW18589   2.965   3.671   3.823 -0.4659 -0.5465 -0.2595
 2376SOL    HW118590   3.053   3.641   3.845 -0.3878 -0.8025 -0.9473
 2376SOL    HW218591   2.982   3.719   3.742  4.0079 -0.3060  0.8168
 2377SOL     OW18592   0.132   4.247   5.228  0.1741  0.5066 -0.1079
 2377SOL    HW118593   0.098   4.158   5.239  0.7722  0.3969  0.8451
 2377SOL    HW218594   0.056   4.305   5.235 -0.1819  0.1264 -0.7579
 2378SOL     OW18595   1.232   4.419  15.479  0.0355 -0.4998  0.1467
 2378SOL    HW118596   1.140   4.414  15.452 -0.2117  0.6795  0.7675
 2378SOL    HW218597   1.279   4.488  15.434  0.3775 -0.2549  0.8754
 2379SOL     OW18598   1.462   2.636   8.303  0.2785  0.3141  0.0061
 2379SOL    HW118599   1.520   2.562   8.320  0.0891 -0.1735 -1.4567
 2379SOL    HW218600   1.514   2.709   8.336 -0.6101 -0.0436  2.2121
 2380SOL     OW18601   1.245   1.677  16.638  0.0271 -0.6438  0.0465
 2380SOL    HW118602   1.239   1.689  16.543  0.7357 -2.9432 -0.2779
 2380SOL    HW218603   1.305   1.603  16.646 -1.5681 -1.9290  0.1598
 2381SOL     OW18604   3.091   0.014   6.017 -0.1167 -0.6944  0.0973
 2381SOL    HW118605   3.119   4.648   6.033  1.3287 -0.7119 -2.4566
 2381SOL    HW218606   3.015   0.006   5.959  1.2130 -2.4115 -1.4070
 2382SOL     OW18607   0.763   0.898  14.153 -0.3418 -0.4175  0.8041
 2382SOL    HW118608   0.746   0.815  14.109 -0.5608  0.6274 -1.0877
 2382SOL    HW218609   0.799   0.879  14.239  0.3177 -3.1602 -0.0772
 2383SOL     OW18610   4.367   3.378   3.628 -0.4086  0.4498  0.1234
 2383SOL    HW118611   4.378   3.452   3.569 -1.5172  0.1090 -0.5030
 2383SOL    HW218612   4.454   3.340   3.615 -0.7209 -0.4783  0.6909
 2384SOL     OW18613   0.922   2.313   7.151 -0.6287 -0.3185 -0.0283
 2384SOL    HW118614   0.944   2.293   7.060 -0.6141 -0.1152 -0.0693
 2384SOL    HW218615   0.827   2.299   7.151 -0.4858 -1.2412 -2.6758
 2385SOL     OW18616   1.594   0.952   3.804  0.0348 -0.0153  0.2911
 2385SOL    HW118617   1.626   0.867   3.833  0.6940  0.3686  0.6965
 2385SOL    HW218618   1.536   0.980   3.875 -0.1213 -0.5474  0.3751
 2386SOL     OW18619   4.485   2.353   6.238  0.1849  0.1134 -0.0858
 2386SOL    HW118620   4.545   2.427   6.225  1.5164 -0.7277  1.4004
 2386SOL    HW218621   4.455   2.325   6.151  0.3455 -3.1412  0.9291
 2387SOL     OW18622   2.637   3.231   9.919 -0.1844 -0.0750 -0.8404
 2387SOL    HW118623   2.709   3.270   9.969  0.1823 -1.4674 -0.2641
 2387SOL    HW218624   2.574   3.303   9.916 -0.1417 -0.1853 -4.5836
 2388SOL     OW18625   0.480   2.133   7.578  0.2257 -0.3297 -0.2827
 2388SOL    HW118626   0.537   2.075   7.628  2.9033  1.1612 -1.5413
 2388SOL    HW218627   0.487   2.219   7.619  0.4826 -0.6648  0.3705
 2389SOL     OW18628   1.825   0.956  11.834  0.2704 -0.2994  0.0855
 2389SOL    HW118629   1.806   0.874  11.789  1.8827  0.5981 -2.2407
 2389SOL    HW218630   1.775   0.955  11.915 -0.5109  2.7736 -0.3612
 2390SOL     OW18631   3.650   0.016  17.224 -0.0454  0.0149  0.1205
 2390SOL    HW118632   3.611   4.656  17.196  0.0196  0.5431 -1.5716
 2390SOL    HW218633   3.694   4.720  17.306  0.1716 -0.0268 -0.0056
 2391SOL     OW18634   3.599   2.539   5.779  0.0503  0.2003  0.1070
 2391SOL    HW118635   3.646   2.514   5.858  0.8454 -0.9441 -0.7249
 2391SOL    HW218636   3.546   2.460   5.771  1.6405 -0.7010 -1.6625
 2392SOL     OW18637   4.392   4.099  14.906  0.0695 -0.1975  0.2243
 2392SOL    HW118638   4.303   4.119  14.935  0.5404 -0.7058  2.0295
 2392SOL    HW218639   4.413   4.167  14.842 -0.5429 -0.5956 -0.3954
 2393SOL     OW18640   3.805   0.069   4.507  0.0761  0.4059  0.2048
 2393SOL    HW118641   3.795   0.006   4.578 -0.1632  1.0895  0.7799
 2393SOL    HW218642   3.720   0.050   4.469  0.6433 -0.9346 -0.3931
 2394SOL     OW18643   1.914   3.717   6.314  0.5582 -0.4951 -0.0781
 2394SOL    HW118644   1.836   3.772   6.309 -0.6553 -2.3622 -1.4583
 2394SOL    HW218645   1.935   3.722   6.221  0.4030  0.5326 -0.0581
 2395SOL     OW18646   1.427   2.813  12.582  0.0852 -0.2112  0.1154
 2395SOL    HW118647   1.517   2.827  12.610 -0.1009 -0.5936  0.9301
 2395SOL    HW218648   1.438   2.744  12.516  1.8755 -1.1614  1.4203
 2396SOL     OW18649   1.159   0.258   4.538  0.6595  0.4289 -0.1158
 2396SOL    HW118650   1.216   0.315   4.487  1.7189 -0.5384 -0.0117
 2396SOL    HW218651   1.226   0.192   4.556 -1.8539 -1.5817  1.8930
 2397SOL     OW18652   0.758   4.030  16.637  0.7199  0.2853  0.1332
 2397SOL    HW118653   0.699   3.955  16.636  2.3060 -0.9644  1.4175
 2397SOL    HW218654   0.821   3.993  16.698 -0.3161 -0.7071  0.5935
 2398SOL     OW18655   0.988   2.585   8.145 -0.0448  0.6745  0.2365
 2398SOL    HW118656   1.035   2.621   8.221 -0.9463  3.0622 -0.3460
 2398SOL    HW218657   0.985   2.490   8.154 -1.3630  0.7634  0.6194
 2399SOL     OW18658   1.571   1.803   8.531  0.8487  0.2768  0.7716
 2399SOL    HW118659   1.604   1.728   8.581 -1.3593 -0.9349  0.4333
 2399SOL    HW218660   1.611   1.882   8.567  0.6944  1.1752 -1.0150
 2400SOL     OW18661   0.588   2.418  12.309 -0.1259 -0.6655  0.4007
 2400SOL    HW118662   0.536   2.340  12.325  0.0726 -0.5429  1.6696
 2400SOL    HW218663   0.543   2.494  12.346  1.3109 -0.3390  1.4456
 2401SOL     OW18664   0.827   4.388  15.322  0.2215 -0.2987  0.2992
 2401SOL    HW118665   0.741   4.392  15.364  1.0308  0.5935  1.8879
 2401SOL    HW218666   0.891   4.397  15.393 -1.3117  1.6877  1.4423
 2402SOL     OW18667   2.311   2.094   7.357 -0.1860  0.2973  0.5540
 2402SOL    HW118668   2.260   2.174   7.346  2.8823  2.3423  1.3033
 2402SOL    HW218669   2.250   2.026   7.386 -0.7715  1.0456  1.0960
 2403SOL     OW18670   2.822   4.679   4.322  0.4840  0.6660  0.0995
 2403SOL    HW118671   2.745   4.636   4.359 -1.6145  3.5509 -0.8843
 2403SOL    HW218672   2.789   0.022   4.262 -1.3355  0.6125  1.0463
 2404SOL     OW18673   2.007   1.651   8.026  0.3691  0.3225 -0.2207
 2404SOL    HW118674   1.918   1.669   8.056 -0.1274 -2.6271  0.0976
 2404SOL    HW218675   1.995   1.575   7.969 -2.2616  0.0776  0.6684
 2405SOL     OW18676   2.103   3.276   6.466 -0.0274  0.0323  0.8275
 2405SOL    HW118677   2.152   3.263   6.385  0.6425 -1.7590  1.5372
 2405SOL    HW218678   2.013   3.284   6.433  0.0083 -1.3565  0.4022
 2406SOL     OW18679   2.886   1.358   1.915 -0.1110  0.2543 -0.1528
 2406SOL    HW118680   2.949   1.289   1.935  0.0798  0.3652 -0.3721
 2406SOL    HW218681   2.886   1.422   1.985  1.0237 -2.2800  2.1835
 2407SOL     OW18682   3.776   1.488  15.502  0.3105 -0.6035  0.8784
 2407SOL    HW118683   3.692   1.505  15.545 -0.8383 -1.4450 -1.0566
 2407SOL    HW218684   3.838   1.531  15.561 -0.4818  1.9147 -0.1313
 2408SOL     OW18685   2.989   3.285   4.284  0.4489  0.3575  0.3071
 2408SOL    HW118686   2.906   3.237   4.285  0.9606 -0.5253  0.7573
 2408SOL    HW218687   2.988   3.313   4.376 -1.3567 -0.3999  0.5132
 2409SOL     OW18688   2.618   2.982   2.511  0.0699  0.6660  0.4724
 2409SOL    HW118689   2.623   3.041   2.586  0.4574  1.2387 -0.0091
 2409SOL    HW218690   2.711   2.970   2.491 -0.5898 -0.5057 -1.9197
 2410SOL     OW18691   1.550   1.590   1.351 -0.0499 -0.2246 -0.4065
 2410SOL    HW118692   1.516   1.505   1.377  2.9482 -1.4143 -0.4186
 2410SOL    HW218693   1.640   1.581   1.320  0.7723 -0.4014  2.0610
 2411SOL     OW18694   3.225   3.148   4.878 -0.2080 -0.2955 -0.3215
 2411SOL    HW118695   3.305   3.146   4.826  0.2160 -2.1962  0.4065
 2411SOL    HW218696   3.239   3.228   4.929 -0.9365 -0.8383  0.7351
 2412SOL     OW18697   3.137   0.776   6.301 -0.2501  0.0339  0.3540
 2412SOL    HW118698   3.136   0.698   6.245 -5.9409  0.2246  0.2232
 2412SOL    HW218699   3.047   0.781   6.333 -0.4247 -0.7070 -0.0140
 2413SOL     OW18700   4.663   1.355   3.787 -0.4633  0.2570 -0.2191
 2413SOL    HW118701   4.599   1.426   3.793 -1.2069 -0.4184 -0.1190
 2413SOL    HW218702   4.673   1.333   3.695  0.0884 -0.2645 -0.0388
 2414SOL     OW18703   0.515   0.342  10.412  0.4003  0.0836 -0.3932
 2414SOL    HW118704   0.460   0.411  10.448  0.4824 -1.3972  2.6223
 2414SOL    HW218705   0.457   0.274  10.377 -0.1634  0.3915 -0.0471
 2415SOL     OW18706   1.135   4.157   6.252  0.2809  0.3673 -0.3126
 2415SOL    HW118707   1.111   4.068   6.226 -1.5899  0.7192  0.2294
 2415SOL    HW218708   1.120   4.155   6.346 -1.0124 -0.9896 -0.5522
 2416SOL     OW18709   4.576   3.503   1.094  0.1129  0.5485  0.2489
 2416SOL    HW118710   4.570   3.599   1.097  1.3813  0.6681 -0.8894
 2416SOL    HW218711   4.491   3.479   1.057 -0.0844 -0.2384  1.2361
 2417SOL     OW18712   0.283   2.315  14.323  0.1495 -0.3508  0.1585
 2417SOL    HW118713   0.260   2.271  14.242 -2.5043  1.9948 -0.3741
 2417SOL    HW218714   0.296   2.242  14.384  0.5820 -0.8827 -0.5847
 2418SOL     OW18715   3.705   2.292   4.047 -0.1861  0.4204  0.5166
 2418SOL    HW118716   3.764   2.364   4.022 -0.6192  0.1895 -1.1792
 2418SOL    HW218717   3.631   2.303   3.988  1.0847 -0.5541 -1.2623
 2419SOL     OW18718   4.020   2.695   7.337  0.1942  0.0882  0.5845
 2419SOL    HW118719   4.051   2.680   7.426  1.9212 -0.4461 -0.1036
 2419SOL    HW218720   4.058   2.619   7.292  0.3742  0.4266  0.1663
 2420SOL     OW18721   2.703   4.276  10.849  0.4937  0.1012  0.1704
 2420SOL    HW118722   2.643   4.220  10.800  1.2726 -0.3162 -0.3175
 2420SOL    HW218723   2.686   4.240  10.936  0.3583  0.1520  0.1638
 2421SOL     OW18724   1.884   3.277   6.960 -0.0478  0.4780 -0.1926
 2421SOL    HW118725   1.815   3.213   6.978  1.8689 -0.9211  2.1073
 2421SOL    HW218726   1.856   3.319   6.879 -0.7149  0.0433 -0.1812
 2422SOL     OW18727   1.755   1.857   1.937 -0.5156 -0.5897 -0.2858
 2422SOL    HW118728   1.783   1.808   1.860 -1.7333 -1.3893 -0.2126
 2422SOL    HW218729   1.690   1.917   1.902  0.4535 -0.7393 -2.3287
 2423SOL     OW18730   0.811   2.432   2.718 -0.2508 -0.3599  0.2838
 2423SOL    HW118731   0.747   2.361   2.729  0.9309 -1.5144 -0.2064
 2423SOL    HW218732   0.886   2.374   2.701 -0.1633 -1.0365  2.9682
 2424SOL     OW18733   0.430   3.693   6.923  0.9486  0.8786 -0.4942
 2424SOL    HW118734   0.526   3.687   6.926  0.9062  0.2607 -0.4121
 2424SOL    HW218735   0.413   3.711   7.016  2.3967 -0.4163  0.0324
 2425SOL     OW18736   3.737   3.449   8.383  0.2646 -0.1948 -0.0552
 2425SOL    HW118737   3.785   3.501   8.448  1.1420  0.5113 -1.2680
 2425SOL    HW218738   3.692   3.388   8.441  2.5613 -1.5971  0.2717
 2426SOL     OW18739   0.256   1.708   3.704  0.1023 -0.2104  0.5186
 2426SOL    HW118740   0.260   1.624   3.659 -1.4930 -0.3734  0.6791
 2426SOL    HW218741   0.226   1.680   3.790 -1.6685  1.1423  0.3393
 2427SOL     OW18742   0.691   3.426   8.205  0.1853  0.1154 -0.1176
 2427SOL    HW118743   0.765   3.380   8.244  2.4086  1.9466 -2.1873
 2427SOL    HW218744   0.711   3.520   8.204  3.6895 -0.6451 -0.1826
 2428SOL     OW18745   3.224   4.218  10.075  0.1506 -0.4116  0.1116
 2428SOL    HW118746   3.188   4.234   9.988  0.7009 -0.2894 -0.0977
 2428SOL    HW218747   3.187   4.297  10.114  1.3383 -0.4974  1.4415
 2429SOL     OW18748   2.678   3.428  13.409  0.1643  0.1000  0.6123
 2429SOL    HW118749   2.586   3.406  13.396 -0.0730 -1.3046  4.8497
 2429SOL    HW218750   2.674   3.489  13.482  0.5958 -0.2996  0.9744
 2430SOL     OW18751   4.077   0.465   7.150 -0.0227  0.6372 -0.7162
 2430SOL    HW118752   4.124   0.446   7.231 -0.6113  3.3877  0.2542
 2430SOL    HW218753   4.098   0.557   7.133  0.9497  0.9132  1.9754
 2431SOL     OW18754   2.971   0.177   7.565 -0.0378  0.0828  0.2053
 2431SOL    HW118755   3.043   0.119   7.592 -1.3748 -1.4433  0.4698
 2431SOL    HW218756   2.887   0.132   7.575  1.1684 -2.3563 -0.6157
 2432SOL     OW18757   1.097   1.671   3.800  0.6337 -0.5036  0.0770
 2432SOL    HW118758   1.074   1.673   3.893  1.6888 -1.2623  0.3642
 2432SOL    HW218759   1.086   1.577   3.783 -2.1320 -0.1215 -0.3060
 2433SOL     OW18760   3.605   1.886   6.335 -0.3714  0.1330 -0.0643
 2433SOL    HW118761   3.644   1.806   6.299 -2.4209 -0.1426 -1.6711
 2433SOL    HW218762   3.520   1.876   6.292 -0.9146  0.6568  0.8814
 2434SOL     OW18763   2.717   1.273   4.930 -0.0642 -0.0503  0.2051
 2434SOL    HW118764   2.740   1.251   5.020 -0.0832 -3.3976 -0.6106
 2434SOL    HW218765   2.779   1.344   4.913  0.5305 -0.5531  0.2565
 2435SOL     OW18766   4.409   3.127   2.914 -0.3878  0.1391  0.8949
 2435SOL    HW118767   4.501   3.109   2.899 -0.4543  0.8507 -0.3264
 2435SOL    HW218768   4.375   3.038   2.904  0.4713 -0.2892  1.8395
 2436SOL     OW18769   2.779   2.288   9.773 -0.3546  0.1292 -0.2570
 2436SOL    HW118770   2.806   2.348   9.843  0.5585 -0.2642 -0.2774
 2436SOL    HW218771   2.820   2.322   9.693 -2.6129  1.3371 -0.9187
 2437SOL     OW18772   3.928   0.621  14.481 -0.5882  0.3361 -0.1749
 2437SOL    HW118773   3.950   0.567  14.557  0.0412  1.2200  0.2804
 2437SOL    HW218774   4.010   0.669  14.465 -0.7403  0.6182 -0.1074
 2438SOL     OW18775   3.682   4.063   3.807  0.5887 -0.5651 -0.5312
 2438SOL    HW118776   3.760   4.009   3.820  0.4171 -0.6573  0.1024
 2438SOL    HW218777   3.661   4.019   3.724 -0.7617 -2.4363  0.7856
 2439SOL     OW18778   0.937   0.045   6.206 -0.0567  0.0431 -0.1614
 2439SOL    HW118779   0.950   0.090   6.290  2.3883  0.6350 -0.8545
 2439SOL    HW218780   0.887   4.692   6.231  1.3296 -1.5234 -2.2018
 2440SOL     OW18781   2.073   0.506   2.728  0.5601 -0.0991 -1.0807
 2440SOL    HW118782   1.988   0.534   2.695  0.4030 -0.2394 -0.7917
 2440SOL    HW218783   2.113   0.494   2.642 -1.7832 -1.4427 -1.9745
 2441SOL     OW18784   1.703   3.940   2.552  0.3198 -0.3327 -0.9995
 2441SOL    HW118785   1.712   3.858   2.601  1.1856  1.0760  1.2136
 2441SOL    HW218786   1.742   4.011   2.604  0.2614 -1.5433  0.7028
 2442SOL     OW18787   2.104   4.067   5.323 -0.2556 -0.3672  0.3072
 2442SOL    HW118788   2.098   4.086   5.417  1.3807 -1.5213  0.6474
 2442SOL    HW218789   2.197   4.088   5.325 -0.1082 -1.0554  0.7378
 2443SOL     OW18790   2.764   3.472   8.843  0.0161 -0.2584  0.3131
 2443SOL    HW118791   2.827   3.408   8.877 -2.9054 -1.1793  3.9264
 2443SOL    HW218792   2.821   3.546   8.820 -0.4838 -0.1619 -0.5988
 2444SOL     OW18793   1.860   0.826  12.343  0.7290  0.3176  1.1665
 2444SOL    HW118794   1.869   0.763  12.271  0.6355 -0.3510  1.7423
 2444SOL    HW218795   1.765   0.815  12.353  0.9639 -0.0341  2.9774
 2445SOL     OW18796   0.478   2.710  12.110 -0.1574 -0.0744  0.2881
 2445SOL    HW118797   0.543   2.667  12.055  0.2639  1.4499 -0.3982
 2445SOL    HW218798   0.401   2.668  12.071 -1.9475  0.2409  3.5026
 2446SOL     OW18799   2.274   2.076  12.191 -0.0209 -0.0149 -0.6594
 2446SOL    HW118800   2.263   1.991  12.234 -0.0954  0.2219 -0.2055
 2446SOL    HW218801   2.359   2.069  12.146 -0.3720 -1.1756 -1.1245
 2447SOL     OW18802   1.438   3.872   1.303 -0.2750  0.0469 -0.5990
 2447SOL    HW118803   1.447   3.865   1.398 -0.6219 -1.7831 -0.7114
 2447SOL    HW218804   1.365   3.930   1.283 -0.2396  0.2268 -0.2106
 2448SOL     OW18805   3.392   3.690   6.327 -0.1286  0.3307 -0.0931
 2448SOL    HW118806   3.309   3.670   6.370  0.3287  0.4126  0.8062
 2448SOL    HW218807   3.451   3.688   6.401  0.2640  1.2141 -0.3858
 2449SOL     OW18808   4.119   1.919   2.912  0.8602 -0.0569 -0.3158
 2449SOL    HW118809   4.192   1.929   2.974 -2.2373 -1.9299  3.6098
 2449SOL    HW218810   4.043   1.928   2.970  1.4339 -2.4890  0.8127
 2450SOL     OW18811   0.277   1.184   3.751 -0.1338 -0.3523 -0.0607
 2450SOL    HW118812   0.307   1.118   3.690  0.7788 -0.2755  0.2998
 2450SOL    HW218813   0.325   1.260   3.717 -1.3830  0.2277 -0.5283
 2451SOL     OW18814   4.176   0.565   8.270 -0.0883 -0.0021  0.5063
 2451SOL    HW118815   4.238   0.499   8.239 -0.7663  0.2093 -1.2990
 2451SOL    HW218816   4.099   0.527   8.229  0.3062 -1.1753  0.8335
 2452SOL     OW18817   1.374   4.355   2.055  1.0552 -0.3239 -0.0715
 2452SOL    HW118818   1.366   4.444   2.021 -2.3363 -0.6077 -0.0115
 2452SOL    HW218819   1.469   4.354   2.064  1.0187 -0.1328  0.3345
 2453SOL     OW18820   2.948   1.708   4.229 -0.2110 -0.0291  0.3667
 2453SOL    HW118821   2.930   1.648   4.156 -0.6835  0.0028  0.4570
 2453SOL    HW218822   2.864   1.755   4.230 -0.7861 -1.0579  0.2856
 2454SOL     OW18823   1.906   4.336   6.580  0.2134  0.7319 -0.0989
 2454SOL    HW118824   1.998   4.326   6.556  0.5810  0.5697  1.3734
 2454SOL    HW218825   1.910   4.389   6.660 -1.3437  2.1355 -0.9523
 2455SOL     OW18826   2.084   3.701   3.493  0.5631 -0.0177  0.0245
 2455SOL    HW118827   2.162   3.646   3.484  0.3151 -0.0265 -2.0783
 2455SOL    HW218828   2.106   3.759   3.420  1.1776 -0.4353 -0.1173
 2456SOL     OW18829   0.009   1.339   5.310  0.1864 -0.2433  0.1235
 2456SOL    HW118830   0.053   1.326   5.394  1.6464  1.5167 -0.3677
 2456SOL    HW218831   4.646   1.301   5.320  0.3604 -0.3414  1.2350
 2457SOL     OW18832   1.279   0.640   2.158  0.0938 -0.5585  0.1640
 2457SOL    HW118833   1.216   0.607   2.093 -2.4318 -1.4411  3.0666
 2457SOL    HW218834   1.269   0.571   2.223  0.4470 -0.9565 -0.2047
 2458SOL     OW18835   2.608   0.403   4.602  0.8718 -0.7393 -0.7150
 2458SOL    HW118836   2.638   0.361   4.682 -1.6607  0.1366  0.6954
 2458SOL    HW218837   2.674   0.473   4.596  0.8792 -0.5126  1.9150
 2459SOL     OW18838   3.947   2.870  17.002 -0.6762 -0.5436  0.2798
 2459SOL    HW118839   3.900   2.863  17.086 -1.8338  0.5055 -0.2720
 2459SOL    HW218840   3.888   2.936  16.964 -0.3498  0.2831  1.1825
 2460SOL     OW18841   4.279   4.511   0.856  0.0092  0.1947 -0.3172
 2460SOL    HW118842   4.188   4.531   0.876  0.6501  2.2892  0.5759
 2460SOL    HW218843   4.275   4.481   0.765 -0.4179 -1.2160  0.1701
 2461SOL     OW18844   1.684   0.429   2.478  0.0360 -0.5417 -0.6322
 2461SOL    HW118845   1.616   0.405   2.541 -1.0364 -0.8320 -1.8941
 2461SOL    HW218846   1.678   0.524   2.464 -1.1355 -0.4206  0.7474
 2462SOL     OW18847   4.155   0.437   3.656 -0.4067 -0.1002 -0.0958
 2462SOL    HW118848   4.105   0.512   3.623  0.7640  0.6101 -0.2352
 2462SOL    HW218849   4.095   0.407   3.724  1.1029 -0.2290  1.1651
 2463SOL     OW18850   3.429   4.397   4.035  0.0844  0.1228  0.2219
 2463SOL    HW118851   3.377   4.457   3.982 -2.0735 -0.4269  1.7042
 2463SOL    HW218852   3.387   4.417   4.119 -0.1129  1.3690 -0.1690
 2464SOL     OW18853   1.043   2.274   4.533 -0.6256  0.2019  0.2282
 2464SOL    HW118854   0.975   2.229   4.483  1.0939 -2.4422  0.2774
 2464SOL    HW218855   0.994   2.354   4.553 -1.7806 -0.3202 -0.5315
 2465SOL     OW18856   3.302   1.969   9.164  0.1124  0.0519  0.2920
 2465SOL    HW118857   3.209   1.950   9.156  0.5191 -0.6424 -2.6448
 2465SOL    HW218858   3.333   1.897   9.219 -1.0225  0.2586  1.2092
 2466SOL     OW18859   0.260   2.625   0.306  0.7440  0.7686 -0.0290
 2466SOL    HW118860   0.218   2.540   0.319 -2.7243  2.8643  2.3496
 2466SOL    HW218861   0.193   2.671   0.255  0.0649  1.0122  1.0932
 2467SOL     OW18862   0.155   3.045  16.956  0.3590 -0.1073  0.2642
 2467SOL    HW118863   0.226   3.073  17.014  0.7732 -1.0086  0.1959
 2467SOL    HW218864   0.109   3.128  16.942  0.4812 -0.2755 -1.1733
 2468SOL     OW18865   0.319   1.434  10.821  0.2261 -0.8082 -0.0643
 2468SOL    HW118866   0.349   1.382  10.896  1.1245 -0.0524  0.0998
 2468SOL    HW218867   0.388   1.497  10.802 -0.4454 -0.1245 -0.2588
 2469SOL     OW18868   3.204   0.341   6.366  0.2076 -0.3526 -0.0798
 2469SOL    HW118869   3.252   0.262   6.391  0.4946  0.1501  0.9634
 2469SOL    HW218870   3.194   0.388   6.449  0.7268 -0.7910  0.2372
 2470SOL     OW18871   2.261   1.460   5.289 -0.3020 -0.9092  0.2960
 2470SOL    HW118872   2.227   1.445   5.201 -0.1832 -0.9992  0.2657
 2470SOL    HW218873   2.338   1.516   5.276 -1.7708  0.9041 -0.6393
 2471SOL     OW18874   2.862   2.760   4.823  0.1722  0.2753 -0.1827
 2471SOL    HW118875   2.950   2.790   4.847  0.1864 -0.4288  0.6584
 2471SOL    HW218876   2.826   2.848   4.812 -1.3693 -0.6933 -2.8825
 2472SOL     OW18877   0.339   2.470   8.820 -0.1614  0.0773  0.6670
 2472SOL    HW118878   0.360   2.549   8.870 -0.8100 -0.4985  1.8608
 2472SOL    HW218879   0.429   2.453   8.792 -0.0360 -0.6892  1.5169
 2473SOL     OW18880   3.159   3.584   0.070 -0.0892  0.1523 -0.6072
 2473SOL    HW118881   3.146   3.489   0.074 -1.6408  0.2648 -3.3530
 2473SOL    HW218882   3.253   3.595   0.085 -0.3914 -0.6031  1.9159
 2474SOL     OW18883   2.395   2.728   7.104 -0.4070  0.2347 -0.2716
 2474SOL    HW118884   2.328   2.795   7.115  0.2683  0.3988  2.7850
 2474SOL    HW218885   2.478   2.764   7.135 -1.5316  1.8273  0.9031
 2475SOL     OW18886   4.234   3.104   4.405  0.2855 -0.3974 -0.3306
 2475SOL    HW118887   4.324   3.125   4.433  0.1215 -0.0311 -0.0779
 2475SOL    HW218888   4.240   3.071   4.316  2.8713  1.7944 -0.9826
 2476SOL     OW18889   0.599   2.081   3.490  0.0285  0.2806 -0.0953
 2476SOL    HW118890   0.605   2.017   3.560 -0.4837  0.4941  0.1444
 2476SOL    HW218891   0.508   2.078   3.460 -0.6028  1.7432  1.6674
 2477SOL     OW18892   2.348   0.644   5.380 -0.0712 -0.4915 -0.6079
 2477SOL    HW118893   2.275   0.617   5.435 -0.3932  2.2278  0.3314
 2477SOL    HW218894   2.303   0.693   5.311 -0.6776  0.7456  0.6642
 2478SOL     OW18895   1.088   0.319   5.806  1.1457 -0.4247  0.2523
 2478SOL    HW118896   0.993   0.317   5.818  1.1123  0.7419  0.1371
 2478SOL    HW218897   1.108   0.228   5.785  1.6422 -0.8317  2.4509
 2479SOL     OW18898   4.519   3.771   5.224  0.1092  0.4045  0.0963
 2479SOL    HW118899   4.522   3.859   5.186  0.2148  0.0087 -0.8060
 2479SOL    HW218900   4.612   3.751   5.222  0.4242  2.1427 -2.4932
 2480SOL     OW18901   1.217   2.698   8.705  0.0415 -0.5741  0.3732
 2480SOL    HW118902   1.196   2.735   8.791 -3.1124  0.0769 -0.6747
 2480SOL    HW218903   1.309   2.724   8.698  0.7763 -2.7343  1.8213
 2481SOL     OW18904   0.088   0.539   8.502 -0.0628 -0.0296  0.0984
 2481SOL    HW118905   0.177   0.517   8.528  0.4364 -0.1678 -1.7038
 2481SOL    HW218906   0.104   0.533   8.408 -2.3334 -0.4237 -0.2753
 2482SOL     OW18907   1.292   0.767  10.010 -0.5711 -0.2172  0.4608
 2482SOL    HW118908   1.371   0.819  10.023 -0.6963  0.0245  0.2816
 2482SOL    HW218909   1.265   0.735  10.096 -0.1885 -1.5891  0.0570
 2483SOL     OW18910   1.834   2.137   6.625 -0.1477 -0.9672  0.2472
 2483SOL    HW118911   1.881   2.156   6.706  2.8535  0.8836 -1.9250
 2483SOL    HW218912   1.909   2.110   6.571  1.2358  1.7647  0.8314
 2484SOL     OW18913   0.944   0.844   6.980 -0.4017  0.4298  0.0609
 2484SOL    HW118914   0.922   0.838   6.887 -0.4083  0.3584  0.0666
 2484SOL    HW218915   0.857   0.862   7.015 -0.2665  1.4704 -0.1377
 2485SOL     OW18916   0.819   1.773   5.255  0.2995 -0.1490 -0.0750
 2485SOL    HW118917   0.892   1.716   5.230  0.2007 -1.1071  1.8884
 2485SOL    HW218918   0.807   1.837   5.185 -1.7271  1.3563  1.6678
 2486SOL     OW18919   0.673   4.119   8.835 -0.0227  0.0103  0.4929
 2486SOL    HW118920   0.641   4.171   8.908 -1.6659  0.1895 -0.3693
 2486SOL    HW218921   0.768   4.129   8.842 -0.0717  1.2419 -0.4492
 2487SOL     OW18922   3.746   3.982   8.062  0.0048  0.2124  0.1876
 2487SOL    HW118923   3.677   3.964   8.126 -0.9639  1.2354 -0.5744
 2487SOL    HW218924   3.797   3.901   8.068  0.7557  0.6684 -0.0292
 2488SOL     OW18925   1.362   2.604   3.397  0.0775 -0.0837 -0.3727
 2488SOL    HW118926   1.387   2.543   3.467 -1.1686  0.9744  0.9905
 2488SOL    HW218927   1.423   2.677   3.410  0.8726 -0.8777  0.3876
 2489SOL     OW18928   3.480   1.344   7.565 -0.1123 -1.2788  0.7827
 2489SOL    HW118929   3.544   1.328   7.635  2.8438 -1.9319 -2.1038
 2489SOL    HW218930   3.430   1.263   7.556  1.6081 -2.2136 -0.1948
 2490SOL     OW18931   2.561   3.311   1.428  0.2659 -0.2808  0.0340
 2490SOL    HW118932   2.627   3.365   1.385  1.3417 -0.9680  0.8231
 2490SOL    HW218933   2.480   3.352   1.396 -0.6482 -0.8471  1.5897
 2491SOL     OW18934   3.007   2.875  12.108  0.1865  0.2207 -0.2828
 2491SOL    HW118935   3.030   2.883  12.201 -0.3233  1.5903 -0.2744
 2491SOL    HW218936   3.004   2.782  12.083 -1.7252  0.7761 -2.1320
 2492SOL     OW18937   0.126   1.296   0.288  0.1506 -0.3838  0.3632
 2492SOL    HW118938   0.055   1.262   0.233  1.4774 -2.2848 -0.1828
 2492SOL    HW218939   0.087   1.299   0.375  0.7692 -1.0527  0.6615
 2493SOL     OW18940   4.409   1.865  17.437  0.6148 -0.2167  0.1420
 2493SOL    HW118941   4.475   1.802  17.407  0.5696 -0.6630  0.9831
 2493SOL    HW218942   4.359   1.879  17.356 -0.4011 -1.5221  0.5451
 2494SOL     OW18943   3.109   4.064   8.846 -0.2517 -0.5172  0.0711
 2494SOL    HW118944   3.190   4.114   8.850 -1.8096  1.8149  2.8460
 2494SOL    HW218945   3.066   4.088   8.928 -1.1285  0.2208 -0.5877
 2495SOL     OW18946   3.936   2.683  10.053 -0.1906 -0.3554 -0.2435
 2495SOL    HW118947   4.023   2.650  10.028 -0.4655  0.2282 -1.9906
 2495SOL    HW218948   3.889   2.600  10.065  0.4673 -0.4929  1.4289
 2496SOL     OW18949   0.332   0.796  14.000 -0.0482  0.3332 -0.0756
 2496SOL    HW118950   0.402   0.847  13.960  1.8020 -2.3975 -0.3348
 2496SOL    HW218951   0.364   0.706  13.990 -4.3563 -1.3908  1.3976
 2497SOL     OW18952   2.087   0.625  10.002 -0.2358  0.2989  0.0024
 2497SOL    HW118953   2.177   0.657   9.996  0.0439 -0.5849 -0.6444
 2497SOL    HW218954   2.072   0.650  10.093  1.7531 -2.2545  1.0561
 2498SOL     OW18955   2.179   1.340   1.865  0.0120  0.7456  0.1798
 2498SOL    HW118956   2.233   1.377   1.935  0.0710  0.6132  0.2041
 2498SOL    HW218957   2.138   1.270   1.915 -1.8097  1.5028 -0.2640
 2499SOL     OW18958   2.514   1.635  16.406 -0.0238  0.1075 -0.0121
 2499SOL    HW118959   2.517   1.614  16.499  0.0282  0.2662  0.0230
 2499SOL    HW218960   2.432   1.590  16.385  0.7566 -0.2738 -2.2173
 2500SOL     OW18961   2.641   0.488   9.299 -0.3712 -0.0225 -0.4715
 2500SOL    HW118962   2.600   0.445   9.373  1.6512 -1.4389 -0.1592
 2500SOL    HW218963   2.616   0.578   9.318 -0.7561 -0.6276  1.8783
 2501SOL     OW18964   0.605   2.324  16.107 -0.5625  0.1891  0.3091
 2501SOL    HW118965   0.611   2.420  16.116  2.5620 -0.1103  1.4952
 2501SOL    HW218966   0.622   2.310  16.200 -2.6525 -0.1319  0.6490
 2502SOL     OW18967   3.287   0.269   2.681  0.5661  0.1400 -0.3969
 2502SOL    HW118968   3.257   0.246   2.593  1.2797  0.9909 -0.8660
 2502SOL    HW218969   3.382   0.253   2.679 -0.1417 -3.8460 -2.3582
 2503SOL     OW18970   2.578   4.574  10.156  0.7177  0.0133 -0.2849
 2503SOL    HW118971   2.642   4.569  10.226  0.0397  2.5125  0.4902
 2503SOL    HW218972   2.593   4.664  10.128 -0.5991  0.4787  0.4857
 2504SOL     OW18973   2.967   2.513  11.669  0.7864  0.1725 -0.4094
 2504SOL    HW118974   3.058   2.541  11.677  0.5621  0.7122  0.2106
 2504SOL    HW218975   2.972   2.420  11.691  0.3326  0.8386  2.3906
 2505SOL     OW18976   3.179   3.919  12.005  0.3238 -0.0504 -0.2009
 2505SOL    HW118977   3.256   3.911  11.949 -1.6236 -3.2069 -2.4404
 2505SOL    HW218978   3.177   4.014  12.015 -1.0108  0.2013 -3.1119
 2506SOL     OW18979   3.905   4.692   6.319 -0.1539  0.3136 -0.5148
 2506SOL    HW118980   3.988   4.666   6.358 -0.4098 -2.3267 -1.7046
 2506SOL    HW218981   3.850   4.636   6.374 -1.5368  1.0352 -1.1472
 2507SOL     OW18982   3.559   3.328  13.564 -0.4934  0.0538  0.7639
 2507SOL    HW118983   3.535   3.347  13.655 -1.2779  2.0440  0.1528
 2507SOL    HW218984   3.549   3.420  13.540  2.0634  0.3293  0.8286
 2508SOL     OW18985   2.985   2.753  14.826 -0.0787 -0.1002  0.0131
 2508SOL    HW118986   3.044   2.820  14.860  0.4561 -1.0536  0.9830
 2508SOL    HW218987   3.053   2.689  14.800  0.9114  0.5555  0.9921
 2509SOL     OW18988   0.847   4.096   2.604 -0.1450  0.3729  0.2333
 2509SOL    HW118989   0.939   4.094   2.632  0.6678 -0.0543 -2.5478
 2509SOL    HW218990   0.830   4.190   2.613 -0.5449  0.0909  2.4291
 2510SOL     OW18991   4.669   1.345  11.351  0.2469  0.4670 -0.2628
 2510SOL    HW118992   4.707   1.278  11.294 -0.0661 -1.4508  1.7738
 2510SOL    HW218993   4.695   1.432  11.322 -0.1350  1.4029  2.1419
 2511SOL     OW18994   2.802   1.886   3.006  0.7932 -0.2001 -0.3170
 2511SOL    HW118995   2.730   1.901   2.944 -0.3677 -2.5257  0.4644
 2511SOL    HW218996   2.833   1.801   2.974 -1.5776 -0.0560 -3.0735
 2512SOL     OW18997   3.508   4.591   5.911  0.2554  0.3595 -0.5389
 2512SOL    HW118998   3.597   4.588   5.947  0.5970 -2.0382 -1.5754
 2512SOL    HW218999   3.493   4.496   5.910  1.0878  0.2385 -1.4464
 2513SOL     OW19000   0.426   3.207  11.529  0.1913  0.3083  0.2157
 2513SOL    HW119001   0.410   3.288  11.578  0.5114 -0.2817  1.2991
 2513SOL    HW219002   0.492   3.164  11.583 -0.2533  1.0637  1.3629
 2514SOL     OW19003   4.205   1.149   7.877 -0.5609  0.2590 -0.0365
 2514SOL    HW119004   4.155   1.147   7.958 -0.8594  0.3231 -0.2205
 2514SOL    HW219005   4.189   1.239   7.849 -3.3344 -0.3564 -0.4224
 2515SOL     OW19006   1.912   2.703   3.333  0.1366 -0.2143  0.2256
 2515SOL    HW119007   1.916   2.720   3.427 -2.8766 -0.6901  0.4274
 2515SOL    HW219008   1.867   2.780   3.298  0.7690  0.9397  1.9144
 2516SOL     OW19009   1.048   3.598  16.326  0.2247  0.1868  0.3610
 2516SOL    HW119010   1.105   3.581  16.251 -1.6131  0.3521 -1.0836
 2516SOL    HW219011   1.002   3.515  16.319  1.7770 -0.6260 -0.1294
 2517SOL     OW19012   0.342   2.533   9.431  0.0468  0.1355 -0.9093
 2517SOL    HW119013   0.307   2.596   9.495  0.2542 -0.8745  0.2098
 2517SOL    HW219014   0.277   2.464   9.449 -0.7970  1.7632  2.3233
 2518SOL     OW19015   2.582   4.021  12.446  0.3050  0.2241 -0.5734
 2518SOL    HW119016   2.645   3.986  12.383  0.1202 -0.6348 -0.2823
 2518SOL    HW219017   2.567   4.106  12.405 -1.3553  1.3128  2.2389
 2519SOL     OW19018   0.088   1.405  10.046 -0.3381 -0.4129  0.0314
 2519SOL    HW119019   0.144   1.329  10.061  2.4760  1.2124 -2.2512
 2519SOL    HW219020   0.050   1.381   9.961 -1.2404 -0.8927  0.5675
 2520SOL     OW19021   2.899   2.925   1.406 -0.1503  0.0961  0.1492
 2520SOL    HW119022   2.852   2.845   1.383  0.4376  0.0905 -1.0255
 2520SOL    HW219023   2.947   2.896   1.484  2.8555  1.8287 -1.0468
 2521SOL     OW19024   2.847   0.548  17.018  0.1789  0.2491  0.1553
 2521SOL    HW119025   2.857   0.518  17.108 -2.1747  0.8800  0.6449
 2521SOL    HW219026   2.823   0.468  16.971  2.9936  0.2165 -1.1991
 2522SOL     OW19027   0.417   0.059   4.362 -0.2222  0.1605  0.3043
 2522SOL    HW119028   0.423   0.152   4.341  1.0087 -0.5433 -2.4001
 2522SOL    HW219029   0.494   0.040   4.309  0.5306 -0.8999  1.7916
 2523SOL     OW19030   4.091   4.229   4.362 -0.4279  0.2727 -0.3666
 2523SOL    HW119031   4.046   4.249   4.280  0.3547  2.7488 -0.1912
 2523SOL    HW219032   4.088   4.134   4.362  0.0201  0.2606 -1.5183
 2524SOL     OW19033   3.184   1.233   3.068  0.1807 -0.6466 -0.4254
 2524SOL    HW119034   3.195   1.327   3.050  0.5464 -0.6427 -0.1768
 2524SOL    HW219035   3.090   1.223   3.050  0.1162  1.5355 -1.3391
 2525SOL     OW19036   2.114   0.055   8.305 -0.1447 -0.0294  0.7398
 2525SOL    HW119037   2.099   0.010   8.389  2.8344  2.9374  2.8623
 2525SOL    HW219038   2.203   0.082   8.328  0.3680  0.6732 -2.1073
 2526SOL     OW19039   0.913   3.516   5.902  0.3703 -0.1257 -0.3021
 2526SOL    HW119040   1.007   3.514   5.919  0.3844 -1.2532 -0.4908
 2526SOL    HW219041   0.896   3.608   5.924 -0.7496 -0.3576 -0.1699
 2527SOL     OW19042   0.062   2.835   1.774 -0.3119 -0.2342 -0.2002
 2527SOL    HW119043   0.039   2.758   1.826  3.1249 -1.1643 -0.0037
 2527SOL    HW219044   0.145   2.801   1.739  1.0291  1.1975  1.5688
 2528SOL     OW19045   0.247   0.022   2.404  0.0964  0.4242  1.0266
 2528SOL    HW119046   0.197   0.098   2.433  0.2377  1.0130 -0.2833
 2528SOL    HW219047   0.296   4.716   2.481  0.6023  0.0416  0.5596
 2529SOL     OW19048   3.945   2.060   1.588 -0.2251  0.7019  0.2690
 2529SOL    HW119049   3.909   2.001   1.654  2.3303  3.3892  4.0355
 2529SOL    HW219050   3.860   2.084   1.552  0.1629  2.6397  0.6259
 2530SOL     OW19051   0.413   3.345   9.918  0.0299 -0.0627 -0.6026
 2530SOL    HW119052   0.507   3.328   9.925 -0.2773 -1.2845  0.4101
 2530SOL    HW219053   0.383   3.283   9.852  0.4483 -1.5866  0.6601
 2531SOL     OW19054   0.651   4.687   6.840 -0.2738 -0.3037  0.6659
 2531SOL    HW119055   0.671   4.717   6.929 -1.4356 -1.8026  1.4351
 2531SOL    HW219056   0.627   4.597   6.863 -0.7460 -0.1432  0.7899
 2532SOL     OW19057   4.485   2.930   6.548  0.4756  0.1013  0.6282
 2532SOL    HW119058   4.485   2.834   6.539  0.6741  0.1772 -0.1930
 2532SOL    HW219059   4.415   2.944   6.612  2.0409  2.6799  1.7558
 2533SOL     OW19060   3.798   2.598   6.942  0.1950 -0.2064  0.6489
 2533SOL    HW119061   3.883   2.610   6.984  0.0640 -1.1815  1.1859
 2533SOL    HW219062   3.797   2.652   6.862  0.8920 -1.7411 -0.3802
 2534SOL     OW19063   0.184   2.459  13.665  0.1514 -0.1579  0.0232
 2534SOL    HW119064   0.206   2.415  13.747  1.3409 -0.7419 -0.6034
 2534SOL    HW219065   0.243   2.407  13.611  2.1726  1.6871  0.4550
 2535SOL     OW19066   4.141   1.649   1.216 -0.1052  0.1069  0.3612
 2535SOL    HW119067   4.064   1.704   1.233  0.1254  0.2040  1.1221
 2535SOL    HW219068   4.098   1.576   1.173 -0.5139 -0.4123  1.6500
 2536SOL     OW19069   2.810   0.095   1.971 -0.0580  0.0554 -0.1175
 2536SOL    HW119070   2.729   0.137   1.999  0.3311  0.6355  0.1300
 2536SOL    HW219071   2.826   0.153   1.897  0.7077 -1.7425 -1.3559
 2537SOL     OW19072   4.682   0.684   6.332  0.3694 -0.6637  0.2188
 2537SOL    HW119073   4.642   0.699   6.246 -0.6062 -1.2693  0.5661
 2537SOL    HW219074   0.008   0.765   6.337  0.8539 -1.0460  1.5200
 2538SOL     OW19075   1.340   1.126   9.212 -0.0006  0.3525  0.0620
 2538SOL    HW119076   1.400   1.088   9.276 -1.1377 -1.2852  0.1470
 2538SOL    HW219077   1.362   1.216   9.234 -3.3479  1.4667 -1.0393
 2539SOL     OW19078   2.452   0.410   5.337  0.6535  0.5576 -0.1363
 2539SOL    HW119079   2.490   0.419   5.425 -2.4610  1.7344  1.0646
 2539SOL    HW219080   2.414   0.497   5.333  1.4538  0.8618 -0.9633
 2540SOL     OW19081   0.771   4.270   0.291  0.1248  0.6842 -0.1608
 2540SOL    HW119082   0.768   4.363   0.311  0.1897  0.1102  2.4607
 2540SOL    HW219083   0.844   4.259   0.230  0.0867 -3.2094  0.4904
 2541SOL     OW19084   4.663   1.069   5.600  0.1012  0.0295 -0.7917
 2541SOL    HW119085   0.017   1.095   5.550  0.0923  0.0472 -0.7964
 2541SOL    HW219086   4.608   1.147   5.609  1.2098  0.9432 -1.9857
 2542SOL     OW19087   1.237   2.578   7.007  0.1474 -0.6163 -0.3874
 2542SOL    HW119088   1.296   2.652   6.990 -0.9408  0.6208  1.1415
 2542SOL    HW219089   1.293   2.512   7.046 -1.3439 -1.1195  0.8910
 2543SOL     OW19090   1.733   2.641   2.019  0.2342 -0.1400  0.0823
 2543SOL    HW119091   1.772   2.556   1.998  1.0187  0.3695 -0.5136
 2543SOL    HW219092   1.638   2.638   2.004  0.4828 -0.8080 -1.3675
 2544SOL     OW19093   2.892   3.386   2.504  0.1011  0.1515 -0.1665
 2544SOL    HW119094   2.956   3.346   2.563 -0.8322  0.9036  1.3525
 2544SOL    HW219095   2.865   3.322   2.439  0.7696 -1.4801  1.1762
 2545SOL     OW19096   2.730   3.833   5.971 -0.3622  0.3620 -0.0335
 2545SOL    HW119097   2.696   3.768   6.032 -0.4337  0.7904  0.3761
 2545SOL    HW219098   2.680   3.806   5.894  0.3685 -2.7471  0.5689
 2546SOL     OW19099   4.358   2.756   4.517  0.3802  0.0838 -0.1265
 2546SOL    HW119100   4.451   2.758   4.494  0.0778 -0.7911 -1.4074
 2546SOL    HW219101   4.344   2.821   4.586  0.2819 -0.4651  0.3642
 2547SOL     OW19102   3.216   3.193   8.408 -0.2848 -0.3340  0.2925
 2547SOL    HW119103   3.207   3.169   8.500  0.8569 -4.9950 -0.8465
 2547SOL    HW219104   3.210   3.108   8.364 -0.1907  0.0724 -0.4973
 2548SOL     OW19105   1.394   1.554   4.288 -0.1322  0.0094  0.9689
 2548SOL    HW119106   1.407   1.604   4.369  1.1306  0.0627  0.7379
 2548SOL    HW219107   1.482   1.526   4.262 -0.8133 -1.5205  0.3086
 2549SOL     OW19108   0.824   3.796  11.091 -0.0752  0.3175 -0.3405
 2549SOL    HW119109   0.914   3.828  11.090  0.8529 -2.2728 -0.2727
 2549SOL    HW219110   0.797   3.806  11.000 -2.8701 -0.3887  0.4133
 2550SOL     OW19111   4.158   2.927  17.160  0.0505 -0.0719  0.1699
 2550SOL    HW119112   4.079   2.906  17.110  2.4171 -1.4492 -3.0033
 2550SOL    HW219113   4.165   2.842  17.203  0.2481 -1.1439 -2.0048
 2551SOL     OW19114   1.986   2.591   9.737 -0.7406 -0.5328 -0.0167
 2551SOL    HW119115   1.986   2.633   9.824 -1.3640  0.0209 -0.2873
 2551SOL    HW219116   1.980   2.498   9.756 -0.0677 -0.4997  0.3808
 2552SOL     OW19117   2.375   3.730  11.789 -0.3838  0.1817  0.1536
 2552SOL    HW119118   2.326   3.652  11.763 -0.3296  0.3933 -0.5928
 2552SOL    HW219119   2.311   3.782  11.837 -0.5001  0.5257 -0.3721
 2553SOL     OW19120   1.648   2.035   7.425 -0.1759  0.1730  0.3915
 2553SOL    HW119121   1.656   2.103   7.491  1.5877  3.4890 -3.2375
 2553SOL    HW219122   1.714   1.971   7.454 -1.6119 -1.6555 -0.3392
 2554SOL     OW19123   3.066   3.077   6.907 -0.4051 -0.2696  0.2990
 2554SOL    HW119124   2.993   3.126   6.869 -0.1341  0.5209  0.8052
 2554SOL    HW219125   3.095   3.134   6.978  3.5389 -0.0969 -1.4668
 2555SOL     OW19126   3.353   4.688   2.889 -0.1086  0.0146  0.2096
 2555SOL    HW119127   3.278   4.654   2.939 -0.1930  0.7215  0.5642
 2555SOL    HW219128   3.311   4.710   2.807  0.1743 -0.1942  0.0045
 2556SOL     OW19129   2.413   0.253   6.749 -0.2355  0.0695  0.0275
 2556SOL    HW119130   2.350   0.305   6.799  2.9944 -0.1016  4.3835
 2556SOL    HW219131   2.398   0.171   6.795  0.9543 -1.6003 -2.5894
 2557SOL     OW19132   3.735   4.029  17.650 -0.3083  0.7043 -0.6644
 2557SOL    HW119133   3.757   4.110  17.603 -0.3919  1.3959  0.4895
 2557SOL    HW219134   3.773   3.963  17.592  0.0606 -1.1066  1.6431
 2558SOL     OW19135   0.624   3.325   1.233  0.1637  0.1665  0.1255
 2558SOL    HW119136   0.531   3.332   1.210  0.3117  0.2194 -0.4615
 2558SOL    HW219137   0.659   3.284   1.154 -0.7503 -0.1361 -0.1250
 2559SOL     OW19138   0.918   4.181   4.449 -0.2884 -0.2357  0.7094
 2559SOL    HW119139   0.998   4.217   4.412 -1.0450 -0.0996 -0.7774
 2559SOL    HW219140   0.872   4.150   4.371  1.5699  0.9154 -0.8420
 2560SOL     OW19141   0.950   3.453   8.126  0.2690 -0.4866  0.4760
 2560SOL    HW119142   1.042   3.480   8.124 -0.4884  2.1207  0.2920
 2560SOL    HW219143   0.893   3.530   8.127  1.9933  0.8672 -2.5421
 2561SOL     OW19144   4.138   3.180   0.475  0.0726  0.4940  0.0397
 2561SOL    HW119145   4.068   3.151   0.416  0.7763 -1.2675  0.0710
 2561SOL    HW219146   4.118   3.144   0.562 -0.0831 -0.9088 -0.5772
 2562SOL     OW19147   0.474   3.408   4.409  0.0423  0.1774 -0.0058
 2562SOL    HW119148   0.391   3.402   4.456 -0.0302 -0.0512 -0.1648
 2562SOL    HW219149   0.485   3.501   4.389 -0.0614  0.1801 -0.0498
 2563SOL     OW19150   0.924   0.853   2.205  0.1284 -0.5091 -0.2775
 2563SOL    HW119151   0.987   0.798   2.252  2.4034  2.2197 -0.1711
 2563SOL    HW219152   0.882   0.892   2.282 -0.8120 -2.0955  0.0186
 2564SOL     OW19153   0.610   1.184   5.043  0.2301 -0.5811 -0.3405
 2564SOL    HW119154   0.645   1.270   5.022  0.2813 -0.4960  0.0953
 2564SOL    HW219155   0.557   1.168   4.965  0.8085  0.5675 -0.9605
 2565SOL     OW19156   0.581   2.553   3.815 -0.3606  0.1028 -0.3679
 2565SOL    HW119157   0.655   2.493   3.824  1.3645  2.2527 -0.4374
 2565SOL    HW219158   0.607   2.628   3.869 -0.9757  0.6595 -0.8453
 2566SOL     OW19159   2.309   0.269  16.487  0.5136  0.0460 -0.1628
 2566SOL    HW119160   2.261   0.216  16.550  1.7011  3.2820  3.4622
 2566SOL    HW219161   2.327   0.340  16.548 -0.5834 -0.2090  0.4526
 2567SOL     OW19162   2.259   3.675   0.359 -0.3967 -0.0552  0.2838
 2567SOL    HW119163   2.180   3.684   0.306  0.7286 -2.8908 -1.8863
 2567SOL    HW219164   2.230   3.717   0.440  2.1960  0.9662  0.6759
 2568SOL     OW19165   1.956   1.314   9.771 -0.5058 -0.1364 -0.0336
 2568SOL    HW119166   2.050   1.317   9.785 -0.5089 -1.1334  0.2501
 2568SOL    HW219167   1.937   1.247   9.837 -0.0792 -0.7880 -0.5752
 2569SOL     OW19168   3.032   0.743  12.532 -0.1076  0.1900 -0.5211
 2569SOL    HW119169   3.040   0.812  12.466  2.4405  2.4688  2.1458
 2569SOL    HW219170   2.950   0.706  12.499 -1.9756  1.9154  2.1449
 2570SOL     OW19171   0.055   3.995  11.799  0.2221  0.3458  0.1024
 2570SOL    HW119172   0.135   3.951  11.826 -1.1654 -2.8237 -1.0054
 2570SOL    HW219173   0.002   3.923  11.764  0.8172 -0.6677  1.3253
 2571SOL     OW19174   4.118   1.021   6.354 -0.0498  0.4913 -0.3309
 2571SOL    HW119175   4.107   1.105   6.310  1.1090  1.3209  0.9461
 2571SOL    HW219176   4.032   0.995   6.386  0.3730 -0.4116  0.1020
 2572SOL     OW19177   1.682   4.100  14.235 -0.5284  0.0401 -0.0623
 2572SOL    HW119178   1.745   4.081  14.165 -0.0582  0.9547  0.1074
 2572SOL    HW219179   1.651   4.013  14.257 -1.6768  0.3177 -0.5824
 2573SOL     OW19180   4.183   2.712  12.144 -0.2772 -0.1783  0.5385
 2573SOL    HW119181   4.236   2.658  12.203 -1.6251  0.7597  2.6184
 2573SOL    HW219182   4.094   2.699  12.176 -0.3398 -0.8380  0.0839
 2574SOL     OW19183   2.555   2.896   8.958 -0.5726  0.0989  0.2455
 2574SOL    HW119184   2.568   2.843   9.036 -3.0177 -2.3166 -0.9643
 2574SOL    HW219185   2.485   2.954   8.986  0.2176  0.5357  1.3160
 2575SOL     OW19186   2.555   1.191   1.846  0.1754 -0.5171  0.1452
 2575SOL    HW119187   2.616   1.263   1.863  2.3220 -1.8366 -1.9930
 2575SOL    HW219188   2.500   1.229   1.778  1.8354 -1.9672 -1.9707
 2576SOL     OW19189   3.982   0.811  11.769  0.7831 -0.6444  0.1196
 2576SOL    HW119190   3.902   0.806  11.717 -0.1699  1.9425  1.3345
 2576SOL    HW219191   3.995   0.717  11.784 -2.1783 -1.2339 -0.9601
 2577SOL     OW19192   3.612   2.200   0.271 -0.5116 -0.2464 -0.0026
 2577SOL    HW119193   3.547   2.215   0.202 -0.3554 -1.6071 -0.4440
 2577SOL    HW219194   3.663   2.128   0.236  1.5689  0.2779  1.9725
 2578SOL     OW19195   4.611   3.189   2.315 -0.3367 -0.4253  0.4426
 2578SOL    HW119196   4.612   3.099   2.283  2.5940  0.3272 -1.5488
 2578SOL    HW219197   4.696   3.216   2.282 -0.7231 -0.3618 -0.5265
 2579SOL     OW19198   0.479   0.770   2.330  0.1702  0.3170 -0.4032
 2579SOL    HW119199   0.508   0.790   2.241 -0.7960 -0.0024 -0.7861
 2579SOL    HW219200   0.408   0.713   2.301  0.6001 -0.6600  0.4939
 2580SOL     OW19201   0.772   2.893   6.566  0.5449  0.1203  0.2406
 2580SOL    HW119202   0.728   2.817   6.528 -1.0074  0.4355  1.4184
 2580SOL    HW219203   0.822   2.928   6.492 -1.4152  3.0352  0.2901
 2581SOL     OW19204   3.857   3.348   6.798 -0.1573  0.2936 -0.1289
 2581SOL    HW119205   3.940   3.395   6.806  0.8831 -1.6443  0.7149
 2581SOL    HW219206   3.882   3.267   6.844 -0.1184  0.8727  0.8668
 2582SOL     OW19207   4.670   4.226   6.757 -0.1438  0.1950  0.0879
 2582SOL    HW119208   4.625   4.244   6.674  0.3092 -0.8868 -0.3905
 2582SOL    HW219209   4.598   4.194   6.812 -0.2005  1.0592  0.5222
 2583SOL     OW19210   4.191   1.578  17.157  0.6018  0.2853 -0.0332
 2583SOL    HW119211   4.217   1.618  17.074  0.1391 -2.5597 -1.5382
 2583SOL    HW219212   4.179   1.487  17.129  0.2642  0.2752  0.1431
 2584SOL     OW19213   4.278   1.970  12.960  0.0987 -0.4509  0.4990
 2584SOL    HW119214   4.254   1.879  12.943 -0.0989 -0.2262 -0.4232
 2584SOL    HW219215   4.297   1.965  13.054  0.5077 -0.4329  0.4189
 2585SOL     OW19216   2.917   0.995   7.652  0.0485 -0.2660 -0.2209
 2585SOL    HW119217   2.975   0.996   7.728  0.3452  1.5366 -0.4791
 2585SOL    HW219218   2.965   0.951   7.581  0.7879  1.6030 -0.8821
 2586SOL     OW19219   0.493   4.267   3.138 -0.4686  0.2172 -0.5087
 2586SOL    HW119220   0.417   4.227   3.097 -0.8563 -1.4348  1.8089
 2586SOL    HW219221   0.562   4.241   3.076 -1.0813  0.4987 -1.2968
 2587SOL     OW19222   3.735   0.411   3.504 -0.0727  0.3697 -0.0312
 2587SOL    HW119223   3.643   0.417   3.480  0.0315 -1.1623 -0.8188
 2587SOL    HW219224   3.776   0.468   3.438 -0.1542  0.7638  0.2543
 2588SOL     OW19225   4.654   3.955   6.560  0.3707  0.1919  0.6329
 2588SOL    HW119226   0.007   3.969   6.505 -1.7961  1.4388 -2.0540
 2588SOL    HW219227   4.583   3.945   6.497  0.4438 -0.1144  0.6031
 2589SOL     OW19228   1.033   1.051   4.843 -0.1975 -0.2710  0.4086
 2589SOL    HW119229   1.024   0.956   4.831 -0.8801 -0.3332  1.4737
 2589SOL    HW219230   0.963   1.083   4.786 -0.3906 -0.6287  0.4425
 2590SOL     OW19231   0.981   4.595  14.614 -0.5038  0.6209  0.1375
 2590SOL    HW119232   1.072   4.623  14.612 -0.6513  1.0953  0.2029
 2590SOL    HW219233   0.955   4.626  14.701 -1.7482 -1.6831  0.5890
 2591SOL     OW19234   1.062   1.110   6.001 -0.0637 -0.0697 -0.1631
 2591SOL    HW119235   1.083   1.113   5.908 -0.5013  0.0703 -0.2560
 2591SOL    HW219236   1.139   1.065   6.037  0.9319  1.7866  0.0005
 2592SOL     OW19237   1.134   0.299  13.652 -0.2962  0.5214 -0.0768
 2592SOL    HW119238   1.152   0.213  13.614  1.6036  0.5517  0.7343
 2592SOL    HW219239   1.139   0.283  13.746 -1.7005 -1.9662 -0.4335
 2593SOL     OW19240   0.015   0.481  16.584  0.3475  0.7019  0.1633
 2593SOL    HW119241   4.706   0.397  16.551  0.0368  0.2752  1.5373
 2593SOL    HW219242   0.079   0.498  16.515  0.4213  0.6006  0.2080
 2594SOL     OW19243   4.535   4.663   2.560  0.1364  0.2259  0.1679
 2594SOL    HW119244   4.512   0.018   2.509 -0.2921 -0.3008 -0.4562
 2594SOL    HW219245   4.523   4.596   2.493  2.3281  0.2359 -0.2348
 2595SOL     OW19246   4.179   1.643   9.090  0.2258  0.5809  0.3251
 2595SOL    HW119247   4.159   1.724   9.137  0.0432  0.5071  0.3742
 2595SOL    HW219248   4.201   1.591   9.168  0.0678 -1.2052 -0.8219
 2596SOL     OW19249   1.669   3.393  14.805 -0.2233  0.3438  0.1813
 2596SOL    HW119250   1.700   3.470  14.853 -0.7696  1.6607 -1.5890
 2596SOL    HW219251   1.749   3.371  14.758 -0.4620 -1.6832  0.7323
 2597SOL     OW19252   3.544   3.230   0.843 -0.4833 -0.2039 -0.1657
 2597SOL    HW119253   3.567   3.320   0.823 -1.5665 -0.0103 -0.5341
 2597SOL    HW219254   3.453   3.240   0.817 -0.4812  0.6532  0.1447
 2598SOL     OW19255   4.578   2.110   4.479  0.1772 -0.1785 -0.3689
 2598SOL    HW119256   4.518   2.109   4.554  3.6744  0.1862  2.4312
 2598SOL    HW219257   4.613   2.024   4.500  0.6713  0.9965  3.6958
 2599SOL     OW19258   2.531   1.109   5.342  0.1138 -0.7579 -0.0730
 2599SOL    HW119259   2.608   1.144   5.387  0.8953 -1.4555 -0.8578
 2599SOL    HW219260   2.456   1.152   5.384  1.4488  0.2096  1.3276
 2600SOL     OW19261   0.109   0.131   7.660 -0.7167 -0.0098 -0.4855
 2600SOL    HW119262   0.125   0.133   7.754  1.1444 -0.0418 -0.8062
 2600SOL    HW219263   0.015   0.149   7.667 -0.5591  0.1541  1.1524
 2601SOL     OW19264   0.390   2.181  14.551  0.3372 -0.2502 -0.1201
 2601SOL    HW119265   0.401   2.140  14.637  1.3034 -2.3279 -1.2194
 2601SOL    HW219266   0.476   2.224  14.542  0.3779 -0.6491 -1.5554
 2602SOL     OW19267   1.653   0.038   0.933 -0.0620 -0.0429  0.6276
 2602SOL    HW119268   1.694   4.703   0.996  3.7242  1.2950 -0.5745
 2602SOL    HW219269   1.734   0.064   0.889 -0.8176  1.4410  0.1017
 2603SOL     OW19270   2.081   1.844   2.420  0.3997  0.1210 -0.2879
 2603SOL    HW119271   2.032   1.835   2.338 -0.6532 -1.9154  0.5727
 2603SOL    HW219272   2.172   1.834   2.392  0.9861 -0.0008  1.7081
 2604SOL     OW19273   3.363   3.457  12.447 -0.5777  0.4263  0.7004
 2604SOL    HW119274   3.299   3.404  12.400  0.4603  1.0382 -1.3826
 2604SOL    HW219275   3.434   3.394  12.456 -1.9043 -1.4058 -1.8422
 2605SOL     OW19276   4.619   1.655   2.683  0.2731 -1.1099  0.0439
 2605SOL    HW119277   4.671   1.677   2.606  0.2640  2.2891  1.0137
 2605SOL    HW219278   4.665   1.572   2.697  0.6410 -1.1931 -1.6418
 2606SOL     OW19279   1.853   2.107  12.856  0.1621  0.2966 -0.7327
 2606SOL    HW119280   1.794   2.176  12.887  2.1306  0.8416  1.8568
 2606SOL    HW219281   1.816   2.027  12.895 -1.0987  1.9378  1.4762
 2607SOL     OW19282   2.838   3.371   2.025 -0.6129 -0.1080 -0.6465
 2607SOL    HW119283   2.893   3.362   2.103  0.9145  0.0751 -1.7099
 2607SOL    HW219284   2.752   3.379   2.067 -0.1916 -2.1472  0.5848
 2608SOL     OW19285   1.724   1.020  16.484 -0.2195 -0.0245 -0.4524
 2608SOL    HW119286   1.796   0.962  16.510 -0.3169  0.8903  1.8520
 2608SOL    HW219287   1.676   1.031  16.567 -0.5700  0.0546 -0.6662
 2609SOL     OW19288   3.516   3.919   8.213 -0.4392  0.1438 -0.3403
 2609SOL    HW119289   3.452   3.990   8.222 -0.1684  0.4701 -0.9800
 2609SOL    HW219290   3.467   3.839   8.197  0.6325 -0.6343  0.2415
 2610SOL     OW19291   2.644   4.454  15.376 -0.0950 -0.0033  0.6272
 2610SOL    HW119292   2.728   4.433  15.417  0.8510  1.2301 -0.6952
 2610SOL    HW219293   2.626   4.543  15.405 -0.4046  0.4004 -0.8436
 2611SOL     OW19294   3.502   0.894   8.189  0.0250  0.0147 -0.2617
 2611SOL    HW119295   3.447   0.936   8.255 -0.1487 -0.4125 -0.1381
 2611SOL    HW219296   3.475   0.802   8.188 -2.6366  0.8060 -0.7251
 2612SOL     OW19297   4.373   2.242  14.890  0.7496  0.1707 -0.0075
 2612SOL    HW119298   4.420   2.319  14.857  1.4109 -0.6100 -0.8901
 2612SOL    HW219299   4.447   2.192  14.925  1.2885  2.0885  1.5919
 2613SOL     OW19300   2.125   0.148   0.973 -0.4462 -0.2264  0.7539
 2613SOL    HW119301   2.164   0.068   0.939 -2.0954 -1.7589  2.4501
 2613SOL    HW219302   2.201   0.197   1.006 -1.3984  1.9197 -0.2195
 2614SOL     OW19303   1.331   2.299   4.317  0.7714  0.6931 -0.1006
 2614SOL    HW119304   1.265   2.328   4.379 -0.3305  2.1628 -1.9650
 2614SOL    HW219305   1.396   2.367   4.301  0.2676  0.9336 -1.1382
 2615SOL     OW19306   1.106   3.143   7.459  0.1143  0.0088  0.0537
 2615SOL    HW119307   1.016   3.174   7.451 -0.2893 -0.9955  0.6677
 2615SOL    HW219308   1.135   3.154   7.550 -1.0252  0.3665  0.3660
 2616SOL     OW19309   2.497   1.488   5.573 -0.0338  0.1270 -0.3395
 2616SOL    HW119310   2.432   1.437   5.622 -1.9726  2.1563 -0.8145
 2616SOL    HW219311   2.438   1.562   5.563  1.0135  1.0994  0.6894
 2617SOL     OW19312   1.458   0.166  15.522 -0.8210 -0.2980  0.0279
 2617SOL    HW119313   1.530   0.135  15.576 -0.1049 -2.7124 -2.3424
 2617SOL    HW219314   1.502   0.238  15.475 -1.6912  0.6634  0.6714
 2618SOL     OW19315   4.289   2.766   7.176 -0.1789  0.1391  0.4789
 2618SOL    HW119316   4.225   2.813   7.230 -0.4759 -1.0633  1.1594
 2618SOL    HW219317   4.344   2.717   7.237 -1.0792 -2.1072 -0.5026
 2619SOL     OW19318   3.063   1.496   9.517  0.3439 -0.3644 -0.2211
 2619SOL    HW119319   2.997   1.472   9.452  0.8358 -3.4596  0.4308
 2619SOL    HW219320   3.140   1.442   9.504  1.5006  1.0863  0.7107
 2620SOL     OW19321   3.973   2.180   7.154 -1.3725  0.1792  0.0244
 2620SOL    HW119322   3.903   2.236   7.188  0.9404  2.3008  1.3491
 2620SOL    HW219323   4.052   2.213   7.197 -0.8448 -1.1307  0.0645
 2621SOL     OW19324   0.747   2.468   6.946  0.3997  0.2296 -0.2576
 2621SOL    HW119325   0.736   2.484   7.039 -2.6006 -0.5267 -0.4956
 2621SOL    HW219326   0.653   2.466   6.928  0.1108  1.7682  1.1179
 2622SOL     OW19327   0.527   0.319  14.209  0.0479  0.3188 -0.1303
 2622SOL    HW119328   0.559   0.229  14.214  0.9732  0.7329  1.3556
 2622SOL    HW219329   0.461   0.315  14.139  1.4489 -1.0388 -1.3813
 2623SOL     OW19330   1.446   3.071  10.376  1.0333 -0.0566  0.2530
 2623SOL    HW119331   1.455   3.156  10.420  0.1909 -0.4408  1.1597
 2623SOL    HW219332   1.432   3.008  10.447 -1.6142 -2.3970 -2.3778
 2624SOL     OW19333   0.472   0.618  14.694 -0.1707  0.0629  0.3976
 2624SOL    HW119334   0.468   0.535  14.741  0.4666  1.0774  2.2388
 2624SOL    HW219335   0.563   0.638  14.717 -0.7962  4.1618 -0.5545
 2625SOL     OW19336   3.803   0.239   7.358 -0.2083 -0.4659  0.1125
 2625SOL    HW119337   3.812   0.278   7.271 -1.5288 -3.0500 -1.1903
 2625SOL    HW219338   3.727   0.181   7.353 -0.7237 -0.0219  3.1065
 2626SOL     OW19339   3.874   2.092   8.411  0.4064  0.1604 -0.0926
 2626SOL    HW119340   3.873   2.182   8.443  0.0260 -0.2312  1.0017
 2626SOL    HW219341   3.956   2.085   8.362  0.4880  0.3150  0.0205
 2627SOL     OW19342   1.730   1.039   7.697 -0.1102 -0.3305 -0.1439
 2627SOL    HW119343   1.650   1.017   7.745 -1.4661  0.7788 -1.9030
 2627SOL    HW219344   1.720   1.133   7.687 -1.1709 -0.3935  0.3751
 2628SOL     OW19345   1.635   0.248   4.583 -0.2366 -0.0054 -0.4225
 2628SOL    HW119346   1.658   0.308   4.512  0.3253  0.3108  0.0320
 2628SOL    HW219347   1.707   0.185   4.586 -0.7573 -0.7397 -2.9055
 2629SOL     OW19348   3.429   1.773   2.608 -0.2108 -0.0706 -0.2699
 2629SOL    HW119349   3.489   1.702   2.587 -1.5404 -0.7821 -1.6933
 2629SOL    HW219350   3.461   1.842   2.548  0.2541  1.8038  2.1244
 2630SOL     OW19351   1.771   1.611  12.607  0.1208  0.6773 -0.2269
 2630SOL    HW119352   1.823   1.537  12.636  0.8568  0.3689 -2.3821
 2630SOL    HW219353   1.831   1.651  12.544 -1.3304  0.4019 -1.7953
 2631SOL     OW19354   2.364   0.703   1.442  0.2446 -0.5222 -0.0657
 2631SOL    HW119355   2.434   0.687   1.505 -1.0941  0.2611  1.6375
 2631SOL    HW219356   2.364   0.799   1.453  1.2062 -0.3568 -1.5086
 2632SOL     OW19357   0.879   3.130  10.032 -0.0869 -0.6615 -0.6046
 2632SOL    HW119358   0.889   3.049  10.082 -1.1671 -0.8716 -0.7302
 2632SOL    HW219359   0.969   3.129  10.000  0.0370 -0.0159 -0.2695
 2633SOL     OW19360   3.711   2.357   6.845  0.0195  0.2449 -0.5493
 2633SOL    HW119361   3.794   2.310   6.857 -1.6313 -2.7403 -0.8505
 2633SOL    HW219362   3.735   2.437   6.892  1.4230 -0.4573 -0.0703
 2634SOL     OW19363   2.261   4.442  12.377  0.2357  0.1953 -0.0242
 2634SOL    HW119364   2.184   4.497  12.363 -1.0225 -2.0121 -1.6093
 2634SOL    HW219365   2.228   4.364  12.420 -0.7398 -0.6120 -2.2703
 2635SOL     OW19366   1.174   3.887   2.398 -0.6041  0.1674 -0.0804
 2635SOL    HW119367   1.225   3.962   2.427 -0.3571 -0.8273  2.1055
 2635SOL    HW219368   1.143   3.920   2.314 -1.7907  0.6550  0.5412
 2636SOL     OW19369   3.914   2.142   6.642 -0.5839  0.3901  0.6410
 2636SOL    HW119370   3.947   2.189   6.719  1.3299 -1.0616  0.7346
 2636SOL    HW219371   3.861   2.077   6.689 -2.5113  1.3597 -0.2012
 2637SOL     OW19372   2.259   4.097   8.823 -0.1963 -0.1513  0.7479
 2637SOL    HW119373   2.351   4.121   8.819  0.2153 -1.8231  0.3157
 2637SOL    HW219374   2.243   4.099   8.918 -0.0916 -0.8443  0.7829
 2638SOL     OW19375   2.304   2.743  15.078  0.3836 -0.4896  0.5340
 2638SOL    HW119376   2.359   2.815  15.107 -1.7755  2.0573 -1.7168
 2638SOL    HW219377   2.367   2.678  15.048 -1.5399 -1.4262 -1.4845
 2639SOL     OW19378   1.800   3.013   6.605 -0.1947  0.4852  0.1963
 2639SOL    HW119379   1.894   3.027   6.618  0.1008  0.2787 -1.7497
 2639SOL    HW219380   1.785   2.951   6.677 -0.5480  0.5526  0.1802
 2640SOL     OW19381   3.271   0.375   8.435 -0.3603  0.3777 -0.2942
 2640SOL    HW119382   3.313   0.420   8.361 -0.8599  1.5420  0.1362
 2640SOL    HW219383   3.289   0.282   8.418 -0.3516  0.3691 -0.2382
 2641SOL     OW19384   4.581   2.706   2.834 -0.3937 -0.6629  0.0904
 2641SOL    HW119385   4.603   2.734   2.923 -0.0575  2.7722 -1.0530
 2641SOL    HW219386   4.594   2.611   2.834 -0.7635 -0.7159 -1.3903
 2642SOL     OW19387   4.320   0.956  13.162 -0.0851  1.0239 -0.4099
 2642SOL    HW119388   4.383   0.998  13.221  0.5268  3.3018 -2.6780
 2642SOL    HW219389   4.381   0.943  13.089 -0.1417 -0.2037 -0.2253
 2643SOL     OW19390   2.685   3.913  14.024 -0.3572 -0.1097  0.4212
 2643SOL    HW119391   2.615   3.928  14.088  0.1972  2.7003  0.3729
 2643SOL    HW219392   2.764   3.920  14.077  0.4687 -0.0292 -0.8302
 2644SOL     OW19393   0.190   1.702   5.406  0.0305 -0.0741 -0.2508
 2644SOL    HW119394   0.143   1.721   5.488  1.4667  1.8184  0.1374
 2644SOL    HW219395   0.124   1.723   5.341 -1.3205  2.2242  1.8730
 2645SOL     OW19396   0.541   0.639  14.174 -0.8105  0.4854  0.0797
 2645SOL    HW119397   0.501   0.592  14.102 -1.8319 -0.6556  1.3879
 2645SOL    HW219398   0.521   0.730  14.151  1.7736  0.7925 -0.9664
 2646SOL     OW19399   3.342   0.421   4.085 -0.1793  0.2348 -0.0665
 2646SOL    HW119400   3.303   0.455   4.005 -1.6112  1.8140  1.3297
 2646SOL    HW219401   3.338   0.327   4.065 -0.5396 -0.0330  1.2245
 2647SOL     OW19402   0.968   0.146   8.593 -0.1373 -0.6649 -0.6591
 2647SOL    HW119403   0.875   0.128   8.579  0.3167 -1.5494 -2.4807
 2647SOL    HW219404   0.997   0.061   8.562  0.9520 -0.7842  0.6976
 2648SOL     OW19405   3.297   3.113   7.830  0.4843  0.3603  0.9942
 2648SOL    HW119406   3.327   3.126   7.920 -1.3822 -0.2686  1.6985
 2648SOL    HW219407   3.255   3.029   7.847 -1.3993  0.9424 -0.7947
 2649SOL     OW19408   1.997   4.434  12.110 -0.4556  0.6677 -0.3391
 2649SOL    HW119409   2.087   4.416  12.082 -0.6643 -1.7639  0.4720
 2649SOL    HW219410   2.012   4.460  12.201 -1.2471 -0.3307  0.0772
 2650SOL     OW19411   1.980   3.891   3.898  0.1982  0.7676  0.4717
 2650SOL    HW119412   1.889   3.870   3.876  0.0125  1.5127  0.5400
 2650SOL    HW219413   1.970   3.981   3.930 -0.1579  1.7655 -2.4443
 2651SOL     OW19414   1.589   1.370   2.467 -0.5102  0.0686 -0.1588
 2651SOL    HW119415   1.578   1.464   2.479  0.9652  0.2259  0.0441
 2651SOL    HW219416   1.510   1.336   2.509 -1.3716  1.4140 -0.7257
 2652SOL     OW19417   1.081   1.614   3.436  0.4699 -0.4603  0.0461
 2652SOL    HW119418   1.050   1.616   3.346  0.7492  1.7780 -0.0109
 2652SOL    HW219419   1.090   1.709   3.448 -1.1714 -0.0625 -2.0112
 2653SOL     OW19420   2.439   1.935   6.475 -0.5096  0.2864  0.4889
 2653SOL    HW119421   2.433   1.840   6.469  2.3295  0.2574 -1.5694
 2653SOL    HW219422   2.531   1.945   6.452 -0.4949  1.1195  0.8992
 2654SOL     OW19423   0.061   2.583  13.895  0.2466  0.0450  0.7439
 2654SOL    HW119424   4.690   2.598  13.889  0.4332  1.5366  1.3664
 2654SOL    HW219425   0.068   2.560  13.988  4.1881  0.2911  0.5230
 2655SOL     OW19426   1.981   2.537  12.960  0.5928 -1.0437 -0.6307
 2655SOL    HW119427   1.946   2.517  12.874 -1.2154 -3.8905  0.7692
 2655SOL    HW219428   2.065   2.491  12.959  0.8089 -0.6904  1.0126
 2656SOL     OW19429   0.231   0.761  14.281  0.2945 -0.2165  0.0462
 2656SOL    HW119430   0.239   0.738  14.189  2.3886 -1.8785  0.6615
 2656SOL    HW219431   0.292   0.699  14.321  0.5607 -0.4322 -0.6898
 2657SOL     OW19432   0.166   3.071   4.497  0.1020 -0.4209 -0.0619
 2657SOL    HW119433   0.220   3.000   4.533 -1.8649 -3.0376 -2.3400
 2657SOL    HW219434   0.169   3.048   4.404 -0.5127 -1.4438  0.1678
 2658SOL     OW19435   0.402   1.170   9.325 -0.3124 -0.4580  0.2005
 2658SOL    HW119436   0.498   1.170   9.315 -0.3516 -0.3398 -0.1823
 2658SOL    HW219437   0.385   1.087   9.281 -0.7104  0.7455 -1.8921
 2659SOL     OW19438   3.301   3.900  11.470 -0.1971 -0.3560 -0.1500
 2659SOL    HW119439   3.313   3.819  11.519 -0.5151  0.1066  0.6886
 2659SOL    HW219440   3.392   3.917  11.443  0.3339  0.8119  2.3258
 2660SOL     OW19441   0.217   2.555   1.075  0.0849 -0.3286  0.3605
 2660SOL    HW119442   0.171   2.533   1.156 -0.0581  1.5821  0.8025
 2660SOL    HW219443   0.309   2.564   1.099 -0.7731  0.6577  3.1969
 2661SOL     OW19444   4.232   3.568  14.475 -0.1591  0.3034  0.7116
 2661SOL    HW119445   4.212   3.512  14.400  0.2030 -1.0037  1.6027
 2661SOL    HW219446   4.321   3.596  14.453 -0.2940 -1.5995 -2.2968
 2662SOL     OW19447   2.948   3.522  16.298 -0.5329 -0.0466  0.3973
 2662SOL    HW119448   2.938   3.442  16.350 -2.4164 -0.5556 -0.7360
 2662SOL    HW219449   2.858   3.553  16.300  0.4625  2.9966 -2.1212
 2663SOL     OW19450   4.070   0.637  11.321  0.4906 -0.1237 -0.1595
 2663SOL    HW119451   4.058   0.553  11.278  1.3211 -0.0863 -0.4663
 2663SOL    HW219452   4.136   0.683  11.268  1.6029 -0.0506  1.2823
 2664SOL     OW19453   2.830   3.951   3.021 -0.6295 -0.3507 -0.2380
 2664SOL    HW119454   2.743   3.976   2.990 -1.4102  1.3293  3.3582
 2664SOL    HW219455   2.816   3.860   3.048  2.0156 -1.1532 -1.5976
 2665SOL     OW19456   3.049   1.330   8.688 -0.8081 -0.0499  0.3879
 2665SOL    HW119457   3.145   1.326   8.686 -0.8976 -1.4498 -1.1923
 2665SOL    HW219458   3.036   1.312   8.595  0.8762 -5.0009  1.1199
 2666SOL     OW19459   1.885   3.418   6.313  0.9233 -0.4956  0.7859
 2666SOL    HW119460   1.794   3.441   6.330  0.4599  0.1498 -2.7329
 2666SOL    HW219461   1.935   3.488   6.355  0.5094 -0.1707  0.7312
 2667SOL     OW19462   0.685   2.062  13.089  0.0294  0.2722 -0.0956
 2667SOL    HW119463   0.726   1.997  13.031  2.0121 -0.7112  2.4218
 2667SOL    HW219464   0.724   2.146  13.066  1.5532 -0.3329  0.2875
 2668SOL     OW19465   1.051   1.960   8.323  0.5335 -0.0482 -0.4445
 2668SOL    HW119466   1.042   2.003   8.408  3.3451  2.3425 -1.3594
 2668SOL    HW219467   1.129   1.906   8.326  0.3759 -0.1687  1.1251
 2669SOL     OW19468   0.579   0.670   9.242  0.0870 -0.0031  0.3046
 2669SOL    HW119469   0.649   0.605   9.247 -0.2412 -0.2360  2.0985
 2669SOL    HW219470   0.602   0.733   9.310 -1.3571  1.5741 -0.6603
 2670SOL     OW19471   3.331   2.922   5.123 -0.1136 -0.0671 -0.0228
 2670SOL    HW119472   3.374   2.989   5.176 -0.8055 -0.9689  1.6735
 2670SOL    HW219473   3.239   2.935   5.145 -0.7883  0.6495 -3.3008
 2671SOL     OW19474   2.840   3.116  10.237  0.1793 -0.0004 -0.4096
 2671SOL    HW119475   2.918   3.160  10.202  0.9504 -0.9987  0.0216
 2671SOL    HW219476   2.796   3.195  10.266  0.6136  0.6948 -1.6178
 2672SOL     OW19477   1.796   1.385  12.800 -0.0100  0.3714 -0.2765
 2672SOL    HW119478   1.770   1.294  12.813  1.0034  0.1231  0.0357
 2672SOL    HW219479   1.745   1.422  12.872 -0.4149 -0.3593 -0.1942
 2673SOL     OW19480   0.235   3.919   3.310 -0.3391  0.2980  0.1906
 2673SOL    HW119481   0.271   3.830   3.311 -1.0864 -0.0022  0.5234
 2673SOL    HW219482   0.314   3.969   3.330  0.7108 -0.4214 -2.0573
 2674SOL     OW19483   1.258   1.544  13.950 -0.6982 -0.1982  0.0522
 2674SOL    HW119484   1.257   1.615  14.014 -1.3550 -1.1571  1.1101
 2674SOL    HW219485   1.266   1.580  13.861 -0.1112 -0.4989 -0.0149
 2675SOL     OW19486   1.207   2.659   2.606 -0.6531  0.4197  0.0966
 2675SOL    HW119487   1.148   2.651   2.531  0.2708  0.8618 -0.6805
 2675SOL    HW219488   1.257   2.736   2.579 -0.5649  0.3809  0.1482
 2676SOL     OW19489   2.028   2.081   7.554 -0.2832  0.4839 -0.0446
 2676SOL    HW119490   1.988   2.099   7.469  0.8919 -0.3267 -0.7795
 2676SOL    HW219491   2.078   1.999   7.546 -0.5602  0.3451 -0.3556
 2677SOL     OW19492   2.146   2.711   5.840 -0.1322  0.3662  0.5537
 2677SOL    HW119493   2.111   2.626   5.813  2.2019  0.2230 -1.9462
 2677SOL    HW219494   2.232   2.707   5.800 -0.0206  0.3070  0.7980
 2678SOL     OW19495   3.692   0.261  13.164 -0.1928 -0.4660 -0.4005
 2678SOL    HW119496   3.784   0.281  13.174 -0.2273 -0.5414  0.0386
 2678SOL    HW219497   3.655   0.339  13.205  1.0682 -0.1336  0.0864
 2679SOL     OW19498   1.932   1.093   4.759 -0.0067  0.5288  0.6709
 2679SOL    HW119499   1.960   1.183   4.743  0.7238  0.4956  1.7231
 2679SOL    HW219500   2.009   1.046   4.794 -0.7078  0.1494  1.7168
 2680SOL     OW19501   3.401   3.571  14.491 -0.0350  0.0682  0.0189
 2680SOL    HW119502   3.412   3.664  14.474 -1.6729  0.5004  1.3428
 2680SOL    HW219503   3.307   3.567  14.509 -0.1586  1.5275 -0.3134
 2681SOL     OW19504   3.765   3.707   5.789 -0.1620 -0.1851  0.5232
 2681SOL    HW119505   3.799   3.776   5.732 -0.1469  0.1944  0.9865
 2681SOL    HW219506   3.705   3.668   5.726 -2.2134  2.3249  0.9478
 2682SOL     OW19507   1.806   1.840   7.511 -0.1461  0.3714  0.2159
 2682SOL    HW119508   1.880   1.779   7.510  1.0887  1.9357 -1.8222
 2682SOL    HW219509   1.758   1.820   7.592  0.4499  0.0136  0.4818
 2683SOL     OW19510   2.407   1.407   0.437  0.3098 -0.1527 -0.2167
 2683SOL    HW119511   2.359   1.481   0.473  1.0041 -0.4110  1.2237
 2683SOL    HW219512   2.489   1.403   0.488  0.3136 -1.9707 -0.3669
 2684SOL     OW19513   1.006   4.122  12.756  0.4042 -0.1105  0.1059
 2684SOL    HW119514   1.095   4.104  12.726  0.6128  2.4237 -0.7776
 2684SOL    HW219515   1.026   4.196  12.813 -0.0955 -1.2766  1.7816
 2685SOL     OW19516   3.631   4.108   2.134  0.6698  0.0412 -0.4407
 2685SOL    HW119517   3.562   4.042   2.140  1.1248 -0.3322  0.6171
 2685SOL    HW219518   3.712   4.062   2.114  1.7733  1.3183  1.1238
 2686SOL     OW19519   2.738   0.059  10.193  0.4391  0.1525 -0.4378
 2686SOL    HW119520   2.799   0.091  10.127 -0.7202  1.0484 -1.0811
 2686SOL    HW219521   2.749   0.111  10.273  2.9270 -1.5549  0.3075
 2687SOL     OW19522   3.606   1.154   6.308 -0.8162  0.6286  0.1493
 2687SOL    HW119523   3.570   1.238   6.339 -0.4133  0.3668  1.3232
 2687SOL    HW219524   3.594   1.094   6.381  0.7967 -1.1750 -1.0657
 2688SOL     OW19525   0.918   4.332   3.108 -0.0306  0.6765  0.0288
 2688SOL    HW119526   0.917   4.401   3.175  0.8629 -0.8640  1.6179
 2688SOL    HW219527   0.879   4.372   3.030 -1.7115  1.4701  1.2659
 2689SOL     OW19528   3.593   0.432   8.756  0.0839  0.0631 -0.9377
 2689SOL    HW119529   3.627   0.351   8.718  1.6380  0.4938 -0.4449
 2689SOL    HW219530   3.578   0.401   8.845 -1.5335  2.2192 -0.4688
 2690SOL     OW19531   1.869   4.638   3.595  0.4763 -0.2897 -0.0177
 2690SOL    HW119532   1.801   4.658   3.659  1.0835  0.2437  0.4477
 2690SOL    HW219533   1.947   4.643   3.650 -0.2976 -2.6498  1.3228
 2691SOL     OW19534   0.025   2.072   3.928 -0.2041  0.2467 -0.4777
 2691SOL    HW119535   0.050   2.102   4.015  0.7269  1.5227 -1.1850
 2691SOL    HW219536   4.703   1.991   3.949 -0.8224  0.2694 -1.7319
 2692SOL     OW19537   3.189   0.013   8.106 -0.1268 -0.1523  0.3478
 2692SOL    HW119538   3.207   0.051   8.020 -1.4336 -2.4508 -0.9456
 2692SOL    HW219539   3.190   4.645   8.078  0.3571  0.4137 -1.5160
 2693SOL     OW19540   1.710   0.419  10.037  0.3092 -0.4070  0.3581
 2693SOL    HW119541   1.671   0.338  10.004 -2.6599  0.5453  1.4902
 2693SOL    HW219542   1.676   0.417  10.127 -1.6126  3.3441 -0.3176
 2694SOL     OW19543   0.881   3.910  16.829 -0.0454  0.6914 -0.0759
 2694SOL    HW119544   0.830   3.950  16.899 -0.7765 -1.1817  0.4620
 2694SOL    HW219545   0.966   3.948  16.849 -0.8630  1.3089  2.2037
 2695SOL     OW19546   1.726   2.424  16.059  0.4113 -0.4175  0.2116
 2695SOL    HW119547   1.634   2.445  16.077 -0.5254 -2.0599 -2.8095
 2695SOL    HW219548   1.715   2.335  16.028 -0.1958  0.6257 -2.5577
 2696SOL     OW19549   4.359   1.376   3.105 -0.2555 -0.3783  0.1708
 2696SOL    HW119550   4.290   1.331   3.154 -0.0873 -1.1625 -0.3093
 2696SOL    HW219551   4.309   1.428   3.042 -1.4225 -1.4665  0.2029
 2697SOL     OW19552   3.409   1.448  14.815  0.0678 -0.5909 -0.1733
 2697SOL    HW119553   3.490   1.405  14.787 -0.4643 -1.6136 -0.1457
 2697SOL    HW219554   3.382   1.495  14.736  0.9498 -0.6464 -0.5163
 2698SOL     OW19555   1.641   2.706   7.100  0.5667 -0.5870 -0.0407
 2698SOL    HW119556   1.642   2.785   7.154 -2.0680  0.1433 -1.0537
 2698SOL    HW219557   1.573   2.728   7.036  0.8775 -0.2576 -0.2581
 2699SOL     OW19558   2.788   0.823   8.226  0.4610 -0.2668 -0.6938
 2699SOL    HW119559   2.792   0.912   8.193 -0.0139  0.3721  0.9548
 2699SOL    HW219560   2.856   0.781   8.174  1.1910 -1.5837  1.3387
 2700SOL     OW19561   3.938   3.692   3.612  0.1562  0.8284  0.4370
 2700SOL    HW119562   3.959   3.661   3.525  1.5223  1.5916  0.4970
 2700SOL    HW219563   4.004   3.760   3.630 -0.9942  1.6235  1.7050
 2701SOL     OW19564   2.447   2.125   7.772  0.1415 -0.1730  0.1920
 2701SOL    HW119565   2.389   2.163   7.706 -0.3905 -3.5899 -1.2904
 2701SOL    HW219566   2.420   2.182   7.844  0.0762 -2.9209  2.3356
 2702SOL     OW19567   2.837   3.760   9.209 -0.1291 -0.6458 -0.3149
 2702SOL    HW119568   2.920   3.804   9.195  0.0768 -0.7359  0.6089
 2702SOL    HW219569   2.869   3.675   9.177 -1.8092 -0.6978 -1.8760
 2703SOL     OW19570   1.877   1.351   9.328 -0.0410  0.1579  0.2971
 2703SOL    HW119571   1.796   1.374   9.282  1.0856  2.1157 -0.6626
 2703SOL    HW219572   1.941   1.373   9.260 -0.5094 -0.9049 -0.4902
 2704SOL     OW19573   1.003   0.628   7.144  0.1091  0.1912 -0.1937
 2704SOL    HW119574   1.012   0.683   7.066 -1.2685  0.0186 -0.4637
 2704SOL    HW219575   1.005   0.697   7.210  0.2743 -1.6855  1.7466
 2705SOL     OW19576   0.316   0.908   7.919 -0.1657  0.6229 -0.3997
 2705SOL    HW119577   0.225   0.890   7.894  0.4060  0.1239 -2.1156
 2705SOL    HW219578   0.342   0.830   7.969 -0.0944  0.4559 -0.6983
 2706SOL     OW19579   2.661   1.679   2.496  0.7037  0.4350 -0.2962
 2706SOL    HW119580   2.746   1.638   2.516  1.4100  1.3055 -1.5333
 2706SOL    HW219581   2.666   1.673   2.401  1.3724 -0.3831 -0.2135
 2707SOL     OW19582   2.211   0.328  16.911  0.8130  0.2227  0.2523
 2707SOL    HW119583   2.136   0.325  16.852  1.5936  1.5089 -0.7919
 2707SOL    HW219584   2.278   0.362  16.852 -0.6632 -0.1908 -1.6547
 2708SOL     OW19585   2.116   0.065   2.865 -0.1598  0.9022 -0.5408
 2708SOL    HW119586   2.142   4.714   2.918  0.8745 -0.3168 -2.7315
 2708SOL    HW219587   2.083   0.128   2.929 -0.5449  0.4690 -0.3144
 2709SOL     OW19588   4.337   2.739  11.291 -0.6010 -0.6712  0.2129
 2709SOL    HW119589   4.396   2.781  11.354 -1.1637  1.9776 -1.0626
 2709SOL    HW219590   4.292   2.814  11.253  1.4137  0.5309  0.2039
 2710SOL     OW19591   1.593   4.095   6.376 -0.0221 -0.3376  0.1062
 2710SOL    HW119592   1.517   4.070   6.325  1.5253 -0.6341 -2.0366
 2710SOL    HW219593   1.580   4.031   6.446  2.6459 -2.3849 -1.2779
 2711SOL     OW19594   1.157   1.336   3.117  0.3189 -0.5389  0.0335
 2711SOL    HW119595   1.214   1.406   3.150  0.5889  0.6087 -2.9100
 2711SOL    HW219596   1.171   1.336   3.023  2.0511  0.8856  0.2828
 2712SOL     OW19597   4.158   3.788   8.736  0.1592  0.0242 -0.5054
 2712SOL    HW119598   4.101   3.858   8.704  0.5089 -0.2353 -1.7087
 2712SOL    HW219599   4.228   3.842   8.774  0.6325  0.0222 -1.3771
 2713SOL     OW19600   1.751   3.442   3.526  0.0988  0.4943  0.5010
 2713SOL    HW119601   1.815   3.420   3.458  0.8627  0.6649  1.1609
 2713SOL    HW219602   1.766   3.537   3.520  1.6840  0.1608 -1.0435
 2714SOL     OW19603   0.732   3.372   3.465 -0.2294 -0.5705  0.5062
 2714SOL    HW119604   0.709   3.382   3.557 -0.6217 -1.9635  0.5492
 2714SOL    HW219605   0.826   3.353   3.462 -0.5918 -2.0155 -1.3182
 2715SOL     OW19606   0.421   1.122   3.383  0.1148 -0.4229 -0.2358
 2715SOL    HW119607   0.384   1.186   3.322  1.2345  1.5405  1.1659
 2715SOL    HW219608   0.394   1.040   3.343  0.1449 -0.6617  0.2356
 2716SOL     OW19609   3.372   4.560  11.432 -0.2250 -0.4423 -0.1577
 2716SOL    HW119610   3.359   4.517  11.347  0.0687 -1.3376  0.2514
 2716SOL    HW219611   3.385   4.490  11.495 -1.1949 -1.6718 -1.2968
 2717SOL     OW19612   3.354   3.924   2.187 -0.0582  0.5086  0.4479
 2717SOL    HW119613   3.279   3.867   2.169 -0.7597  0.4335  3.5387
 2717SOL    HW219614   3.318   4.012   2.173 -0.7357  0.2077  0.3229
 2718SOL     OW19615   3.568   3.333  12.051  0.2644 -0.5776 -0.1700
 2718SOL    HW119616   3.593   3.307  12.140  1.4440  0.2437 -0.2514
 2718SOL    HW219617   3.563   3.429  12.058  0.8221 -0.5767  0.2490
 2719SOL     OW19618   3.362   3.739   3.492  0.1849  0.0833 -0.0856
 2719SOL    HW119619   3.358   3.755   3.398  1.5685 -0.4420 -0.2259
 2719SOL    HW219620   3.455   3.753   3.511  0.3049 -0.8580  0.0072
 2720SOL     OW19621   1.588   2.856   0.383  0.0552 -0.7233 -0.3551
 2720SOL    HW119622   1.496   2.843   0.360 -0.3692  3.4611 -0.9535
 2720SOL    HW219623   1.616   2.769   0.411  1.5990 -0.4012 -0.9018
 2721SOL     OW19624   3.360   3.681  17.032 -0.0979 -0.4298 -0.4123
 2721SOL    HW119625   3.316   3.761  17.062  0.6407  0.7160 -2.3747
 2721SOL    HW219626   3.404   3.714  16.953 -0.3116  2.5640  0.7200
 2722SOL     OW19627   3.456   3.760  10.096  0.6288 -0.1790  0.5074
 2722SOL    HW119628   3.416   3.747  10.182  0.4239 -1.4141  0.2148
 2722SOL    HW219629   3.398   3.823  10.054  0.5938 -0.8741 -0.4892
 2723SOL     OW19630   4.599   3.476   7.662  0.0532  0.1207  0.3803
 2723SOL    HW119631   4.671   3.438   7.612  0.0108  1.0926 -0.4078
 2723SOL    HW219632   4.638   3.490   7.748  0.0483  2.7228 -0.0374
 2724SOL     OW19633   1.953   3.964  11.764  0.2448  0.4450 -0.8163
 2724SOL    HW119634   2.027   3.907  11.743 -0.7427 -1.0908 -0.1425
 2724SOL    HW219635   1.960   4.020  11.687  2.7302 -1.6400 -2.0997
 2725SOL     OW19636   2.598   1.376  16.583  0.1728 -0.0350 -0.1006
 2725SOL    HW119637   2.503   1.387  16.585  0.2202  0.6933 -1.7350
 2725SOL    HW219638   2.632   1.419  16.505  1.0186 -0.6179 -0.0523
 2726SOL     OW19639   2.071   1.524   2.135  0.3566 -0.9306  0.2495
 2726SOL    HW119640   2.121   1.497   2.211 -1.0807  0.7434  1.8008
 2726SOL    HW219641   2.012   1.450   2.120 -1.0295 -0.3394  2.8504
 2727SOL     OW19642   1.792   2.724  10.418 -0.4047  0.0153 -0.2856
 2727SOL    HW119643   1.811   2.741  10.510 -0.3957  0.4123 -0.3589
 2727SOL    HW219644   1.843   2.643  10.411 -1.2943 -0.7059  1.8301
 2728SOL     OW19645   0.481   0.870   4.773 -0.1209 -0.2233 -0.3165
 2728SOL    HW119646   0.572   0.852   4.796  0.3624  1.4953 -0.8443
 2728SOL    HW219647   0.437   0.785   4.774 -1.1130  0.2706 -2.0209
 2729SOL     OW19648   0.936   3.201   2.935 -0.6452  0.0118  0.1391
 2729SOL    HW119649   1.008   3.251   2.896 -1.1587  1.8421  1.5342
 2729SOL    HW219650   0.980   3.154   3.006  1.4842 -0.3524 -1.4165
 2730SOL     OW19651   4.000   0.696   5.272 -0.0936  0.6013  0.3638
 2730SOL    HW119652   3.964   0.744   5.198 -0.4510 -0.5068 -0.1824
 2730SOL    HW219653   4.078   0.748   5.295 -0.6206  0.5682  2.2802
 2731SOL     OW19654   0.095   3.681  14.500 -0.0268 -0.0047  0.6796
 2731SOL    HW119655   0.149   3.756  14.524  1.5586 -0.3226 -1.7593
 2731SOL    HW219656   0.149   3.642  14.431  0.4362  1.3165  0.3097
 2732SOL     OW19657   4.458   3.581  17.246  0.1906 -0.2541 -0.0284
 2732SOL    HW119658   4.371   3.561  17.212 -0.2357  1.3205  0.1029
 2732SOL    HW219659   4.465   3.674  17.224 -1.4874 -0.5476 -1.8309
 2733SOL     OW19660   2.571   0.262   2.665  0.4432  0.2056 -0.1312
 2733SOL    HW119661   2.478   0.244   2.680  0.6192  0.2026  0.9587
 2733SOL    HW219662   2.609   0.284   2.750  2.0423 -2.1091 -0.2467
 2734SOL     OW19663   0.234   3.343   4.556  0.4792  0.8046  0.1606
 2734SOL    HW119664   0.187   3.363   4.475 -0.8786 -2.3065  0.1660
 2734SOL    HW219665   0.212   3.250   4.565  0.0635  0.7889 -1.0403
 2735SOL     OW19666   1.610   1.228   3.306 -0.2457 -0.2353  0.2996
 2735SOL    HW119667   1.627   1.311   3.261  1.3902  0.0983  1.5326
 2735SOL    HW219668   1.630   1.157   3.245  0.7273  1.8175 -1.7666
 2736SOL     OW19669   2.996   3.810   3.600 -0.2894  0.8461 -0.2767
 2736SOL    HW119670   3.068   3.855   3.645 -2.0276 -0.5196  3.8357
 2736SOL    HW219671   2.931   3.878   3.584 -0.9407  0.4323  0.5916
 2737SOL     OW19672   4.542   0.912   2.545 -0.6665 -0.7279 -0.2704
 2737SOL    HW119673   4.570   0.970   2.475 -0.4277  0.0840  0.5011
 2737SOL    HW219674   4.542   0.959   2.629 -0.5623 -1.4395  0.1340
 2738SOL     OW19675   2.608   2.945   6.233 -0.2243  0.2768  0.2426
 2738SOL    HW119676   2.562   2.903   6.161  1.1259 -1.0321  0.1364
 2738SOL    HW219677   2.686   2.890   6.229 -0.3442  0.2283 -1.4175
 2739SOL     OW19678   3.190   4.473  14.063  0.2761  0.4932 -0.4430
 2739SOL    HW119679   3.144   4.391  14.045 -0.8142  0.9826  0.1294
 2739SOL    HW219680   3.259   4.443  14.122 -2.1113  1.1986  2.6628
 2740SOL     OW19681   3.238   2.820   4.446  0.3749 -0.1855  0.5458
 2740SOL    HW119682   3.210   2.909   4.466  1.7548  0.8133 -2.0363
 2740SOL    HW219683   3.154   2.785   4.414  2.0376 -2.2369 -1.5301
 2741SOL     OW19684   2.447   0.228   2.374 -0.1429 -0.1742  0.0230
 2741SOL    HW119685   2.502   0.194   2.443  1.9854  1.6416 -0.7839
 2741SOL    HW219686   2.360   0.225   2.413  0.2976 -2.6793  0.7842
 2742SOL     OW19687   1.784   3.948   8.093 -0.3021 -0.1180  0.0389
 2742SOL    HW119688   1.853   3.979   8.151  0.0350 -0.1208 -0.3557
 2742SOL    HW219689   1.781   4.015   8.025 -1.0189 -0.1157  0.0749
 2743SOL     OW19690   1.436   3.098   6.686 -0.0170  0.2077  0.0024
 2743SOL    HW119691   1.419   3.118   6.778 -0.0630 -2.6125  0.5928
 2743SOL    HW219692   1.396   3.180   6.658  0.9608  0.0142 -2.0100
 2744SOL     OW19693   2.224   0.667   2.238  0.7281 -0.0849  0.7579
 2744SOL    HW119694   2.217   0.641   2.146  3.6377 -2.1415  1.1134
 2744SOL    HW219695   2.277   0.598   2.279 -1.8293 -2.3972  0.1826
 2745SOL     OW19696   2.903   0.187  14.957 -0.0376 -0.6070  0.2257
 2745SOL    HW119697   2.955   0.161  14.882 -0.9491 -0.9648 -0.2766
 2745SOL    HW219698   2.837   0.237  14.909 -0.0359 -1.3571 -0.5558
 2746SOL     OW19699   4.608   3.002   4.877 -0.3563 -0.2850  0.4309
 2746SOL    HW119700   4.646   3.083   4.909  0.8154 -1.2212  1.4431
 2746SOL    HW219701   4.656   2.938   4.929 -3.0760 -2.0186  0.8182
 2747SOL     OW19702   4.137   0.024  16.162 -0.2943 -0.3438 -0.1753
 2747SOL    HW119703   4.186   0.088  16.111 -2.0223 -0.1401 -1.5882
 2747SOL    HW219704   4.159   0.048  16.252 -0.4075 -0.7070 -0.0521
 2748SOL     OW19705   0.284   3.737   8.220  0.1263  0.7459  0.1709
 2748SOL    HW119706   0.254   3.826   8.200 -0.3162  0.4565 -0.4417
 2748SOL    HW219707   0.286   3.739   8.315 -0.1566  1.4978  0.1626
 2749SOL     OW19708   3.775   1.594   3.525  0.6463 -0.7005 -0.7289
 2749SOL    HW119709   3.837   1.620   3.457  0.5697 -1.5598 -1.1277
 2749SOL    HW219710   3.695   1.627   3.485  1.1573  1.2809 -0.1431
 2750SOL     OW19711   1.221   2.143   3.167  0.2304 -0.0612 -0.8100
 2750SOL    HW119712   1.190   2.107   3.250 -1.6490  0.9805 -1.0794
 2750SOL    HW219713   1.315   2.149   3.188  0.2263  2.6922 -1.5382
 2751SOL     OW19714   3.707   0.922   5.327 -0.5840 -0.3867  0.0014
 2751SOL    HW119715   3.657   0.964   5.257  1.2414  1.2658 -0.2753
 2751SOL    HW219716   3.629   0.883   5.367  0.2091 -1.0768  0.8871
 2752SOL     OW19717   2.552   1.137  10.068 -0.0732  0.2084 -0.8366
 2752SOL    HW119718   2.606   1.201  10.023  0.7497 -0.4640 -0.8051
 2752SOL    HW219719   2.487   1.185  10.120 -0.3606 -1.6595  0.5286
 2753SOL     OW19720   1.259   3.513   2.077 -0.0527  0.0506  0.8173
 2753SOL    HW119721   1.268   3.418   2.089  0.6620 -0.3281 -2.6184
 2753SOL    HW219722   1.265   3.542   2.168 -1.2195 -1.7901  1.4871
 2754SOL     OW19723   2.267   3.727   9.422 -0.5138  0.2574  0.1519
 2754SOL    HW119724   2.222   3.690   9.346 -0.5220  0.5106  0.0348
 2754SOL    HW219725   2.310   3.799   9.375 -0.0587 -0.0440  0.1015
 2755SOL     OW19726   3.916   1.752  14.746  0.2178  0.2441  0.1066
 2755SOL    HW119727   3.966   1.822  14.703 -0.7068  0.7961 -0.0739
 2755SOL    HW219728   3.875   1.816  14.804  1.5695  1.0816  0.1135
 2756SOL     OW19729   3.146   0.405   0.102 -0.4359 -0.1068  0.3085
 2756SOL    HW119730   3.090   0.416   0.025  0.9837 -0.5498 -0.7863
 2756SOL    HW219731   3.209   0.341   0.071  1.3502  1.9033 -0.2227
 2757SOL     OW19732   1.566   1.519   1.798 -0.0428 -0.4533 -0.0317
 2757SOL    HW119733   1.496   1.454   1.793  0.2901 -0.7290 -1.1536
 2757SOL    HW219734   1.577   1.514   1.892 -0.6590 -1.2822 -0.0076
 2758SOL     OW19735   3.459   1.756   0.779  0.6136 -0.2362  0.6458
 2758SOL    HW119736   3.439   1.774   0.687 -1.9467  1.7192  1.5698
 2758SOL    HW219737   3.492   1.843   0.799 -0.5418  0.0526  1.3111
 2759SOL     OW19738   3.223   3.491   5.725  0.5302 -0.0375 -0.4249
 2759SOL    HW119739   3.269   3.439   5.791 -0.3988 -0.6247 -0.2429
 2759SOL    HW219740   3.175   3.553   5.781 -0.8445 -1.4054 -0.1007
 2760SOL     OW19741   3.665   4.217   4.737 -0.3137 -0.0546  0.3316
 2760SOL    HW119742   3.723   4.190   4.665  1.2304 -1.1436  1.9899
 2760SOL    HW219743   3.634   4.300   4.700 -0.1166 -0.2638 -0.3174
 2761SOL     OW19744   2.794   1.164   6.444 -0.2032  0.4466  0.1313
 2761SOL    HW119745   2.850   1.188   6.518 -0.8769  0.5057  0.6232
 2761SOL    HW219746   2.840   1.202   6.369  2.7872 -1.9258  0.7981
 2762SOL     OW19747   2.806   3.744   1.452 -0.2778 -0.1508  0.2719
 2762SOL    HW119748   2.718   3.783   1.455 -0.6071 -0.8972  0.2456
 2762SOL    HW219749   2.787   3.652   1.435 -0.9696 -0.0828  0.6534
 2763SOL     OW19750   3.081   0.825   2.871 -0.3516  0.3971 -0.1416
 2763SOL    HW119751   3.056   0.896   2.811 -0.9105  1.5255  1.4304
 2763SOL    HW219752   3.126   0.758   2.820  0.5171  0.7231  0.1886
 2764SOL     OW19753   3.079   3.987   7.366 -0.3362  0.1054 -0.9395
 2764SOL    HW119754   2.994   3.988   7.409  0.5248  0.0356  0.7374
 2764SOL    HW219755   3.053   4.033   7.286 -0.2808 -1.1787 -1.6910
 2765SOL     OW19756   0.733   3.281  17.401  0.2367  0.2840 -0.6235
 2765SOL    HW119757   0.644   3.316  17.404 -0.4619 -1.6005  0.2509
 2765SOL    HW219758   0.716   3.190  17.425 -1.0379  0.5682 -0.4293
 2766SOL     OW19759   2.841   0.716   7.926  0.1586  0.1752  0.1922
 2766SOL    HW119760   2.774   0.784   7.921 -0.1011 -0.0447  0.6356
 2766SOL    HW219761   2.842   0.682   7.837  0.6881 -0.2682  0.3663
 2767SOL     OW19762   0.800   1.325   8.263  0.5176 -0.4540  0.0072
 2767SOL    HW119763   0.746   1.402   8.245  1.1810 -0.0337 -0.2021
 2767SOL    HW219764   0.890   1.357   8.252  0.4186  0.2395  1.2655
 2768SOL     OW19765   2.465   2.004  16.407 -0.0066  1.1658  0.2711
 2768SOL    HW119766   2.410   2.024  16.332 -0.0913  0.1678  0.0773
 2768SOL    HW219767   2.409   1.934  16.440 -1.2692  0.7827 -2.7703
 2769SOL     OW19768   1.380   3.752   5.051 -0.0823  0.3317  0.0601
 2769SOL    HW119769   1.318   3.782   5.118 -0.5990 -0.5350 -0.0201
 2769SOL    HW219770   1.386   3.831   4.998 -2.8539  1.7433  1.8571
 2770SOL     OW19771   2.624   4.605   1.032 -0.2772  0.5146  0.0233
 2770SOL    HW119772   2.688   4.630   1.099  1.0521 -1.4495 -0.5281
 2770SOL    HW219773   2.552   4.570   1.085 -0.3776  0.9788  0.1947
 2771SOL     OW19774   1.365   1.666  13.210  0.7188  0.5101 -0.0339
 2771SOL    HW119775   1.426   1.668  13.136 -0.6001  0.5971 -1.1227
 2771SOL    HW219776   1.289   1.616  13.181  2.4575 -1.9282 -0.4295
 2772SOL     OW19777   2.086   0.054   7.630  0.0093  0.3314  0.5921
 2772SOL    HW119778   2.174   0.016   7.631  0.6288  1.6793 -2.6630
 2772SOL    HW219779   2.047   0.033   7.545  2.0292 -1.5674  0.1374
 2773SOL     OW19780   3.315   3.380   5.040  0.1214 -1.2611 -0.1796
 2773SOL    HW119781   3.364   3.401   4.961 -1.2254  2.2421 -0.1041
 2773SOL    HW219782   3.344   3.441   5.108  1.3814  0.1621 -1.9796
 2774SOL     OW19783   2.167   1.781  15.964  0.0492  0.2275  0.1794
 2774SOL    HW119784   2.137   1.741  15.883 -1.2586 -0.6854  1.1089
 2774SOL    HW219785   2.207   1.706  16.009  0.9714  0.7662  0.2629
 2775SOL     OW19786   0.408   1.579   2.116 -0.1287  0.1331 -0.0809
 2775SOL    HW119787   0.443   1.589   2.028 -0.4395 -2.2534 -0.4908
 2775SOL    HW219788   0.401   1.483   2.123  2.1890  0.0610  1.1561
 2776SOL     OW19789   4.286   3.180   8.605 -0.3188 -0.0875  0.1734
 2776SOL    HW119790   4.201   3.144   8.633 -1.0113  1.6143  0.2429
 2776SOL    HW219791   4.346   3.132   8.662 -0.4246 -0.8577 -0.3532
 2777SOL     OW19792   4.550   0.234   3.437  0.5303  1.0662  0.7684
 2777SOL    HW119793   4.526   0.242   3.345  0.3264  1.5404  0.8639
 2777SOL    HW219794   4.488   0.295   3.475 -1.6926  0.7302 -2.3565
 2778SOL     OW19795   0.261   0.886   9.843  0.2563 -0.2662 -0.4414
 2778SOL    HW119796   0.234   0.806   9.889 -1.4047  1.4112  1.4882
 2778SOL    HW219797   0.345   0.850   9.813 -0.9926 -2.3177 -1.4783
 2779SOL     OW19798   1.764   0.221   3.521  0.5129 -1.0768 -0.0055
 2779SOL    HW119799   1.777   0.135   3.481  1.6126 -0.1826 -1.5536
 2779SOL    HW219800   1.832   0.279   3.485  0.4163 -0.9169  0.0701
 2780SOL     OW19801   0.348   0.880   3.257  0.5145  0.4492 -0.0769
 2780SOL    HW119802   0.262   0.898   3.220  1.2179 -2.0088 -2.9202
 2780SOL    HW219803   0.359   0.786   3.239  0.0454  0.5416 -0.8516
 2781SOL     OW19804   4.418   1.886   3.935  0.0944 -0.5118 -0.7925
 2781SOL    HW119805   4.391   1.806   3.891  1.3008 -0.7392 -1.1021
 2781SOL    HW219806   4.362   1.944   3.882 -2.5289  0.1918  2.7357
 2782SOL     OW19807   0.183   0.115   7.090 -0.3024 -0.7904 -0.3104
 2782SOL    HW119808   0.114   0.141   7.151  1.3414  0.1344  1.1671
 2782SOL    HW219809   0.257   0.161   7.129 -2.5816  1.5835  1.1882
 2783SOL     OW19810   2.378   3.364   5.631 -0.3308 -0.6374 -0.3059
 2783SOL    HW119811   2.291   3.358   5.669  0.3274 -2.0904  0.9790
 2783SOL    HW219812   2.362   3.371   5.537  1.4163  2.7936 -0.3554
 2784SOL     OW19813   1.429   3.616   2.582 -0.3907  0.2882 -0.5729
 2784SOL    HW119814   1.465   3.697   2.618 -1.9968  0.5104  0.5566
 2784SOL    HW219815   1.517   3.594   2.553 -0.7803  1.8147 -2.9262
 2785SOL     OW19816   0.666   0.424  14.003  0.2153  0.1003  0.6224
 2785SOL    HW119817   0.584   0.467  13.978  2.0292  1.7091 -2.4357
 2785SOL    HW219818   0.628   0.350  14.051 -0.4982 -0.1171 -0.2868
 2786SOL     OW19819   3.745   0.773   8.459 -0.2353  0.2905  0.5250
 2786SOL    HW119820   3.685   0.708   8.422  0.3317 -0.8541  1.6212
 2786SOL    HW219821   3.699   0.775   8.543 -2.2551  2.7827 -0.6539
 2787SOL     OW19822   2.534   2.806  11.646  0.0527  0.0732  0.4174
 2787SOL    HW119823   2.465   2.812  11.580 -0.2469  0.8091  0.7922
 2787SOL    HW219824   2.605   2.824  11.585  0.1504 -0.8602  0.2569
 2788SOL     OW19825   1.926   2.444   2.875 -0.5073 -0.3178 -0.1596
 2788SOL    HW119826   1.863   2.390   2.922  0.4476 -1.8772 -0.6889
 2788SOL    HW219827   1.924   2.527   2.923 -1.3954  0.4384 -1.4985
 2789SOL     OW19828   2.038   1.447   4.208  0.6824  0.1378  0.0746
 2789SOL    HW119829   2.129   1.443   4.235  0.5380  1.0910  0.6971
 2789SOL    HW219830   1.996   1.390   4.273 -0.5420  1.4182  0.4108
 2790SOL     OW19831   0.624   4.287   4.374 -0.3854  0.1243  0.1679
 2790SOL    HW119832   0.532   4.266   4.359 -0.6648 -0.5222  2.7801
 2790SOL    HW219833   0.656   4.203   4.406 -0.4885 -0.6434 -1.7440
 2791SOL     OW19834   1.415   0.502   3.950  0.3637 -0.3918  0.6676
 2791SOL    HW119835   1.394   0.412   3.926  0.1223  0.2735 -1.5959
 2791SOL    HW219836   1.327   0.535   3.970  0.7647  1.8382 -1.2396
 2792SOL     OW19837   3.386   4.297  17.109  0.4840  0.1721 -0.3299
 2792SOL    HW119838   3.413   4.216  17.067 -1.4751 -0.3623 -0.5719
 2792SOL    HW219839   3.338   4.269  17.187  0.1530  1.3641 -0.1017
 2793SOL     OW19840   3.627   1.392   1.660  0.1187 -0.2687  0.6169
 2793SOL    HW119841   3.635   1.325   1.591  1.2765 -1.4945  1.9437
 2793SOL    HW219842   3.709   1.439   1.650 -0.8003  1.0777 -0.6440
 2794SOL     OW19843   2.945   2.088   8.399 -0.0551  0.3878  0.1103
 2794SOL    HW119844   2.993   2.041   8.467  0.8987  0.3601 -0.5895
 2794SOL    HW219845   2.985   2.174   8.390  3.1427 -1.1658 -0.6663
 2795SOL     OW19846   2.203   2.551   4.660  0.2249 -0.5598 -0.2414
 2795SOL    HW119847   2.130   2.538   4.721 -1.5247  0.8861 -2.0032
 2795SOL    HW219848   2.169   2.623   4.608  1.3730  0.3793  0.3157
 2796SOL     OW19849   1.151   3.656   8.082 -0.0503  0.2632 -0.3289
 2796SOL    HW119850   1.195   3.724   8.132 -0.3339 -0.4927  0.9299
 2796SOL    HW219851   1.084   3.712   8.041 -1.0086  0.8730  2.0440
 2797SOL     OW19852   1.810   2.122  10.271  0.0157  0.3458 -0.1278
 2797SOL    HW119853   1.842   2.155  10.356 -2.3384 -1.6636  1.5068
 2797SOL    HW219854   1.769   2.039  10.294  0.6625 -0.0251 -0.3023
 2798SOL     OW19855   2.039   2.560   2.018 -0.5383 -0.1759  0.3757
 2798SOL    HW119856   2.008   2.637   1.971 -1.0051  1.3159  3.2063
 2798SOL    HW219857   2.126   2.591   2.043 -0.8025 -0.4626  1.6449
 2799SOL     OW19858   1.418   3.177   6.937 -0.1688  0.3861 -0.2800
 2799SOL    HW119859   1.369   3.098   6.961 -0.7294  1.2476  1.4521
 2799SOL    HW219860   1.377   3.240   6.997  1.1840  1.0609 -0.0665
 2800SOL     OW19861   0.216   3.839  12.869 -0.1692  0.3254  0.0715
 2800SOL    HW119862   0.302   3.808  12.842 -0.0809  0.0641  0.6443
 2800SOL    HW219863   0.241   3.911  12.927 -0.1104  0.8075 -0.5528
 2801SOL     OW19864   2.161   1.346   8.110  0.3618 -0.1861  0.1840
 2801SOL    HW119865   2.076   1.363   8.071  0.3704  0.2130  0.3367
 2801SOL    HW219866   2.135   1.280   8.174  1.2933  1.2060  1.9712
 2802SOL     OW19867   4.063   0.824  13.800 -0.4259 -0.7646  0.6327
 2802SOL    HW119868   4.068   0.883  13.725 -1.3376 -1.3771  0.0951
 2802SOL    HW219869   4.082   0.877  13.877  3.2051  2.2644 -2.3894
 2803SOL     OW19870   2.975   3.238   8.184 -0.1462  0.1148 -0.0305
 2803SOL    HW119871   2.924   3.217   8.263  0.2114 -0.7127 -0.0257
 2803SOL    HW219872   3.061   3.257   8.221  1.2721 -1.3973 -2.5925
 2804SOL     OW19873   4.451   2.384   0.569  0.1731  0.6440 -0.3919
 2804SOL    HW119874   4.486   2.413   0.484 -0.3128  1.2531 -0.3834
 2804SOL    HW219875   4.400   2.307   0.542 -2.5477  2.3031  0.0655
 2805SOL     OW19876   3.491   4.651   3.423 -0.1560  0.8100 -0.3954
 2805SOL    HW119877   3.482   4.641   3.328  1.1413  3.3523 -0.7619
 2805SOL    HW219878   3.526   4.566   3.452  1.1410  0.7627 -2.1247
 2806SOL     OW19879   2.250   2.678  17.593 -0.2275 -0.3448  0.9019
 2806SOL    HW119880   2.275   2.590  17.565 -0.0450  0.2505 -0.7847
 2806SOL    HW219881   2.331   2.705  17.636  0.8819 -0.7400 -0.9779
 2807SOL     OW19882   2.538   4.401  12.009 -0.2625 -0.1550 -0.1743
 2807SOL    HW119883   2.564   4.451  12.086 -2.0142 -0.5660  0.6958
 2807SOL    HW219884   2.609   4.339  11.991  1.8394  2.2406 -0.1744
 2808SOL     OW19885   0.792   1.090   6.633 -0.5099 -0.2412 -0.8222
 2808SOL    HW119886   0.699   1.079   6.651 -0.2732 -0.1842  0.4848
 2808SOL    HW219887   0.793   1.170   6.580  2.1497 -1.7633 -3.0706
 2809SOL     OW19888   1.600   3.454  15.655 -0.5358 -0.0275 -0.0161
 2809SOL    HW119889   1.581   3.517  15.585 -3.5789  0.1532  0.9437
 2809SOL    HW219890   1.690   3.426  15.640 -0.5912 -1.0002  1.4992
 2810SOL     OW19891   4.652   0.009   9.298  0.0717  0.2236 -0.0290
 2810SOL    HW119892   4.630   0.101   9.284 -3.6339 -1.0008 -2.2019
 2810SOL    HW219893   4.714   0.003   9.225 -0.2222 -1.1817 -0.1616
 2811SOL     OW19894   3.682   4.215   6.746 -0.1524 -0.0565 -0.2095
 2811SOL    HW119895   3.739   4.158   6.798  1.8976  1.9232 -0.2549
 2811SOL    HW219896   3.655   4.275   6.815 -1.4417  0.6037 -1.2911
 2812SOL     OW19897   4.169   3.018   1.732 -0.3347 -0.8784  0.3486
 2812SOL    HW119898   4.130   3.082   1.790  1.6871  0.2418  0.4786
 2812SOL    HW219899   4.115   3.030   1.654  0.7590 -2.8006 -0.7208
 2813SOL     OW19900   4.425   0.200   5.962 -0.2971  0.0291 -0.0291
 2813SOL    HW119901   4.500   0.191   6.021 -0.3628  0.6993  0.1520
 2813SOL    HW219902   4.359   0.242   6.018 -0.1349 -1.5543  1.3644
 2814SOL     OW19903   4.700   2.450   5.854 -0.0316 -0.0082 -0.3420
 2814SOL    HW119904   4.646   2.503   5.796 -1.5394 -0.8310  0.3058
 2814SOL    HW219905   4.650   2.474   5.932  1.1156 -0.2855  0.4851
 2815SOL     OW19906   3.589   2.164   5.688  0.3473 -0.2169 -0.2474
 2815SOL    HW119907   3.622   2.075   5.702 -0.4345 -0.8029 -2.0344
 2815SOL    HW219908   3.670   2.204   5.656 -0.0794  0.7486 -0.1290
 2816SOL     OW19909   2.350   1.367  12.208  0.1755  0.1468 -0.2860
 2816SOL    HW119910   2.420   1.423  12.177  0.8966 -1.3466 -1.3504
 2816SOL    HW219911   2.337   1.387  12.301  0.7519  0.4596 -0.2743
 2817SOL     OW19912   2.347   4.497   0.584  0.3464  0.1762 -0.5115
 2817SOL    HW119913   2.256   4.467   0.593  0.1101  1.0262 -0.0531
 2817SOL    HW219914   2.384   4.409   0.579 -0.3435 -0.2144  1.5358
 2818SOL     OW19915   2.622   0.040   6.116 -0.0918  0.2065 -0.1207
 2818SOL    HW119916   2.536   0.078   6.099  0.0462  0.3781 -0.4382
 2818SOL    HW219917   2.677   0.108   6.077 -0.1175  0.1950 -0.1763
 2819SOL     OW19918   4.200   2.456   1.532 -0.2112 -0.2201 -0.4635
 2819SOL    HW119919   4.191   2.525   1.598 -0.2667  1.9823 -2.7780
 2819SOL    HW219920   4.260   2.391   1.571  0.2205  0.9244  0.7987
 2820SOL     OW19921   2.287   0.828   7.073 -0.0234  0.2539 -0.0618
 2820SOL    HW119922   2.251   0.740   7.081 -0.8322  0.5653 -0.2679
 2820SOL    HW219923   2.258   0.866   7.156 -0.3031 -0.4917  0.1819
 2821SOL     OW19924   1.318   2.572  14.621  1.0350  0.5621  0.5905
 2821SOL    HW119925   1.367   2.490  14.616 -0.9318 -0.6792  1.5716
 2821SOL    HW219926   1.348   2.605  14.537  0.9432  1.2186  0.8125
 2822SOL     OW19927   2.230   0.966   1.104 -0.3351 -0.4882 -0.5541
 2822SOL    HW119928   2.295   0.897   1.092  1.5114  1.5337 -2.1456
 2822SOL    HW219929   2.168   0.917   1.157  1.2071 -0.6815  1.0726
 2823SOL     OW19930   1.642   3.541   4.738 -0.5787  0.1683 -0.1947
 2823SOL    HW119931   1.653   3.512   4.829 -3.5494  0.1723  0.1583
 2823SOL    HW219932   1.582   3.616   4.746 -0.6208 -0.1046  2.2769
 2824SOL     OW19933   1.819   4.206   4.582  0.1364 -0.5817  0.4048
 2824SOL    HW119934   1.807   4.125   4.533 -0.8501 -0.5620  0.6182
 2824SOL    HW219935   1.830   4.264   4.506  1.6818 -0.1718  0.9370
 2825SOL     OW19936   3.775   2.379  12.745  0.2125 -0.0510  0.0238
 2825SOL    HW119937   3.846   2.364  12.807  1.0778  1.3716 -0.6242
 2825SOL    HW219938   3.707   2.417  12.801 -0.9423  0.2412 -1.5638
 2826SOL     OW19939   3.505   4.671   0.165 -0.4779 -0.0015  0.1863
 2826SOL    HW119940   3.552   4.611   0.223 -1.6988 -1.4087 -0.2926
 2826SOL    HW219941   3.432   4.616   0.138  1.2204 -2.0156 -0.3153
 2827SOL     OW19942   4.336   3.301   7.323  0.0195 -0.7692 -0.2448
 2827SOL    HW119943   4.339   3.220   7.272 -0.3443  0.4682 -2.2363
 2827SOL    HW219944   4.334   3.362   7.250  0.0222  0.9131  1.1529
 2828SOL     OW19945   3.345   1.928   8.228  0.1404  0.1597 -0.3744
 2828SOL    HW119946   3.432   1.921   8.189  0.2180  0.7548 -0.3054
 2828SOL    HW219947   3.296   1.864   8.176 -1.8263  0.3429  1.2788
 2829SOL     OW19948   3.377   1.529   2.309 -0.0225  0.2738 -0.2953
 2829SOL    HW119949   3.455   1.481   2.281 -0.0115 -0.2356  0.6113
 2829SOL    HW219950   3.323   1.536   2.230  0.4323 -1.7503 -0.7851
 2830SOL     OW19951   4.405   1.913   9.007  0.0665 -0.2991  0.2756
 2830SOL    HW119952   4.411   1.991   9.061  0.2588 -1.8500  2.5096
 2830SOL    HW219953   4.461   1.844   9.043  0.1360 -0.4798 -0.1804
 2831SOL     OW19954   0.457   4.203   1.697 -0.1991  0.3044  0.1330
 2831SOL    HW119955   0.552   4.195   1.690 -0.3311 -0.4737 -0.7615
 2831SOL    HW219956   0.459   4.279   1.756  2.0827  0.1920  0.2026
 2832SOL     OW19957   2.973   2.411   4.153 -0.7830 -0.4513  0.1993
 2832SOL    HW119958   2.884   2.377   4.165 -0.4036 -1.4235  0.2903
 2832SOL    HW219959   2.983   2.403   4.058 -0.8799 -0.2813  0.1750
 2833SOL     OW19960   2.925   3.473  12.955 -0.4965 -0.4462 -0.5296
 2833SOL    HW119961   2.891   3.463  13.044 -1.1494  1.4236 -0.5849
 2833SOL    HW219962   3.018   3.461  12.976 -0.9019  1.1693  2.2425
 2834SOL     OW19963   1.809   4.372   5.670 -0.5414  0.3898 -0.2793
 2834SOL    HW119964   1.757   4.452   5.679  1.2015  1.3453  1.5350
 2834SOL    HW219965   1.773   4.302   5.725 -1.9090 -0.9074 -2.8414
 2835SOL     OW19966   1.172   4.167   6.999  0.0909  0.3768 -0.3527
 2835SOL    HW119967   1.110   4.172   6.926 -0.4320 -0.0375  0.0690
 2835SOL    HW219968   1.249   4.203   6.955  1.1912 -1.1439  0.3164
 2836SOL     OW19969   1.630   1.149  14.659  0.4053  0.3367 -0.3044
 2836SOL    HW119970   1.719   1.180  14.642  0.3877 -0.3981 -1.7411
 2836SOL    HW219971   1.623   1.179  14.750  1.5454  1.6238 -0.6510
 2837SOL     OW19972   3.967   1.277   9.205  0.1408 -0.2901  0.5022
 2837SOL    HW119973   3.893   1.330   9.234  1.0037  1.5295 -0.6393
 2837SOL    HW219974   3.927   1.191   9.192 -0.4387 -0.0545  0.7578
 2838SOL     OW19975   4.688   2.737   1.464 -0.1505 -0.3957  0.0898
 2838SOL    HW119976   4.635   2.683   1.523 -2.6034  0.3428 -1.4314
 2838SOL    HW219977   4.641   2.717   1.383 -1.3814  0.2872  0.6363
 2839SOL     OW19978   0.874   1.675  14.615 -0.3209  0.1351 -0.3198
 2839SOL    HW119979   0.785   1.662  14.583 -0.3041 -1.6095  0.3459
 2839SOL    HW219980   0.877   1.637  14.703 -0.9118 -0.4863 -0.5733
 2840SOL     OW19981   2.470   3.415   8.321  0.0057 -0.5758  0.9842
 2840SOL    HW119982   2.380   3.436   8.296  0.7050 -0.7822 -1.6986
 2840SOL    HW219983   2.484   3.472   8.396  1.9938 -4.0971  3.3434
 2841SOL     OW19984   1.438   1.768   5.805 -0.9168  0.4848  0.2716
 2841SOL    HW119985   1.365   1.802   5.858 -0.1301  1.8914  0.4459
 2841SOL    HW219986   1.429   1.673   5.813 -0.9047  0.5806  1.4071
 2842SOL     OW19987   1.099   1.969   1.318 -0.3035  0.4560  0.5643
 2842SOL    HW119988   1.047   1.965   1.399 -1.3702 -4.2379 -0.3070
 2842SOL    HW219989   1.066   1.898   1.262  1.4434 -0.6582  0.9539
 2843SOL     OW19990   1.866   3.245   3.097 -0.4055  0.3117 -0.3149
 2843SOL    HW119991   1.833   3.335   3.102  0.1427  0.5402 -0.8767
 2843SOL    HW219992   1.961   3.255   3.095 -0.1839 -1.7763 -0.7290
 2844SOL     OW19993   1.114   2.603  11.461  0.1710 -0.0155 -0.3993
 2844SOL    HW119994   1.188   2.548  11.484 -1.4019 -1.2327  1.7326
 2844SOL    HW219995   1.037   2.569  11.507  0.5966  0.0515  0.3601
 2845SOL     OW19996   1.142   3.765  17.611 -0.3748  0.4706  0.5857
 2845SOL    HW119997   1.047   3.750  17.603 -0.2933  1.9339 -3.3265
 2845SOL    HW219998   1.175   3.811  17.534  0.2635 -1.4533 -0.2705
 2846SOL     OW19999   3.805   3.633  13.403  0.1195  0.1558 -0.1232
 2846SOL    HW120000   3.848   3.716  13.382  2.9015 -1.4362 -0.6283
 2846SOL    HW220001   3.875   3.568  13.403  0.4260  0.5010 -1.6790
 2847SOL     OW20002   2.325   3.685   5.585  0.0187  0.0994 -0.0910
 2847SOL    HW120003   2.249   3.655   5.536 -0.2123 -1.4486  1.2085
 2847SOL    HW220004   2.380   3.606   5.582 -2.1540 -1.3922 -0.9845
 2848SOL     OW20005   3.076   0.349   9.990  0.1791 -0.1490  0.0408
 2848SOL    HW120006   3.153   0.293  10.005  1.7477  1.6468 -1.3174
 2848SOL    HW220007   3.077   0.394  10.075  0.5672  1.1003 -0.6222
 2849SOL     OW20008   1.437   3.658   1.128  0.2838 -0.1696 -0.1225
 2849SOL    HW120009   1.451   3.731   1.188  0.3029 -0.7198  0.5380
 2849SOL    HW220010   1.400   3.594   1.188  0.2303  0.7932  0.8695
 2850SOL     OW20011   1.152   3.878   7.129  0.0364 -0.0964 -0.0425
 2850SOL    HW120012   1.154   3.972   7.111 -1.5514 -0.3067 -1.3223
 2850SOL    HW220013   1.062   3.867   7.159  0.1652  0.3989  0.5414
 2851SOL     OW20014   1.022   4.105  15.555  0.1401  0.2465  0.1815
 2851SOL    HW120015   0.937   4.125  15.594 -0.0950 -2.1560  0.8840
 2851SOL    HW220016   1.001   4.089  15.463  1.6474 -0.1470 -0.0974
 2852SOL     OW20017   4.384   0.120   8.397  0.0814 -0.6983  0.2084
 2852SOL    HW120018   4.378   0.167   8.480  1.9130 -1.1080  0.5659
 2852SOL    HW220019   4.477   0.112   8.376 -0.0361  0.6870 -0.8159
 2853SOL     OW20020   4.489   2.333   4.092  0.1084 -0.0466  0.3911
 2853SOL    HW120021   4.518   2.421   4.112  0.9369 -0.2306  0.0006
 2853SOL    HW220022   4.415   2.357   4.036 -0.0196 -1.2107  0.0605
 2854SOL     OW20023   1.713   0.416  11.199 -0.3178  0.0361 -0.2809
 2854SOL    HW120024   1.807   0.429  11.187 -0.6462  2.4088 -0.2272
 2854SOL    HW220025   1.686   0.507  11.205  0.8143  0.4169 -0.9662
 2855SOL     OW20026   3.982   0.181   8.490 -0.0098 -0.0993 -0.0532
 2855SOL    HW120027   3.985   0.198   8.396 -0.7505  1.0339  0.1421
 2855SOL    HW220028   4.061   0.131   8.514 -1.6395 -1.9972  1.3607
 2856SOL     OW20029   1.967   0.344  16.823  0.3993  0.2928 -0.0004
 2856SOL    HW120030   1.949   0.355  16.729  0.4695 -0.5923 -0.1181
 2856SOL    HW220031   1.963   0.434  16.855  1.5030  0.3322  0.0344
 2857SOL     OW20032   1.920   1.282   5.165 -0.0752 -0.6079  0.2307
 2857SOL    HW120033   1.895   1.338   5.239  2.8785  0.2207  0.6032
 2857SOL    HW220034   2.006   1.321   5.152  0.2802 -1.9882 -1.6325
 2858SOL     OW20035   2.700   2.866   5.302 -0.2371  0.3059  0.3897
 2858SOL    HW120036   2.670   2.819   5.380 -0.0100  1.0866  0.9495
 2858SOL    HW220037   2.790   2.836   5.290 -0.1373 -0.3898  2.9484
 2859SOL     OW20038   3.851   1.604   6.229 -0.2777 -0.1456  0.1264
 2859SOL    HW120039   3.867   1.510   6.226  0.0792 -0.0835  0.1280
 2859SOL    HW220040   3.873   1.621   6.321 -1.3315 -1.8820  0.6991
 2860SOL     OW20041   1.703   4.372   1.956 -0.1405  0.5932  0.2664
 2860SOL    HW120042   1.720   4.281   1.980  2.1780  1.0107  0.1801
 2860SOL    HW220043   1.729   4.380   1.864  0.3750  0.6084  0.4172
 2861SOL     OW20044   1.433   3.732  11.668  0.1931 -0.6630 -0.7311
 2861SOL    HW120045   1.346   3.732  11.707 -0.3494  0.5568 -1.9227
 2861SOL    HW220046   1.429   3.802  11.602 -1.3070 -0.5505 -0.5309
 2862SOL     OW20047   4.112   3.536   4.452  0.7051  0.1266 -0.2591
 2862SOL    HW120048   4.198   3.576   4.441  0.7600 -0.2319 -1.1645
 2862SOL    HW220049   4.066   3.586   4.384 -2.0687 -1.9219  0.0719
 2863SOL     OW20050   1.181   1.669   1.832  0.1983 -0.0070 -0.2321
 2863SOL    HW120051   1.222   1.583   1.836 -0.4455 -0.3087 -0.1105
 2863SOL    HW220052   1.142   1.663   1.919  0.8426  1.5544  0.1600
 2864SOL     OW20053   2.574   1.125   1.260  0.3461 -0.3905 -0.1524
 2864SOL    HW120054   2.567   1.074   1.180 -1.8081 -0.1164 -0.1476
 2864SOL    HW220055   2.647   1.079   1.300  0.1878 -0.2979  0.2421
 2865SOL     OW20056   0.577   0.564   7.440 -0.3237  0.0696  0.4322
 2865SOL    HW120057   0.664   0.602   7.450 -0.2275  0.2681 -1.2016
 2865SOL    HW220058   0.557   0.599   7.353 -2.1539  0.2262  0.9260
 2866SOL     OW20059   1.680   1.023   3.148  0.3249  0.2147 -0.0553
 2866SOL    HW120060   1.767   1.027   3.108  1.2068  3.2636  2.1799
 2866SOL    HW220061   1.624   1.031   3.071 -0.7607  1.3300  0.8422
 2867SOL     OW20062   0.875   2.704   7.956 -0.0371 -0.4948  0.4614
 2867SOL    HW120063   0.906   2.656   8.033 -1.3154 -0.2819  1.1077
 2867SOL    HW220064   0.904   2.789   7.990  0.1016 -0.8022  1.0965
 2868SOL     OW20065   1.656   2.073   7.720  0.2411 -0.7200 -0.2940
 2868SOL    HW120066   1.645   2.157   7.764  0.5494 -1.0370  0.3860
 2868SOL    HW220067   1.690   2.029   7.798  1.9702  0.3033 -0.4826
 2869SOL     OW20068   1.545   0.276  13.436 -0.7568 -0.2183  0.5144
 2869SOL    HW120069   1.520   0.204  13.495  1.1794 -1.2232  0.1059
 2869SOL    HW220070   1.464   0.323  13.454  0.5337  1.7321  1.2246
 2870SOL     OW20071   2.792   2.395   5.747  0.3873  0.0413 -0.5410
 2870SOL    HW120072   2.821   2.343   5.822 -1.4278  2.7423  2.0315
 2870SOL    HW220073   2.710   2.349   5.727  0.4266 -1.1999  2.1196
 2871SOL     OW20074   2.364   2.881  11.445  0.2539 -0.3549 -0.6953
 2871SOL    HW120075   2.287   2.834  11.414  1.0688 -1.6160 -0.8431
 2871SOL    HW220076   2.406   2.919  11.368 -0.7802  1.2989 -0.4442
 2872SOL     OW20077   2.294   1.889   1.771  0.5068 -0.1964 -0.1606
 2872SOL    HW120078   2.221   1.930   1.817  0.2712 -1.1198  0.2893
 2872SOL    HW220079   2.366   1.949   1.790  1.3270 -1.3851  0.4977
 2873SOL     OW20080   4.552   3.309   1.849 -0.1743  0.2194 -0.7412
 2873SOL    HW120081   4.458   3.325   1.839 -0.2138 -0.1342 -0.9207
 2873SOL    HW220082   4.560   3.218   1.822 -1.7583 -0.2317  0.2968
 2874SOL     OW20083   2.627   4.381   6.769 -0.8161 -0.2610 -0.3108
 2874SOL    HW120084   2.652   4.424   6.850 -1.0583 -0.5713 -0.0718
 2874SOL    HW220085   2.532   4.393   6.767 -0.7706  0.3295  0.9416
 2875SOL     OW20086   1.382   3.409   6.428 -0.1685 -0.1611 -0.6110
 2875SOL    HW120087   1.322   3.353   6.478 -1.3873  1.6395 -0.0367
 2875SOL    HW220088   1.336   3.407   6.344 -0.0700 -0.6794 -0.6474
 2876SOL     OW20089   2.888   1.251   3.800  0.1658  0.3919 -0.2206
 2876SOL    HW120090   2.937   1.252   3.882 -0.4011 -0.0077  0.1227
 2876SOL    HW220091   2.893   1.345   3.782  0.7881  0.4366  0.2162
 2877SOL     OW20092   4.206   0.956  15.731 -0.8892  0.3012  0.1984
 2877SOL    HW120093   4.254   0.903  15.667  1.2463 -0.5364  2.4701
 2877SOL    HW220094   4.165   1.016  15.668  0.3139  1.2318  0.3043
 2878SOL     OW20095   3.115   3.865  14.390 -0.2248 -0.1874 -0.0480
 2878SOL    HW120096   3.096   3.808  14.316 -1.1392 -0.7211  0.5932
 2878SOL    HW220097   3.143   3.798  14.453  1.0330 -2.1451 -2.6719
 2879SOL     OW20098   2.669   1.292   6.096 -0.2642 -0.3722  0.4443
 2879SOL    HW120099   2.651   1.386   6.098  1.8829  0.0415  0.0885
 2879SOL    HW220100   2.596   1.262   6.042 -0.2449 -0.6622  0.5728
 2880SOL     OW20101   4.137   4.424  13.740 -0.0964 -0.0112 -0.6813
 2880SOL    HW120102   4.047   4.458  13.739  0.9030  2.7229  0.4585
 2880SOL    HW220103   4.146   4.391  13.829 -2.3812 -1.4880 -0.9863
 2881SOL     OW20104   4.121   1.763   8.855 -0.0711  0.0910  0.5212
 2881SOL    HW120105   4.132   1.705   8.930  0.4190 -0.6120 -0.0937
 2881SOL    HW220106   4.146   1.848   8.892 -0.5354  0.6062 -0.3370
 2882SOL     OW20107   3.918   3.659  16.061 -0.0544  0.5542 -0.1960
 2882SOL    HW120108   3.832   3.618  16.073  1.2412 -2.3572 -0.7347
 2882SOL    HW220109   3.964   3.608  15.994  1.0397  0.2688  0.7648
 2883SOL     OW20110   3.369   1.895   8.897  0.4532  1.0796  0.1014
 2883SOL    HW120111   3.342   1.803   8.900 -0.7672  1.5232  2.8418
 2883SOL    HW220112   3.350   1.920   8.988 -0.1233 -0.6603  0.4684
 2884SOL     OW20113   1.290   2.189  16.815  0.1996 -0.7662  0.3842
 2884SOL    HW120114   1.257   2.203  16.904  0.1133  1.8674 -0.0564
 2884SOL    HW220115   1.310   2.096  16.811  1.7668 -0.5611  3.7045
 2885SOL     OW20116   0.593   0.377   8.138 -0.1834 -0.2863  0.3740
 2885SOL    HW120117   0.624   0.364   8.228  2.7906 -1.5505 -0.8313
 2885SOL    HW220118   0.644   0.312   8.090  1.0161  0.3843  0.7225
 2886SOL     OW20119   4.685   4.012  11.345 -0.4900 -0.4061  0.4177
 2886SOL    HW120120   4.692   4.070  11.269  1.1821  0.3988  1.1828
 2886SOL    HW220121   0.010   4.059  11.413  1.2131 -2.6472  0.7382
 2887SOL     OW20122   1.498   4.104   8.449 -0.8228  0.2787  0.3920
 2887SOL    HW120123   1.520   4.189   8.411 -0.8242  0.7855  1.5291
 2887SOL    HW220124   1.466   4.136   8.533  0.4116 -0.3329  1.0922
 2888SOL     OW20125   3.809   2.825   2.555  0.0434 -0.6136  0.1701
 2888SOL    HW120126   3.760   2.747   2.581 -1.7472  0.5866  0.3950
 2888SOL    HW220127   3.871   2.798   2.487  0.0630 -1.9699  0.7410
 2889SOL     OW20128   2.218   3.773   4.992  0.0252 -0.3578 -0.1988
 2889SOL    HW120129   2.250   3.814   4.912 -0.7648 -0.7517 -0.7150
 2889SOL    HW220130   2.182   3.691   4.959 -0.2934 -0.5864  0.7192
 2890SOL     OW20131   0.876   2.871   7.180  0.3174  0.1229  0.2616
 2890SOL    HW120132   0.958   2.920   7.182  1.0528 -1.1081  0.0279
 2890SOL    HW220133   0.903   2.786   7.213 -0.7553 -0.1629  0.4065
 2891SOL     OW20134   1.299   1.661   7.510  0.1602 -0.4220 -0.0195
 2891SOL    HW120135   1.229   1.623   7.456  1.3230  0.0779 -1.8964
 2891SOL    HW220136   1.343   1.716   7.444  0.3258  0.1027  0.5284
 2892SOL     OW20137   3.095   2.226   7.260  0.6073  0.3853  0.2653
 2892SOL    HW120138   3.167   2.235   7.198 -0.8761  0.5844 -1.4163
 2892SOL    HW220139   3.107   2.312   7.300 -3.1723 -0.0654  2.3790
 2893SOL     OW20140   2.523   2.968   4.200 -0.0596  0.0693 -0.0152
 2893SOL    HW120141   2.477   3.005   4.125 -1.0598  0.5184  0.8110
 2893SOL    HW220142   2.454   2.929   4.254  1.2071 -0.4779  1.2257
 2894SOL     OW20143   2.371   3.017   4.551  0.2767 -0.0466  0.0409
 2894SOL    HW120144   2.456   3.001   4.592  0.0963 -0.7665  0.1295
 2894SOL    HW220145   2.371   3.112   4.564  2.9153 -0.2959  1.8584
 2895SOL     OW20146   3.763   2.985  13.295  0.6278  0.4080 -0.1075
 2895SOL    HW120147   3.821   3.035  13.352  1.0317 -0.7668  0.5107
 2895SOL    HW220148   3.806   3.001  13.211  3.3020 -1.3960  0.9072
 2896SOL     OW20149   3.193   1.811   6.346 -0.1033  0.2170 -0.5762
 2896SOL    HW120150   3.140   1.775   6.274 -0.0936  0.4491 -0.6992
 2896SOL    HW220151   3.262   1.839   6.285  0.9175 -0.5335  0.2241
 2897SOL     OW20152   0.775   2.003   4.210  0.3175  0.6495 -0.1224
 2897SOL    HW120153   0.809   1.916   4.233 -0.3745  0.3373 -0.2930
 2897SOL    HW220154   0.767   1.994   4.115 -0.8122  1.6038 -0.1175
 2898SOL     OW20155   4.272   3.629   2.521 -0.1514  0.6804  0.6239
 2898SOL    HW120156   4.281   3.712   2.474 -0.3742 -0.5470 -1.5946
 2898SOL    HW220157   4.196   3.596   2.473  0.5959  0.4522 -0.4074
 2899SOL     OW20158   1.697   3.575   7.083 -0.0713  0.3737 -0.2308
 2899SOL    HW120159   1.738   3.641   7.027 -0.4768 -0.1593 -1.1542
 2899SOL    HW220160   1.776   3.532   7.113  1.9472  3.8214 -0.6059
 2900SOL     OW20161   2.285   1.209   2.740 -0.1050 -0.4034 -0.8056
 2900SOL    HW120162   2.363   1.166   2.705  0.8684  0.4285  0.3708
 2900SOL    HW220163   2.223   1.166   2.681 -0.3970  0.4322 -1.1143
 2901SOL     OW20164   4.219   1.224   8.811  0.6111  0.5377 -0.1146
 2901SOL    HW120165   4.301   1.223   8.861  1.8563 -1.5463 -2.1999
 2901SOL    HW220166   4.169   1.277   8.873  1.7050 -0.4911  1.6250
 2902SOL     OW20167   2.557   3.144   2.297 -0.3838 -0.2311 -0.7513
 2902SOL    HW120168   2.561   3.077   2.365 -2.2647  2.4462  1.9743
 2902SOL    HW220169   2.575   3.094   2.217 -1.1176  0.3608 -1.2864
 2903SOL     OW20170   1.284   0.932   1.063  0.1909 -0.2607 -0.1703
 2903SOL    HW120171   1.274   0.838   1.083 -0.3449  0.3030  2.2878
 2903SOL    HW220172   1.297   0.924   0.969 -1.9864  2.2374 -0.6834
 2904SOL     OW20173   1.800   0.911  10.836  0.1640 -0.2135 -0.4378
 2904SOL    HW120174   1.885   0.893  10.797 -0.3326 -0.5682 -1.3568
 2904SOL    HW220175   1.820   0.914  10.929  1.7550  1.3137 -0.8353
 2905SOL     OW20176   3.062   2.205   8.103 -0.3363 -0.6009 -0.1961
 2905SOL    HW120177   3.106   2.268   8.046 -2.3350  1.5171  0.6436
 2905SOL    HW220178   3.054   2.240   8.191 -0.5697 -1.9126  0.3014
 2906SOL     OW20179   3.473   1.299   4.513  0.0000 -0.5985  0.0784
 2906SOL    HW120180   3.378   1.296   4.524  0.1466  1.1078  1.8999
 2906SOL    HW220181   3.497   1.360   4.583  3.2297 -3.6379  1.5871
 2907SOL     OW20182   1.292   2.671   8.086  0.1578  0.3306  0.0535
 2907SOL    HW120183   1.225   2.691   8.152  0.7758 -0.4042  0.8984
 2907SOL    HW220184   1.364   2.664   8.149  0.5449  1.2510 -0.2785
 2908SOL     OW20185   1.927   0.849   6.796 -0.5007 -0.1162  0.2988
 2908SOL    HW120186   1.907   0.861   6.889 -0.8543 -0.5675  0.2772
 2908SOL    HW220187   1.840   0.863   6.759  0.7642 -0.1811 -2.7537
 2909SOL     OW20188   0.725   0.782   4.103 -0.2662 -0.1647 -0.0021
 2909SOL    HW120189   0.683   0.868   4.114 -0.2592 -0.1498 -0.0921
 2909SOL    HW220190   0.747   0.779   4.010  1.8496 -0.6739  0.5064
 2910SOL     OW20191   1.062   3.088   1.289 -0.0529  0.3081  0.8734
 2910SOL    HW120192   1.115   3.068   1.367 -0.2460  1.0134  1.1918
 2910SOL    HW220193   1.007   3.010   1.279  1.3719 -0.8513  1.9422
 2911SOL     OW20194   3.453   3.424   9.933 -0.2151  0.2740 -0.1836
 2911SOL    HW120195   3.399   3.348   9.955 -2.8080  1.7497 -1.4096
 2911SOL    HW220196   3.383   3.469   9.886 -0.3211  0.6212  0.3069
 2912SOL     OW20197   1.572   0.225   5.159 -0.0097 -0.2681 -0.5039
 2912SOL    HW120198   1.661   0.261   5.164  1.0740 -2.9092 -1.0948
 2912SOL    HW220199   1.544   0.277   5.084  0.0836 -0.4136 -0.6388
 2913SOL     OW20200   1.868   4.410   3.420  0.2364  0.0768  0.5478
 2913SOL    HW120201   1.865   4.502   3.447 -1.4291  0.1310  0.1773
 2913SOL    HW220202   1.943   4.375   3.468 -1.1223 -0.9836  1.8936
 2914SOL     OW20203   0.403   0.923   3.951 -0.2267  0.7025  0.0615
 2914SOL    HW120204   0.362   0.863   3.888  0.0512  1.1036 -0.5017
 2914SOL    HW220205   0.451   0.990   3.903  0.1202 -0.2669 -0.9750
 2915SOL     OW20206   4.505   4.001   1.263 -0.3168 -0.0244 -0.3979
 2915SOL    HW120207   4.475   4.051   1.339 -1.7361 -2.1487  0.4353
 2915SOL    HW220208   4.580   4.054   1.236 -0.2735  0.4743  0.6830
 2916SOL     OW20209   1.619   3.171   5.124 -0.2444  0.3828 -0.0213
 2916SOL    HW120210   1.662   3.161   5.209  1.5174 -0.2593 -0.9897
 2916SOL    HW220211   1.542   3.213   5.163  0.5808 -0.2798  2.3523
 2917SOL     OW20212   0.007   2.985   5.505  0.3972 -0.1449  0.2994
 2917SOL    HW120213   0.060   3.002   5.582 -1.1139 -0.8305  1.4800
 2917SOL    HW220214   0.028   3.061   5.451  1.9744 -0.6398  0.2262
 2918SOL     OW20215   1.129   0.452  13.442 -0.2186 -0.3546  0.3964
 2918SOL    HW120216   1.119   0.404  13.524 -0.8438  0.7978  0.9924
 2918SOL    HW220217   1.155   0.537  13.478 -1.7066 -0.3804  1.5538
 2919SOL     OW20218   4.681   2.880   8.956  0.1572 -0.1635  0.0268
 2919SOL    HW120219   4.660   2.800   9.003 -1.7708  1.0482  1.2008
 2919SOL    HW220220   4.668   2.845   8.867 -0.4670 -1.1259  0.4973
 2920SOL     OW20221   4.340   2.274   7.689  0.4198  0.4127 -0.0828
 2920SOL    HW120222   4.401   2.251   7.759  1.2924 -1.2652 -1.4086
 2920SOL    HW220223   4.341   2.193   7.639 -1.7615  1.6463 -2.1227
 2921SOL     OW20224   3.744   1.048   7.108 -0.0453  0.1642 -0.1397
 2921SOL    HW120225   3.666   1.092   7.142  0.3723  0.1765  0.7845
 2921SOL    HW220226   3.793   1.124   7.078  0.3367 -0.3377 -0.7970
 2922SOL     OW20227   1.596   1.364   6.894  0.1199 -0.0808 -0.9584
 2922SOL    HW120228   1.627   1.423   6.963  0.2564 -0.4165 -0.7338
 2922SOL    HW220229   1.543   1.304   6.946  3.2770 -1.2888  0.8413
 2923SOL     OW20230   0.805   3.203   1.636  0.0749  0.0255 -0.6081
 2923SOL    HW120231   0.714   3.184   1.660 -0.4539 -0.1193 -2.7433
 2923SOL    HW220232   0.828   3.120   1.593  1.3219  0.1533 -0.1875
 2924SOL     OW20233   0.616   2.298   8.474  0.2964  0.2178 -0.1930
 2924SOL    HW120234   0.642   2.209   8.449 -1.3316 -0.2129 -0.3365
 2924SOL    HW220235   0.661   2.291   8.558 -1.3975  1.1626  0.7927
 2925SOL     OW20236   0.554   0.016   7.988  0.1264 -0.4258  0.5073
 2925SOL    HW120237   0.536   0.018   7.894 -0.1798 -0.7399  0.5630
 2925SOL    HW220238   0.599   4.657   8.003  0.2012 -0.8258 -1.9310
 2926SOL     OW20239   4.038   1.595  11.711  0.0290 -1.0348  0.0863
 2926SOL    HW120240   4.007   1.630  11.628 -0.0645  0.0495  0.5737
 2926SOL    HW220241   4.122   1.558  11.685  0.3470 -1.0034  1.0754
 2927SOL     OW20242   3.438   3.325   6.667 -0.1992 -0.2848 -0.1736
 2927SOL    HW120243   3.479   3.390   6.724 -1.8082  2.8858 -2.6005
 2927SOL    HW220244   3.409   3.261   6.732  1.6661 -0.5762  0.3758
 2928SOL     OW20245   4.241   3.216   2.689  0.3166  0.8145 -0.0554
 2928SOL    HW120246   4.162   3.179   2.730  0.0589  1.1174 -0.2742
 2928SOL    HW220247   4.306   3.162   2.734 -1.1362 -1.4523 -0.6745
 2929SOL     OW20248   0.223   4.470   3.268  0.2309 -0.2629  0.0480
 2929SOL    HW120249   0.157   4.526   3.226 -0.4050 -0.1043  1.2754
 2929SOL    HW220250   0.291   4.476   3.201  0.0569  0.0793 -0.1014
 2930SOL     OW20251   0.894   4.332  16.102 -0.4327  0.2367  0.4015
 2930SOL    HW120252   0.875   4.244  16.134 -1.2749  1.4774  3.3124
 2930SOL    HW220253   0.826   4.387  16.139 -0.4589 -0.7086  1.7488
 2931SOL     OW20254   2.787   1.480   3.386  0.0847  0.2531 -0.0941
 2931SOL    HW120255   2.816   1.562   3.346  0.1715  1.5913  2.7042
 2931SOL    HW220256   2.698   1.507   3.411 -0.5789 -0.1224 -2.0741
 2932SOL     OW20257   1.691   1.540   5.980 -0.3022  0.2035 -0.1280
 2932SOL    HW120258   1.739   1.485   6.041  0.1865 -0.0040 -0.6949
 2932SOL    HW220259   1.603   1.502   5.987 -0.0632 -0.3149  0.0425
 2933SOL     OW20260   3.706   4.655   7.691  0.2464 -0.0212  0.1648
 2933SOL    HW120261   3.747   4.605   7.620 -0.1258 -2.0684  1.4156
 2933SOL    HW220262   3.717   4.595   7.764  0.2930  0.3458  0.4593
 2934SOL     OW20263   0.815   1.685   8.120  0.0625 -0.0820  0.7007
 2934SOL    HW120264   0.868   1.642   8.052 -3.3065 -1.7816 -0.8489
 2934SOL    HW220265   0.755   1.616   8.147 -0.1479 -0.4000 -0.5700
 2935SOL     OW20266   2.545   2.477   4.426  0.4943 -0.2542  0.7719
 2935SOL    HW120267   2.510   2.521   4.504  1.4945  1.6538  0.1608
 2935SOL    HW220268   2.559   2.393   4.470 -0.6970 -0.1378  1.3606
 2936SOL     OW20269   3.305   4.469   7.643  0.4848 -0.0972 -0.4058
 2936SOL    HW120270   3.358   4.442   7.568 -0.3526  0.9626 -1.3878
 2936SOL    HW220271   3.234   4.405   7.650  0.4869  0.0687  1.1509
 2937SOL     OW20272   4.583   4.423   9.672 -0.8697 -0.4159 -0.2291
 2937SOL    HW120273   4.521   4.351   9.678  0.3503 -1.4995 -0.7761
 2937SOL    HW220274   4.588   4.443   9.579  3.2739  1.9063  0.4723
 2938SOL     OW20275   4.253   2.746  17.361 -0.7021  0.1604 -0.6075
 2938SOL    HW120276   4.343   2.758  17.392 -1.0826  2.6238 -0.3811
 2938SOL    HW220277   4.202   2.757  17.442 -0.6820  2.5810 -0.9176
 2939SOL     OW20278   3.451   2.802   6.762 -0.4688  0.1975 -0.7397
 2939SOL    HW120279   3.503   2.871   6.720  1.3047 -1.4355 -1.2321
 2939SOL    HW220280   3.494   2.720   6.736  1.7273 -0.1040  3.7512
 2940SOL     OW20281   3.290   0.562   5.420  0.2719 -0.4721 -0.7602
 2940SOL    HW120282   3.221   0.581   5.483  0.2469  1.8021 -1.4885
 2940SOL    HW220283   3.244   0.564   5.336 -0.2817 -1.6630 -0.4779
 2941SOL     OW20284   0.040   2.848  17.102  0.2937 -0.0023 -0.3603
 2941SOL    HW120285   4.704   2.919  17.125  0.2536  0.3699 -1.5808
 2941SOL    HW220286   0.097   2.896  17.042 -1.0731  0.0766 -1.6045
 2942SOL     OW20287   2.806   0.540   7.020  0.3603  0.1094  0.0055
 2942SOL    HW120288   2.726   0.489   7.010 -0.1191  0.7083  0.7771
 2942SOL    HW220289   2.865   0.482   7.068 -0.1959 -1.8175 -1.6775
 2943SOL     OW20290   2.459   3.829   2.557  0.5953  0.1912  0.2247
 2943SOL    HW120291   2.481   3.899   2.619  2.4962  0.7311 -1.0339
 2943SOL    HW220292   2.366   3.843   2.573  0.5552  2.5330 -2.0090
 2944SOL     OW20293   4.070   3.285   2.125  0.8274 -0.0157  0.1383
 2944SOL    HW120294   4.052   3.252   2.037 -1.5453  0.0003  0.6138
 2944SOL    HW220295   4.146   3.341   2.114 -1.7839  2.8211 -3.3738
 2945SOL     OW20296   1.382   2.843  14.907  1.1246 -0.3509 -0.1007
 2945SOL    HW120297   1.456   2.799  14.950  2.2263  1.9579  0.3412
 2945SOL    HW220298   1.365   2.790  14.830  2.5182  1.7895 -1.8636
 2946SOL     OW20299   3.268   0.690   5.072  0.1859 -0.4684  0.4277
 2946SOL    HW120300   3.231   0.636   5.003  1.7756 -2.4995  1.1485
 2946SOL    HW220301   3.231   0.775   5.050 -0.3073 -1.6664 -3.2562
 2947SOL     OW20302   2.062   2.585   0.352  0.0865 -0.1520  0.7173
 2947SOL    HW120303   1.992   2.541   0.400 -2.1774  0.5429 -1.9595
 2947SOL    HW220304   2.121   2.611   0.423 -0.5409  0.2290  1.1035
 2948SOL     OW20305   3.452   3.944   9.789 -0.1120 -0.4485 -0.3647
 2948SOL    HW120306   3.388   3.912   9.853  2.7409 -3.5564  0.9495
 2948SOL    HW220307   3.520   3.878   9.801  0.2062 -0.1063 -0.3042
 2949SOL     OW20308   2.939   2.894   4.480 -0.4679  0.2128 -0.3466
 2949SOL    HW120309   2.863   2.837   4.464 -0.5979  0.2315  0.2185
 2949SOL    HW220310   2.979   2.908   4.394  0.7586 -1.5059 -0.0516
 2950SOL     OW20311   3.481   3.786   9.290 -0.2222  0.3882 -0.3760
 2950SOL    HW120312   3.388   3.768   9.278  0.1733 -1.3118 -0.8664
 2950SOL    HW220313   3.475   3.881   9.287 -0.3383  0.4086  0.4306
 2951SOL     OW20314   0.746   3.496   2.391 -0.3645  0.1759  0.2609
 2951SOL    HW120315   0.737   3.454   2.477 -1.8461 -1.4761 -0.7022
 2951SOL    HW220316   0.732   3.429   2.324  1.7703  1.2486 -1.2477
 2952SOL     OW20317   1.393   2.479   2.703  0.8301  0.0538  0.0063
 2952SOL    HW120318   1.385   2.446   2.793 -3.2879 -2.7451 -1.3772
 2952SOL    HW220319   1.307   2.520   2.694  1.8388  2.0769 -0.3729
 2953SOL     OW20320   0.830   1.692   7.495 -0.1776  0.0232  0.3720
 2953SOL    HW120321   0.864   1.752   7.428  1.0924 -0.1893  0.8153
 2953SOL    HW220322   0.895   1.700   7.565 -0.1516 -0.5608  0.4118
 2954SOL     OW20323   0.848   4.513   9.934  0.1691 -0.0510  0.0505
 2954SOL    HW120324   0.772   4.543   9.983  0.9098  0.5418  0.8314
 2954SOL    HW220325   0.916   4.504  10.001  1.4169 -0.6705 -1.2915
 2955SOL     OW20326   2.835   2.022   9.626  0.3211 -0.0077  0.2676
 2955SOL    HW120327   2.844   1.968   9.704 -1.2961 -0.9058 -0.1541
 2955SOL    HW220328   2.898   2.090   9.649 -1.0619  0.2635  3.1490
 2956SOL     OW20329   2.859   3.150   6.747 -0.2123  0.1926  0.3150
 2956SOL    HW120330   2.782   3.136   6.802  0.1455 -1.3869  0.4217
 2956SOL    HW220331   2.836   3.087   6.679 -0.9991  1.3277 -0.4636
 2957SOL     OW20332   3.303   2.741  15.896  0.2472 -0.3463  0.5360
 2957SOL    HW120333   3.335   2.686  15.968  1.0079  0.9768  1.2217
 2957SOL    HW220334   3.376   2.729  15.835 -1.6230  2.6986 -2.2612
 2958SOL     OW20335   2.386   3.078   1.397  0.2640  0.3885  0.2336
 2958SOL    HW120336   2.450   3.030   1.345  0.3766  1.1918 -0.3746
 2958SOL    HW220337   2.447   3.140   1.437 -1.3386  1.0017  1.7404
 2959SOL     OW20338   2.392   4.471   5.231 -0.0299 -0.0674  0.3533
 2959SOL    HW120339   2.402   4.548   5.175 -1.3113  1.0146  1.6061
 2959SOL    HW220340   2.331   4.416   5.180  0.5927 -0.0945 -0.3722
 2960SOL     OW20341   2.829   2.104   1.604  0.1087  0.2037  0.5191
 2960SOL    HW120342   2.852   2.045   1.533  2.0098 -0.1395  1.4337
 2960SOL    HW220343   2.900   2.093   1.667  1.4310 -1.3751 -1.2624
 2961SOL     OW20344   2.306   1.792   7.781 -0.5205 -0.0446 -1.0652
 2961SOL    HW120345   2.344   1.871   7.818 -0.5881  0.1773 -1.4636
 2961SOL    HW220346   2.216   1.817   7.757 -0.8733 -0.1210  0.1923
 2962SOL     OW20347   0.795   2.298   0.612 -0.4763  1.0592  0.0528
 2962SOL    HW120348   0.817   2.325   0.523 -2.6184 -0.8410 -1.0532
 2962SOL    HW220349   0.822   2.206   0.609 -1.1161  0.8797 -0.0823
 2963SOL     OW20350   3.594   2.635   9.593  0.1458  0.0646  0.6659
 2963SOL    HW120351   3.585   2.702   9.661 -2.3229 -0.0213  0.4147
 2963SOL    HW220352   3.622   2.557   9.641  1.4184  0.6195  0.8244
 2964SOL     OW20353   3.501   3.559   3.061 -0.3364 -0.0074  0.0323
 2964SOL    HW120354   3.480   3.637   3.009  1.1762  1.0245  0.9696
 2964SOL    HW220355   3.507   3.486   2.999  0.3131  0.4481 -0.4487
 2965SOL     OW20356   2.048   2.676   2.466  0.1421  0.6148  0.5282
 2965SOL    HW120357   1.961   2.701   2.435  0.8444 -0.8273 -2.5456
 2965SOL    HW220358   2.053   2.736   2.541  0.3854 -1.0859  1.8804
 2966SOL     OW20359   1.103   1.433   8.628 -0.5849  0.4270 -0.0648
 2966SOL    HW120360   1.091   1.339   8.612  2.2244 -0.0488  0.5245
 2966SOL    HW220361   1.184   1.425   8.679 -1.7375 -0.0757  1.6477
 2967SOL     OW20362   0.920   3.961   5.281 -0.0231  0.6178  0.5060
 2967SOL    HW120363   0.920   4.019   5.205 -0.1033 -0.0328  0.0122
 2967SOL    HW220364   1.012   3.941   5.297 -0.0761  0.8951  1.1824
 2968SOL     OW20365   1.486   2.241   5.029  0.2124  0.6166 -0.2085
 2968SOL    HW120366   1.502   2.164   4.974 -1.0637 -0.5449  1.0511
 2968SOL    HW220367   1.520   2.211   5.113  1.0660  1.4897 -0.2560
 2969SOL     OW20368   2.928   4.258   2.659 -0.0023 -0.1504  0.3341
 2969SOL    HW120369   3.006   4.213   2.692  0.6702  0.4870 -0.3720
 2969SOL    HW220370   2.881   4.252   2.742  0.4673 -0.5310  0.5733
 2970SOL     OW20371   0.632   3.511   5.124  0.6700 -0.7829 -0.5174
 2970SOL    HW120372   0.699   3.447   5.146  1.6171  0.7486  1.0523
 2970SOL    HW220373   0.617   3.483   5.033 -2.5256 -0.3458 -0.1323
 2971SOL     OW20374   1.600   3.922  17.361  0.1354 -0.5943 -0.8442
 2971SOL    HW120375   1.611   3.896  17.453  1.4086  2.1431 -0.2052
 2971SOL    HW220376   1.635   4.011  17.348 -1.1213 -0.3590 -2.5413
 2972SOL     OW20377   0.146   1.675   9.341 -0.0589 -0.3276  0.5952
 2972SOL    HW120378   0.177   1.588   9.315 -0.0947  0.1549 -1.0683
 2972SOL    HW220379   0.156   1.675   9.436 -1.8460 -1.5686  0.8052
 2973SOL     OW20380   2.672   4.530   4.489  0.5179 -0.4678  0.0565
 2973SOL    HW120381   2.741   4.511   4.552 -0.7066  0.1104  1.5482
 2973SOL    HW220382   2.603   4.562   4.546  0.2703  1.6040 -1.4249
 2974SOL     OW20383   1.814   0.213   4.236  0.1481  0.2122 -0.0717
 2974SOL    HW120384   1.782   0.290   4.190 -1.5050  0.0911  0.8615
 2974SOL    HW220385   1.907   0.213   4.213  0.4509 -0.2857  1.1683
 2975SOL     OW20386   1.217   2.550  16.133 -0.4903  0.4717  0.0551
 2975SOL    HW120387   1.292   2.517  16.085 -1.3478 -2.6394  0.8563
 2975SOL    HW220388   1.184   2.611  16.066  0.2380  0.6059 -0.1731
 2976SOL     OW20389   1.455   3.293   2.558 -0.0569 -0.1529  0.3431
 2976SOL    HW120390   1.473   3.379   2.596 -2.5279  1.5664 -2.4436
 2976SOL    HW220391   1.360   3.278   2.561 -0.4266  2.3074  1.2813
 2977SOL     OW20392   3.760   4.183   4.248  0.3133  0.3227  0.5424
 2977SOL    HW120393   3.745   4.275   4.270  0.2964 -0.0979  2.3434
 2977SOL    HW220394   3.677   4.164   4.204 -0.5893 -0.7415  2.6599
 2978SOL     OW20395   0.569   1.682   6.621 -0.8105  1.0632  0.6111
 2978SOL    HW120396   0.578   1.613   6.687 -0.6362 -0.1651 -0.7015
 2978SOL    HW220397   0.477   1.680   6.593 -0.5110  1.9810 -0.4313
 2979SOL     OW20398   0.236   0.485   4.953 -0.2934  0.1053 -0.3410
 2979SOL    HW120399   0.255   0.456   5.043  1.5152 -2.6755 -1.6319
 2979SOL    HW220400   0.173   0.422   4.917 -1.0384  2.3739 -3.0232
 2980SOL     OW20401   0.561   3.917   2.654  1.0360  0.1003  0.0393
 2980SOL    HW120402   0.567   3.838   2.601  0.8295  0.0687  0.0615
 2980SOL    HW220403   0.477   3.904   2.699  2.4262 -2.3060  1.9098
 2981SOL     OW20404   2.116   4.017  13.688 -1.0025  0.7669 -0.2509
 2981SOL    HW120405   2.123   3.991  13.596 -0.4411 -1.9150  0.5564
 2981SOL    HW220406   2.060   3.948  13.721  0.1892  0.7397  1.6740
 2982SOL     OW20407   4.113   1.508   5.819  0.0305  0.4501  0.5736
 2982SOL    HW120408   4.186   1.466   5.774 -0.5144 -0.9752  1.0289
 2982SOL    HW220409   4.049   1.495   5.749  1.5274 -0.2718 -0.6620
 2983SOL     OW20410   1.226   2.487  13.561 -0.1269 -0.1690 -0.3818
 2983SOL    HW120411   1.245   2.448  13.647 -1.0429 -2.3920 -1.1934
 2983SOL    HW220412   1.248   2.580  13.570  2.0571 -0.8536  1.4183
 2984SOL     OW20413   0.919   2.905   6.336 -0.2447 -0.2121 -0.4060
 2984SOL    HW120414   0.977   2.855   6.279  0.3969 -0.2346  0.2567
 2984SOL    HW220415   0.941   2.999   6.336 -1.0813  0.0034  1.3818
 2985SOL     OW20416   1.452   0.124   7.699  0.3329 -1.0431  0.0072
 2985SOL    HW120417   1.426   0.108   7.608  0.5393  3.0212 -0.7364
 2985SOL    HW220418   1.406   0.053   7.744 -1.0384 -1.0278 -1.3730
 2986SOL     OW20419   3.778   2.367   7.206 -0.5889  0.0886 -0.4259
 2986SOL    HW120420   3.777   2.420   7.286  0.6844  0.0506 -0.3873
 2986SOL    HW220421   3.718   2.419   7.152 -1.1362 -2.2139 -2.0314
 2987SOL     OW20422   0.715   3.287   8.856  0.2288  0.4252 -0.1866
 2987SOL    HW120423   0.727   3.293   8.762 -1.6316  1.9700 -0.3230
 2987SOL    HW220424   0.662   3.210   8.874 -0.6293  1.7000  2.7320
 2988SOL     OW20425   2.950   4.354   6.199  0.3599  0.0505 -0.0922
 2988SOL    HW120426   2.893   4.300   6.254  1.3448 -1.2858 -0.3745
 2988SOL    HW220427   2.892   4.430   6.194 -0.3037 -0.5263 -1.2079
 2989SOL     OW20428   1.373   0.832   9.432 -0.0659  0.1815 -0.0128
 2989SOL    HW120429   1.424   0.820   9.513 -0.5900  1.0569  0.4497
 2989SOL    HW220430   1.438   0.840   9.363 -1.4043 -1.0553 -1.3986
 2990SOL     OW20431   3.178   3.002   6.677 -0.5378 -0.0092 -0.2239
 2990SOL    HW120432   3.155   3.088   6.639  2.2323  0.3963 -0.9826
 2990SOL    HW220433   3.156   3.020   6.768  2.6695  1.1104  0.3208
 2991SOL     OW20434   3.395   1.799   7.673  0.4527 -0.0874 -0.4147
 2991SOL    HW120435   3.308   1.792   7.634 -0.2878 -0.6958  1.3710
 2991SOL    HW220436   3.439   1.739   7.613  2.2300  0.5243  0.2946
 2992SOL     OW20437   0.110   1.858   9.155 -0.0598 -0.2503  0.2583
 2992SOL    HW120438   0.136   1.795   9.222  1.1408  0.4076  0.4117
 2992SOL    HW220439   0.197   1.887   9.127  0.1981 -0.3899  0.9295
 2993SOL     OW20440   0.975   4.157   5.107 -0.3630 -0.2918  0.4717
 2993SOL    HW120441   1.031   4.227   5.075 -0.1898  0.0112  1.4490
 2993SOL    HW220442   0.903   4.172   5.046  0.5026 -0.9341 -0.7058
 2994SOL     OW20443   2.058   1.424  12.401  0.1999 -0.3428  0.3976
 2994SOL    HW120444   2.019   1.336  12.400 -0.4026 -0.0755  0.5003
 2994SOL    HW220445   2.145   1.413  12.440 -1.0478  1.8456  3.7485
 2995SOL     OW20446   2.868   0.681   5.752 -0.4307  0.4267 -0.0060
 2995SOL    HW120447   2.890   0.774   5.762  0.9462  0.3286 -2.1957
 2995SOL    HW220448   2.773   0.690   5.749 -0.6115 -0.5878  2.5457
 2996SOL     OW20449   0.382   2.980   3.056  0.2955  0.2009 -0.1937
 2996SOL    HW120450   0.441   3.011   2.988 -0.9859  0.2220 -1.2923
 2996SOL    HW220451   0.321   3.049   3.081  2.1612  1.4922  0.8043
 2997SOL     OW20452   1.293   1.529   5.784  0.2687 -0.0967  0.1297
 2997SOL    HW120453   1.340   1.449   5.807 -1.6918 -1.7362 -1.6305
 2997SOL    HW220454   1.200   1.511   5.801  1.0222 -1.1888  3.1691
 2998SOL     OW20455   4.003   0.120   5.021  0.0919  0.0599  0.2285
 2998SOL    HW120456   3.911   0.145   5.031  0.4229  1.5453 -0.4838
 2998SOL    HW220457   4.035   0.143   5.108  0.1397  0.2396  0.1623
 2999SOL     OW20458   2.742   0.362   8.739 -0.2760 -0.3189  0.2829
 2999SOL    HW120459   2.647   0.368   8.750 -0.1322 -2.6687  2.6604
 2999SOL    HW220460   2.774   0.448   8.768 -1.6686  0.4600 -0.4769
 3000SOL     OW20461   3.976   3.351   6.412  0.3596  0.0626 -0.0372
 3000SOL    HW120462   4.048   3.412   6.422  0.2850  0.0773  0.4146
 3000SOL    HW220463   4.021   3.270   6.438  1.0917  0.6090  0.3884
 3001SOL     OW20464   4.234   4.406  10.186  0.0454  0.2629 -0.3124
 3001SOL    HW120465   4.250   4.416  10.092 -2.0221 -2.3241 -0.9391
 3001SOL    HW220466   4.318   4.371  10.213 -0.4778  0.3515  1.4204
 3002SOL     OW20467   2.682   4.103  17.581  0.4159  0.0970 -0.5810
 3002SOL    HW120468   2.632   4.023  17.593  0.4899  0.0772 -0.3967
 3002SOL    HW220469   2.617   4.170  17.557  2.5620  2.0218 -1.0562
 3003SOL     OW20470   3.029   0.814   3.928 -0.0369  0.0261  0.4359
 3003SOL    HW120471   3.064   0.794   3.841  2.1792 -0.9916  1.5411
 3003SOL    HW220472   2.944   0.770   3.925 -0.6537  1.2585 -0.0380
 3004SOL     OW20473   3.698   2.959   4.381 -0.2049 -0.4887  0.2545
 3004SOL    HW120474   3.714   2.945   4.475  2.3712 -0.2631 -0.1414
 3004SOL    HW220475   3.786   2.988   4.357 -1.6561  2.1074 -1.8289
 3005SOL     OW20476   3.102   2.866  16.969  0.0146  0.2740  0.2153
 3005SOL    HW120477   3.092   2.788  17.024 -0.8234 -1.8598 -2.9389
 3005SOL    HW220478   3.060   2.939  17.013  0.5499  0.7130  0.0047
 3006SOL     OW20479   3.428   4.185  13.416  0.1624 -0.5160  0.0974
 3006SOL    HW120480   3.451   4.270  13.380 -1.9919  0.6105  1.4338
 3006SOL    HW220481   3.401   4.206  13.505  0.7921 -0.8030  0.3635
 3007SOL     OW20482   2.449   0.921  17.198  0.4376 -0.2118 -0.0114
 3007SOL    HW120483   2.435   1.015  17.194  0.6648 -0.2229 -1.0868
 3007SOL    HW220484   2.357   0.894  17.200  0.0554  1.2616  1.8223
 3008SOL     OW20485   2.256   2.077   3.627  0.1047  0.1881 -0.0362
 3008SOL    HW120486   2.270   2.172   3.624 -0.1385  0.2054 -0.6627
 3008SOL    HW220487   2.163   2.070   3.647 -0.1161 -0.1341 -1.1577
 3009SOL     OW20488   4.146   2.757   0.815  0.1380  0.1886  0.3522
 3009SOL    HW120489   4.088   2.756   0.891  1.4772  0.7356  1.3926
 3009SOL    HW220490   4.221   2.708   0.848  1.2874  0.7218 -1.4225
 3010SOL     OW20491   2.224   3.523   9.778 -0.6385  0.2252 -0.1134
 3010SOL    HW120492   2.165   3.567   9.839 -0.9528  0.2143 -0.4126
 3010SOL    HW220493   2.300   3.497   9.831  1.1754 -1.6704 -3.6472
 3011SOL     OW20494   0.896   3.811   7.205 -0.3780 -0.4485  0.6572
 3011SOL    HW120495   0.850   3.736   7.243 -2.1854 -0.6987 -2.0166
 3011SOL    HW220496   0.826   3.876   7.206  0.3942  0.3927 -0.9520
 3012SOL     OW20497   1.479   4.151  16.900 -0.0424 -0.0423 -0.3421
 3012SOL    HW120498   1.550   4.164  16.964 -0.1066 -0.4619 -0.1804
 3012SOL    HW220499   1.447   4.075  16.950 -0.6617  1.0025  0.8525
 3013SOL     OW20500   2.780   4.081   3.958 -0.2259 -0.5945 -0.1272
 3013SOL    HW120501   2.763   3.988   3.947 -1.2041 -0.6480  1.7559
 3013SOL    HW220502   2.756   4.119   3.874 -0.7173 -1.5617 -0.4170
 3014SOL     OW20503   1.938   2.778   7.119 -0.2287  0.0049 -0.2673
 3014SOL    HW120504   1.847   2.769   7.090 -0.5025  0.0078  0.5776
 3014SOL    HW220505   1.927   2.762   7.213  1.4535  3.0066  0.4387
 3015SOL     OW20506   0.753   3.460   4.478 -0.3911  0.5000 -0.4097
 3015SOL    HW120507   0.680   3.400   4.492 -0.5097  0.5157 -0.9285
 3015SOL    HW220508   0.733   3.531   4.539 -1.7872  0.0098 -0.2985
 3016SOL     OW20509   1.169   1.988   3.911  0.2166  0.8107  0.8162
 3016SOL    HW120510   1.103   2.049   3.880 -1.0901 -0.8811  0.2808
 3016SOL    HW220511   1.243   2.028   3.865 -0.3134 -0.0923 -0.7976
 3017SOL     OW20512   3.351   4.541  13.843 -0.3179 -0.0868 -0.5649
 3017SOL    HW120513   3.402   4.463  13.867  1.0920  1.2097  0.6142
 3017SOL    HW220514   3.287   4.541  13.915  2.2036  3.2487  1.6764
 3018SOL     OW20515   2.799   0.196   9.717 -0.1375  0.1662  0.0366
 3018SOL    HW120516   2.845   0.199   9.633  0.1441  0.6614  0.2106
 3018SOL    HW220517   2.743   0.274   9.714 -0.7790 -0.1965  2.3201
 3019SOL     OW20518   3.961   1.388   8.684  0.0883 -0.4473  0.2628
 3019SOL    HW120519   3.968   1.310   8.740 -0.0810 -0.2536  0.5523
 3019SOL    HW220520   3.969   1.462   8.744  0.3294 -1.0562  0.9854
 3020SOL     OW20521   1.836   3.954  12.775  0.5350  0.4527 -0.4756
 3020SOL    HW120522   1.821   3.938  12.682 -0.2377 -0.8078 -0.1434
 3020SOL    HW220523   1.788   4.035  12.790  1.7680  0.9843  0.6492
 3021SOL     OW20524   2.918   4.479  11.774 -0.5580 -0.0510 -0.1195
 3021SOL    HW120525   3.000   4.430  11.775 -1.1885 -1.1393 -1.7053
 3021SOL    HW220526   2.906   4.495  11.680  0.3834  0.1716 -0.2062
 3022SOL     OW20527   1.945   0.309   2.514  0.0089 -0.3739  0.1351
 3022SOL    HW120528   1.866   0.362   2.508  1.0911  1.4737  2.1156
 3022SOL    HW220529   1.927   0.233   2.459 -1.5949  0.0819  0.0408
 3023SOL     OW20530   0.089   1.524   5.124 -0.2534 -0.4642  0.5504
 3023SOL    HW120531   0.069   1.447   5.177 -1.3023  1.4657  2.9417
 3023SOL    HW220532   0.057   1.592   5.184 -4.1598  0.3239 -2.4498
 3024SOL     OW20533   1.719   2.370  14.436  0.6564 -0.0275  0.1518
 3024SOL    HW120534   1.811   2.367  14.465  0.1282 -0.9815  1.7308
 3024SOL    HW220535   1.726   2.397  14.345 -4.4920  0.2314 -0.1669
 3025SOL     OW20536   4.315   2.639   9.483 -0.0517  0.0283 -0.4693
 3025SOL    HW120537   4.337   2.612   9.572 -1.3393  1.4993  0.2966
 3025SOL    HW220538   4.313   2.735   9.477 -0.9875  0.2032  2.9637
 3026SOL     OW20539   0.584   3.947   9.763 -0.3878 -0.2803 -0.1434
 3026SOL    HW120540   0.556   3.889   9.833  2.3181 -0.7937  0.5123
 3026SOL    HW220541   0.574   4.026   9.815  2.7646 -1.7011  2.5653
 3027SOL     OW20542   1.617   4.248   3.251  0.4040  0.6256 -0.1874
 3027SOL    HW120543   1.709   4.238   3.275  1.3521  0.3362 -3.9658
 3027SOL    HW220544   1.597   4.154   3.250  0.0112  0.7057  0.4245
 3028SOL     OW20545   1.830   3.982  17.089  0.8325  0.3074 -0.0875
 3028SOL    HW120546   1.889   3.986  17.013  0.6584  1.0540 -0.1851
 3028SOL    HW220547   1.878   4.045  17.142  2.1342 -0.6082 -0.1858
 3029SOL     OW20548   2.029   1.349   3.501 -0.2857 -0.3420 -0.2946
 3029SOL    HW120549   2.120   1.321   3.512 -0.3082  0.3104  1.5193
 3029SOL    HW220550   1.976   1.273   3.523  1.6183 -1.6018 -0.0364
 3030SOL     OW20551   3.957   2.832   1.785  0.5389  0.4974 -0.0288
 3030SOL    HW120552   3.957   2.900   1.852  0.4883 -0.2567  0.7367
 3030SOL    HW220553   4.046   2.849   1.755  0.1312 -1.3805 -2.2703
 3031SOL     OW20554   2.040   2.004  13.434  0.1543 -0.2915 -0.1065
 3031SOL    HW120555   2.082   1.991  13.349  0.5375  1.6776 -0.2209
 3031SOL    HW220556   1.960   2.049  13.406 -1.0579 -1.8793  0.8100
 3032SOL     OW20557   2.236   3.664   7.317 -0.2802  0.2005 -0.2229
 3032SOL    HW120558   2.295   3.725   7.362  0.2043  1.1536 -2.1595
 3032SOL    HW220559   2.282   3.582   7.333 -0.6543  0.3391  1.6512
 3033SOL     OW20560   3.687   0.615   0.748  0.7844  0.1568  0.1495
 3033SOL    HW120561   3.655   0.677   0.813  0.9879 -0.7974  1.1776
 3033SOL    HW220562   3.691   0.535   0.801 -0.6651  0.3535  0.5391
 3034SOL     OW20563   0.853   0.862   2.761  0.3074  0.1734 -0.1527
 3034SOL    HW120564   0.758   0.872   2.755  0.2337  0.8159  2.5252
 3034SOL    HW220565   0.871   0.872   2.854  1.4871 -0.5028 -0.3015
 3035SOL     OW20566   0.604   4.189   8.031  0.3680 -0.3121 -0.0415
 3035SOL    HW120567   0.576   4.134   7.958  1.2640 -1.0171  0.1398
 3035SOL    HW220568   0.699   4.187   8.016  0.6434  1.9650  1.3675
 3036SOL     OW20569   1.423   3.473   4.996  0.1710  0.2756  0.0562
 3036SOL    HW120570   1.443   3.567   4.996 -2.6302  0.8768 -0.9383
 3036SOL    HW220571   1.343   3.459   5.047 -0.9094  4.0133 -0.6451
 3037SOL     OW20572   2.872   3.008   4.040  0.2686  0.0102 -0.0792
 3037SOL    HW120573   2.817   3.060   4.098 -0.5200 -1.4019  0.4433
 3037SOL    HW220574   2.841   3.024   3.951 -1.7086 -2.1571  0.2319
 3038SOL     OW20575   1.201   2.169  11.501 -0.7286 -0.3332  0.4457
 3038SOL    HW120576   1.269   2.114  11.540  0.6319  0.9706 -0.1490
 3038SOL    HW220577   1.216   2.153  11.408  1.1729  2.4297  0.3093
 3039SOL     OW20578   2.188   3.029   0.899  0.0876  0.2213  0.1481
 3039SOL    HW120579   2.170   2.957   0.960 -0.4538  1.2606  1.2299
 3039SOL    HW220580   2.153   2.991   0.819 -1.5751 -1.3933  1.6577
 3040SOL     OW20581   2.017   0.245  10.670 -0.3328  0.1393 -0.0185
 3040SOL    HW120582   2.028   0.253  10.765  0.6167 -2.1157  0.0729
 3040SOL    HW220583   1.936   0.291  10.651  0.5107  0.5705 -2.5729
 3041SOL     OW20584   2.539   3.756   5.791 -0.3383 -0.4989 -0.6003
 3041SOL    HW120585   2.574   3.805   5.716 -0.4582  0.0439 -0.3006
 3041SOL    HW220586   2.453   3.798   5.798 -0.1918 -0.4264  0.7595
 3042SOL     OW20587   2.191   3.357   7.745  0.5162 -0.6760 -0.2944
 3042SOL    HW120588   2.178   3.330   7.836 -1.9230  0.8538 -0.1924
 3042SOL    HW220589   2.102   3.390   7.732  0.0915 -1.6668  0.0182
 3043SOL     OW20590   3.392   2.038  11.132  0.0298 -0.2412  0.3894
 3043SOL    HW120591   3.442   2.115  11.107  1.2965 -0.8076  1.1191
 3043SOL    HW220592   3.325   2.078  11.188 -0.1493  0.5900 -0.4304
 3044SOL     OW20593   1.963   3.655  10.189  0.8029  0.1647 -0.0086
 3044SOL    HW120594   1.902   3.673  10.261 -0.5843  0.3844 -1.2360
 3044SOL    HW220595   2.017   3.588  10.231  0.7525 -0.2828 -0.6496
 3045SOL     OW20596   3.596   2.590   6.622  0.2201 -0.0896  0.3953
 3045SOL    HW120597   3.638   2.508   6.595 -2.1113 -0.7642 -1.1960
 3045SOL    HW220598   3.659   2.644   6.575  2.7689 -3.6596 -0.2453
 3046SOL     OW20599   1.662   0.098   1.515  0.5801 -0.4626 -0.9597
 3046SOL    HW120600   1.658   0.178   1.463  1.4355 -0.0480 -0.3890
 3046SOL    HW220601   1.735   0.056   1.470  2.8146  2.4433 -0.0644
 3047SOL     OW20602   3.680   4.243   5.186 -0.0211  0.3527 -0.7193
 3047SOL    HW120603   3.736   4.243   5.109  0.2997  0.2648 -0.4888
 3047SOL    HW220604   3.618   4.172   5.172 -0.3962  0.3210  1.0942
 3048SOL     OW20605   1.491   2.780   4.579  0.4556  0.0116 -0.0982
 3048SOL    HW120606   1.418   2.807   4.634 -0.3603  1.0004 -1.6567
 3048SOL    HW220607   1.513   2.864   4.538  1.5176 -0.4286 -0.4380
 3049SOL     OW20608   2.831   0.330  11.630  0.4784  0.3093  0.1303
 3049SOL    HW120609   2.876   0.385  11.694 -1.6075  1.7203  0.3884
 3049SOL    HW220610   2.798   0.265  11.692  0.5170  1.2918  1.1791
 3050SOL     OW20611   2.505   4.280   5.570 -0.4046 -0.2178  0.2566
 3050SOL    HW120612   2.413   4.259   5.586 -0.3953  0.1982  0.8592
 3050SOL    HW220613   2.520   4.243   5.483 -2.0990  0.4690 -0.3341
 3051SOL     OW20614   2.881   0.844   6.371  0.0004 -0.5039 -0.1468
 3051SOL    HW120615   2.915   0.872   6.456  1.0430  1.9402 -1.3615
 3051SOL    HW220616   2.797   0.885   6.388 -0.5406 -2.0474  0.9326
 3052SOL     OW20617   4.535   2.078   4.193 -0.2094  0.0337 -0.2835
 3052SOL    HW120618   4.566   2.114   4.276 -0.4693 -1.6396  0.5360
 3052SOL    HW220619   4.504   2.156   4.147 -2.7708 -1.4120 -1.0438
 3053SOL     OW20620   3.128   2.095   7.722 -0.8406 -0.7678 -0.1880
 3053SOL    HW120621   3.061   2.137   7.776 -1.8627 -0.5512 -1.6276
 3053SOL    HW220622   3.170   2.160   7.666 -0.5466 -1.0744 -0.3283
 3054SOL     OW20623   2.350   3.422   9.165  0.4550 -0.0500  0.2076
 3054SOL    HW120624   2.385   3.506   9.134 -1.1095  0.4255 -0.2955
 3054SOL    HW220625   2.376   3.358   9.099  2.9405 -1.8401  2.9818
 3055SOL     OW20626   1.173   0.053  11.007 -0.1309  0.3148 -0.2119
 3055SOL    HW120627   1.102   4.717  10.982 -0.7125  1.6934 -1.8825
 3055SOL    HW220628   1.236   0.010  10.949  0.4204 -1.7936  1.9454
 3056SOL     OW20629   4.070   4.394   4.942 -0.3779 -0.1579 -0.2287
 3056SOL    HW120630   4.081   4.472   4.887 -0.3097  1.1725  1.6710
 3056SOL    HW220631   4.031   4.436   5.019  1.1171  0.1187  0.3715
 3057SOL     OW20632   3.663   2.861   1.920 -0.2136 -0.2029  0.0095
 3057SOL    HW120633   3.726   2.816   1.863 -2.0241 -1.2226 -1.1993
 3057SOL    HW220634   3.582   2.861   1.869  0.9176  0.4871 -1.7920
 3058SOL     OW20635   4.493   1.551   3.885 -0.1187 -0.1076  0.0721
 3058SOL    HW120636   4.425   1.518   3.944 -1.0343  1.0141 -0.3439
 3058SOL    HW220637   4.564   1.569   3.947  1.0820 -1.1501 -1.0141
 3059SOL     OW20638   1.131   4.654  16.451  0.2138  0.5500 -0.3171
 3059SOL    HW120639   1.122   4.645  16.356 -0.3800  2.2301 -0.4238
 3059SOL    HW220640   1.041   4.683  16.468 -1.0923 -4.2205  1.1125
 3060SOL     OW20641   2.188   2.912   7.175  0.8637 -0.1207  0.2815
 3060SOL    HW120642   2.154   2.970   7.243 -0.2105  0.8406 -1.1062
 3060SOL    HW220643   2.111   2.872   7.135  1.1726 -2.2075  1.7065
 3061SOL     OW20644   4.320   3.871   2.417 -0.1466  0.5336  0.2365
 3061SOL    HW120645   4.341   3.898   2.327  0.1233  1.1765  0.4892
 3061SOL    HW220646   4.225   3.874   2.408  0.0156  0.0403 -1.7609
 3062SOL     OW20647   3.885   2.168  13.176 -0.4661 -0.5298 -0.0003
 3062SOL    HW120648   3.947   2.219  13.228 -0.8910  1.1887 -1.1621
 3062SOL    HW220649   3.888   2.091  13.232  0.2966 -0.0241  0.6586
 3063SOL     OW20650   4.314   2.660   8.322 -0.2348  0.2079  0.0079
 3063SOL    HW120651   4.335   2.610   8.244  3.7784  1.4094  0.3080
 3063SOL    HW220652   4.342   2.747   8.292  0.1698  0.1694  0.2837
 3064SOL     OW20653   4.579   0.125   2.090  0.4596 -0.3839  0.4122
 3064SOL    HW120654   4.594   0.094   2.001  0.5578  2.1471 -0.4720
 3064SOL    HW220655   4.635   0.072   2.146 -0.8643 -0.6214  1.4943
 3065SOL     OW20656   1.351   1.950   8.421  0.2706 -0.5418  0.9323
 3065SOL    HW120657   1.408   1.899   8.479  1.1272 -1.7587 -0.9523
 3065SOL    HW220658   1.339   2.023   8.482  2.1670  0.3876  0.1777
 3066SOL     OW20659   4.452   1.866   5.051 -0.6682  0.7916  1.0163
 3066SOL    HW120660   4.482   1.955   5.068 -2.4563  1.6321 -0.2820
 3066SOL    HW220661   4.440   1.837   5.142 -1.7082  2.1716  1.3062
 3067SOL     OW20662   4.651   4.496   3.034  0.2696 -0.2743 -0.3620
 3067SOL    HW120663   4.644   4.411   2.990  0.7017  0.0138 -0.9859
 3067SOL    HW220664   4.706   4.546   2.973  3.2895 -1.7389  1.1805
 3068SOL     OW20665   2.092   0.821  11.702  0.1536 -0.1793 -0.0869
 3068SOL    HW120666   2.123   0.751  11.760 -0.9546 -2.5894 -2.4330
 3068SOL    HW220667   2.016   0.770  11.675  0.2708  0.4431 -1.5745
 3069SOL     OW20668   3.817   2.777   4.161  0.1181  0.2166  0.2042
 3069SOL    HW120669   3.860   2.832   4.226  2.5100 -1.8944  0.3837
 3069SOL    HW220670   3.742   2.745   4.212 -1.7135  0.0417 -2.5696
 3070SOL     OW20671   4.427   3.291   4.968  0.0500  0.6548 -0.0544
 3070SOL    HW120672   4.517   3.260   4.981  0.3943  2.2054  1.2357
 3070SOL    HW220673   4.440   3.385   4.984 -1.3842  0.9426 -0.6101
 3071SOL     OW20674   4.564   0.885  16.039 -0.1339 -0.3870 -0.5020
 3071SOL    HW120675   4.508   0.940  15.985 -1.2344  1.2741  2.3729
 3071SOL    HW220676   4.649   0.919  16.009  0.1469  0.1431  0.9159
 3072SOL     OW20677   1.074   2.125  17.148  0.0830 -0.1196 -0.2406
 3072SOL    HW120678   0.987   2.107  17.184  0.1737  0.6246  0.3491
 3072SOL    HW220679   1.063   2.115  17.053 -2.6612 -1.3846  0.1990
 3073SOL     OW20680   1.646   1.223  10.094 -0.3312 -0.0650 -0.1608
 3073SOL    HW120681   1.740   1.228  10.081 -0.2834 -1.0558 -0.2002
 3073SOL    HW220682   1.639   1.179  10.179  1.3604 -0.0362 -0.0131
 3074SOL     OW20683   1.476   0.916   3.488 -0.1522  0.6220  0.2940
 3074SOL    HW120684   1.491   0.855   3.560  0.9451 -1.1719 -1.4644
 3074SOL    HW220685   1.515   0.869   3.414  0.4589 -0.2326  1.1627
 3075SOL     OW20686   4.407   2.897   8.209 -0.3515 -0.1761 -0.0975
 3075SOL    HW120687   4.369   2.981   8.236 -2.4953 -0.2514 -2.9132
 3075SOL    HW220688   4.410   2.905   8.114 -3.1063 -2.3346 -0.3427
 3076SOL     OW20689   2.795   0.742  12.681 -0.1365  0.6157  0.4386
 3076SOL    HW120690   2.845   0.824  12.678  1.6956 -0.5337 -0.7547
 3076SOL    HW220691   2.744   0.742  12.600  1.5647 -1.2056 -0.6249
 3077SOL     OW20692   3.721   1.917   5.812  0.0410  0.1915  0.4028
 3077SOL    HW120693   3.811   1.885   5.816  0.0577  0.3555  1.5300
 3077SOL    HW220694   3.673   1.856   5.756 -1.2559 -0.3485  2.1040
 3078SOL     OW20695   0.507   1.337  16.490 -0.2299  0.1488 -0.0107
 3078SOL    HW120696   0.549   1.267  16.440 -0.1166  0.4598 -0.3419
 3078SOL    HW220697   0.417   1.324  16.463 -0.6175 -0.0628  1.3434
 3079SOL     OW20698   1.776   4.009   7.687 -0.4028 -0.0332 -0.1830
 3079SOL    HW120699   1.856   4.026   7.637 -0.4623 -2.1543 -0.9856
 3079SOL    HW220700   1.780   4.084   7.747  0.6001  0.1161 -0.4316
 3080SOL     OW20701   4.271   3.795   1.957 -0.3115  0.0636 -0.0010
 3080SOL    HW120702   4.272   3.704   1.984 -1.6485 -0.1346 -0.6499
 3080SOL    HW220703   4.348   3.805   1.900  1.2622  1.4720  2.3783
 3081SOL     OW20704   1.463   2.280   1.550 -0.5219  0.1488  0.1854
 3081SOL    HW120705   1.436   2.188   1.560  1.3743 -0.2040  1.9409
 3081SOL    HW220706   1.493   2.281   1.459 -1.6174 -0.8232 -0.1926
 3082SOL     OW20707   4.498   0.993   0.878 -0.5008 -0.3102 -1.0618
 3082SOL    HW120708   4.416   1.029   0.912 -0.8283 -0.2681 -1.9114
 3082SOL    HW220709   4.491   1.011   0.785  0.4760  0.7657 -0.9300
 3083SOL     OW20710   2.648   0.046   5.325 -0.1832 -0.6328 -0.2397
 3083SOL    HW120711   2.655   4.675   5.312 -3.4513 -0.9366  0.3186
 3083SOL    HW220712   2.739   0.066   5.346  0.1174  0.6165 -2.6679
 3084SOL     OW20713   1.137   4.467   7.963 -0.2248 -0.1902 -0.4503
 3084SOL    HW120714   1.163   4.380   7.935 -0.6024 -1.2208  2.4200
 3084SOL    HW220715   1.163   4.459   8.055 -0.2690  0.5791 -0.3687
 3085SOL     OW20716   4.600   0.143  16.984  1.0880  0.2654 -0.4992
 3085SOL    HW120717   4.603   0.231  16.947 -1.0784  1.0986  1.2819
 3085SOL    HW220718   4.605   0.095  16.902  4.3521  0.6333 -0.4987
 3086SOL     OW20719   2.256   1.643   0.502  0.2158  0.3576 -0.1731
 3086SOL    HW120720   2.194   1.632   0.574 -0.3527 -0.5895 -0.8167
 3086SOL    HW220721   2.324   1.695   0.546  2.4261 -1.6417 -1.1897
 3087SOL     OW20722   1.077   4.577   7.443  0.0722 -0.0334  0.3332
 3087SOL    HW120723   1.005   4.613   7.494 -0.5002  0.0207 -0.5084
 3087SOL    HW220724   1.109   4.508   7.502  1.1714  1.1564  1.1100
 3088SOL     OW20725   4.184   3.283   6.806 -0.1436 -0.1409 -0.2005
 3088SOL    HW120726   4.162   3.353   6.868  0.2423  1.1109 -1.4984
 3088SOL    HW220727   4.277   3.269   6.821 -0.4351 -1.2229  0.6530
 3089SOL     OW20728   4.472   1.724  16.511 -0.2747 -0.1432  0.0319
 3089SOL    HW120729   4.390   1.676  16.502 -0.2403 -0.3071  0.6047
 3089SOL    HW220730   4.506   1.689  16.593 -2.5607  0.5859  1.2591
 3090SOL     OW20731   0.130   3.308   9.252  0.2761  0.3820 -0.0610
 3090SOL    HW120732   0.124   3.257   9.170 -0.7647 -0.9977  0.8746
 3090SOL    HW220733   0.122   3.398   9.220 -1.1121  1.3518  3.1184
 3091SOL     OW20734   2.100   0.669   8.173 -0.2117  0.2658  0.5065
 3091SOL    HW120735   2.193   0.683   8.157 -0.1190 -2.3961 -1.3353
 3091SOL    HW220736   2.061   0.755   8.158 -1.5941 -0.5152 -0.4079
 3092SOL     OW20737   0.328   2.384   7.303 -0.7489 -0.1873  0.1607
 3092SOL    HW120738   0.402   2.347   7.351 -1.0980  0.8623  1.5013
 3092SOL    HW220739   0.384   2.426   7.238 -1.1103 -0.3532 -0.2553
 3093SOL     OW20740   3.715   2.588   8.241 -0.4896  0.1744 -0.2584
 3093SOL    HW120741   3.747   2.640   8.314  0.0660  1.7812 -1.6606
 3093SOL    HW220742   3.649   2.648   8.207  0.4432  1.2286 -0.1930
 3094SOL     OW20743   2.005   3.215   1.665  0.2985  0.7372 -0.2475
 3094SOL    HW120744   2.100   3.201   1.664 -0.0318 -1.4838  0.2668
 3094SOL    HW220745   1.977   3.184   1.579  1.6995 -1.7493  0.1969
 3095SOL     OW20746   4.290   2.209   0.428 -0.0567  0.2523  0.4222
 3095SOL    HW120747   4.304   2.158   0.348 -1.0562  2.7736 -1.3450
 3095SOL    HW220748   4.272   2.130   0.479  1.3086 -1.1547 -1.2509
 3096SOL     OW20749   3.051   4.666   3.946  0.3493  0.2481 -0.4405
 3096SOL    HW120750   3.025   4.656   4.038 -1.4980  1.2296 -0.8398
 3096SOL    HW220751   2.965   4.687   3.909 -0.3209 -0.7574  0.5564
 3097SOL     OW20752   4.087   2.343   4.325 -0.7517 -0.6302  0.8134
 3097SOL    HW120753   4.089   2.248   4.338 -0.8464 -0.6658  0.5635
 3097SOL    HW220754   4.105   2.350   4.232  1.7010 -0.6194  1.2795
 3098SOL     OW20755   0.323   1.237   7.319  0.4329 -0.1061  0.6134
 3098SOL    HW120756   0.324   1.324   7.358  0.3863 -0.9266  2.4537
 3098SOL    HW220757   0.250   1.256   7.260  0.8353  0.4006  0.2818
 3099SOL     OW20758   0.060   0.107   3.963  0.1230 -0.1106 -0.0218
 3099SOL    HW120759   0.027   0.192   3.993 -0.9141 -1.3324  2.3558
 3099SOL    HW220760   0.072   0.125   3.870  0.2299  2.7414  0.5598
 3100SOL     OW20761   3.173   0.493  11.622 -0.5126 -0.0769 -0.7466
 3100SOL    HW120762   3.264   0.470  11.606 -0.1145 -0.2060  1.6910
 3100SOL    HW220763   3.148   0.432  11.692  0.2875  1.7238  1.0936
 3101SOL     OW20764   4.181   3.491  17.227  0.1194  0.0800 -0.3405
 3101SOL    HW120765   4.127   3.533  17.160  1.4726  0.1542 -1.3924
 3101SOL    HW220766   4.166   3.557  17.294 -2.1501  1.6825 -2.3917
 3102SOL     OW20767   4.341   3.991   3.572 -0.7354  0.5275 -0.3221
 3102SOL    HW120768   4.340   3.947   3.487 -1.8015  1.4571 -0.7994
 3102SOL    HW220769   4.435   4.009   3.577 -0.7453  0.6850 -0.6783
 3103SOL     OW20770   2.741   1.148  10.452 -0.7829  0.1239 -0.0624
 3103SOL    HW120771   2.784   1.231  10.474 -0.6630  0.2586 -0.8091
 3103SOL    HW220772   2.755   1.139  10.358  1.6864 -0.1080  0.3290
 3104SOL     OW20773   3.766   3.755   3.812 -0.0223  0.0131  0.4223
 3104SOL    HW120774   3.829   3.727   3.745  0.6364  2.8078 -0.1098
 3104SOL    HW220775   3.703   3.683   3.808 -1.4916  1.3267  0.1466
 3105SOL     OW20776   4.395   0.097  17.198  0.3344  0.0351 -0.8702
 3105SOL    HW120777   4.356   0.184  17.207  1.5944  0.6167 -0.8898
 3105SOL    HW220778   4.445   0.105  17.117  2.6356 -0.6776  0.4774
 3106SOL     OW20779   1.690   3.539   8.507  0.0265  0.8128  0.2943
 3106SOL    HW120780   1.621   3.557   8.443 -1.3727 -1.2279  1.2562
 3106SOL    HW220781   1.765   3.573   8.458 -0.4332  0.8372 -0.3862
 3107SOL     OW20782   4.465   3.383   2.985 -0.6665 -0.4414 -0.4146
 3107SOL    HW120783   4.422   3.298   2.982 -0.9969 -0.2156 -1.8045
 3107SOL    HW220784   4.448   3.413   2.896  0.5028  0.6481 -0.2797
 3108SOL     OW20785   3.128   0.967   5.513  0.1770  0.1648 -0.5168
 3108SOL    HW120786   3.052   1.014   5.547  0.4492  0.7402 -0.7105
 3108SOL    HW220787   3.136   0.890   5.570  0.6996  2.1493  2.0312
 3109SOL     OW20788   3.046   0.286   5.076  0.6635 -0.1882  0.0454
 3109SOL    HW120789   3.029   0.358   5.015 -2.7116  0.2824  1.5747
 3109SOL    HW220790   3.074   0.324   5.159  0.0866 -1.3505  0.7689
 3110SOL     OW20791   1.850   0.208   3.088  0.0247  0.1199  0.1087
 3110SOL    HW120792   1.911   0.260   3.036 -0.7839  1.3866  0.4193
 3110SOL    HW220793   1.802   0.285   3.118  1.3464  1.0991 -0.2749
 3111SOL     OW20794   4.223   4.374   3.304 -0.0158 -0.1198  0.2697
 3111SOL    HW120795   4.182   4.308   3.247  1.0303  1.1453 -1.9363
 3111SOL    HW220796   4.313   4.344   3.318 -0.1751  1.2112  3.9351
 3112SOL     OW20797   2.293   0.950   5.765 -0.3726  0.7899  0.0818
 3112SOL    HW120798   2.236   0.879   5.734  1.7179 -0.4109 -1.0111
 3112SOL    HW220799   2.287   0.937   5.860  3.5973 -0.4838  0.1717
 3113SOL     OW20800   0.958   4.154  10.566  0.4948 -0.1042 -0.2210
 3113SOL    HW120801   1.022   4.212  10.524  1.1446 -0.0688  0.8184
 3113SOL    HW220802   1.024   4.106  10.617  0.9421  0.3219 -0.4014
 3114SOL     OW20803   3.051   2.718  10.375  0.6548 -0.0672  0.3969
 3114SOL    HW120804   3.108   2.721  10.298 -0.9091 -1.1802 -0.7966
 3114SOL    HW220805   2.978   2.766  10.337 -0.6257 -2.6169 -0.3445
 3115SOL     OW20806   1.436   0.180   2.059 -0.7019  0.0954 -0.1362
 3115SOL    HW120807   1.492   0.225   2.123 -2.2785  0.3729  1.0539
 3115SOL    HW220808   1.441   0.090   2.090 -0.4811  0.3625  0.6151
 3116SOL     OW20809   1.552   2.285  10.877  0.4112 -0.8157 -0.4622
 3116SOL    HW120810   1.511   2.208  10.836  1.8557 -1.0456 -1.4728
 3116SOL    HW220811   1.644   2.287  10.851 -0.2140  1.3933 -2.6044
 3117SOL     OW20812   4.639   3.836   8.442  0.3190  0.0448  0.2049
 3117SOL    HW120813   4.708   3.901   8.428  0.6440 -0.2771  0.3109
 3117SOL    HW220814   4.577   3.901   8.478  0.1918  0.5574 -0.9207
 3118SOL     OW20815   0.913   1.519   6.211 -0.1585 -0.0573  0.1553
 3118SOL    HW120816   0.897   1.426   6.200 -2.0288  0.2855 -0.0435
 3118SOL    HW220817   0.833   1.545   6.258  1.2935  0.6395  2.2094
 3119SOL     OW20818   1.073   0.414  13.906 -0.8005  0.3016 -0.6581
 3119SOL    HW120819   1.065   0.498  13.951  0.1437  0.5669 -0.9764
 3119SOL    HW220820   1.158   0.419  13.862 -0.1766  2.9172  0.8174
 3120SOL     OW20821   0.539   1.880   3.661 -0.3337 -0.1555 -0.1253
 3120SOL    HW120822   0.449   1.875   3.694 -0.5501 -0.0057 -0.6818
 3120SOL    HW220823   0.578   1.821   3.725 -0.3174 -0.5493 -0.4979
 3121SOL     OW20824   4.043   2.591   6.606  0.1470  0.0374 -0.0599
 3121SOL    HW120825   3.964   2.611   6.656  0.2273 -2.3822  1.0409
 3121SOL    HW220826   3.998   2.549   6.532 -0.4781  1.9502 -0.7704
 3122SOL     OW20827   4.636   3.942  16.029 -0.0026 -0.5184 -0.3736
 3122SOL    HW120828   4.567   3.887  16.064  0.3982 -1.5248 -1.1805
 3122SOL    HW220829   4.665   3.899  15.948 -0.7653 -0.5274 -0.6385
 3123SOL     OW20830   2.061   4.652   7.885 -0.6578 -0.2789 -0.0239
 3123SOL    HW120831   2.056   4.671   7.791 -3.9836 -0.2437  0.1586
 3123SOL    HW220832   2.148   4.687   7.904 -0.2431 -0.5016 -1.4673
 3124SOL     OW20833   1.632   3.139   1.600  0.5769 -0.0980  0.1274
 3124SOL    HW120834   1.684   3.174   1.672  3.2626 -5.4144  0.7119
 3124SOL    HW220835   1.575   3.214   1.582  0.1355 -0.8392 -1.5305
 3125SOL     OW20836   2.147   4.489   1.261 -0.5165  0.1412  0.0385
 3125SOL    HW120837   2.088   4.483   1.186  1.2261  0.0132 -1.3336
 3125SOL    HW220838   2.102   4.458   1.339 -1.3396  0.6741 -0.2228
 3126SOL     OW20839   0.079   3.616  11.232  0.2066  0.6381 -0.1993
 3126SOL    HW120840   0.174   3.627  11.238  0.1975  1.1594 -1.0026
 3126SOL    HW220841   0.046   3.649  11.315 -0.8727 -0.0225 -0.3745
 3127SOL     OW20842   2.053   2.441   8.948  0.1023  0.2900  0.6581
 3127SOL    HW120843   2.100   2.405   9.023 -1.9816 -0.8250  1.4362
 3127SOL    HW220844   1.983   2.490   8.990 -0.9338 -0.7738  0.1933
 3128SOL     OW20845   3.734   2.117  13.441  0.0036 -0.0366 -0.3914
 3128SOL    HW120846   3.762   2.208  13.449 -1.2660  0.1676  1.8467
 3128SOL    HW220847   3.808   2.079  13.394  1.7301  1.4270  1.1452
 3129SOL     OW20848   1.860   2.886   8.382 -0.7702  0.6463 -0.6740
 3129SOL    HW120849   1.845   2.810   8.327  0.2341 -0.2236  0.2569
 3129SOL    HW220850   1.941   2.860   8.426  0.4935  2.0982 -2.1277
 3130SOL     OW20851   0.214   3.505   3.644  0.2649 -0.3631 -0.2720
 3130SOL    HW120852   0.306   3.478   3.656  0.6621  0.5991 -1.1520
 3130SOL    HW220853   0.172   3.441   3.588  0.3711 -2.4990  2.0658
 3131SOL     OW20854   1.385   1.861   9.428  0.6160 -0.6161  0.4242
 3131SOL    HW120855   1.344   1.916   9.494  0.9730  1.5346 -1.1199
 3131SOL    HW220856   1.478   1.867   9.452  0.8601 -0.7802 -0.4736
 3132SOL     OW20857   4.626   1.186   7.668 -0.1979  0.4693 -0.4714
 3132SOL    HW120858   4.700   1.125   7.671  0.5683  1.5310  2.4119
 3132SOL    HW220859   4.656   1.254   7.728 -3.2866  1.0317  0.4320
 3133SOL     OW20860   2.277   1.802  12.257 -0.4563  0.2336  0.4645
 3133SOL    HW120861   2.244   1.823  12.344 -0.9391  2.0066 -0.1487
 3133SOL    HW220862   2.228   1.721  12.244  1.8176 -0.9644 -0.6680
 3134SOL     OW20863   2.825   4.335   4.703 -0.1549 -0.2854 -0.1427
 3134SOL    HW120864   2.881   4.293   4.638 -1.0267  0.5721 -1.4323
 3134SOL    HW220865   2.855   4.290   4.783  1.4815 -1.9714 -1.7133
 3135SOL     OW20866   2.763   4.709   7.541 -1.3778  0.2745 -0.5783
 3135SOL    HW120867   2.817   4.637   7.575 -4.7066 -2.1909 -0.5073
 3135SOL    HW220868   2.800   4.711   7.452  0.1040 -2.3341 -0.0317
 3136SOL     OW20869   3.781   3.664   2.367  0.1004  0.0070 -0.2169
 3136SOL    HW120870   3.696   3.708   2.376  0.4863  0.2678  2.0325
 3136SOL    HW220871   3.793   3.662   2.272  0.4501  0.4022 -0.1796
 3137SOL     OW20872   2.076   1.542   5.504 -0.1254  0.1013 -0.0082
 3137SOL    HW120873   2.010   1.495   5.452 -0.7908 -0.5910  1.4510
 3137SOL    HW220874   2.157   1.532   5.455 -1.2406  1.9207 -2.1867
 3138SOL     OW20875   3.599   4.525   2.868  0.2355  0.9295  1.1480
 3138SOL    HW120876   3.658   4.538   2.793 -0.9193 -0.8065 -0.0745
 3138SOL    HW220877   3.515   4.507   2.826  1.1229  2.9666 -1.4945
 3139SOL     OW20878   4.327   1.292   7.369  0.1083 -0.7545  0.0300
 3139SOL    HW120879   4.310   1.375   7.414 -2.3371 -0.7920 -0.8595
 3139SOL    HW220880   4.369   1.236   7.435  1.2790 -2.3514 -2.0602
 3140SOL     OW20881   2.701   1.369   7.935  0.6830  0.3348  0.2044
 3140SOL    HW120882   2.698   1.449   7.987  2.2977 -0.1272  1.0303
 3140SOL    HW220883   2.700   1.413   7.850  0.7845  2.3465  1.2426
 3141SOL     OW20884   3.603   3.480   0.795 -0.7910 -0.3767  0.0932
 3141SOL    HW120885   3.541   3.529   0.741  0.6976  1.0246 -0.3579
 3141SOL    HW220886   3.671   3.548   0.794 -2.5546  1.3808 -0.1322
 3142SOL     OW20887   3.245   4.333   5.127 -0.8836  0.4729  0.0936
 3142SOL    HW120888   3.258   4.242   5.151  0.6616  0.9778  1.1098
 3142SOL    HW220889   3.308   4.377   5.183 -0.8088 -0.8637  1.0422
 3143SOL     OW20890   3.310   1.255   8.298 -0.1294  0.5363 -0.1639
 3143SOL    HW120891   3.392   1.213   8.323 -0.4069  1.1744  1.8673
 3143SOL    HW220892   3.315   1.344   8.333  1.8063 -0.7873  2.9612
 3144SOL     OW20893   3.295   0.147   5.054  0.6438  0.3010  0.1595
 3144SOL    HW120894   3.295   0.102   5.139 -1.2000 -0.1890 -0.0926
 3144SOL    HW220895   3.209   0.188   5.056  0.0215 -1.0122  0.5406
 3145SOL     OW20896   1.133   2.457  13.315  0.4011  0.0923  0.3076
 3145SOL    HW120897   1.191   2.499  13.251  1.6036  0.0137  1.3672
 3145SOL    HW220898   1.181   2.458  13.397 -0.3325 -1.6418  0.7709
 3146SOL     OW20899   3.848   4.132   8.364  0.0875 -0.2914 -0.2561
 3146SOL    HW120900   3.930   4.100   8.328 -0.5008 -0.4343 -1.4502
 3146SOL    HW220901   3.808   4.048   8.387 -2.5514  0.3950 -2.3728
 3147SOL     OW20902   3.976   0.245  12.728  0.1132 -0.1319 -0.3942
 3147SOL    HW120903   4.025   0.204  12.800 -0.4915 -0.4714 -0.1702
 3147SOL    HW220904   3.932   0.318  12.771  0.9393  0.1819 -0.0965
 3148SOL     OW20905   4.162   0.183   8.228 -0.6097 -0.6675 -0.1251
 3148SOL    HW120906   4.122   0.096   8.218 -0.4911 -0.8988  1.4541
 3148SOL    HW220907   4.244   0.159   8.271  1.1587  0.3488 -2.9226
 3149SOL     OW20908   3.394   3.445  12.728 -0.1077  0.2377 -0.0725
 3149SOL    HW120909   3.389   3.475  12.637 -1.8481 -0.2586 -0.1467
 3149SOL    HW220910   3.304   3.417  12.743  0.0546  0.6433  1.6560
 3150SOL     OW20911   2.855   2.618   3.887 -0.0101 -0.7578  0.2638
 3150SOL    HW120912   2.941   2.646   3.915 -0.1192 -0.0988 -0.0469
 3150SOL    HW220913   2.792   2.681   3.922  2.3708  2.0106 -0.4623
 3151SOL     OW20914   3.743   2.459   5.355  0.1340 -0.3277 -0.2941
 3151SOL    HW120915   3.660   2.474   5.311  0.0112 -1.9644 -0.6223
 3151SOL    HW220916   3.804   2.465   5.281 -0.4139 -0.9866 -0.8020
 3152SOL     OW20917   1.299   2.636   0.559 -0.0351 -0.0174 -0.1267
 3152SOL    HW120918   1.305   2.716   0.611  0.7517 -0.5344  0.5789
 3152SOL    HW220919   1.389   2.609   0.540 -0.4713 -0.9940 -0.8206
 3153SOL     OW20920   0.826   1.435   2.904  0.2961  0.7481  0.0290
 3153SOL    HW120921   0.763   1.479   2.847  1.0724  0.0109 -1.4043
 3153SOL    HW220922   0.836   1.501   2.973 -1.2053  0.8349  0.1579
 3154SOL     OW20923   2.449   4.304  14.277 -0.3486 -0.1432  0.0495
 3154SOL    HW120924   2.449   4.308  14.181  0.4821  1.3050  0.1120
 3154SOL    HW220925   2.519   4.361  14.309 -0.9179  1.4315 -1.4929
 3155SOL     OW20926   3.742   2.565  11.956 -0.3633  0.1575 -0.2850
 3155SOL    HW120927   3.718   2.475  11.931  2.4404 -1.0431  1.3181
 3155SOL    HW220928   3.773   2.596  11.871 -2.2620  2.0070 -0.3156
 3156SOL     OW20929   0.394   1.002   5.468  0.2437  0.0400 -0.0153
 3156SOL    HW120930   0.454   1.023   5.397  1.0337 -0.3457  0.5375
 3156SOL    HW220931   0.414   0.911   5.488  0.1006  0.1936  0.8627
 3157SOL     OW20932   2.973   0.596  13.058 -0.2038  0.0178  0.0191
 3157SOL    HW120933   2.921   0.518  13.079 -0.6539  0.0155 -1.1247
 3157SOL    HW220934   2.960   0.611  12.964 -0.0671 -0.9451 -0.1547
 3158SOL     OW20935   0.319   0.353   8.068  0.4424 -0.0858 -0.6054
 3158SOL    HW120936   0.407   0.372   8.100  0.8989 -3.4274  0.1079
 3158SOL    HW220937   0.327   0.258   8.060  1.2544  0.1807 -2.8946
 3159SOL     OW20938   4.505   4.134   2.477 -0.4654 -0.3574  0.2280
 3159SOL    HW120939   4.439   4.075   2.441  0.3643 -2.5942  2.4339
 3159SOL    HW220940   4.501   4.108   2.569 -0.6177 -1.3492 -0.0608
 3160SOL     OW20941   3.840   1.783  17.689  0.0298  0.1555  0.2303
 3160SOL    HW120942   3.914   1.807  17.634 -0.3158 -2.7641 -1.5110
 3160SOL    HW220943   3.789   1.717  17.641 -1.1493  1.1083  0.1547
 3161SOL     OW20944   4.472   4.273  10.306 -0.7740 -0.4648 -0.2481
 3161SOL    HW120945   4.548   4.291  10.360 -2.6771  2.6766  1.3673
 3161SOL    HW220946   4.507   4.210  10.243 -0.4521  1.6301 -2.2038
 3162SOL     OW20947   2.940   2.436   0.966 -0.0769  0.0909 -0.2600
 3162SOL    HW120948   2.893   2.413   1.046 -0.2855 -1.9945 -0.9818
 3162SOL    HW220949   2.964   2.348   0.937 -1.9412  0.3789 -2.6232
 3163SOL     OW20950   1.396   2.031  12.298  0.3341 -0.4242 -0.4814
 3163SOL    HW120951   1.433   2.100  12.354 -1.8345  0.3327  0.0126
 3163SOL    HW220952   1.311   2.014  12.337  0.1094  0.2276 -0.6838
 3164SOL     OW20953   3.396   4.052   3.832 -0.2261  0.0078 -0.0403
 3164SOL    HW120954   3.484   4.085   3.813 -0.6156  0.8326 -0.3858
 3164SOL    HW220955   3.351   4.134   3.855 -0.4605 -0.6003  1.7266
 3165SOL     OW20956   1.278   3.105   9.007  0.1668 -0.0626 -0.2827
 3165SOL    HW120957   1.270   3.183   9.062  1.2438 -0.3194  0.2398
 3165SOL    HW220958   1.373   3.096   8.999  0.1063 -0.4058 -0.6317
 3166SOL     OW20959   3.685   4.529  15.955  0.1171  1.2523 -0.1279
 3166SOL    HW120960   3.775   4.548  15.984 -0.0563  2.7031 -0.5058
 3166SOL    HW220961   3.643   4.508  16.038  0.4417 -1.3815 -0.6561
 3167SOL     OW20962   1.332   4.247   3.960 -0.2432 -0.5947  0.0672
 3167SOL    HW120963   1.299   4.159   3.979 -0.5284  0.7903  5.7901
 3167SOL    HW220964   1.414   4.222   4.001  0.5126 -1.9067 -2.2373
 3168SOL     OW20965   1.951   3.974  13.990 -0.3318  1.1069 -0.0455
 3168SOL    HW120966   2.039   3.944  14.013 -1.6922 -1.4068  1.9231
 3168SOL    HW220967   1.910   3.963  14.076  0.6985 -1.7196  0.0660
 3169SOL     OW20968   3.702   2.844   3.911  0.3910  0.2614 -0.8375
 3169SOL    HW120969   3.673   2.935   3.913 -1.0699 -0.2385  0.8009
 3169SOL    HW220970   3.757   2.845   3.990 -0.3494  1.4945 -0.3378
 3170SOL     OW20971   2.241   2.219   7.623  0.2195 -0.3165  0.1474
 3170SOL    HW120972   2.263   2.255   7.537  1.5061 -2.0074 -0.2397
 3170SOL    HW220973   2.153   2.185   7.611  0.3896 -1.0445  1.0384
 3171SOL     OW20974   3.218   3.443   4.744  0.5267 -0.6208  0.6526
 3171SOL    HW120975   3.312   3.431   4.755  0.5814 -1.8159 -1.2449
 3171SOL    HW220976   3.228   3.496   4.664 -0.1448 -0.9340  0.3639
 3172SOL     OW20977   1.468   4.531   3.495 -0.0998  0.2955  0.4646
 3172SOL    HW120978   1.393   4.559   3.442  1.0474  3.5788  0.5331
 3172SOL    HW220979   1.536   4.559   3.433  0.6285  0.8681  1.5109
 3173SOL     OW20980   1.673   0.584   9.421  0.5924  0.5256  0.3481
 3173SOL    HW120981   1.766   0.594   9.401  0.7386 -0.7709  0.3502
 3173SOL    HW220982   1.628   0.664   9.395 -0.5336 -0.4241 -0.5691
 3174SOL     OW20983   1.887   1.090   3.536 -0.4783 -0.4319 -0.3546
 3174SOL    HW120984   1.804   1.127   3.565  1.2585  2.1556  1.3622
 3174SOL    HW220985   1.840   1.017   3.496 -1.1229 -0.6360  0.7864
 3175SOL     OW20986   2.912   3.708   1.106  0.5322  0.6961  0.3778
 3175SOL    HW120987   2.962   3.723   1.185  1.5275 -0.6267 -0.0086
 3175SOL    HW220988   2.883   3.798   1.092 -0.2209  0.1868 -1.4887
 3176SOL     OW20989   2.028   0.914  10.143  0.6707 -0.0428  0.1807
 3176SOL    HW120990   2.079   0.913  10.063  0.5583  0.0398  0.1071
 3176SOL    HW220991   2.046   1.001  10.178 -1.3056 -0.2109  1.6482
 3177SOL     OW20992   0.744   4.634   5.777  0.0961  0.3517 -0.5499
 3177SOL    HW120993   0.663   4.685   5.784 -0.0149 -0.4215  3.4552
 3177SOL    HW220994   0.716   4.545   5.756  0.2912  0.3114 -0.6363
 3178SOL     OW20995   4.057   1.521   7.544 -0.2683  0.1383 -0.5345
 3178SOL    HW120996   4.152   1.528   7.555 -0.0254 -2.1866 -1.0604
 3178SOL    HW220997   4.039   1.565   7.461  0.4049 -1.5028 -1.5648
 3179SOL     OW20998   3.460   0.458   6.554 -0.0605  0.1590  0.0521
 3179SOL    HW120999   3.491   0.548   6.566  3.0314 -1.3929  3.9216
 3179SOL    HW221000   3.398   0.451   6.626  1.5529  1.2872  1.5625
 3180SOL     OW21001   2.162   0.066  17.295  0.6471 -0.3840  0.2703
 3180SOL    HW121002   2.108   0.144  17.280 -1.8346 -2.2020 -0.2282
 3180SOL    HW221003   2.214   0.055  17.216 -0.7279 -0.5712 -0.6135
 3181SOL     OW21004   0.881   2.356   8.290  0.2111  0.0934  0.1983
 3181SOL    HW121005   0.835   2.437   8.267 -0.5113 -0.4687 -0.3366
 3181SOL    HW221006   0.848   2.339   8.378  1.0840 -0.8519  0.3481
 3182SOL     OW21007   4.447   3.626  14.711 -0.0425 -0.4027  0.5660
 3182SOL    HW121008   4.424   3.702  14.765  1.4413 -0.3910  1.1829
 3182SOL    HW221009   4.413   3.547  14.754 -0.5582  0.0544  0.9914
 3183SOL     OW21010   4.058   2.002   2.670 -0.2087 -0.5358 -0.6007
 3183SOL    HW121011   3.969   1.968   2.674  0.7228 -3.1065 -1.3303
 3183SOL    HW221012   4.088   1.990   2.760  0.8125  1.5120 -0.6827
 3184SOL     OW21013   2.693   1.667   7.958 -0.0547  0.7449  0.0536
 3184SOL    HW121014   2.681   1.756   7.992 -1.4388  0.9239 -0.8987
 3184SOL    HW221015   2.611   1.640   7.916 -0.0010 -1.4860  1.4159
 3185SOL     OW21016   2.913   4.020   2.280  0.6099 -0.3445 -0.7742
 3185SOL    HW121017   2.881   3.970   2.355  0.5199 -2.0570 -1.9550
 3185SOL    HW221018   2.937   3.951   2.218 -0.3882 -0.8464 -0.6192
 3186SOL     OW21019   1.022   3.376   4.206  0.3246  0.6485 -0.3130
 3186SOL    HW121020   1.020   3.384   4.301 -0.5188 -1.2986 -0.1790
 3186SOL    HW221021   0.935   3.409   4.184  0.6332  0.9379 -1.0996
 3187SOL     OW21022   1.237   0.034   9.954  0.5044  0.1478 -0.5726
 3187SOL    HW121023   1.225   0.055   9.861 -3.1845  1.1116  0.1549
 3187SOL    HW221024   1.251   4.663   9.962  0.2535  0.2222  0.6928
 3188SOL     OW21025   0.835   3.359  11.171 -0.0238 -0.3418 -0.1444
 3188SOL    HW121026   0.820   3.294  11.240  1.3441  0.6803  1.1227
 3188SOL    HW221027   0.930   3.351  11.162  0.4867  4.0467  1.5382
 3189SOL     OW21028   2.772   2.710   1.268  0.0469  0.1943 -0.1156
 3189SOL    HW121029   2.747   2.620   1.287  0.1365 -0.1793 -1.8179
 3189SOL    HW221030   2.752   2.715   1.175  0.5933  0.1222 -0.2397
 3190SOL     OW21031   2.202   1.804   5.054  0.8622  0.0148 -0.3103
 3190SOL    HW121032   2.240   1.891   5.058  0.9140 -0.0528  0.7120
 3190SOL    HW221033   2.243   1.768   5.133  0.4049  0.4739  0.1391
 3191SOL     OW21034   2.563   2.494   1.248 -0.0905  0.1191  0.3479
 3191SOL    HW121035   2.491   2.541   1.291 -0.5508  1.7741 -2.1697
 3191SOL    HW221036   2.514   2.483   1.166  2.3550  1.9945 -1.3832
 3192SOL     OW21037   1.514   4.580   2.592  0.5036 -0.0784  0.1384
 3192SOL    HW121038   1.574   4.582   2.518 -1.9536 -1.5792 -1.8855
 3192SOL    HW221039   1.476   4.492   2.584  0.7553 -0.2156  0.4334
 3193SOL     OW21040   2.645   3.137   6.929 -0.0147  0.0892 -0.2119
 3193SOL    HW121041   2.711   3.151   6.997  0.4281 -2.1988 -0.1830
 3193SOL    HW221042   2.570   3.108   6.980  0.2605 -1.2010 -0.5282
 3194SOL     OW21043   3.981   4.715   4.198 -0.5809 -0.1740  0.2092
 3194SOL    HW121044   3.931   4.636   4.220 -2.3657  0.8418 -0.1897
 3194SOL    HW221045   3.996   0.028   4.284  1.2358  0.4385 -0.3791
 3195SOL     OW21046   2.009   1.969   8.095 -0.7226  0.5711 -0.9092
 3195SOL    HW121047   1.945   2.037   8.078  2.7442  3.4643 -2.4380
 3195SOL    HW221048   2.010   1.919   8.013  0.7484 -3.0038  1.2946
 3196SOL     OW21049   1.525   3.971   3.188  0.3883  0.0835  0.4429
 3196SOL    HW121050   1.529   3.884   3.226  1.2001 -0.5715 -1.1500
 3196SOL    HW221051   1.474   4.023   3.250  0.3264 -2.2373  2.2980
 3197SOL     OW21052   2.129   1.036  11.958 -0.5062  0.6433 -0.3515
 3197SOL    HW121053   2.089   0.995  11.881 -0.5269 -1.1970  0.6308
 3197SOL    HW221054   2.156   0.953  11.998  0.7539  0.0011 -2.5370
 3198SOL     OW21055   0.325   1.917   5.112 -0.0498  0.0656 -0.3399
 3198SOL    HW121056   0.369   1.991   5.071 -0.2859  0.4361  0.0873
 3198SOL    HW221057   0.378   1.898   5.189  0.1289  1.3792 -0.1562
 3199SOL     OW21058   1.192   0.767   5.526  0.3829 -0.0695  0.0300
 3199SOL    HW121059   1.239   0.777   5.609  1.6625  1.4220 -0.8983
 3199SOL    HW221060   1.235   0.683   5.509  1.3170  0.2347  0.9161
 3200SOL     OW21061   1.582   0.770   5.955  0.0417 -0.0981 -1.0954
 3200SOL    HW121062   1.514   0.723   6.003  1.9349 -0.3380  1.3762
 3200SOL    HW221063   1.663   0.736   5.994 -0.5672  1.7802  1.8551
 3201SOL     OW21064   4.520   1.668  10.901 -0.3350  0.6932  0.0397
 3201SOL    HW121065   4.507   1.749  10.852 -1.8788  0.5413  0.2216
 3201SOL    HW221066   4.590   1.703  10.957  0.7140 -0.5860 -0.4597
 3202SOL     OW21067   4.446   3.092   5.379 -0.0935 -0.1175 -0.3405
 3202SOL    HW121068   4.539   3.110   5.366  0.2625 -1.4370  0.4432
 3202SOL    HW221069   4.446   3.004   5.416  0.3774 -0.2637 -0.6930
 3203SOL     OW21070   0.046   4.276   9.170 -0.1885  0.0784 -0.3225
 3203SOL    HW121071   0.089   4.280   9.084 -0.1346  1.9179 -0.2275
 3203SOL    HW221072   4.702   4.211   9.157 -0.7172  0.9469 -1.8987
 3204SOL     OW21073   1.692   0.720   4.716  0.0065  0.1425 -0.1182
 3204SOL    HW121074   1.627   0.651   4.707  0.1536 -0.0905  0.6242
 3204SOL    HW221075   1.770   0.664   4.711 -0.7739 -0.7685 -2.1380
 3205SOL     OW21076   2.257   1.243   1.181  0.2887  0.0336  0.1515
 3205SOL    HW121077   2.298   1.159   1.161  0.2303  0.0950 -0.2349
 3205SOL    HW221078   2.341   1.288   1.180 -0.2414  1.0448  0.5852
 3206SOL     OW21079   1.046   2.288   0.875  0.2485  0.3351 -0.1961
 3206SOL    HW121080   1.050   2.240   0.958  1.2101 -1.1778 -1.1380
 3206SOL    HW221081   1.075   2.221   0.813 -0.2584  0.5714 -0.6898
 3207SOL     OW21082   1.006   1.574   9.758 -0.1295 -0.4704  0.2251
 3207SOL    HW121083   1.007   1.664   9.790  0.5006 -0.3125 -0.2294
 3207SOL    HW221084   0.929   1.582   9.701  0.3600 -0.1562 -0.4010
 3208SOL     OW21085   1.078   3.096  11.102  0.7618 -0.9425 -0.3013
 3208SOL    HW121086   1.089   3.190  11.088  0.4969 -0.8909 -0.1607
 3208SOL    HW221087   1.149   3.057  11.051  0.9709 -0.9757  0.0142
 3209SOL     OW21088   2.185   2.216   5.268 -0.0435  0.2626  0.3058
 3209SOL    HW121089   2.253   2.282   5.280  1.2133 -0.5852 -2.3719
 3209SOL    HW221090   2.111   2.270   5.237 -0.8953 -1.4364 -0.5921
 3210SOL     OW21091   0.091   3.672   5.446  0.2183 -0.1015  0.9907
 3210SOL    HW121092   0.123   3.756   5.414 -1.3595  0.7772  1.7313
 3210SOL    HW221093   0.154   3.649   5.514  0.6403 -2.8725 -0.3412
 3211SOL     OW21094   2.586   2.925   1.305 -0.3450  0.1219 -0.1391
 3211SOL    HW121095   2.646   2.854   1.283  2.1908  2.0514  0.5537
 3211SOL    HW221096   2.646   3.000   1.303 -0.8726  0.5844  1.4059
 3212SOL     OW21097   1.207   0.484   6.018  0.6268  0.0851  0.0743
 3212SOL    HW121098   1.240   0.419   6.080  0.2217 -0.3400 -0.1573
 3212SOL    HW221099   1.189   0.423   5.946  2.7187  0.3841 -0.6889
 3213SOL     OW21100   4.101   0.554   2.103 -0.0162 -0.1769 -0.0292
 3213SOL    HW121101   4.141   0.640   2.086  0.6554 -1.2671 -4.0899
 3213SOL    HW221102   4.018   0.593   2.132 -0.1853 -0.9964  0.5659
 3214SOL     OW21103   2.436   0.023   3.794 -0.9528  0.0067  0.2554
 3214SOL    HW121104   2.499   0.096   3.794  1.8878 -2.4533 -0.4445
 3214SOL    HW221105   2.410   0.014   3.702 -1.0518  0.4460  0.2361
 3215SOL     OW21106   2.089   0.610   5.534 -1.0209  0.3464 -0.1910
 3215SOL    HW121107   2.064   0.555   5.460 -0.7105 -1.1228  0.7869
 3215SOL    HW221108   2.010   0.664   5.539 -0.3877  1.2037  0.4180
 3216SOL     OW21109   3.559   4.523  17.096 -0.3033  0.5911  0.7079
 3216SOL    HW121110   3.575   4.534  17.002  0.3113 -0.4549  0.6882
 3216SOL    HW221111   3.486   4.461  17.096  0.6497 -0.5490 -1.7319
 3217SOL     OW21112   3.157   3.412   7.477  0.1091 -0.4301  0.3696
 3217SOL    HW121113   3.253   3.411   7.483 -0.0709 -0.6964  2.8846
 3217SOL    HW221114   3.139   3.321   7.498  0.2100 -0.6050 -0.2787
 3218SOL     OW21115   2.971   1.611  13.202 -0.4551  0.0818 -0.0205
 3218SOL    HW121116   2.933   1.607  13.289  2.2852 -0.5661  1.1345
 3218SOL    HW221117   2.914   1.683  13.175  1.2261  1.7375  0.8799
 3219SOL     OW21118   2.991   0.274   8.423  1.2113 -0.1508 -0.0237
 3219SOL    HW121119   3.068   0.329   8.438  1.6387 -1.9336  4.5443
 3219SOL    HW221120   2.937   0.340   8.380 -0.5020 -0.2388  1.9896
 3220SOL     OW21121   2.639   2.950   2.116  0.0764 -0.8287  0.3284
 3220SOL    HW121122   2.642   2.859   2.147  0.9291 -0.2013  2.1148
 3220SOL    HW221123   2.637   2.941   2.021  3.7957  1.6459  0.0236
 3221SOL     OW21124   4.650   1.207   9.583  0.1644  0.7104 -0.7288
 3221SOL    HW121125   4.675   1.127   9.535  2.3054  1.0247 -0.1527
 3221SOL    HW221126   4.555   1.202   9.572  0.0778  1.7455 -0.4760
 3222SOL     OW21127   4.396   3.746  17.684  0.4954  0.0795  0.8324
 3222SOL    HW121128   4.414   3.668  17.631 -1.5167 -1.0649  1.8515
 3222SOL    HW221129   4.308   3.771  17.657  0.9085 -0.3720 -0.9640
 3223SOL     OW21130   4.008   2.712   4.458  0.6236 -0.2379 -0.0615
 3223SOL    HW121131   3.959   2.663   4.524 -2.1348  0.7224 -1.3873
 3223SOL    HW221132   4.003   2.805   4.477 -1.3566 -0.5366  0.9100
 3224SOL     OW21133   1.680   2.974   2.351 -0.3706  0.4759  0.0799
 3224SOL    HW121134   1.638   2.950   2.268 -0.7035  0.0184  0.3888
 3224SOL    HW221135   1.705   3.063   2.325  1.3756  0.0844  0.4035
 3225SOL     OW21136   0.894   2.782  10.528  0.0870 -0.3598  0.3464
 3225SOL    HW121137   0.987   2.765  10.508  0.2828 -0.7251  1.5852
 3225SOL    HW221138   0.892   2.750  10.618 -0.4570  0.5710  0.6599
 3226SOL     OW21139   2.416   2.287   9.201  0.1119 -0.0178 -0.3680
 3226SOL    HW121140   2.408   2.372   9.244 -2.2765 -1.1768  1.4377
 3226SOL    HW221141   2.347   2.238   9.245 -0.1118  0.4109 -0.2459
 3227SOL     OW21142   3.997   4.330   0.530 -0.2587 -0.2989 -0.2185
 3227SOL    HW121143   4.081   4.342   0.574  0.1160  0.7627 -1.2295
 3227SOL    HW221144   4.009   4.383   0.451 -4.0194  0.5371 -0.2313
 3228SOL     OW21145   2.925   0.510  11.793  0.4077  0.1864 -0.1218
 3228SOL    HW121146   2.985   0.582  11.813  1.0196 -0.0497 -1.0660
 3228SOL    HW221147   2.843   0.558  11.807  1.8392  1.2611  4.3082
 3229SOL     OW21148   4.513   3.192  16.165 -0.1938 -0.1412 -0.0549
 3229SOL    HW121149   4.537   3.101  16.150 -1.1652 -0.3725 -0.2084
 3229SOL    HW221150   4.595   3.234  16.190  0.6641 -0.6621 -2.0045
 3230SOL     OW21151   2.513   1.901   2.489  0.0159 -0.8305  0.0563
 3230SOL    HW121152   2.468   1.862   2.415 -0.7573  1.1553 -0.5223
 3230SOL    HW221153   2.605   1.879   2.473  0.2970 -0.9210  1.7513
 3231SOL     OW21154   3.023   1.263   1.665 -0.2850  0.5484  0.1125
 3231SOL    HW121155   2.976   1.180   1.670  0.1462  0.2973 -0.0186
 3231SOL    HW221156   3.085   1.251   1.738  0.2491  3.9395  0.1902
 3232SOL     OW21157   0.660   4.722   4.965 -0.5751 -0.4699 -0.7718
 3232SOL    HW121158   0.590   4.718   5.030  1.5078  1.4713  1.5992
 3232SOL    HW221159   0.638   0.078   4.916 -1.9041  0.2698  1.0511
 3233SOL     OW21160   3.126   3.395   9.189  0.0739  0.2908 -0.2085
 3233SOL    HW121161   3.190   3.380   9.258 -0.1719  0.1483 -0.0103
 3233SOL    HW221162   3.091   3.306   9.181  1.5607 -0.2994 -0.2475
 3234SOL     OW21163   3.670   2.079   3.395 -0.6824  0.4376  0.0766
 3234SOL    HW121164   3.715   2.081   3.479 -1.5236  1.1755  0.5134
 3234SOL    HW221165   3.637   1.989   3.402 -0.5016  0.4115  0.6339
 3235SOL     OW21166   3.513   4.478   5.182 -0.6799 -0.1345 -0.4403
 3235SOL    HW121167   3.495   4.504   5.272  1.3605 -0.4767  0.0749
 3235SOL    HW221168   3.562   4.396   5.194  1.7571  1.2112 -1.2815
 3236SOL     OW21169   0.476   2.643   4.402 -0.4018  0.0231  0.1390
 3236SOL    HW121170   0.512   2.679   4.483 -0.4852  0.8469 -0.1881
 3236SOL    HW221171   0.555   2.627   4.351 -0.5959 -1.3687  0.2891
 3237SOL     OW21172   1.020   1.035   1.886  0.3718 -0.6672  0.6463
 3237SOL    HW121173   0.978   1.121   1.897  1.1028 -0.2089 -0.1420
 3237SOL    HW221174   0.979   1.004   1.805 -0.5511  2.1051  0.0317
 3238SOL     OW21175   3.466   1.977  16.359  0.4624  0.3319 -0.5201
 3238SOL    HW121176   3.480   1.885  16.379 -0.9624  0.6355  1.9126
 3238SOL    HW221177   3.370   1.976  16.370  0.4211  0.2864 -0.8890
 3239SOL     OW21178   1.802   1.848  16.057  0.0403 -0.8813 -0.2126
 3239SOL    HW121179   1.842   1.884  15.977  0.4537  0.1022  0.4386
 3239SOL    HW221180   1.723   1.812  16.018 -2.1681 -0.2178  3.7422
 3240SOL     OW21181   2.407   3.733   2.260 -0.0803 -0.2669  0.1590
 3240SOL    HW121182   2.442   3.758   2.345  0.5345  2.9404 -1.0188
 3240SOL    HW221183   2.318   3.719   2.293 -0.6798  0.1217 -1.3054
 3241SOL     OW21184   3.745   2.711   7.318  0.3694 -0.3535  0.2371
 3241SOL    HW121185   3.834   2.745   7.330 -0.0129  1.1903 -1.3689
 3241SOL    HW221186   3.764   2.631   7.367 -0.0393 -0.9212 -0.5414
 3242SOL     OW21187   3.786   4.592   4.709  0.1519 -0.2098 -0.1654
 3242SOL    HW121188   3.813   4.502   4.687  1.6803  0.5775 -1.4792
 3242SOL    HW221189   3.741   4.594   4.794  0.2882 -2.9129 -0.0033
 3243SOL     OW21190   0.567   4.567   6.043 -0.2225  0.2975  0.3564
 3243SOL    HW121191   0.589   4.478   6.013 -0.9858  0.3583 -0.3710
 3243SOL    HW221192   0.482   4.590   6.006 -0.8382  0.1729  1.6614
 3244SOL     OW21193   0.748   2.565   2.280 -0.4210  0.3639  0.2483
 3244SOL    HW121194   0.696   2.640   2.250 -2.5100 -1.1055  0.2335
 3244SOL    HW221195   0.694   2.542   2.355 -0.2078  1.1477  0.6422
 3245SOL     OW21196   4.187   4.604  15.832 -0.0373  0.1834 -0.2164
 3245SOL    HW121197   4.250   4.676  15.841 -1.2564  1.3553 -1.1293
 3245SOL    HW221198   4.119   4.621  15.897  2.2298  0.1731  2.1425
 3246SOL     OW21199   4.504   1.049  13.934 -0.0415  0.1435  0.4161
 3246SOL    HW121200   4.459   0.990  13.874 -0.4825  0.2183  0.6743
 3246SOL    HW221201   4.438   1.117  13.942 -0.2987 -0.5781  4.4948
 3247SOL     OW21202   3.979   3.427   5.493 -0.4546  0.1912  0.3821
 3247SOL    HW121203   3.939   3.372   5.561 -0.2276  2.6302  2.5078
 3247SOL    HW221204   4.037   3.364   5.450 -0.4644  1.2201 -1.1296
 3248SOL     OW21205   1.801   2.659  12.192 -0.1852  0.0395 -0.3485
 3248SOL    HW121206   1.806   2.580  12.138  1.3250  0.9747 -1.5691
 3248SOL    HW221207   1.888   2.698  12.180  0.3139 -0.2032  2.3634
 3249SOL     OW21208   1.615   2.432   9.506 -0.7871 -0.2173  0.7562
 3249SOL    HW121209   1.565   2.353   9.526  0.1804 -1.0388 -0.1047
 3249SOL    HW221210   1.699   2.392   9.486 -0.7646 -0.0059  0.4283
 3250SOL     OW21211   0.691   1.132   8.637 -0.1311  0.5511 -0.2553
 3250SOL    HW121212   0.642   1.050   8.647  0.3403  0.1675 -1.1460
 3250SOL    HW221213   0.735   1.116   8.553 -1.2745 -2.6044 -0.2857
 3251SOL     OW21214   1.900   3.529  15.551 -0.4410  0.0399  0.4915
 3251SOL    HW121215   1.978   3.570  15.514 -0.2502  1.3209  2.2845
 3251SOL    HW221216   1.900   3.444  15.508 -0.1138  0.6203 -0.6497
 3252SOL     OW21217   4.181   2.402   6.821 -0.6918  0.1685 -0.4072
 3252SOL    HW121218   4.242   2.335   6.851 -1.0566 -0.2832 -0.6653
 3252SOL    HW221219   4.215   2.423   6.734 -0.8533  0.7681 -0.3229
 3253SOL     OW21220   1.136   2.111  15.302 -0.1694  0.2665  0.4299
 3253SOL    HW121221   1.065   2.071  15.252  1.5717 -0.5122 -1.4201
 3253SOL    HW221222   1.213   2.054  15.292  0.8588  1.9457 -1.0086
 3254SOL     OW21223   1.206   2.510   5.703 -0.1932 -0.2349  0.1638
 3254SOL    HW121224   1.271   2.454   5.745 -0.4969 -2.1882 -2.0004
 3254SOL    HW221225   1.187   2.570   5.776 -1.9001 -1.7305  0.9633
 3255SOL     OW21226   3.473   0.155   1.671 -0.1206  0.7182  0.5413
 3255SOL    HW121227   3.382   0.146   1.700  0.3772 -0.6556  1.6871
 3255SOL    HW221228   3.464   0.163   1.576 -0.5196  1.7213  0.6684
 3256SOL     OW21229   0.161   0.690  11.679 -0.3497  0.2008 -0.0700
 3256SOL    HW121230   0.221   0.621  11.651 -0.2568 -0.2919  1.3322
 3256SOL    HW221231   0.177   0.756  11.611  1.6894 -0.9645 -0.7047
 3257SOL     OW21232   1.571   2.511   4.931  0.2001 -0.2620  0.3093
 3257SOL    HW121233   1.549   2.423   4.963  0.4595 -0.2316  0.5759
 3257SOL    HW221234   1.524   2.566   4.993  1.5078  1.4426 -0.2220
 3258SOL     OW21235   1.016   1.198   4.207 -0.2404  0.1099 -0.3586
 3258SOL    HW121236   1.039   1.105   4.201  0.7719  0.4289 -1.3868
 3258SOL    HW221237   1.103   1.230   4.233 -0.2263  1.2729 -1.7904
 3259SOL     OW21238   1.632   4.446   7.278 -0.0275  0.7663 -0.1351
 3259SOL    HW121239   1.552   4.414   7.237  1.2369 -2.1760 -0.3221
 3259SOL    HW221240   1.579   4.515   7.317  0.7520  1.0271  0.4786
 3260SOL     OW21241   1.548   3.033   4.495 -0.2998  0.7273 -0.5874
 3260SOL    HW121242   1.587   3.064   4.413 -0.6032  0.7237 -0.7354
 3260SOL    HW221243   1.554   3.110   4.552 -1.5941  2.2113 -2.4089
 3261SOL     OW21244   0.634   3.900   6.006 -0.0358  1.1247  0.6296
 3261SOL    HW121245   0.609   3.921   5.916 -0.2864  1.8074  0.8556
 3261SOL    HW221246   0.572   3.833   6.038  1.7434 -0.6024  0.4332
 3262SOL     OW21247   3.153   2.113   4.609  0.1241 -0.1747 -0.6506
 3262SOL    HW121248   3.169   2.141   4.519  0.6707 -1.9800 -1.1316
 3262SOL    HW221249   3.235   2.137   4.652 -1.1025  2.6173  0.1006
 3263SOL     OW21250   3.726   0.356  13.623 -0.0351 -0.6008  0.0132
 3263SOL    HW121251   3.750   0.436  13.576  1.4085 -0.9175  0.2061
 3263SOL    HW221252   3.631   0.362  13.613 -0.2542 -2.2404  1.0432
 3264SOL     OW21253   2.357   4.349   2.457 -0.3285  0.7112 -0.5503
 3264SOL    HW121254   2.404   4.265   2.457  0.5965  1.2177 -1.3203
 3264SOL    HW221255   2.267   4.328   2.434 -0.7496  0.1734  1.5870
 3265SOL     OW21256   3.069   3.529   5.454  0.0298  0.0355 -0.1992
 3265SOL    HW121257   3.079   3.516   5.548 -0.1480  1.5443  0.0243
 3265SOL    HW221258   2.973   3.529   5.448  0.0130 -1.4393  0.1228
 3266SOL     OW21259   4.673   0.266   0.095 -0.2535 -0.2093  0.5107
 3266SOL    HW121260   4.628   0.225   0.020  1.2341 -1.4240  0.2951
 3266SOL    HW221261   4.604   0.295   0.154 -1.5548 -2.8488  0.2651
 3267SOL     OW21262   0.985   4.344   6.818  0.6501 -0.2366 -0.4520
 3267SOL    HW121263   0.960   4.369   6.907  0.2869  2.5814 -1.3432
 3267SOL    HW221264   0.969   4.425   6.768  0.4966 -0.8841 -1.4583
 3268SOL     OW21265   0.655   3.392   2.613 -0.1784  0.7268 -0.6260
 3268SOL    HW121266   0.636   3.329   2.682  0.4439  2.8066  1.4187
 3268SOL    HW221267   0.566   3.396   2.578 -1.6592 -0.6962  3.0316
 3269SOL     OW21268   3.377   1.581   6.804  0.0347 -0.1093 -0.0116
 3269SOL    HW121269   3.300   1.629   6.834  0.6558  1.1043 -0.3293
 3269SOL    HW221270   3.372   1.602   6.710 -1.8293  0.7351  0.2835
 3270SOL     OW21271   0.304   3.794   2.484  0.2909 -0.2569 -0.7136
 3270SOL    HW121272   0.303   3.737   2.560  1.2151  0.2517 -0.3262
 3270SOL    HW221273   0.344   3.742   2.414 -1.9360  0.2720 -2.3890
 3271SOL     OW21274   0.053   0.235   8.064 -0.1737 -0.2725 -0.1089
 3271SOL    HW121275   0.123   0.300   8.070  0.5903 -1.1463  0.2770
 3271SOL    HW221276   0.081   0.158   8.015  0.9285  1.1560 -1.7181
 3272SOL     OW21277   2.520   2.861  12.341  0.1267 -0.6756  0.1475
 3272SOL    HW121278   2.548   2.853  12.432 -0.5038 -1.6931  0.2589
 3272SOL    HW221279   2.554   2.786  12.293  1.3721 -0.2856  0.4146
 3273SOL     OW21280   1.166   2.643   4.631  0.1664 -0.1005  0.3743
 3273SOL    HW121281   1.227   2.642   4.705  1.5778  0.6765 -0.7798
 3273SOL    HW221282   1.136   2.733   4.645  0.0654  0.1063 -1.1549
 3274SOL     OW21283   0.427   3.350   8.200 -1.0682  0.1976 -0.4386
 3274SOL    HW121284   0.417   3.380   8.290 -2.5318 -1.4823 -0.0482
 3274SOL    HW221285   0.518   3.376   8.191  0.2300 -4.1187  0.3059
 3275SOL     OW21286   1.532   0.251   5.446  0.4973 -0.2388 -0.4620
 3275SOL    HW121287   1.496   0.337   5.428  0.1690 -0.0543  1.0703
 3275SOL    HW221288   1.553   0.238   5.354 -1.6850 -2.4429 -0.6442
 3276SOL     OW21289   3.260   4.391  12.179 -0.0104 -0.1774  0.0648
 3276SOL    HW121290   3.293   4.389  12.269 -0.5525 -0.3030  0.2599
 3276SOL    HW221291   3.336   4.357  12.131 -1.1738 -0.9146 -1.2274
 3277SOL     OW21292   0.655   0.203   3.391  0.2668 -0.4183 -0.0758
 3277SOL    HW121293   0.642   0.115   3.426 -1.4204  0.1085  0.6231
 3277SOL    HW221294   0.730   0.195   3.333  2.1438 -0.1694  2.2886
 3278SOL     OW21295   1.776   3.153  12.885 -0.2517 -0.3897  0.3555
 3278SOL    HW121296   1.700   3.141  12.942 -0.9799  1.8767 -0.1189
 3278SOL    HW221297   1.741   3.131  12.798 -0.2837  1.0953 -0.0165
 3279SOL     OW21298   2.425   1.152   0.356  0.4316 -0.1814 -0.2245
 3279SOL    HW121299   2.349   1.113   0.399  0.7741 -0.0699  0.4757
 3279SOL    HW221300   2.408   1.243   0.382  1.0169 -0.5207  1.2894
 3280SOL     OW21301   3.616   3.734   6.971 -0.3956  0.0746  0.1870
 3280SOL    HW121302   3.584   3.787   6.899 -1.0221  0.8756  1.0622
 3280SOL    HW221303   3.606   3.647   6.931 -0.7881  0.0531  0.3354
 3281SOL     OW21304   3.222   4.360   6.936  0.4286  0.1764 -0.5630
 3281SOL    HW121305   3.135   4.326   6.917  0.4236  0.3043 -0.7680
 3281SOL    HW221306   3.273   4.329   6.861 -1.0915  0.3333 -1.6484
 3282SOL     OW21307   1.621   1.003   2.293 -0.0814 -0.5677 -0.4818
 3282SOL    HW121308   1.582   0.918   2.273  0.2676 -1.0939  1.1028
 3282SOL    HW221309   1.609   1.000   2.388 -0.4279 -2.4715 -0.5884
 3283SOL     OW21310   3.564   1.257  15.124 -0.6272  0.0799  0.4058
 3283SOL    HW121311   3.488   1.203  15.104 -0.2487 -0.2952 -0.0124
 3283SOL    HW221312   3.526   1.343  15.142  0.3943  0.2241  1.9071
 3284SOL     OW21313   1.057   3.885  16.111 -0.2871 -0.1553  0.1902
 3284SOL    HW121314   1.150   3.903  16.129  0.1136 -0.5609 -1.4317
 3284SOL    HW221315   1.048   3.791  16.097 -0.7074 -0.2116  0.8710
 3285SOL     OW21316   2.591   4.181  16.385 -0.2521 -0.1836 -0.0218
 3285SOL    HW121317   2.672   4.170  16.335  0.2291  0.1019  0.6925
 3285SOL    HW221318   2.537   4.195  16.307  1.9368 -1.9255 -1.8725
 3286SOL     OW21319   3.175   3.011  15.706  0.3588 -0.4072 -0.5745
 3286SOL    HW121320   3.086   2.977  15.695 -1.3067  2.8260  2.9068
 3286SOL    HW221321   3.200   2.974  15.791 -1.3556  0.1828  0.1970
 3287SOL     OW21322   3.503   3.386  13.828  0.1047  0.3268 -0.4631
 3287SOL    HW121323   3.494   3.481  13.820 -3.1482 -0.0437 -1.0651
 3287SOL    HW221324   3.413   3.364  13.852 -0.6121  1.1822 -2.4323
 3288SOL     OW21325   4.033   3.829   5.639 -0.0770 -0.0884  0.5919
 3288SOL    HW121326   4.054   3.798   5.551 -0.7405 -2.9230  1.4249
 3288SOL    HW221327   4.062   3.919   5.653  0.6514 -0.1535 -0.5031
 3289SOL     OW21328   3.695   3.287   8.652  0.7158 -0.2925  0.4992
 3289SOL    HW121329   3.758   3.278   8.723  0.8982  0.3999  0.4213
 3289SOL    HW221330   3.672   3.196   8.633  0.0743  0.1324 -0.7607
 3290SOL     OW21331   0.524   3.318   0.784  0.2649  0.5201  0.2345
 3290SOL    HW121332   0.489   3.264   0.714  0.0119  0.1411  0.6518
 3290SOL    HW221333   0.500   3.406   0.754  0.3284  0.4611  0.0158
 3291SOL     OW21334   1.687   1.989  17.421  0.4576 -0.1345  0.1366
 3291SOL    HW121335   1.715   1.901  17.395 -1.0594 -1.0035  1.4507
 3291SOL    HW221336   1.700   1.969  17.514 -2.1772  2.2839  1.0184
 3292SOL     OW21337   1.064   4.491  10.989  0.0047  0.2413 -0.4958
 3292SOL    HW121338   1.118   4.464  11.063  0.0021 -1.3926 -1.0862
 3292SOL    HW221339   0.989   4.522  11.040 -1.7311 -1.0100 -2.3250
 3293SOL     OW21340   4.000   2.561   7.969 -0.1607 -0.2661  0.1194
 3293SOL    HW121341   4.035   2.568   8.058 -1.8981  0.3755  0.7358
 3293SOL    HW221342   4.071   2.506   7.936 -1.9855 -2.4414 -0.1788
 3294SOL     OW21343   4.185   0.724   7.449 -0.2862 -0.1721  0.1870
 3294SOL    HW121344   4.153   0.810   7.423 -0.1688 -0.9026 -2.4056
 3294SOL    HW221345   4.113   0.669   7.415 -0.6654  0.2746  0.2641
 3295SOL     OW21346   0.949   0.989   9.969 -0.2641 -0.9585  0.1586
 3295SOL    HW121347   0.883   1.058   9.977  0.3997 -0.0444 -2.3277
 3295SOL    HW221348   1.025   1.035   9.931 -0.3835 -0.7484  0.1755
 3296SOL     OW21349   1.178   0.778   4.471 -0.0246 -0.4826  0.0700
 3296SOL    HW121350   1.098   0.831   4.471 -0.7126 -1.5309  0.4498
 3296SOL    HW221351   1.197   0.784   4.378  1.5360 -0.0277  0.4145
 3297SOL     OW21352   2.023   4.640   2.673 -0.3070 -0.2202  0.8534
 3297SOL    HW121353   2.038   4.704   2.743  0.6166 -0.3956  0.8167
 3297SOL    HW221354   1.929   4.629   2.679 -0.4729  2.0228  2.3256
 3298SOL     OW21355   2.546   1.003  15.238 -0.2661  0.3004 -0.3245
 3298SOL    HW121356   2.557   0.913  15.269 -2.8274  0.4433  0.9840
 3298SOL    HW221357   2.634   1.021  15.206  0.4831  0.8017  1.9978
 3299SOL     OW21358   3.278   0.761   7.409  0.1300  0.0052 -0.8881
 3299SOL    HW121359   3.285   0.682   7.462 -0.4536 -0.9629 -2.2549
 3299SOL    HW221360   3.185   0.785   7.419  0.8411  2.5201 -0.2675
 3300SOL     OW21361   0.875   3.661   3.418  0.2877 -0.2430 -0.1256
 3300SOL    HW121362   0.924   3.726   3.367  0.5787  1.1127  1.9071
 3300SOL    HW221363   0.934   3.585   3.425 -0.7254 -1.2800 -2.5992
 3301SOL     OW21364   3.328   2.334   4.151  0.6778 -0.2324 -0.6195
 3301SOL    HW121365   3.419   2.319   4.175 -0.0985 -0.7225  2.0336
 3301SOL    HW221366   3.337   2.425   4.122 -0.3013 -0.3715 -1.3688
 3302SOL     OW21367   4.713   1.853   4.523 -0.0787  0.2634  0.5068
 3302SOL    HW121368   4.722   1.790   4.596 -0.4500  2.8844  2.8123
 3302SOL    HW221369   0.075   1.832   4.485 -0.8991 -0.0237 -1.1824
 3303SOL     OW21370   2.905   3.855   2.768 -0.4862  0.2951  0.0094
 3303SOL    HW121371   2.851   3.897   2.835 -0.8712 -0.0049 -0.1151
 3303SOL    HW221372   2.909   3.765   2.799  2.3006  0.3225 -0.2126
 3304SOL     OW21373   4.040   1.309   3.927 -0.2060 -0.4108  0.5301
 3304SOL    HW121374   4.003   1.379   3.981  0.3006  1.8506 -2.0594
 3304SOL    HW221375   3.969   1.296   3.863  1.3724 -0.4453 -1.2153
 3305SOL     OW21376   3.886   0.889   6.449  0.8258  0.4630  0.2739
 3305SOL    HW121377   3.828   0.839   6.391 -0.4208  0.5704  1.4165
 3305SOL    HW221378   3.829   0.920   6.519  0.9594  1.0526  0.1224
 3306SOL     OW21379   4.242   3.239  10.343  0.2129  0.2517 -0.3836
 3306SOL    HW121380   4.303   3.308  10.317 -0.1367  0.0834 -1.6091
 3306SOL    HW221381   4.294   3.203  10.415  0.7075 -0.2433 -0.9912
 3307SOL     OW21382   1.799   1.771   2.722  0.2948  0.1672 -0.0584
 3307SOL    HW121383   1.888   1.753   2.694  0.1970 -0.7727  0.2010
 3307SOL    HW221384   1.809   1.830   2.796 -1.2221 -1.8465  1.7705
 3308SOL     OW21385   2.865   1.791   1.874  0.2447 -0.4967  0.2051
 3308SOL    HW121386   2.901   1.727   1.935  0.1325  0.4441  1.2642
 3308SOL    HW221387   2.935   1.852   1.848 -0.2001  0.0461  0.2923
 3309SOL     OW21388   3.299   0.357   9.677 -0.7978  0.1086 -0.3757
 3309SOL    HW121389   3.332   0.401   9.598  0.5422  3.1598  1.8716
 3309SOL    HW221390   3.378   0.333   9.726 -1.7092 -0.4926  0.7958
 3310SOL     OW21391   3.098   4.355  12.825  0.3028 -0.0945 -0.1285
 3310SOL    HW121392   3.026   4.374  12.765  0.3201  0.3779 -0.0012
 3310SOL    HW221393   3.151   4.304  12.764 -0.3308  0.9256 -1.5359
 3311SOL     OW21394   3.435   2.206   8.700  0.1395  0.0494 -0.3622
 3311SOL    HW121395   3.389   2.283   8.667 -4.5609 -1.2513  3.0948
 3311SOL    HW221396   3.423   2.143   8.629 -0.7915 -0.2928  0.0891
 3312SOL     OW21397   3.507   1.097   3.998  0.1877  0.3041 -0.0423
 3312SOL    HW121398   3.423   1.057   3.976  0.0250  1.0151 -0.7126
 3312SOL    HW221399   3.545   1.035   4.060 -0.6151 -0.8357 -0.7008
 3313SOL     OW21400   4.383   3.235   0.742  0.6486  0.1244  0.2046
 3313SOL    HW121401   4.421   3.323   0.740  1.0135 -0.0376 -0.0881
 3313SOL    HW221402   4.295   3.262   0.766 -0.5516 -1.8965 -2.0191
 3314SOL     OW21403   2.291   2.735  11.147  0.4893 -0.1451  0.3193
 3314SOL    HW121404   2.225   2.729  11.216  0.7124 -1.4091  0.4241
 3314SOL    HW221405   2.232   2.789  11.094  0.4646  0.5625  1.0677
 3315SOL     OW21406   1.845   3.416   3.779 -0.2441 -0.2792 -0.4665
 3315SOL    HW121407   1.916   3.480   3.782 -1.4723  1.0927 -0.5840
 3315SOL    HW221408   1.805   3.424   3.692 -0.0357 -1.9176 -0.7122
 3316SOL     OW21409   0.123   0.571   0.063 -0.1517  0.7638 -0.9635
 3316SOL    HW121410   0.075   0.501   0.108  0.4063  0.7103 -0.4553
 3316SOL    HW221411   0.180   0.523   0.003  1.3550 -0.1338  1.2057
 3317SOL     OW21412   4.231   0.445   3.117  0.0737  0.4689  0.6227
 3317SOL    HW121413   4.297   0.434   3.048  1.8901 -0.3463  2.4934
 3317SOL    HW221414   4.206   0.355   3.139 -1.7894  0.4977 -1.3703
 3318SOL     OW21415   4.361   1.265   3.676  0.1674  0.5945 -0.4905
 3318SOL    HW121416   4.332   1.312   3.598 -0.7976  1.3408  0.3247
 3318SOL    HW221417   4.453   1.287   3.692  0.3890 -1.7943  1.5592
 3319SOL     OW21418   1.347   1.272   2.565 -0.4640  0.4409  0.1466
 3319SOL    HW121419   1.300   1.203   2.519  1.5187  0.1615 -1.4143
 3319SOL    HW221420   1.314   1.264   2.655  0.3511  2.1959  0.5971
 3320SOL     OW21421   3.429   0.674   2.292 -0.5297 -0.0698 -0.4758
 3320SOL    HW121422   3.475   0.756   2.312 -1.1382  0.1742 -0.0538
 3320SOL    HW221423   3.507   0.621   2.275  0.5998  1.1610  0.8829
 3321SOL     OW21424   4.427   4.373  15.234 -0.0936  0.2159 -0.0850
 3321SOL    HW121425   4.516   4.401  15.256 -0.4007  3.1468 -2.4800
 3321SOL    HW221426   4.407   4.310  15.303  0.0655  1.1381  0.8099
 3322SOL     OW21427   2.177   2.345  13.897 -0.5789  0.6112 -0.3649
 3322SOL    HW121428   2.195   2.254  13.922  0.0782  0.8421 -0.0183
 3322SOL    HW221429   2.100   2.348  13.839  1.2438  1.6210 -2.7271
 3323SOL     OW21430   1.086   3.666  15.277 -0.4379  0.2898 -0.2835
 3323SOL    HW121431   1.041   3.600  15.223 -1.0065  0.8291 -0.4633
 3323SOL    HW221432   1.155   3.705  15.224 -0.5645 -0.0293 -0.6866
 3324SOL     OW21433   4.462   4.657   6.383 -0.5488 -0.6902 -0.0433
 3324SOL    HW121434   4.503   4.634   6.299 -2.9652  1.1283 -1.7278
 3324SOL    HW221435   4.514   4.603   6.442  1.8412  0.3128 -1.2280
 3325SOL     OW21436   2.523   3.584   7.406 -0.5659 -0.1185  0.2018
 3325SOL    HW121437   2.495   3.537   7.485  0.1973 -3.9339 -1.8418
 3325SOL    HW221438   2.545   3.509   7.352 -0.7315  1.6862 -2.3748
 3326SOL     OW21439   2.676   2.373   8.308  0.7540  0.5902  0.5954
 3326SOL    HW121440   2.614   2.395   8.377  0.0421  0.8624 -0.1352
 3326SOL    HW221441   2.653   2.441   8.245  1.2382  0.5869  0.4111
 3327SOL     OW21442   2.006   3.745  12.896 -0.5728  0.0109 -0.3009
 3327SOL    HW121443   1.947   3.806  12.851  0.6946  0.0504 -1.8938
 3327SOL    HW221444   2.081   3.801  12.915 -0.7936 -0.5133  2.0275
 3328SOL     OW21445   2.468   0.168   7.176 -0.3911  0.2201 -0.8506
 3328SOL    HW121446   2.467   0.134   7.265  0.6574 -0.4345 -1.0799
 3328SOL    HW221447   2.375   0.156   7.158 -0.2686 -0.3626 -1.1135
 3329SOL     OW21448   2.775   3.094   1.162  0.0639  0.0340 -0.1240
 3329SOL    HW121449   2.795   3.187   1.171  0.1771 -0.0381  0.3407
 3329SOL    HW221450   2.854   3.077   1.110 -1.2280 -1.4861 -1.5946
 3330SOL     OW21451   3.661   0.785  16.242  0.0552  0.2950  0.3494
 3330SOL    HW121452   3.715   0.758  16.168 -0.8312 -0.6976  0.0598
 3330SOL    HW221453   3.727   0.764  16.308 -1.4764 -0.7175  1.5716
 3331SOL     OW21454   0.973   2.114   2.995  0.7568 -0.2331 -0.2201
 3331SOL    HW121455   1.043   2.120   3.059  0.8897 -2.4702 -0.1647
 3331SOL    HW221456   1.007   2.173   2.928 -0.8358  0.2439 -0.6194
 3332SOL     OW21457   1.906   0.074   0.819 -0.1124 -0.2338 -0.0013
 3332SOL    HW121458   1.992   0.036   0.835 -0.5771  0.3216  3.9345
 3332SOL    HW221459   1.913   0.105   0.729  1.0527  0.7501  0.4258
 3333SOL     OW21460   0.220   2.662   1.380 -0.1927  0.2387  0.1684
 3333SOL    HW121461   0.132   2.685   1.409  0.2204  0.1606  1.4595
 3333SOL    HW221462   0.227   2.731   1.314  0.1797 -0.6570 -0.7253
 3334SOL     OW21463   1.395   4.192   8.716 -0.1890  0.5385  0.1188
 3334SOL    HW121464   1.471   4.219   8.768  1.3682 -1.1383 -1.2754
 3334SOL    HW221465   1.333   4.154   8.779 -1.4635  3.8975  0.8618
 3335SOL     OW21466   4.712   2.539   7.214  0.8202  0.1771 -0.4051
 3335SOL    HW121467   4.713   2.443   7.211  1.6883  0.1810 -0.2082
 3335SOL    HW221468   0.021   2.556   7.126 -1.6548  0.2454 -1.3284
 3336SOL     OW21469   0.521   4.525   3.129  0.0295  0.0936 -0.0507
 3336SOL    HW121470   0.600   4.520   3.182  0.0973 -0.2816 -0.1931
 3336SOL    HW221471   0.495   4.433   3.133  0.3556 -0.1553 -3.1656
 3337SOL     OW21472   0.341   3.784  11.823  0.4302 -0.0016 -0.4932
 3337SOL    HW121473   0.335   3.748  11.734 -0.7609  0.2840 -0.5359
 3337SOL    HW221474   0.390   3.721  11.875 -0.0932 -0.4483 -0.5427
 3338SOL     OW21475   1.779   2.407   5.092 -0.1045  0.3801 -0.5952
 3338SOL    HW121476   1.808   2.318   5.071  0.5907  0.6450 -0.7480
 3338SOL    HW221477   1.795   2.459   5.014 -0.7849  1.1763 -0.2181
 3339SOL     OW21478   3.734   0.431   5.978  0.1203 -0.4492  0.1255
 3339SOL    HW121479   3.699   0.471   5.898  1.8507  1.3930  0.2986
 3339SOL    HW221480   3.714   0.338   5.967 -0.1927 -0.3164 -0.4222
 3340SOL     OW21481   4.591   3.770   0.203 -0.3949  0.2027  0.3723
 3340SOL    HW121482   4.606   3.691   0.256 -1.4628 -2.3622 -3.1340
 3340SOL    HW221483   4.525   3.737   0.141  0.1919  0.8912 -0.6095
 3341SOL     OW21484   3.655   3.837  15.255 -0.2262  0.2156 -0.1032
 3341SOL    HW121485   3.666   3.754  15.300 -0.9337 -1.4894 -3.0315
 3341SOL    HW221486   3.697   3.824  15.170  0.1722  1.9386 -0.1797
 3342SOL     OW21487   4.115   4.619   8.128  0.8689 -0.3524 -0.1855
 3342SOL    HW121488   4.035   4.571   8.108  0.1459  0.5331  0.5990
 3342SOL    HW221489   4.158   4.552   8.181  0.0327 -1.7268 -1.2690
 3343SOL     OW21490   1.162   2.388  15.861 -1.0789 -0.1417 -0.7711
 3343SOL    HW121491   1.256   2.374  15.858 -1.4220 -2.4865 -0.9828
 3343SOL    HW221492   1.141   2.312  15.915 -0.1242 -1.3926 -2.1482
 3344SOL     OW21493   1.685   0.267   8.324  0.3092  0.4989  0.0951
 3344SOL    HW121494   1.756   0.276   8.262 -0.3595  1.7527 -0.4980
 3344SOL    HW221495   1.615   0.299   8.267 -0.1063 -0.8310 -0.1373
 3345SOL     OW21496   1.157   1.727   8.198 -0.4527 -0.9676  0.7796
 3345SOL    HW121497   1.251   1.742   8.189 -0.2995 -3.5010 -1.8235
 3345SOL    HW221498   1.126   1.771   8.119 -1.1832 -0.1972  1.4980
 3346SOL     OW21499   2.348   3.051   9.069  0.2823 -0.3057 -0.1865
 3346SOL    HW121500   2.296   3.034   9.147  0.0596 -1.6912 -0.6366
 3346SOL    HW221501   2.289   3.102   9.014  0.8937  1.1369  0.5004
 3347SOL     OW21502   1.048   3.981  10.809  0.3338 -0.0732  0.2082
 3347SOL    HW121503   1.027   4.053  10.869 -0.3038  0.5404 -0.7599
 3347SOL    HW221504   1.138   3.951  10.825  0.3051  0.0261  0.5475
 3348SOL     OW21505   1.807   2.263   9.180 -0.0130  0.3776  0.0852
 3348SOL    HW121506   1.783   2.223   9.264  0.2650  1.5572  0.7265
 3348SOL    HW221507   1.893   2.296   9.205 -0.6408  0.5931  1.9658
 3349SOL     OW21508   4.451   4.501   3.604 -0.6069 -0.4621 -0.2389
 3349SOL    HW121509   4.368   4.483   3.649 -0.9736 -4.3491 -2.5212
 3349SOL    HW221510   4.467   4.423   3.552  0.6682  0.0782 -0.6464
 3350SOL     OW21511   1.955   2.980   9.448 -0.5199 -0.2297 -0.0217
 3350SOL    HW121512   1.922   3.020   9.528  0.4254 -2.4843  1.4894
 3350SOL    HW221513   1.928   2.890   9.466  1.5764 -1.0729 -1.1135
 3351SOL     OW21514   3.251   0.399  13.489  0.3097 -0.1345  0.2949
 3351SOL    HW121515   3.199   0.432  13.416  0.9799  2.3248  0.9384
 3351SOL    HW221516   3.189   0.331  13.515 -0.2887  0.8101  1.3181
 3352SOL     OW21517   3.147   3.296   6.110  0.0187 -0.5270 -0.6840
 3352SOL    HW121518   3.072   3.244   6.084 -1.9036  2.4474 -1.0468
 3352SOL    HW221519   3.200   3.299   6.030  1.4442 -1.5309  0.2110
 3353SOL     OW21520   0.170   2.766   8.442  0.2222 -0.0985 -0.0710
 3353SOL    HW121521   0.088   2.803   8.410 -1.1093 -2.0895  1.1139
 3353SOL    HW221522   0.211   2.794   8.359  1.4552 -0.3801  0.4461
 3354SOL     OW21523   2.107   0.374   4.694 -0.4310 -0.0275 -0.3004
 3354SOL    HW121524   2.149   0.403   4.775 -0.1755 -0.7790 -0.1653
 3354SOL    HW221525   2.176   0.333   4.643  0.4923  0.9647  0.1472
 3355SOL     OW21526   4.161   1.641  14.412 -0.5641 -0.5066 -0.4269
 3355SOL    HW121527   4.242   1.674  14.451  0.0167 -1.3109 -0.9426
 3355SOL    HW221528   4.180   1.547  14.409 -1.3626 -0.6418 -1.1248
 3356SOL     OW21529   0.247   4.419  16.814 -0.4981 -0.2750  0.4726
 3356SOL    HW121530   0.325   4.403  16.760 -1.3777  0.1864 -0.9487
 3356SOL    HW221531   0.277   4.370  16.891  0.3384 -0.0583  0.2879
 3357SOL     OW21532   0.592   3.295   3.240 -0.2672  0.2311  0.3995
 3357SOL    HW121533   0.616   3.344   3.318  0.3130 -2.5737  1.9758
 3357SOL    HW221534   0.647   3.218   3.222 -2.0893 -0.6970 -1.1608
 3358SOL     OW21535   1.085   3.779   4.332 -0.7151  0.5526 -0.2781
 3358SOL    HW121536   1.143   3.853   4.349  0.6953 -0.0845 -2.2745
 3358SOL    HW221537   1.000   3.819   4.317 -0.4271  0.8839 -1.0399
 3359SOL     OW21538   0.723   3.794   6.372  0.0040 -0.1572 -0.4412
 3359SOL    HW121539   0.742   3.774   6.463  0.2604 -1.2158 -0.7335
 3359SOL    HW221540   0.640   3.843   6.370 -0.2909 -0.7133 -1.8563
 3360SOL     OW21541   1.518   4.000   0.518  0.3747 -0.0656 -0.1904
 3360SOL    HW121542   1.566   3.919   0.505  1.3018  0.4300  0.2109
 3360SOL    HW221543   1.430   3.982   0.483  0.2172  1.2639 -0.4893
 3361SOL     OW21544   4.357   1.174  10.040  0.4368  0.3746 -0.0649
 3361SOL    HW121545   4.439   1.172   9.991  0.2531  1.3360 -0.4004
 3361SOL    HW221546   4.369   1.245  10.102  1.9643 -0.8759  1.0763
 3362SOL     OW21547   0.551   0.343  17.005 -0.2007  0.1649 -0.4670
 3362SOL    HW121548   0.469   0.338  16.955  0.0562  2.2242 -1.0949
 3362SOL    HW221549   0.616   0.335  16.935  0.3925 -0.0900  0.1211
 3363SOL     OW21550   1.565   0.748   4.386 -0.6029 -0.3786  0.1530
 3363SOL    HW121551   1.610   0.793   4.314  2.8024 -1.1535  1.7505
 3363SOL    HW221552   1.574   0.655   4.365 -2.6462 -0.6530  0.4929
 3364SOL     OW21553   0.511   1.788   1.111 -0.1577  0.5270  0.2115
 3364SOL    HW121554   0.492   1.723   1.179 -0.3910  1.0593  0.6517
 3364SOL    HW221555   0.428   1.836   1.111  0.1390  1.0174  2.4784
 3365SOL     OW21556   4.298   2.031   7.951  0.2213 -0.3164 -0.1093
 3365SOL    HW121557   4.234   1.966   7.922 -0.4030  0.7388 -1.0969
 3365SOL    HW221558   4.294   2.030   8.047 -0.9978  1.3503 -0.1554
 3366SOL     OW21559   0.738   0.903   5.348  0.2215 -0.2206  0.1319
 3366SOL    HW121560   0.828   0.911   5.315  0.2908 -0.5480  0.2420
 3366SOL    HW221561   0.742   0.817   5.390 -1.5061 -0.7065 -0.7377
 3367SOL     OW21562   2.911   0.706  16.380 -0.0319 -0.0688  0.0790
 3367SOL    HW121563   2.918   0.617  16.416 -1.4824 -0.0765  0.3285
 3367SOL    HW221564   2.816   0.714  16.377 -0.0014  0.2440 -0.0566
 3368SOL     OW21565   2.892   3.983   1.951 -0.2115  0.3033 -0.7009
 3368SOL    HW121566   2.949   3.986   1.875 -2.0004 -1.0933 -2.0823
 3368SOL    HW221567   2.935   3.912   1.999  2.1746 -0.5050 -4.0256
 3369SOL     OW21568   0.232   0.326   0.208 -0.1563  0.9306 -0.0657
 3369SOL    HW121569   0.251   0.243   0.253 -0.8033  0.9322  0.2051
 3369SOL    HW221570   0.143   0.334   0.241  1.0479  1.5731  3.0105
 3370SOL     OW21571   1.736   4.606   7.648 -0.0006 -0.3480  0.4629
 3370SOL    HW121572   1.764   4.516   7.638 -0.9007 -0.6311  0.4366
 3370SOL    HW221573   1.651   4.613   7.604  1.1435 -0.8495 -1.8036
 3371SOL     OW21574   3.191   3.289   8.793  0.2231 -0.5598  0.3990
 3371SOL    HW121575   3.259   3.338   8.838  0.8089 -1.1266  0.1287
 3371SOL    HW221576   3.118   3.275   8.854 -1.3718  3.0732 -0.6736
 3372SOL     OW21577   0.290   3.939   5.723 -0.5640 -0.1545 -0.5853
 3372SOL    HW121578   0.270   3.858   5.771  0.2147  0.8877  1.4922
 3372SOL    HW221579   0.199   3.955   5.698  0.3562  0.1621 -3.6862
 3373SOL     OW21580   2.904   3.240   7.380 -0.0715 -0.2401 -0.3460
 3373SOL    HW121581   2.858   3.305   7.433  0.0650  0.6070 -1.2629
 3373SOL    HW221582   2.978   3.212   7.433 -1.3012 -1.0261  0.9695
 3374SOL     OW21583   1.975   4.319   6.168  0.7522 -0.2087 -0.2626
 3374SOL    HW121584   1.888   4.358   6.162  1.6518  1.7971 -0.3450
 3374SOL    HW221585   2.010   4.331   6.080 -0.3454 -1.4994 -0.8785
 3375SOL     OW21586   2.492   0.883   3.478  0.6281  0.5621 -0.4080
 3375SOL    HW121587   2.474   0.914   3.566 -0.3878  1.1828 -0.8296
 3375SOL    HW221588   2.515   0.964   3.433 -0.0591  1.4986  0.9599
 3376SOL     OW21589   1.565   3.414  17.058 -0.0495  0.1124  0.5564
 3376SOL    HW121590   1.555   3.477  16.987 -2.6451 -1.2718 -0.3272
 3376SOL    HW221591   1.646   3.365  17.041 -1.0424 -1.3687  0.0541
 3377SOL     OW21592   4.261   2.190   3.729 -0.0554 -0.3092 -0.3545
 3377SOL    HW121593   4.213   2.257   3.779  0.1720  0.6757 -1.4566
 3377SOL    HW221594   4.353   2.213   3.739 -0.2337  0.2699 -0.0482
 3378SOL     OW21595   1.690   0.296  15.699 -0.4075  0.6839 -0.2802
 3378SOL    HW121596   1.739   0.270  15.621  1.3400 -1.5432  1.5374
 3378SOL    HW221597   1.754   0.279  15.768 -0.1271  0.2963 -0.6339
 3379SOL     OW21598   0.083   3.391  15.954 -0.3763  0.0357 -0.2312
 3379SOL    HW121599   0.009   3.423  15.902 -0.2130 -0.1312 -0.5746
 3379SOL    HW221600   0.144   3.456  15.919  0.2274 -0.5079 -0.1809
 3380SOL     OW21601   2.479   2.911   3.786  0.0441 -0.4078 -0.0658
 3380SOL    HW121602   2.508   2.988   3.737 -0.0025  0.6826  1.6411
 3380SOL    HW221603   2.403   2.956   3.823  0.7673  1.7301 -1.1764
 3381SOL     OW21604   4.467   3.344  10.242 -0.0427  0.3015 -0.2572
 3381SOL    HW121605   4.511   3.413  10.291 -0.5680 -0.8438  1.8365
 3381SOL    HW221606   4.541   3.283  10.245  1.9968  2.7097 -1.6823
 3382SOL     OW21607   3.313   4.015   6.242 -0.0754 -0.0716  0.8868
 3382SOL    HW121608   3.244   4.059   6.191 -0.3944 -3.3711 -1.5302
 3382SOL    HW221609   3.358   3.978   6.165 -2.1558  0.8099 -0.7394
 3383SOL     OW21610   2.368   2.906  10.587 -0.0567  0.2224 -0.0513
 3383SOL    HW121611   2.378   2.917  10.493  0.5029 -0.9204 -0.1212
 3383SOL    HW221612   2.419   2.826  10.603 -2.4320 -1.1919  0.5025
 3384SOL     OW21613   2.208   1.471   6.782 -0.0493  0.4368  0.6982
 3384SOL    HW121614   2.123   1.512   6.793 -0.6541  0.0284 -2.5115
 3384SOL    HW221615   2.185   1.393   6.833  2.8082 -1.8068 -1.4468
 3385SOL     OW21616   0.054   1.039   9.158  0.6111 -0.9355 -0.0631
 3385SOL    HW121617   0.069   1.128   9.125  1.3502 -1.4912 -1.1780
 3385SOL    HW221618   0.068   0.988   9.079 -0.3438  0.0874 -0.9072
 3386SOL     OW21619   1.735   0.982  13.780  0.3527  0.2055 -0.3074
 3386SOL    HW121620   1.778   0.911  13.829 -0.1067  1.0095  1.2689
 3386SOL    HW221621   1.782   1.053  13.824  0.5463  0.1153 -0.3669
 3387SOL     OW21622   0.850   3.979   8.091  0.0125 -0.1161 -0.1203
 3387SOL    HW121623   0.908   4.031   8.146 -0.0557  2.5411 -2.6072
 3387SOL    HW221624   0.844   4.028   8.010 -0.4256 -0.7490 -0.4764
 3388SOL     OW21625   0.297   1.891   2.926 -0.0021 -0.4632  0.7148
 3388SOL    HW121626   0.377   1.930   2.891 -1.6701  0.9936 -1.5180
 3388SOL    HW221627   0.275   1.829   2.856  2.7685  0.1082 -0.6445
 3389SOL     OW21628   0.368   0.542  14.450 -0.0085  0.1412 -0.6796
 3389SOL    HW121629   0.441   0.487  14.420 -0.6340 -1.1099  0.0566
 3389SOL    HW221630   0.407   0.563  14.535 -1.0935  1.9402 -0.6317
 3390SOL     OW21631   1.551   3.667  17.265  0.1084  0.2929 -0.2116
 3390SOL    HW121632   1.496   3.607  17.315 -2.1054  1.1197 -1.6393
 3390SOL    HW221633   1.555   3.749  17.314 -1.1622  0.4408 -0.3573
 3391SOL     OW21634   3.232   1.902   3.050  0.3090 -0.4315  0.0146
 3391SOL    HW121635   3.299   1.945   2.996 -1.2307  0.4527 -1.1830
 3391SOL    HW221636   3.277   1.916   3.134  3.4739  3.3573 -2.3076
 3392SOL     OW21637   3.830   3.554   0.625  0.1206 -0.3905 -0.1378
 3392SOL    HW121638   3.847   3.561   0.719 -1.6893  0.4207  0.1224
 3392SOL    HW221639   3.918   3.544   0.590 -0.4035  1.3501 -1.9153
 3393SOL     OW21640   2.913   1.040   6.809 -0.4162  0.2137  0.0365
 3393SOL    HW121641   2.848   1.106   6.786  1.0557  2.5832  2.7244
 3393SOL    HW221642   2.855   0.973   6.843 -2.7146  1.9519 -0.4413
 3394SOL     OW21643   1.598   0.472   9.151  0.5799  0.4599 -0.0298
 3394SOL    HW121644   1.563   0.421   9.223  2.5261 -0.3118  0.3508
 3394SOL    HW221645   1.690   0.489   9.170  0.7612 -0.7188  0.1117
 3395SOL     OW21646   2.316   3.413   0.362 -0.0187 -0.1609 -0.7164
 3395SOL    HW121647   2.307   3.508   0.377  1.8332 -0.1872  0.6389
 3395SOL    HW221648   2.405   3.406   0.326 -0.2736  0.3561 -1.4525
 3396SOL     OW21649   0.780   1.701  10.097  0.2596  0.6424 -0.0653
 3396SOL    HW121650   0.849   1.650  10.054  1.2103 -1.9409  4.4458
 3396SOL    HW221651   0.768   1.760  10.023  3.0415 -1.9904 -2.5889
 3397SOL     OW21652   3.868   0.934   0.246 -0.1815  0.2344 -0.1731
 3397SOL    HW121653   3.800   0.885   0.293 -0.1795  1.1584  0.8127
 3397SOL    HW221654   3.943   0.916   0.303  0.9298 -1.9772 -2.3388
 3398SOL     OW21655   2.059   1.328   3.099 -0.4209 -0.3712 -0.0259
 3398SOL    HW121656   2.152   1.335   3.079 -0.4208 -1.1495 -0.3174
 3398SOL    HW221657   2.021   1.348   3.013 -2.3771 -2.2789  0.3740
 3399SOL     OW21658   0.297   4.098   4.002 -0.2793  0.4379  0.2109
 3399SOL    HW121659   0.245   4.019   4.019  1.2597 -0.2787  1.6072
 3399SOL    HW221660   0.228   4.148   3.958 -0.7102  1.0341  1.5692
 3400SOL     OW21661   0.737   1.179   9.892 -1.0833  0.1026  0.3532
 3400SOL    HW121662   0.728   1.179   9.797 -0.3404  1.6825  0.2919
 3400SOL    HW221663   0.654   1.141   9.923 -0.7193  0.2134  1.4641
 3401SOL     OW21664   2.875   4.569   6.441  0.5544  0.0597  0.4757
 3401SOL    HW121665   2.803   4.531   6.390 -1.1671  0.7258  2.3998
 3401SOL    HW221666   2.921   4.493   6.476 -0.2876 -0.1912  1.0258
 3402SOL     OW21667   3.246   2.707   2.724 -0.4430 -0.4577  0.3616
 3402SOL    HW121668   3.326   2.750   2.695  0.6040 -2.3710  0.4512
 3402SOL    HW221669   3.264   2.702   2.818  2.2313  2.0800 -0.0255
 3403SOL     OW21670   2.565   1.939   7.953  0.1946 -0.3886  0.3042
 3403SOL    HW121671   2.525   1.962   8.037 -1.2167 -3.2086  0.4088
 3403SOL    HW221672   2.539   2.011   7.897 -0.6851 -0.4212  0.6692
 3404SOL     OW21673   2.755   3.697   4.220 -0.2775  0.5313  0.0606
 3404SOL    HW121674   2.746   3.708   4.125  1.4383 -0.0197 -0.1734
 3404SOL    HW221675   2.675   3.647   4.234  1.5910 -2.8604 -1.3318
 3405SOL     OW21676   0.452   1.922  12.207  0.1387  0.3786 -0.2161
 3405SOL    HW121677   0.458   2.004  12.159  3.3349  0.1384 -0.2016
 3405SOL    HW221678   0.432   1.866  12.131  1.5932 -0.4368  0.0023
 3406SOL     OW21679   2.467   3.655   3.576 -0.6239  0.0820 -0.3319
 3406SOL    HW121680   2.525   3.727   3.601 -0.8656  0.2784 -0.3342
 3406SOL    HW221681   2.438   3.675   3.487  1.6900 -2.0023 -1.5433
 3407SOL     OW21682   0.101   2.970  10.420 -0.2988  0.1585 -0.1256
 3407SOL    HW121683   0.128   2.891  10.467 -0.7543  0.7976  1.2058
 3407SOL    HW221684   0.183   3.007  10.389  0.3160 -0.3259  0.9293
 3408SOL     OW21685   0.440   2.150   5.349 -0.4780  0.0431 -0.4700
 3408SOL    HW121686   0.399   2.236   5.355  1.9266  1.0480  1.4705
 3408SOL    HW221687   0.452   2.134   5.255 -0.5472  0.6095 -0.5749
 3409SOL     OW21688   3.188   0.667   2.173 -0.7115 -0.2101 -0.0437
 3409SOL    HW121689   3.172   0.572   2.171 -1.8782 -0.0491  2.1911
 3409SOL    HW221690   3.265   0.657   2.230  0.3892  3.3417 -0.8978
 3410SOL     OW21691   0.863   3.839   2.815 -0.7060 -0.1581 -0.1324
 3410SOL    HW121692   0.857   3.849   2.720  1.2368  0.6952 -0.1672
 3410SOL    HW221693   0.842   3.746   2.821 -2.2341  0.3223  2.0021
 3411SOL     OW21694   0.093   4.279   9.699  0.4616 -0.3115 -0.3204
 3411SOL    HW121695   0.037   4.353   9.678  2.3074  1.8386  2.3165
 3411SOL    HW221696   0.033   4.205   9.691  1.3019 -1.2731  2.2201
 3412SOL     OW21697   1.858   0.323   0.457  0.0083  0.0527 -0.2891
 3412SOL    HW121698   1.777   0.363   0.424 -0.1042  1.5091  1.7500
 3412SOL    HW221699   1.905   0.405   0.471  2.4461 -1.3058 -0.5670
 3413SOL     OW21700   1.872   0.880   2.271 -0.1072  0.2569  0.4059
 3413SOL    HW121701   1.844   0.849   2.185  3.5181 -1.3274 -0.2313
 3413SOL    HW221702   1.819   0.959   2.282 -0.5410 -0.1632  1.4226
 3414SOL     OW21703   1.293   3.496  10.358 -0.6536 -0.1518 -0.0830
 3414SOL    HW121704   1.358   3.435  10.394  0.5478 -0.3447 -2.6007
 3414SOL    HW221705   1.312   3.512  10.266  0.4931 -1.4654 -0.0708
 3415SOL     OW21706   1.628   1.900   4.687 -0.0058 -0.0055  0.2950
 3415SOL    HW121707   1.706   1.953   4.673 -0.6814  1.0106  0.4045
 3415SOL    HW221708   1.578   1.965   4.736 -0.0227  2.4745 -3.0203
 3416SOL     OW21709   2.741   2.272   1.431 -0.5554 -0.4316  0.1248
 3416SOL    HW121710   2.781   2.214   1.496 -1.5479 -1.5131 -0.2296
 3416SOL    HW221711   2.695   2.333   1.489 -0.7158  1.1027 -1.5994
 3417SOL     OW21712   1.461   0.393   1.876  0.2848 -0.2482  0.3227
 3417SOL    HW121713   1.420   0.314   1.913  0.8614  0.0628  1.6351
 3417SOL    HW221714   1.520   0.360   1.809  1.2903 -1.0358  1.5972
 3418SOL     OW21715   4.697   4.663   3.659 -0.2605 -0.4500 -0.2165
 3418SOL    HW121716   0.000   0.004   3.593 -1.0919  0.9434  0.8018
 3418SOL    HW221717   4.620   4.627   3.615 -0.7268 -1.5071  1.4952
 3419SOL     OW21718   0.145   2.335   8.195 -0.3201 -0.1663  0.8328
 3419SOL    HW121719   0.182   2.347   8.283 -0.1640 -0.8556  0.8542
 3419SOL    HW221720   0.136   2.426   8.166  0.0584 -0.1063  0.9030
 3420SOL     OW21721   3.017   3.896   3.338 -0.3475 -0.4336  0.2868
 3420SOL    HW121722   2.960   3.855   3.273  1.1062  0.1415 -1.3431
 3420SOL    HW221723   3.045   3.828   3.401 -1.7493 -1.0334  0.2581
 3421SOL     OW21724   1.216   1.113   9.920 -0.5999 -0.5694  0.1035
 3421SOL    HW121725   1.302   1.086   9.889  0.7374  0.9142  2.4224
 3421SOL    HW221726   1.195   1.180   9.855  1.1263  1.2019  1.3677
 3422SOL     OW21727   2.823   4.260  16.171  0.6521 -0.0651 -0.4196
 3422SOL    HW121728   2.806   4.344  16.213  1.2049 -1.1039  1.8689
 3422SOL    HW221729   2.800   4.284  16.082  2.3256 -2.6986 -1.5751
 3423SOL     OW21730   2.956   0.391   2.379  0.2815 -0.2903 -0.8141
 3423SOL    HW121731   2.904   0.332   2.434 -1.5840  1.4251 -0.7199
 3423SOL    HW221732   2.880   0.443   2.353 -0.6407 -0.7929  0.8293
 3424SOL     OW21733   3.882   3.105  13.074 -0.4080 -0.8226 -0.4710
 3424SOL    HW121734   3.876   3.076  12.982 -0.9548  0.2879 -0.7735
 3424SOL    HW221735   3.976   3.121  13.084 -0.2903 -0.6073 -1.9105
 3425SOL     OW21736   1.470   3.370   5.276 -0.3321 -0.4854 -0.1390
 3425SOL    HW121737   1.391   3.390   5.225 -2.1560 -1.6806  2.2454
 3425SOL    HW221738   1.513   3.454   5.293  1.3788 -1.8067  2.0194
 3426SOL     OW21739   2.724   2.142   4.557 -0.0143  0.2284  0.5629
 3426SOL    HW121740   2.768   2.194   4.624 -0.6258 -0.4611  1.5102
 3426SOL    HW221741   2.797   2.092   4.520 -0.8366 -1.8908  1.7975
 3427SOL     OW21742   2.205   1.447   4.587 -0.2867  0.4062  0.5886
 3427SOL    HW121743   2.259   1.375   4.555 -0.3725 -0.3800  2.1826
 3427SOL    HW221744   2.135   1.406   4.638  1.9697 -0.0833  3.2969
 3428SOL     OW21745   1.988   1.691  15.764  0.1092  0.1702 -0.1664
 3428SOL    HW121746   1.916   1.657  15.710 -1.5052  2.6327  0.4371
 3428SOL    HW221747   1.944   1.773  15.788 -0.8670  0.1125 -1.7745
 3429SOL     OW21748   2.705   1.978  13.165 -0.0285  0.2310  0.1045
 3429SOL    HW121749   2.702   1.977  13.261 -0.7277 -1.1999  0.0732
 3429SOL    HW221750   2.791   1.939  13.146  0.6508  0.8111  1.9676
 3430SOL     OW21751   1.013   2.421   1.210 -0.4946 -0.1137  0.3695
 3430SOL    HW121752   0.988   2.341   1.256 -0.1246  0.1861  1.0901
 3430SOL    HW221753   1.107   2.403   1.211 -0.4684  0.0160  0.1825
 3431SOL     OW21754   1.506   1.562   5.097 -0.0447  0.9595  0.3319
 3431SOL    HW121755   1.578   1.507   5.067  0.6568  2.6536 -1.1271
 3431SOL    HW221756   1.538   1.605   5.176  1.3958 -0.4431  0.5103
 3432SOL     OW21757   2.114   3.388  10.113 -0.1792 -0.5403  0.0638
 3432SOL    HW121758   2.045   3.388  10.046  1.0642 -0.0180 -1.2099
 3432SOL    HW221759   2.088   3.313  10.167 -0.7855 -1.1972 -1.1400
 3433SOL     OW21760   1.143   4.475  10.712 -0.5036  0.1045 -0.0201
 3433SOL    HW121761   1.099   4.474  10.798 -0.7462  0.7567 -0.1355
 3433SOL    HW221762   1.165   4.382  10.700  0.2096  0.2086  0.4986
 3434SOL     OW21763   3.886   2.607  13.334  0.0838 -0.6763  0.3392
 3434SOL    HW121764   3.951   2.545  13.368 -1.0380 -1.6524  0.7202
 3434SOL    HW221765   3.940   2.679  13.303 -0.1900 -0.9270 -0.7275
 3435SOL     OW21766   3.197   3.581   3.931 -0.0812  0.0490 -0.8470
 3435SOL    HW121767   3.259   3.524   3.886  0.3431  0.6043 -0.9730
 3435SOL    HW221768   3.268   3.639   3.959 -0.0419 -0.0030 -0.8390
 3436SOL     OW21769   4.464   2.847  12.231 -0.4309 -0.4066 -0.0268
 3436SOL    HW121770   4.513   2.819  12.309  1.8283 -0.2690 -1.4030
 3436SOL    HW221771   4.395   2.781  12.222  0.3563 -1.4930  1.8481
 3437SOL     OW21772   0.850   1.883   6.859  0.3607 -0.6079  0.3070
 3437SOL    HW121773   0.944   1.864   6.853  0.4905 -0.8318  2.9385
 3437SOL    HW221774   0.837   1.900   6.952  0.3966 -1.7514  0.5278
 3438SOL     OW21775   1.523   3.106   7.406  0.8690 -0.4058  0.3026
 3438SOL    HW121776   1.579   3.130   7.479  0.2271 -2.1936  1.3871
 3438SOL    HW221777   1.462   3.179   7.396 -0.6107 -1.5846  0.5828
 3439SOL     OW21778   4.512   2.521   1.504 -0.3132  0.8067 -0.0774
 3439SOL    HW121779   4.427   2.478   1.494 -0.5479  0.6907  2.4247
 3439SOL    HW221780   4.570   2.450   1.478 -2.6507 -0.5272 -1.6977
 3440SOL     OW21781   1.531   3.998   3.888  0.0387 -0.0805  0.1779
 3440SOL    HW121782   1.558   4.056   3.959 -1.1888  1.4694 -0.6364
 3440SOL    HW221783   1.447   3.975   3.928  0.4542  0.7124  1.5444
 3441SOL     OW21784   2.689   4.026   4.499  0.2404 -1.2304 -0.5437
 3441SOL    HW121785   2.670   4.054   4.409 -1.6825  1.3429  0.6329
 3441SOL    HW221786   2.650   4.103   4.541  3.1346  0.0092 -0.1846
 3442SOL     OW21787   4.230   2.256   2.324  0.0059  0.2190 -0.3188
 3442SOL    HW121788   4.293   2.184   2.327  2.1177  1.9866 -2.7238
 3442SOL    HW221789   4.228   2.277   2.231  0.8094  1.4100 -0.0776
 3443SOL     OW21790   1.240   3.147   5.021 -0.3541 -0.0349 -0.5485
 3443SOL    HW121791   1.193   3.194   5.091  2.3960 -0.1041  1.3551
 3443SOL    HW221792   1.264   3.062   5.058 -1.5273 -0.4028 -0.6393
 3444SOL     OW21793   1.743   3.260  13.654  0.1955 -0.5128 -0.1880
 3444SOL    HW121794   1.827   3.306  13.652  0.3288 -0.7110  0.9307
 3444SOL    HW221795   1.745   3.192  13.721 -0.4826 -0.3503 -0.0034
 3445SOL     OW21796   0.403   3.103   3.909 -0.0454  0.4829  0.0436
 3445SOL    HW121797   0.468   3.054   3.858 -0.3200 -0.1420  0.2952
 3445SOL    HW221798   0.443   3.189   3.914 -0.1074  0.4573  0.9618
 3446SOL     OW21799   3.018   3.739  10.008 -0.0234 -0.1213 -0.0651
 3446SOL    HW121800   3.019   3.716   9.915 -0.3734  0.7239 -0.2790
 3446SOL    HW221801   3.030   3.654  10.051  0.6914  0.7791  1.4871
 3447SOL     OW21802   1.660   4.627   3.996  0.0964  0.3249  0.0262
 3447SOL    HW121803   1.591   4.633   3.930 -0.7119 -0.3790  0.8061
 3447SOL    HW221804   1.737   4.629   3.938  0.7608  0.7023  0.9114
 3448SOL     OW21805   3.609   0.902   9.217  0.7908  0.3700  0.1691
 3448SOL    HW121806   3.623   0.821   9.168 -1.5983  0.3843 -0.5279
 3448SOL    HW221807   3.516   0.897   9.239 -0.1724 -2.1657 -4.5975
 3449SOL     OW21808   3.280   2.166  17.029  0.0555  0.4761  0.2382
 3449SOL    HW121809   3.214   2.176  17.098  0.4221 -0.4336  0.7249
 3449SOL    HW221810   3.328   2.246  17.052  2.1829 -0.5269 -0.6779
 3450SOL     OW21811   1.457   1.136   6.285 -0.1833  0.4351 -0.4125
 3450SOL    HW121812   1.521   1.167   6.350  0.2253  0.6441 -0.9156
 3450SOL    HW221813   1.506   1.116   6.205 -1.3795 -1.2367 -0.7209
 3451SOL     OW21814   3.293   4.448   1.932  0.0139  0.0560  0.1220
 3451SOL    HW121815   3.231   4.451   1.860  0.4029 -0.2967 -0.2276
 3451SOL    HW221816   3.332   4.364   1.906 -0.9669 -0.2310 -0.4048
 3452SOL     OW21817   2.173   2.656   6.327  0.2836  0.0955  0.2056
 3452SOL    HW121818   2.110   2.633   6.395  1.3556 -0.7166  0.9132
 3452SOL    HW221819   2.115   2.662   6.250 -0.2019 -1.1761  0.4764
 3453SOL     OW21820   4.095   2.031   3.572  0.3223  0.1945 -0.0177
 3453SOL    HW121821   4.173   2.023   3.518 -1.6765  1.6126 -3.0952
 3453SOL    HW221822   4.122   2.098   3.635 -0.2122  1.2307 -0.9014
 3454SOL     OW21823   0.862   2.429  13.341  0.1702  0.0915 -0.2559
 3454SOL    HW121824   0.955   2.440  13.321 -0.0865  0.1686 -1.4378
 3454SOL    HW221825   0.855   2.472  13.426 -1.1452 -0.2766 -0.1743
 3455SOL     OW21826   1.339   0.727   5.764 -0.2836 -0.6214 -0.2125
 3455SOL    HW121827   1.423   0.686   5.741  0.1125  0.0177  0.0693
 3455SOL    HW221828   1.367   0.794   5.827  0.0971  0.1052 -1.1506
 3456SOL     OW21829   3.681   3.159   5.475  0.4939  0.3586  0.0795
 3456SOL    HW121830   3.710   3.215   5.547  0.6880  1.0482 -0.5369
 3456SOL    HW221831   3.752   3.097   5.461  0.2820  0.5136 -1.6193
 3457SOL     OW21832   1.294   3.756  15.086 -0.2123  0.8369 -0.4103
 3457SOL    HW121833   1.277   3.722  14.997 -1.6850  0.1074  0.1385
 3457SOL    HW221834   1.388   3.769  15.084 -0.0287 -0.3742  0.3473
 3458SOL     OW21835   3.500   4.518  13.616 -0.0249  0.4933 -0.0794
 3458SOL    HW121836   3.476   4.606  13.589  0.9716  1.4378  2.1158
 3458SOL    HW221837   3.467   4.515  13.706 -0.1324 -0.2644 -0.1428
 3459SOL     OW21838   4.365   2.860   1.796  0.0145 -0.2607  0.1907
 3459SOL    HW121839   4.391   2.854   1.704 -1.0586  0.3165 -0.1500
 3459SOL    HW221840   4.296   2.927   1.793 -0.3671 -0.6497  0.3978
 3460SOL     OW21841   4.104   1.751   3.882 -0.2398 -0.1092  0.0293
 3460SOL    HW121842   4.035   1.692   3.912 -1.8565  0.4781 -2.5277
 3460SOL    HW221843   4.146   1.780   3.963  0.6082  1.0721 -0.8381
 3461SOL     OW21844   0.911   2.330   8.625  0.1871 -0.2166  0.1868
 3461SOL    HW121845   0.850   2.271   8.667  0.9839 -0.1319  1.4494
 3461SOL    HW221846   0.887   2.421   8.644 -0.6123 -1.1312  3.4244
 3462SOL     OW21847   0.157   1.377   4.171 -0.2281 -0.0317  0.0877
 3462SOL    HW121848   0.164   1.322   4.094 -1.1103 -2.2265  1.5931
 3462SOL    HW221849   0.065   1.405   4.171 -0.0123  0.6784 -1.2274
 3463SOL     OW21850   2.933   2.413  10.647  0.3308  0.3618  0.1530
 3463SOL    HW121851   2.924   2.492  10.700  0.0392 -0.6707  1.6470
 3463SOL    HW221852   2.856   2.369  10.681 -0.9876  1.7226 -1.0983
 3464SOL     OW21853   3.501   4.379  12.040 -0.4487  0.2312 -0.4405
 3464SOL    HW121854   3.523   4.409  11.952 -0.2021  0.0778 -0.4330
 3464SOL    HW221855   3.562   4.310  12.069 -0.7747 -0.3492 -1.1469
 3465SOL     OW21856   2.118   3.767   5.808  0.0291 -0.1385  0.2679
 3465SOL    HW121857   2.177   3.763   5.884  0.7822  2.7846 -0.1435
 3465SOL    HW221858   2.172   3.743   5.733  0.3093 -0.1523  0.4729
 3466SOL     OW21859   3.267   4.057   5.285  0.2042  0.0569 -0.4577
 3466SOL    HW121860   3.297   3.984   5.231 -0.5210  1.1744 -2.3863
 3466SOL    HW221861   3.307   4.045   5.371 -2.6377 -0.7793  0.7466
 3467SOL     OW21862   4.542   3.309   6.284  0.0430 -0.3646 -0.1855
 3467SOL    HW121863   4.529   3.274   6.372 -0.9064  2.8637  0.9585
 3467SOL    HW221864   4.531   3.226   6.237 -2.2734 -1.9085  3.0668
 3468SOL     OW21865   0.404   4.137   5.889  0.0749 -0.1616 -0.4020
 3468SOL    HW121866   0.491   4.098   5.879  0.2742  0.2343 -0.2431
 3468SOL    HW221867   0.350   4.081   5.834  1.1914  0.3038 -1.9677
 3469SOL     OW21868   3.727   0.476   2.291 -0.8312  0.2005 -0.1684
 3469SOL    HW121869   3.655   0.435   2.340 -0.4099  2.2850  2.1862
 3469SOL    HW221870   3.691   0.482   2.202  1.2278 -2.6441 -1.1962
 3470SOL     OW21871   2.720   3.634  15.570  0.1020  0.2776 -0.8094
 3470SOL    HW121872   2.677   3.675  15.645 -1.1033  1.4066 -2.1265
 3470SOL    HW221873   2.794   3.604  15.624 -0.2123 -0.6178 -0.8778
 3471SOL     OW21874   2.829   3.439   3.784  0.6238  0.4691 -0.3954
 3471SOL    HW121875   2.891   3.509   3.806  0.7132  0.8244 -1.7571
 3471SOL    HW221876   2.886   3.396   3.720 -1.7963  0.5169 -2.5967
 3472SOL     OW21877   3.656   4.400  17.340  0.5812 -0.3738 -0.0949
 3472SOL    HW121878   3.613   4.400  17.255 -2.5562 -1.2431  1.5240
 3472SOL    HW221879   3.656   4.491  17.370  0.8194  0.3887 -2.4492
 3473SOL     OW21880   3.073   2.428  10.415 -0.1750  0.3579 -0.4038
 3473SOL    HW121881   3.042   2.409  10.504 -0.2039  0.0766 -0.4752
 3473SOL    HW221882   3.067   2.524  10.419  0.7815  0.3870  0.4232
 3474SOL     OW21883   3.407   2.451  13.239 -0.2342 -0.0179 -0.2917
 3474SOL    HW121884   3.474   2.511  13.206  1.1179 -0.7882  1.0685
 3474SOL    HW221885   3.402   2.481  13.329  1.1495  0.5005 -0.3848
 3475SOL     OW21886   1.466   1.832   7.852 -0.3494  0.5434  0.1630
 3475SOL    HW121887   1.529   1.873   7.911  0.0268 -1.5980  1.2577
 3475SOL    HW221888   1.439   1.907   7.798 -0.4458  0.5539  0.2268
 3476SOL     OW21889   4.440   3.727   8.002 -0.1714 -0.6071 -0.3061
 3476SOL    HW121890   4.442   3.823   8.006 -1.3197 -0.6163  0.6129
 3476SOL    HW221891   4.360   3.708   7.953  0.5293 -0.4875 -1.4724
 3477SOL     OW21892   3.707   3.459   6.368  0.3490  0.2696 -0.9615
 3477SOL    HW121893   3.787   3.406   6.369 -0.3351 -0.6696  3.2907
 3477SOL    HW221894   3.730   3.547   6.397  1.1633  0.2670 -1.5826
 3478SOL     OW21895   1.051   0.178  16.090  0.2450 -0.2890 -0.5236
 3478SOL    HW121896   1.058   0.255  16.146  2.9893 -0.9374  0.0117
 3478SOL    HW221897   1.143   0.179  16.064  0.3811 -0.6607 -0.0348
 3479SOL     OW21898   2.586   1.366  10.312 -0.1561  0.0046  0.2426
 3479SOL    HW121899   2.650   1.428  10.347  0.8781 -0.8654 -0.1088
 3479SOL    HW221900   2.589   1.298  10.379 -1.4112  0.8696  1.1724
 3480SOL     OW21901   2.572   1.765  15.651  0.2257  0.2519 -0.0940
 3480SOL    HW121902   2.496   1.813  15.682 -0.7590 -0.4107 -1.5160
 3480SOL    HW221903   2.601   1.705  15.720 -2.4307  1.3286  1.9498
 3481SOL     OW21904   3.402   1.502   7.943  0.2402  0.1670  0.0134
 3481SOL    HW121905   3.307   1.491   7.955  0.1838  0.8437  0.1575
 3481SOL    HW221906   3.441   1.414   7.939  0.0244  0.0826 -0.2818
 3482SOL     OW21907   1.256   3.129  15.450  0.1085 -0.1772 -0.1131
 3482SOL    HW121908   1.240   3.220  15.424 -1.8736 -0.4362  0.1540
 3482SOL    HW221909   1.335   3.101  15.405  0.1972 -0.8001  0.4289
 3483SOL     OW21910   0.932   4.646  12.555 -0.9566 -0.4939  0.4584
 3483SOL    HW121911   0.981   4.620  12.477 -1.0518  1.2055 -0.1697
 3483SOL    HW221912   0.872   4.573  12.571  0.0613 -0.5050  4.0272
 3484SOL     OW21913   4.265   3.147   5.178 -0.4094 -0.2634  0.7895
 3484SOL    HW121914   4.326   3.117   5.245  1.4834  2.0947  0.1035
 3484SOL    HW221915   4.326   3.183   5.114 -1.7403 -0.1482 -0.4055
 3485SOL     OW21916   4.298   3.925   4.797  0.2879  0.0751 -0.3109
 3485SOL    HW121917   4.310   3.830   4.794  0.2863  0.0477  0.6314
 3485SOL    HW221918   4.315   3.952   4.706 -0.8967  0.6525 -0.3653
 3486SOL     OW21919   1.485   3.309   3.612  0.0220  0.2340  0.1825
 3486SOL    HW121920   1.523   3.332   3.527  0.3550  0.5293  0.4104
 3486SOL    HW221921   1.501   3.381   3.672  0.8428 -0.5599  0.9294
 3487SOL     OW21922   3.594   3.644   4.947 -0.2081  0.2643  0.0652
 3487SOL    HW121923   3.647   3.611   4.874 -2.1849 -0.1813 -1.1772
 3487SOL    HW221924   3.541   3.569   4.973  0.1722 -0.3254 -0.8651
 3488SOL     OW21925   0.660   2.237   7.136 -0.3715  0.2134  0.6716
 3488SOL    HW121926   0.666   2.195   7.050  0.7659 -1.0390  1.3679
 3488SOL    HW221927   0.603   2.313   7.126 -0.8185 -0.4768 -2.1482
 3489SOL     OW21928   0.588   0.306   7.346 -0.0860 -0.3155  0.0143
 3489SOL    HW121929   0.638   0.334   7.269  0.4893 -3.7559 -0.8532
 3489SOL    HW221930   0.571   0.388   7.393  0.3966 -0.6889  0.8447
 3490SOL     OW21931   4.145   4.085   8.816 -0.1922  0.3064 -0.2198
 3490SOL    HW121932   4.170   4.166   8.770  1.3276 -0.0157  0.0452
 3490SOL    HW221933   4.096   4.044   8.744 -2.0155  0.1684  1.1150
 3491SOL     OW21934   2.408   3.463   5.386 -0.2333  0.0667  0.3501
 3491SOL    HW121935   2.351   3.456   5.310 -1.5033 -1.0772  1.3942
 3491SOL    HW221936   2.488   3.465   5.334 -1.5901  0.0899 -1.7192
 3492SOL     OW21937   0.065   1.090  11.598 -0.4881 -0.3972  0.2573
 3492SOL    HW121938   0.100   1.009  11.560  2.0120  0.6395  0.3791
 3492SOL    HW221939   0.076   1.154  11.528  3.1064 -0.5254  0.6970
 3493SOL     OW21940   0.764   2.011  11.456 -0.5344  0.2641 -0.1524
 3493SOL    HW121941   0.688   2.067  11.474  1.8561  3.1344  1.2167
 3493SOL    HW221942   0.743   1.928  11.498  0.1672 -0.2465 -0.8125
 3494SOL     OW21943   0.435   4.290   1.149 -0.5690  0.3811 -0.2269
 3494SOL    HW121944   0.526   4.263   1.145 -1.1071 -1.2765 -1.0396
 3494SOL    HW221945   0.408   4.251   1.232 -2.5933  0.4538 -0.8466
 3495SOL     OW21946   4.237   0.813   5.755 -0.0155  0.4860  0.1824
 3495SOL    HW121947   4.144   0.819   5.732 -0.1186 -1.0065  0.1966
 3495SOL    HW221948   4.232   0.814   5.850 -1.3709  0.4224  0.1175
 3496SOL     OW21949   2.302   0.157  10.867  0.0914  0.0995 -0.5769
 3496SOL    HW121950   2.357   0.235  10.859 -0.2412  0.4249  0.1831
 3496SOL    HW221951   2.366   0.105  10.916 -0.5317  0.2864  0.4539
 3497SOL     OW21952   3.565   4.636  11.085  0.4865 -0.2091  0.4126
 3497SOL    HW121953   3.659   4.623  11.096  0.5851 -0.6693 -0.9142
 3497SOL    HW221954   3.566   4.720  11.039 -0.9657 -0.3718  0.0943
 3498SOL     OW21955   3.826   2.267   2.840  0.0413 -0.0291 -0.4717
 3498SOL    HW121956   3.762   2.229   2.780  1.2376  0.4795 -2.0742
 3498SOL    HW221957   3.785   2.236   2.921 -0.3939  2.8381  0.4047
 3499SOL     OW21958   1.279   4.482  15.832  0.2473 -0.1184 -0.2776
 3499SOL    HW121959   1.225   4.435  15.895 -0.1729  2.5026  1.2997
 3499SOL    HW221960   1.295   4.406  15.776  1.3693 -1.0314  1.2525
 3500SOL     OW21961   2.882   3.888  11.965 -0.3615  0.5081 -0.1885
 3500SOL    HW121962   2.874   3.829  11.891  2.9722 -0.6193  0.3666
 3500SOL    HW221963   2.975   3.894  11.986 -0.3635 -3.7382  0.9052
 3501SOL     OW21964   2.552   1.034   4.610  0.3637  0.3093 -0.2051
 3501SOL    HW121965   2.599   0.967   4.660  1.4546  2.1395  1.2239
 3501SOL    HW221966   2.578   1.116   4.653 -2.3082  0.4427  1.1432
 3502SOL     OW21967   0.995   2.718   2.354 -0.1336  0.3892 -0.0463
 3502SOL    HW121968   0.910   2.690   2.389  0.2619 -2.1360 -1.1015
 3502SOL    HW221969   0.978   2.723   2.260 -2.5319  0.3483  0.3813
 3503SOL     OW21970   3.486   3.248   8.333  0.2542 -0.2430  0.2720
 3503SOL    HW121971   3.415   3.211   8.385  0.5082 -0.7917  0.2319
 3503SOL    HW221972   3.499   3.326   8.386  1.3394 -0.4069  0.2413
 3504SOL     OW21973   2.894   3.221   3.407  0.3269 -0.2877 -0.4953
 3504SOL    HW121974   2.908   3.132   3.440 -2.8613 -1.2225 -1.7091
 3504SOL    HW221975   2.982   3.252   3.428  1.1401 -3.0457  0.1400
 3505SOL     OW21976   2.983   0.389   0.321  0.2814  0.0729 -0.3972
 3505SOL    HW121977   3.048   0.394   0.251  0.0948  0.7441 -0.5278
 3505SOL    HW221978   2.918   0.325   0.293  0.2346  0.0976 -0.3460
 3506SOL     OW21979   4.030   4.393  14.752 -0.0508 -0.1391  0.4528
 3506SOL    HW121980   3.942   4.415  14.782  0.2266  0.9414  0.4672
 3506SOL    HW221981   4.063   4.374  14.840 -0.4620 -1.0981  0.4042
 3507SOL     OW21982   0.402   3.472  16.303  0.4465 -0.1908 -0.1136
 3507SOL    HW121983   0.405   3.411  16.229 -0.8135  1.4415 -1.5210
 3507SOL    HW221984   0.454   3.544  16.267 -2.9217  1.8861 -0.8200
 3508SOL     OW21985   1.462   2.120   3.289 -0.0419 -0.5122 -0.4464
 3508SOL    HW121986   1.542   2.169   3.306 -1.0368  1.0595 -0.2524
 3508SOL    HW221987   1.456   2.081   3.376  1.7980  0.4425  0.1140
 3509SOL     OW21988   4.627   4.538  12.374  0.2154 -0.1729  0.1909
 3509SOL    HW121989   4.638   4.478  12.447 -0.4583 -0.3550  0.1450
 3509SOL    HW221990   4.552   4.590  12.404  1.1008  0.9444  0.4863
 3510SOL     OW21991   3.277   3.988  14.125  0.4943 -0.3854 -0.7181
 3510SOL    HW121992   3.242   3.983  14.213  0.4900  0.7115 -0.6495
 3510SOL    HW221993   3.306   3.899  14.106 -0.0510 -0.5771 -0.6214
 3511SOL     OW21994   3.064   0.532   3.507 -0.2893  0.6481 -0.5523
 3511SOL    HW121995   3.131   0.465   3.516 -0.2911  0.5903 -0.9532
 3511SOL    HW221996   3.100   0.599   3.565  1.5109 -2.8617  2.3711
 3512SOL     OW21997   3.306   3.645   1.920 -0.7224  0.0538  0.2170
 3512SOL    HW121998   3.384   3.596   1.944  0.5300  0.9691 -2.0248
 3512SOL    HW221999   3.269   3.679   2.002  1.1900  1.1068  0.6450
 3513SOL     OW22000   4.064   3.400   2.515 -0.7094  0.2679  0.4078
 3513SOL    HW122001   4.140   3.348   2.538 -1.0692 -0.0042  0.9769
 3513SOL    HW222002   4.043   3.366   2.428  0.8517  1.7555 -0.5633
 3514SOL     OW22003   0.382   2.354   4.082 -0.4884 -0.1641 -0.1115
 3514SOL    HW122004   0.367   2.370   3.988 -1.1812 -2.1431 -0.3344
 3514SOL    HW222005   0.305   2.308   4.115 -0.6203  0.7408  0.8459
 3515SOL     OW22006   2.399   4.375   2.141  0.1643  0.3675 -0.2572
 3515SOL    HW122007   2.492   4.361   2.161 -0.4644 -3.8468 -0.3397
 3515SOL    HW222008   2.366   4.395   2.229  3.3919 -1.0068  1.2941
 3516SOL     OW22009   2.458   1.767  16.144  0.0041 -0.3306 -0.7508
 3516SOL    HW122010   2.470   1.749  16.237  2.6089  0.9268 -0.8408
 3516SOL    HW222011   2.383   1.712  16.120 -1.3081  2.0941 -2.1363
 3517SOL     OW22012   4.115   3.084  10.718 -0.1783  0.2136 -0.2734
 3517SOL    HW122013   4.194   3.115  10.672  0.7903 -1.2622  0.3861
 3517SOL    HW222014   4.150   3.023  10.783 -1.9090 -0.9532 -0.4559
 3518SOL     OW22015   0.881   3.277   0.331  0.2586 -0.0170 -0.0522
 3518SOL    HW122016   0.801   3.326   0.311 -0.8004 -1.9128 -0.4589
 3518SOL    HW222017   0.930   3.349   0.370 -0.8187  2.1599 -2.7212
 3519SOL     OW22018   0.543   4.606  14.162  0.5678 -0.1277  0.2454
 3519SOL    HW122019   0.549   4.668  14.234 -1.4194 -1.7342  1.7818
 3519SOL    HW222020   0.499   4.664  14.100  0.5310 -0.2632  0.1448
 3520SOL     OW22021   1.260   3.907   5.585  0.8401 -0.3393 -0.4450
 3520SOL    HW122022   1.257   3.996   5.550 -1.2953  0.6030  2.1348
 3520SOL    HW222023   1.341   3.917   5.635  0.7702  1.6809 -0.7457
 3521SOL     OW22024   1.906   1.327   3.758 -0.0238  0.4144 -0.5834
 3521SOL    HW122025   1.959   1.325   3.838 -2.6057 -0.9315  1.0803
 3521SOL    HW222026   1.961   1.361   3.687 -0.3767 -0.2125 -1.1529
 3522SOL     OW22027   0.529   0.276   8.578  0.1530 -0.5162  0.0961
 3522SOL    HW122028   0.497   0.349   8.524 -1.3318 -2.1176 -1.1935
 3522SOL    HW222029   0.467   0.281   8.651  1.7779  3.0493  1.2345
 3523SOL     OW22030   0.496   0.260   2.611  0.3740 -0.2130  0.1147
 3523SOL    HW122031   0.484   0.295   2.522 -0.5936  0.4118  0.4896
 3523SOL    HW222032   0.411   0.229   2.641  0.9590  0.6647  2.6523
 3524SOL     OW22033   1.808   3.223   4.012  0.0012 -0.2196 -0.2110
 3524SOL    HW122034   1.797   3.304   3.961 -1.4213  1.4391  2.7255
 3524SOL    HW222035   1.904   3.227   4.019 -0.1796  0.5122  1.9104
 3525SOL     OW22036   0.160   3.027   6.880  0.1888  0.2547 -0.3484
 3525SOL    HW122037   0.202   2.963   6.823  1.5676  1.6645 -0.9168
 3525SOL    HW222038   0.094   2.974   6.925  0.3249 -0.7355 -1.3148
 3526SOL     OW22039   3.117   2.762  12.966  0.2447 -0.5283 -0.1337
 3526SOL    HW122040   3.189   2.730  12.910  0.3559  0.6548 -0.6861
 3526SOL    HW222041   3.174   2.789  13.038 -2.7656  2.3591  1.1637
 3527SOL     OW22042   3.917   0.626   3.261  0.5591 -0.0550 -0.3591
 3527SOL    HW122043   3.922   0.543   3.213 -0.5959 -0.2830 -0.0766
 3527SOL    HW222044   3.887   0.683   3.190 -1.8773 -0.9803 -0.0910
 3528SOL     OW22045   1.734   0.492   8.470 -0.2549  0.1700  0.2107
 3528SOL    HW122046   1.713   0.401   8.453 -1.2186  0.3855  0.2596
 3528SOL    HW222047   1.791   0.506   8.394 -0.9360  2.8078  0.1559
 3529SOL     OW22048   3.357   1.557   9.346 -0.0326  0.2423 -0.2437
 3529SOL    HW122049   3.406   1.577   9.426 -1.4110  0.9130  0.4258
 3529SOL    HW222050   3.423   1.571   9.278  1.0429 -3.9209 -0.0591
 3530SOL     OW22051   0.899   3.106   5.667  0.2114  0.2565 -0.1233
 3530SOL    HW122052   0.826   3.168   5.671  0.1488  0.2634 -1.4438
 3530SOL    HW222053   0.908   3.093   5.573  2.5097  2.3675 -0.2021
 3531SOL     OW22054   4.381   1.783   7.277  0.1318 -0.0275 -0.5720
 3531SOL    HW122055   4.430   1.748   7.351  1.6438  0.6005 -1.2863
 3531SOL    HW222056   4.439   1.850   7.241 -1.7180  2.0948  0.4199
 3532SOL     OW22057   0.237   4.353  16.200  0.3705 -0.0975  0.1761
 3532SOL    HW122058   0.304   4.365  16.133 -0.1342  0.0806 -0.2997
 3532SOL    HW222059   0.161   4.377  16.146 -0.0410  0.1538  0.8593
 3533SOL     OW22060   3.543   2.043   7.680  0.4102 -0.7940  0.2313
 3533SOL    HW122061   3.489   2.034   7.759 -0.8900  2.2997 -0.3107
 3533SOL    HW222062   3.528   1.952   7.654 -0.8833 -0.3896 -0.4579
 3534SOL     OW22063   0.920   2.228   1.745  0.6331  0.1614 -0.7147
 3534SOL    HW122064   0.876   2.164   1.688 -0.8512  0.5787 -0.0335
 3534SOL    HW222065   1.004   2.184   1.759  0.3910 -0.6616 -1.8795
 3535SOL     OW22066   2.817   4.471   2.221 -0.1367  0.0197  0.0546
 3535SOL    HW122067   2.775   4.525   2.288 -1.0285 -0.8290  0.1897
 3535SOL    HW222068   2.881   4.425   2.274 -0.0597 -0.2759 -0.2933
 3536SOL     OW22069   3.469   0.582   5.848 -0.3932 -0.2103 -0.3116
 3536SOL    HW122070   3.541   0.636   5.815 -0.4994 -0.8179 -1.5110
 3536SOL    HW222071   3.410   0.644   5.891  0.0568  1.4383 -2.0962
 3537SOL     OW22072   3.767   1.831  14.460  0.2959 -0.4413 -0.1373
 3537SOL    HW122073   3.840   1.848  14.520 -0.3793 -1.5202  0.9780
 3537SOL    HW222074   3.812   1.756  14.422  0.6133 -0.7154  0.7672
 3538SOL     OW22075   0.089   3.619  12.757  0.3162  0.6005  0.2315
 3538SOL    HW122076   0.118   3.565  12.830 -0.4547  1.3659  1.0966
 3538SOL    HW222077   0.105   3.708  12.787 -1.4167  0.4519  1.5934
 3539SOL     OW22078   0.148   3.557  16.293  0.4407 -0.2894 -0.4608
 3539SOL    HW122079   0.225   3.530  16.343 -0.3312 -1.2085  0.2366
 3539SOL    HW222080   0.174   3.627  16.234  0.4812  1.1880  1.3104
 3540SOL     OW22081   1.126   0.523  10.488  0.2870 -0.2570  0.4376
 3540SOL    HW122082   1.133   0.492  10.397  0.4457  0.7848  0.1008
 3540SOL    HW222083   1.162   0.456  10.546  1.1723  1.8568  2.2893
 3541SOL     OW22084   3.504   2.839  14.176 -0.7763 -0.1309  0.1298
 3541SOL    HW122085   3.472   2.927  14.154 -0.1257  0.4309  1.4251
 3541SOL    HW222086   3.423   2.788  14.180 -0.5961 -0.4465 -0.3881
 3542SOL     OW22087   2.625   0.868   1.031  0.3769 -0.2597 -0.0834
 3542SOL    HW122088   2.649   0.956   1.003 -1.0296 -0.3103 -1.4322
 3542SOL    HW222089   2.669   0.816   0.964  0.7554  0.0211 -0.0503
 3543SOL     OW22090   1.702   1.934   9.139 -0.2326 -0.0920 -0.0679
 3543SOL    HW122091   1.679   1.985   9.217 -3.7942  1.6191 -2.2667
 3543SOL    HW222092   1.613   1.916   9.109 -0.1253 -1.1985  0.2644
 3544SOL     OW22093   2.401   3.025   1.855  0.3184  0.0656  0.1222
 3544SOL    HW122094   2.480   2.993   1.812 -1.2486 -2.2415 -1.0725
 3544SOL    HW222095   2.396   2.976   1.938 -0.1382 -0.4408 -0.2017
 3545SOL     OW22096   2.337   4.427  12.676 -0.4634 -0.0932  0.7837
 3545SOL    HW122097   2.352   4.458  12.587 -0.8243  2.5162  1.6348
 3545SOL    HW222098   2.418   4.381  12.698 -1.0916 -1.6218 -0.0138
 3546SOL     OW22099   3.914   2.085  17.598  0.0509 -0.2692  0.3815
 3546SOL    HW122100   3.838   2.040  17.634 -0.4117 -0.5438 -0.9563
 3546SOL    HW222101   3.963   2.017  17.552 -1.3827  0.0582 -1.6304
 3547SOL     OW22102   2.420   4.085   2.259 -0.4600  0.6218  0.1505
 3547SOL    HW122103   2.392   4.029   2.187 -0.0101 -1.5607  1.6850
 3547SOL    HW222104   2.475   4.154   2.221  1.2175 -1.6522 -1.6069
 3548SOL     OW22105   0.965   0.730   3.584  0.3553  0.5165 -0.2721
 3548SOL    HW122106   1.031   0.791   3.616  0.3728 -0.3192  1.3250
 3548SOL    HW222107   1.023   0.655   3.578 -2.3734 -1.5521 -1.0744
 3549SOL     OW22108   0.327   2.885   3.456 -0.1728 -0.2787 -0.5479
 3549SOL    HW122109   0.242   2.870   3.497 -0.2503  3.4869  0.6934
 3549SOL    HW222110   0.371   2.800   3.463 -0.9868 -0.8646 -2.5482
 3550SOL     OW22111   4.511   0.505   2.316  0.1221  0.1719  0.2716
 3550SOL    HW122112   4.535   0.574   2.378 -0.0355  1.2807 -0.9052
 3550SOL    HW222113   4.452   0.457   2.373  1.2560  0.3999  1.6250
 3551SOL     OW22114   0.033   3.141   5.233 -0.4790  0.0510  0.2407
 3551SOL    HW122115   0.086   3.202   5.284 -0.1066  0.5363 -0.7155
 3551SOL    HW222116   4.704   3.194   5.173 -0.8792 -0.2129  0.3580
 3552SOL     OW22117   0.110   2.609   8.095  0.2133 -0.0855  0.0896
 3552SOL    HW122118   0.114   2.681   8.032  1.7044  0.6465  1.0178
 3552SOL    HW222119   0.075   2.657   8.170  0.6191 -0.1301  0.3099
 3553SOL     OW22120   1.835   1.703   6.748 -0.0783  0.8475  0.0048
 3553SOL    HW122121   1.881   1.622   6.770 -0.2760  0.2209 -1.9067
 3553SOL    HW222122   1.762   1.667   6.698 -1.3273  1.1678  1.6073
 3554SOL     OW22123   3.268   1.406   6.398 -0.3398  0.5818 -0.0106
 3554SOL    HW122124   3.232   1.344   6.336 -0.8238  0.5777  0.2758
 3554SOL    HW222125   3.188   1.450   6.427  0.2872  1.7716 -0.0894
 3555SOL     OW22126   4.477   2.852   5.489  0.2913 -0.2665 -0.0165
 3555SOL    HW122127   4.561   2.893   5.512  0.3592 -0.2474 -0.2969
 3555SOL    HW222128   4.439   2.832   5.574 -0.5673  0.9275 -0.1132
 3556SOL     OW22129   2.472   3.191  13.165 -0.2871 -0.0421 -0.4223
 3556SOL    HW122130   2.459   3.249  13.240  0.0857  2.0068 -1.9326
 3556SOL    HW222131   2.426   3.233  13.093  1.3035  1.4684 -0.5719
 3557SOL     OW22132   0.348   0.171   3.345  0.2694 -0.0175 -0.4626
 3557SOL    HW122133   0.418   0.146   3.284 -0.6550 -0.8001 -1.2106
 3557SOL    HW222134   0.406   0.178   3.420  0.0846 -2.2607 -0.1039
 3558SOL     OW22135   3.431   2.106   3.014  0.5098 -0.0559 -0.6752
 3558SOL    HW122136   3.411   2.167   3.086 -0.2398 -0.1857 -0.7674
 3558SOL    HW222137   3.442   2.162   2.937  0.1884  1.2683  0.2372
 3559SOL     OW22138   0.122   3.520  11.725 -0.2643  0.0829 -0.0784
 3559SOL    HW122139   0.034   3.484  11.736 -0.2127 -0.3762 -1.1087
 3559SOL    HW222140   0.093   3.604  11.689  1.4400  0.2834 -1.0073
 3560SOL     OW22141   2.521   0.643   7.706  0.6970  0.0487  0.1724
 3560SOL    HW122142   2.454   0.576   7.723  0.4234  0.3705  0.3611
 3560SOL    HW222143   2.465   0.720   7.716 -0.0026 -0.5673  1.0036
 3561SOL     OW22144   0.449   4.055   8.235  0.6346  0.1159  0.4506
 3561SOL    HW122145   0.491   4.125   8.185 -1.1356  0.3235 -0.7509
 3561SOL    HW222146   0.521   3.992   8.230  0.3384 -0.3381  1.7697
 3562SOL     OW22147   2.111   0.756   3.136  0.4371  0.1611  0.2424
 3562SOL    HW122148   2.136   0.743   3.045  1.6253  0.0401  0.5797
 3562SOL    HW222149   2.163   0.828   3.171  0.4198  1.5968 -2.7146
 3563SOL     OW22150   2.805   1.692  14.277 -0.2850 -0.5998  0.6313
 3563SOL    HW122151   2.822   1.640  14.355  0.5496 -0.2468  0.6873
 3563SOL    HW222152   2.718   1.664  14.248  0.6004  0.8259 -3.4507
 3564SOL     OW22153   4.216   0.741  11.597  0.5677 -0.0859  0.3687
 3564SOL    HW122154   4.180   0.654  11.583  1.3082 -0.3738  0.2785
 3564SOL    HW222155   4.186   0.771  11.683  2.8593  2.0821  0.4230
 3565SOL     OW22156   1.648   1.592   4.121 -0.2315 -0.1155 -0.6550
 3565SOL    HW122157   1.731   1.630   4.151 -0.5600 -1.8605  2.4643
 3565SOL    HW222158   1.658   1.505   4.158  0.1735  0.3220  0.2635
 3566SOL     OW22159   4.352   1.768   3.098  0.2645 -0.3140 -0.7120
 3566SOL    HW122160   4.380   1.694   3.044  1.8373 -1.6678  1.9013
 3566SOL    HW222161   4.288   1.713   3.143 -0.4094 -1.2392 -2.8399
 3567SOL     OW22162   3.033   2.035   1.766  0.3329  0.0794 -0.7180
 3567SOL    HW122163   3.096   2.086   1.715  1.0068 -0.3789 -0.3533
 3567SOL    HW222164   3.067   2.053   1.853  0.3339 -2.0796 -0.2618
 3568SOL     OW22165   3.411   3.308  11.180 -0.1574  0.1034 -0.0598
 3568SOL    HW122166   3.332   3.288  11.229 -1.0363  1.9261 -0.6964
 3568SOL    HW222167   3.446   3.220  11.167  1.1548  1.1610 -3.8501
 3569SOL     OW22168   4.423   0.673   6.725 -0.7888 -0.3469  0.1782
 3569SOL    HW122169   4.388   0.746   6.775 -1.6856 -0.2980 -0.5167
 3569SOL    HW222170   4.342   0.647   6.681 -1.3396  1.5552  0.0933
 3570SOL     OW22171   2.238   4.391   5.667  0.2112 -0.6857  0.2855
 3570SOL    HW122172   2.171   4.374   5.601  0.1929  2.4802 -0.5243
 3570SOL    HW222173   2.179   4.424   5.735 -0.2232 -2.6994  0.8631
 3571SOL     OW22174   4.330   3.251   9.134  0.3963 -0.3662  0.0904
 3571SOL    HW122175   4.393   3.227   9.066  1.4151  2.1378  0.1321
 3571SOL    HW222176   4.355   3.201   9.211  0.8702 -1.0455 -0.5027
 3572SOL     OW22177   0.992   3.010   5.420  0.3542  0.2073  0.6564
 3572SOL    HW122178   0.933   2.942   5.387  1.2404 -1.5086  2.6117
 3572SOL    HW222179   0.995   3.076   5.350  0.0259 -0.6128 -0.1294
 3573SOL     OW22180   2.169   2.297   8.764 -0.2385  0.3082  0.0649
 3573SOL    HW122181   2.240   2.245   8.802  0.9051  2.3313  0.6724
 3573SOL    HW222182   2.144   2.341   8.845 -1.4983  0.3102 -0.3270
 3574SOL     OW22183   4.015   0.583  10.203 -0.1994  0.8632 -0.5562
 3574SOL    HW122184   3.953   0.656  10.210  1.5537  2.5429 -2.4324
 3574SOL    HW222185   4.063   0.620  10.129  1.1544 -0.1719 -0.1956
 3575SOL     OW22186   1.334   0.086   6.256 -0.1937  0.1490 -0.5006
 3575SOL    HW122187   1.263   0.075   6.192 -2.6886 -0.2325  2.3713
 3575SOL    HW222188   1.317   0.000   6.295  0.3048  0.4958  0.4803
 3576SOL     OW22189   1.916   2.065  17.695 -0.0283 -0.3084  0.1449
 3576SOL    HW122190   1.822   2.050  17.682 -0.2362  1.7385 -0.7583
 3576SOL    HW222191   1.934   2.014   0.077 -0.3428 -0.3988  0.1607
 3577SOL     OW22192   2.657   0.103   7.005 -0.0716 -0.7256 -0.1080
 3577SOL    HW122193   2.607   0.142   7.076  1.1660 -1.5998  1.2601
 3577SOL    HW222194   2.587   0.055   6.962 -1.8611  1.1990  0.6292
 3578SOL     OW22195   4.059   4.203   6.588 -0.6708  0.0603 -0.2068
 3578SOL    HW122196   4.147   4.238   6.576 -0.4768  0.0155  1.1608
 3578SOL    HW222197   4.012   4.222   6.506  0.4571 -0.5994 -1.0079
 3579SOL     OW22198   1.284   4.558   6.008  0.3281 -0.4666 -0.3102
 3579SOL    HW122199   1.243   4.645   6.013 -0.8164 -0.9522 -1.4700
 3579SOL    HW222200   1.227   4.484   6.025  0.3342 -0.5124 -0.4882
 3580SOL     OW22201   4.555   2.609   8.060 -0.3350 -0.7943 -0.3228
 3580SOL    HW122202   4.645   2.582   8.042 -0.3337 -0.9096 -0.1447
 3580SOL    HW222203   4.509   2.546   8.115  1.7918 -0.8527  1.3928
 3581SOL     OW22204   4.474   2.750   0.963 -0.2534 -0.2246 -0.6048
 3581SOL    HW122205   4.451   2.690   0.893  0.2298 -0.1616 -0.8169
 3581SOL    HW222206   4.496   2.829   0.914 -2.9427  0.4556 -0.6994
 3582SOL     OW22207   1.053   2.587   6.778  0.3324 -0.1479 -0.5361
 3582SOL    HW122208   1.100   2.563   6.858  0.6410  0.0234 -0.6670
 3582SOL    HW222209   0.984   2.639   6.819  0.8378  0.8263 -0.9154
 3583SOL     OW22210   1.604   2.589   0.442  0.0419 -0.4832 -0.5576
 3583SOL    HW122211   1.691   2.559   0.467 -0.0437 -1.6144 -1.6031
 3583SOL    HW222212   1.555   2.507   0.438 -0.0242 -0.5999  2.8515
 3584SOL     OW22213   0.405   3.373   6.929  0.5619 -0.3179  0.2124
 3584SOL    HW122214   0.468   3.310   6.894 -0.2789  0.3404 -2.4415
 3584SOL    HW222215   0.446   3.404   7.010 -1.1437  0.4346  0.7929
 3585SOL     OW22216   1.755   4.369   2.919  0.2703 -0.4809  0.0832
 3585SOL    HW122217   1.725   4.280   2.939  2.5435 -1.0761  0.8005
 3585SOL    HW222218   1.834   4.379   2.971  0.4615  0.3676 -0.3789
 3586SOL     OW22219   3.038   1.405   5.077 -0.3919 -0.0680 -0.5534
 3586SOL    HW122220   3.099   1.474   5.103 -0.9647 -0.2757  1.2851
 3586SOL    HW222221   2.962   1.449   5.038 -0.5623 -0.9335 -1.1965
 3587SOL     OW22222   0.638   2.158   6.885  0.0874  0.2933 -0.1204
 3587SOL    HW122223   0.604   2.069   6.879 -0.2904  0.4259  0.0125
 3587SOL    HW222224   0.624   2.183   6.793 -0.3786  3.0236  0.6661
 3588SOL     OW22225   4.039   2.595   8.920 -0.1171 -0.3542  0.4898
 3588SOL    HW122226   4.091   2.552   8.989  0.8677 -0.0069 -0.0387
 3588SOL    HW222227   4.098   2.656   8.876  0.6205 -1.4627 -0.0399
 3589SOL     OW22228   2.436   3.151   2.912 -0.6539  0.0842  0.1503
 3589SOL    HW122229   2.462   3.059   2.920 -0.6506 -0.1165 -2.3668
 3589SOL    HW222230   2.342   3.145   2.927 -1.0329  1.2658 -1.7893
 3590SOL     OW22231   1.551   0.180   3.279 -0.8075 -0.0723 -0.1109
 3590SOL    HW122232   1.601   0.257   3.251  0.3911 -0.6402  0.4952
 3590SOL    HW222233   1.462   0.210   3.258 -1.3923 -0.6763  1.5577
 3591SOL     OW22234   0.790   3.685   6.609  0.5785 -0.2683  0.3779
 3591SOL    HW122235   0.791   3.674   6.704 -2.3616 -0.2939  0.3885
 3591SOL    HW222236   0.773   3.598   6.573  2.4665 -0.8082  0.7680
 3592SOL     OW22237   4.563   0.151  16.483  0.1250 -0.3815 -0.0883
 3592SOL    HW122238   4.478   0.152  16.440 -1.0636  1.0709  2.2666
 3592SOL    HW222239   4.556   0.233  16.531 -1.6321 -0.5959  0.0076
 3593SOL     OW22240   2.445   4.484   6.096  0.5530  0.3661  0.0164
 3593SOL    HW122241   2.462   4.574   6.071 -2.7701  1.1279  0.5298
 3593SOL    HW222242   2.446   4.427   6.019 -2.6524 -1.1677  1.1196
 3594SOL     OW22243   4.659   1.354   4.354 -0.1826  0.0463  0.1177
 3594SOL    HW122244   4.710   1.367   4.434  0.0883  1.0170 -0.2034
 3594SOL    HW222245   4.694   1.274   4.316 -0.3438  0.0982 -0.1383
 3595SOL     OW22246   4.504   1.348  11.567 -0.0894  0.1488  0.6325
 3595SOL    HW122247   4.588   1.389  11.589  0.3981 -2.0592  2.9139
 3595SOL    HW222248   4.529   1.316  11.481  0.8424  0.1490  0.8970
 3596SOL     OW22249   2.817   3.647   3.425  0.1596  0.1619  0.2316
 3596SOL    HW122250   2.899   3.603   3.450  0.5227  0.3683 -0.5843
 3596SOL    HW222251   2.811   3.722   3.484 -0.3127 -2.1093  3.1160
 3597SOL     OW22252   3.239   3.906  16.977  0.1429 -0.0525 -0.1470
 3597SOL    HW122253   3.276   3.986  16.940  1.3070  0.0856  1.3609
 3597SOL    HW222254   3.211   3.855  16.900 -3.8205  3.2515 -0.8978
 3598SOL     OW22255   3.554   0.695   5.147  0.1065 -0.1279 -0.0432
 3598SOL    HW122256   3.464   0.682   5.120  0.3000 -0.4471 -0.5357
 3598SOL    HW222257   3.557   0.789   5.161  4.7351 -0.3844  0.8783
 3599SOL     OW22258   1.976   0.785   1.876  0.0935  0.2952 -0.1639
 3599SOL    HW122259   1.895   0.767   1.923 -0.2503  1.2812 -0.3895
 3599SOL    HW222260   2.011   0.700   1.848 -0.1143 -0.3978  1.7005
 3600SOL     OW22261   3.239   3.309   9.414 -0.3354  0.4031  0.1551
 3600SOL    HW122262   3.327   3.310   9.452 -0.1996 -0.3031 -0.1295
 3600SOL    HW222263   3.185   3.272   9.485  1.2810  0.0174  1.1795
 3601SOL     OW22264   0.401   1.865   9.143 -0.4776  0.2572 -0.1977
 3601SOL    HW122265   0.395   1.915   9.225  3.9939  0.2323  0.1226
 3601SOL    HW222266   0.480   1.814   9.160 -1.4523 -0.9546  0.7379
 3602SOL     OW22267   1.883   2.303  13.409 -0.0915 -0.0112 -0.3809
 3602SOL    HW122268   1.806   2.323  13.356 -1.9811 -1.7454  1.6941
 3602SOL    HW222269   1.959   2.297  13.351 -0.5963 -1.7692 -0.8652
 3603SOL     OW22270   1.927   3.652   1.103  0.1536  0.3034  0.2944
 3603SOL    HW122271   1.870   3.691   1.037 -0.1895 -0.0537  0.3818
 3603SOL    HW222272   1.952   3.567   1.067 -0.5661 -0.2013  0.9969
 3604SOL     OW22273   0.617   2.860   1.229  0.5559 -0.0628 -0.0481
 3604SOL    HW122274   0.687   2.913   1.189  1.2649  0.5319  2.0114
 3604SOL    HW222275   0.539   2.910   1.205 -0.3025 -1.6946 -0.6451
 3605SOL     OW22276   3.678   1.193  17.285  0.4418  0.5443  0.0229
 3605SOL    HW122277   3.702   1.134  17.357 -1.1231 -1.3044 -0.9760
 3605SOL    HW222278   3.730   1.271  17.304  0.7825  0.6307 -1.3081
 3606SOL     OW22279   1.552   4.145   1.119 -0.4147  0.0324 -0.1370
 3606SOL    HW122280   1.475   4.182   1.076 -0.4731  1.4089  1.1281
 3606SOL    HW222281   1.510   4.073   1.166 -0.6732  1.0197  1.1448
 3607SOL     OW22282   2.956   4.614   9.515 -0.6958  0.3819  0.4539
 3607SOL    HW122283   2.920   4.703   9.521  1.4605  1.2239  0.8622
 3607SOL    HW222284   2.945   4.582   9.426  1.8883  1.3161 -0.2009
 3608SOL     OW22285   1.477   0.745   2.822 -0.1692  0.3224 -0.0383
 3608SOL    HW122286   1.419   0.689   2.874 -0.7880  0.5576 -0.4812
 3608SOL    HW222287   1.412   0.811   2.798  0.8380  1.3357 -0.0118
 3609SOL     OW22288   1.703   0.652  15.112 -0.1166 -0.0689 -0.1166
 3609SOL    HW122289   1.750   0.735  15.111 -1.2513  0.5604 -0.8589
 3609SOL    HW222290   1.744   0.613  15.189 -0.4539  0.3730  0.2884
 3610SOL     OW22291   0.199   3.200   9.481 -0.0958  0.4910 -0.1635
 3610SOL    HW122292   0.278   3.239   9.518 -0.1267 -0.7210  1.2060
 3610SOL    HW222293   0.173   3.261   9.412  1.2199  0.4604 -0.6848
 3611SOL     OW22294   3.256   1.101   7.784 -0.3169  0.0324  0.2373
 3611SOL    HW122295   3.193   1.030   7.799 -0.5520  0.3576  0.8196
 3611SOL    HW222296   3.245   1.160   7.859 -0.8687  0.5249 -0.2288
 3612SOL     OW22297   1.775   3.880   0.789  0.2139 -0.6164  0.0330
 3612SOL    HW122298   1.758   3.823   0.714 -1.4223  2.0734 -1.6506
 3612SOL    HW222299   1.714   3.953   0.783  0.0027 -0.8318 -0.4819
 3613SOL     OW22300   4.029   4.408  15.035  0.3317  0.2686 -0.1136
 3613SOL    HW122301   3.981   4.491  15.030  0.4264  0.2545 -1.2574
 3613SOL    HW222302   3.979   4.372  15.108  0.7217  2.5007  1.2312
 3614SOL     OW22303   3.301   3.000   2.569 -0.4375 -0.0570  0.0999
 3614SOL    HW122304   3.367   3.043   2.514 -1.5316  0.6524 -0.6599
 3614SOL    HW222305   3.302   2.916   2.524 -0.3797 -0.1318  0.2404
 3615SOL     OW22306   2.592   1.191  13.009  0.2966 -0.0424  0.3865
 3615SOL    HW122307   2.651   1.240  12.952  0.1322  1.7291  1.7380
 3615SOL    HW222308   2.605   1.103  12.972 -0.7273 -0.3945  0.8559
 3616SOL     OW22309   0.399   0.552   3.357  0.1589  0.4813  0.1483
 3616SOL    HW122310   0.419   0.476   3.412  0.6930  0.4413 -0.0933
 3616SOL    HW222311   0.466   0.609   3.394 -0.4886  0.3356  1.5185
 3617SOL     OW22312   4.406   4.359   5.733  0.0899 -0.0490 -0.4366
 3617SOL    HW122313   4.353   4.407   5.669  2.1980  0.9687 -1.4378
 3617SOL    HW222314   4.396   4.268   5.705 -0.7840 -0.3402  0.8154
 3618SOL     OW22315   0.570   0.946  13.931 -0.0913 -0.1975 -0.6156
 3618SOL    HW122316   0.594   0.976  13.843 -1.4532  0.2447 -0.8316
 3618SOL    HW222317   0.617   1.013  13.982 -0.0325 -0.5057 -0.2650
 3619SOL     OW22318   0.919   1.406   5.529  0.0516  0.4380  0.5214
 3619SOL    HW122319   0.964   1.381   5.448 -2.4870 -0.6873 -0.5603
 3619SOL    HW222320   0.876   1.485   5.497 -0.7902 -0.9059 -1.7085
 3620SOL     OW22321   0.133   3.451   5.869  0.1701 -0.0174 -0.0006
 3620SOL    HW122322   0.116   3.443   5.963  2.1511  2.3061  0.5320
 3620SOL    HW222323   0.039   3.448   5.853  0.3435 -0.5311 -0.9249
 3621SOL     OW22324   4.218   2.832   4.020  0.0211 -0.0024  0.0688
 3621SOL    HW122325   4.198   2.808   4.110  1.5390  3.1307  1.2753
 3621SOL    HW222326   4.285   2.767   3.997 -1.0170 -0.4678 -1.6720
 3622SOL     OW22327   0.168   3.729   1.874 -0.4769  0.2868  0.1446
 3622SOL    HW122328   0.251   3.690   1.846  0.1166  0.1722  2.0716
 3622SOL    HW222329   0.107   3.660   1.846 -1.4807  0.8068  1.0846
 3623SOL     OW22330   3.812   4.562  12.754  0.6109  0.7996 -0.1777
 3623SOL    HW122331   3.743   4.624  12.731 -1.7756 -1.2426  1.3666
 3623SOL    HW222332   3.821   4.577  12.848  2.8885 -2.2070  0.1130
 3624SOL     OW22333   2.703   1.047   2.191 -0.3261 -0.7283 -0.1780
 3624SOL    HW122334   2.645   1.074   2.262  2.7826 -1.2171  2.5490
 3624SOL    HW222335   2.657   0.966   2.172  0.1101 -0.7931 -0.9417
 3625SOL     OW22336   3.840   1.094   8.456  0.3449 -0.6009  0.3017
 3625SOL    HW122337   3.909   1.107   8.522  2.0264  1.0438 -1.8147
 3625SOL    HW222338   3.879   1.033   8.394 -3.5579 -0.3877 -2.3734
 3626SOL     OW22339   3.113   1.848   7.632  0.3194  0.2488  0.0058
 3626SOL    HW122340   3.132   1.939   7.658 -1.8159  1.1044 -1.4745
 3626SOL    HW222341   3.035   1.840   7.688 -0.1078 -0.2140 -0.6720
 3627SOL     OW22342   1.151   3.996   4.745 -0.0234 -0.0650  0.1271
 3627SOL    HW122343   1.164   4.005   4.650 -0.1541 -1.4836 -0.0222
 3627SOL    HW222344   1.190   4.070   4.791  2.1995 -1.2176  0.1008
 3628SOL     OW22345   1.566   1.729   2.903 -0.6935  0.0184  0.0392
 3628SOL    HW122346   1.481   1.710   2.943 -0.0125 -2.5227  0.2430
 3628SOL    HW222347   1.571   1.809   2.956  1.6566 -1.1362  1.5109
 3629SOL     OW22348   3.697   3.082   8.372  0.0795 -0.4582 -0.3366
 3629SOL    HW122349   3.618   3.135   8.361 -0.0757 -0.7507 -0.6405
 3629SOL    HW222350   3.655   3.005   8.411 -2.6109 -0.4285 -3.2161
 3630SOL     OW22351   0.877   1.982   1.579 -0.1408 -0.3470  0.5127
 3630SOL    HW122352   0.886   1.888   1.595 -0.0450 -0.3663  0.3416
 3630SOL    HW222353   0.786   1.980   1.550  0.2199 -1.6861 -0.5380
 3631SOL     OW22354   4.141   1.387   4.751  0.2767 -0.5240  0.3827
 3631SOL    HW122355   4.215   1.448   4.756 -0.2913  0.3509 -1.6504
 3631SOL    HW222356   4.187   1.305   4.767 -3.4294 -2.2535  2.2122
 3632SOL     OW22357   2.816   3.854   8.313  0.1839  0.1970 -0.6495
 3632SOL    HW122358   2.894   3.882   8.266  0.6276 -3.6676 -2.2051
 3632SOL    HW222359   2.812   3.769   8.268 -1.4637 -0.4608  0.7091
 3633SOL     OW22360   2.972   0.909  14.818 -0.0167  0.7404 -0.4222
 3633SOL    HW122361   2.962   0.814  14.821  1.9376  0.4978 -1.0123
 3633SOL    HW222362   2.910   0.933  14.886  1.0854 -0.0469  0.8644
 3634SOL     OW22363   0.801   4.701   2.856  0.2089 -0.2986  0.4512
 3634SOL    HW122364   0.769   0.066   2.840 -0.9408 -0.9812 -1.0517
 3634SOL    HW222365   0.880   4.710   2.802 -0.0696  1.2678  0.2833
 3635SOL     OW22366   4.195   4.014   9.097  0.5197 -0.0788 -0.0249
 3635SOL    HW122367   4.137   3.940   9.079 -1.0694  1.1545  0.1078
 3635SOL    HW222368   4.201   4.062   9.015 -2.3780 -1.1765 -0.8611
 3636SOL     OW22369   2.647   2.853   1.837  0.3589  0.0872 -0.3055
 3636SOL    HW122370   2.623   2.869   1.746  0.5941  1.1432 -0.1835
 3636SOL    HW222371   2.738   2.827   1.823 -0.4530 -2.0270 -1.7405
 3637SOL     OW22372   1.943   0.933   9.499  0.9097 -0.3828 -0.1401
 3637SOL    HW122373   1.944   0.954   9.405  1.0074 -0.4132 -0.1455
 3637SOL    HW222374   1.881   0.996   9.536  1.1121 -1.8920  2.7805
 3638SOL     OW22375   1.782   2.746   6.749 -0.0787 -0.5767  0.0291
 3638SOL    HW122376   1.876   2.761   6.758 -0.2344  0.1433  0.3951
 3638SOL    HW222377   1.767   2.676   6.812 -0.2334 -0.1497  0.4658
 3639SOL     OW22378   1.756   2.862  17.334  0.1168 -0.1799 -0.2405
 3639SOL    HW122379   1.843   2.885  17.365  0.5422 -2.5245  0.2475
 3639SOL    HW222380   1.697   2.913  17.390  0.3853  1.7318 -1.6848
 3640SOL     OW22381   1.016   2.002   8.625 -0.5041 -0.0742  0.0379
 3640SOL    HW122382   1.105   2.037   8.617 -1.4076  2.1500 -0.2989
 3640SOL    HW222383   1.002   2.012   8.719  0.7211  3.5815 -0.1544
 3641SOL     OW22384   2.932   0.997  12.687 -0.6134  0.4523 -0.3289
 3641SOL    HW122385   2.956   1.017  12.777 -4.1453 -1.7504  1.0729
 3641SOL    HW222386   3.022   0.999  12.653  0.0644  0.2220  1.4394
 3642SOL     OW22387   3.723   1.026   9.829 -0.1207  0.4906  0.1094
 3642SOL    HW122388   3.689   0.988   9.909  0.9100 -1.0146 -0.1630
 3642SOL    HW222389   3.757   0.947   9.787  0.4689  1.3142 -0.9490
 3643SOL     OW22390   0.623   3.702   1.748  0.0993 -0.2426 -0.6257
 3643SOL    HW122391   0.665   3.670   1.828 -0.2448  0.9007  0.0108
 3643SOL    HW222392   0.678   3.669   1.678 -0.7482 -1.0529 -0.9046
 3644SOL     OW22393   3.639   0.786   7.180 -0.3049  0.6268  0.7703
 3644SOL    HW122394   3.704   0.854   7.161  1.4728 -1.0505  0.7683
 3644SOL    HW222395   3.555   0.824   7.155 -0.8376  0.9641  3.0205
 3645SOL     OW22396   0.848   0.189  16.937 -0.0144 -0.2433 -0.1643
 3645SOL    HW122397   0.863   0.141  16.856 -2.2546 -3.3416  1.2604
 3645SOL    HW222398   0.779   0.131  16.969 -0.6468  2.0139  2.5346
 3646SOL     OW22399   3.986   0.103   7.516  0.2616 -0.4695  0.4198
 3646SOL    HW122400   4.028   0.182   7.548 -0.0592 -0.1337  0.0026
 3646SOL    HW222401   3.917   0.141   7.461  0.6964  2.8301  2.1811
 3647SOL     OW22402   2.727   2.802  13.056  0.1491  0.3908 -0.6266
 3647SOL    HW122403   2.717   2.837  13.144  0.5627  0.9747 -0.8112
 3647SOL    HW222404   2.683   2.718  13.067  1.7393 -0.1938  1.2656
 3648SOL     OW22405   3.455   0.891   4.737  0.0214 -0.1308 -0.5170
 3648SOL    HW122406   3.370   0.936   4.732  0.8070  1.5139  0.8251
 3648SOL    HW222407   3.440   0.805   4.777  1.3956 -1.5819 -3.2062
 3649SOL     OW22408   0.340   3.317  13.044 -0.2739 -0.4122 -0.5112
 3649SOL    HW122409   0.286   3.395  13.028  1.6477  0.8563 -0.8249
 3649SOL    HW222410   0.431   3.346  13.047  0.5003 -3.1306  2.6165
 3650SOL     OW22411   3.800   2.422   8.948  0.5241  0.3629 -0.1010
 3650SOL    HW122412   3.809   2.417   9.043 -0.1943 -1.1453 -0.0999
 3650SOL    HW222413   3.885   2.412   8.905  0.8900 -1.7554  1.1166
 3651SOL     OW22414   2.759   1.509   4.550  0.3468 -0.3868  0.5707
 3651SOL    HW122415   2.719   1.507   4.637 -0.8352 -0.6376  0.0071
 3651SOL    HW222416   2.723   1.589   4.511 -1.8516 -2.1597 -0.9652
 3652SOL     OW22417   3.987   1.823   6.095  0.1435  0.6470 -0.4416
 3652SOL    HW122418   4.080   1.800   6.102 -0.1074  0.3658  1.9122
 3652SOL    HW222419   3.951   1.750   6.145  1.2662  0.8429  0.6430
 3653SOL     OW22420   3.226   1.780   7.994  0.0267 -0.6146 -0.5951
 3653SOL    HW122421   3.164   1.707   7.996 -0.8217  0.1436  0.7108
 3653SOL    HW222422   3.308   1.732   7.986  1.7012  1.8441  1.8663
 3654SOL     OW22423   0.128   4.429   2.809 -0.1161  0.4508 -0.1822
 3654SOL    HW122424   0.214   4.472   2.813 -0.0519  0.1973  1.0989
 3654SOL    HW222425   0.080   4.489   2.751 -1.3724 -0.6097 -0.2392
 3655SOL     OW22426   0.198   1.736   4.382 -0.0134  0.5605  0.0232
 3655SOL    HW122427   0.275   1.682   4.399 -1.1954 -1.2805 -0.4680
 3655SOL    HW222428   0.196   1.755   4.288  1.0570  0.0681 -0.1019
 3656SOL     OW22429   3.359   2.812   4.673  0.2785  0.6478 -0.3300
 3656SOL    HW122430   3.378   2.733   4.724  1.3806  0.3343 -1.2226
 3656SOL    HW222431   3.318   2.772   4.596 -1.6718  0.1417  0.9767
 3657SOL     OW22432   1.612   0.557   7.141  0.0078 -0.8200 -0.2556
 3657SOL    HW122433   1.604   0.464   7.159 -0.3644 -0.5729  0.8544
 3657SOL    HW222434   1.534   0.583   7.190  0.2134 -1.3730  0.3570
 3658SOL     OW22435   4.278   3.071   2.024  0.4220 -0.5048 -0.8875
 3658SOL    HW122436   4.295   3.136   1.956 -0.8467 -2.0653 -2.6903
 3658SOL    HW222437   4.293   3.123   2.103  1.7383 -1.9947 -0.1410
 3659SOL     OW22438   3.260   2.415   3.505 -0.1003  0.1999 -0.7134
 3659SOL    HW122439   3.213   2.496   3.485  0.7540  1.0807  0.7646
 3659SOL    HW222440   3.194   2.351   3.481  0.4452  0.9193 -4.0875
 3660SOL     OW22441   4.112   3.589   2.956  0.9101  0.2326  0.1941
 3660SOL    HW122442   4.201   3.565   2.982  0.8140 -0.1435  0.1797
 3660SOL    HW222443   4.054   3.548   3.020  0.3749 -0.1021 -0.4997
 3661SOL     OW22444   2.008   2.709  15.198 -0.0456  0.1468 -0.4480
 3661SOL    HW122445   2.000   2.667  15.283 -0.7310 -3.2288 -2.1757
 3661SOL    HW222446   2.096   2.747  15.203  0.1049 -0.4631  1.5023
 3662SOL     OW22447   4.519   2.528  14.948 -0.0644 -0.0746 -0.2916
 3662SOL    HW122448   4.443   2.547  15.003  0.0185 -1.3085  0.2556
 3662SOL    HW222449   4.499   2.580  14.871  0.4606 -0.8234 -0.9340
 3663SOL     OW22450   3.433   3.080   4.624 -0.0772 -0.0580  0.1665
 3663SOL    HW122451   3.347   3.099   4.586 -0.0168 -2.1250 -1.0071
 3663SOL    HW222452   3.415   2.990   4.650 -0.0342  1.0713  4.0238
 3664SOL     OW22453   2.241   3.562  11.608  1.1401  0.5714 -0.0072
 3664SOL    HW122454   2.277   3.571  11.519 -1.6292 -2.0246 -1.4098
 3664SOL    HW222455   2.228   3.467  11.604 -0.6482  0.7896  0.7544
 3665SOL     OW22456   1.079   0.868   7.301 -0.0156  0.5533  0.2367
 3665SOL    HW122457   1.089   0.959   7.331  0.2141  0.4398  0.5004
 3665SOL    HW222458   1.086   0.820   7.383 -2.2462  0.5436  0.4333
 3666SOL     OW22459   2.134   2.663   0.584 -0.4802  0.0717 -0.3566
 3666SOL    HW122460   2.121   2.750   0.548 -0.3959  0.2284 -0.0166
 3666SOL    HW222461   2.185   2.688   0.662  2.8645 -0.8808 -2.2143
 3667SOL     OW22462   0.941   3.188   6.465 -0.4060 -0.1476  0.0033
 3667SOL    HW122463   0.996   3.258   6.430 -0.9023 -0.6244 -1.7083
 3667SOL    HW222464   0.851   3.197   6.432 -0.6213  3.4955  1.4845
 3668SOL     OW22465   4.438   2.575   7.362 -0.2672 -0.2666 -0.2161
 3668SOL    HW122466   4.480   2.539   7.284 -0.6352  4.4183 -2.5335
 3668SOL    HW222467   4.477   2.521   7.431  0.5573  2.2984  1.3267
 3669SOL     OW22468   4.201   2.518   7.766 -0.3288  0.2753 -0.1000
 3669SOL    HW122469   4.255   2.439   7.762 -0.2589  0.3050  0.3197
 3669SOL    HW222470   4.214   2.565   7.683  0.3576  0.0954 -0.0923
 3670SOL     OW22471   1.931   0.321   6.985  0.1521 -0.7276 -0.6644
 3670SOL    HW122472   1.915   0.412   6.959  0.1777 -0.4058  0.4401
 3670SOL    HW222473   1.874   0.263   6.934 -1.6968 -0.2195  0.8335
 3671SOL     OW22474   2.870   2.109   7.177 -0.5389 -0.0849 -0.1455
 3671SOL    HW122475   2.861   2.139   7.086 -0.3353 -0.3479 -0.2522
 3671SOL    HW222476   2.948   2.156   7.205 -1.3363  0.7678  0.6628
 3672SOL     OW22477   1.963   1.910   9.031  0.3111  0.2637 -0.1744
 3672SOL    HW122478   2.011   1.830   9.054 -0.3114  0.1260  0.6240
 3672SOL    HW222479   1.877   1.894   9.070  1.2390 -0.5895  1.4911
 3673SOL     OW22480   3.362   3.919   7.892  0.1406 -0.0255 -0.1128
 3673SOL    HW122481   3.311   3.850   7.934  0.0492 -0.3087 -0.7044
 3673SOL    HW222482   3.297   3.989   7.886 -0.7727 -0.8367  0.5199
 3674SOL     OW22483   0.835   1.532   8.620  0.3719  0.4303 -0.2437
 3674SOL    HW122484   0.918   1.487   8.601  0.3303  1.0876 -2.0030
 3674SOL    HW222485   0.810   1.554   8.530  0.8540 -1.4300 -0.8408
 3675SOL     OW22486   3.393   0.391   7.095 -0.6775 -0.4245 -0.3196
 3675SOL    HW122487   3.454   0.443   7.148 -1.6289 -0.0929  0.4375
 3675SOL    HW222488   3.451   0.325   7.058 -0.9734 -0.8264 -0.0666
 3676SOL     OW22489   0.795   3.375   5.680 -0.3556 -0.2719  0.1371
 3676SOL    HW122490   0.779   3.453   5.626  2.3321 -0.9496 -1.6157
 3676SOL    HW222491   0.850   3.414   5.748 -0.5645  0.8610 -0.3292
 3677SOL     OW22492   2.631   2.475  12.393 -0.4650 -0.3405  0.3170
 3677SOL    HW122493   2.583   2.404  12.350 -0.0573 -0.4640  0.0572
 3677SOL    HW222494   2.672   2.430  12.467  1.8817  1.3861  0.0766
 3678SOL     OW22495   4.535   4.448   9.371  0.1503 -0.0432 -0.1963
 3678SOL    HW122496   4.507   4.400   9.293  1.8733 -1.2507 -0.0651
 3678SOL    HW222497   4.581   4.525   9.339  1.7188 -0.1842  1.6811
 3679SOL     OW22498   2.723   0.448  17.569 -0.1159  0.1721 -0.3626
 3679SOL    HW122499   2.667   0.376  17.600  0.1188  0.2485  0.2311
 3679SOL    HW222500   2.702   0.524  17.623 -0.5483  0.2067 -0.5757
 3680SOL     OW22501   4.633   2.499   5.436 -0.5183 -0.2767  0.0092
 3680SOL    HW122502   4.621   2.573   5.376  1.2891  0.1862  0.2060
 3680SOL    HW222503   0.004   2.486   5.430 -0.5924 -0.2151 -1.2873
 3681SOL     OW22504   1.323   4.435   6.673  0.6683 -0.5363 -0.5575
 3681SOL    HW122505   1.337   4.392   6.589 -1.8342 -0.6368 -0.9299
 3681SOL    HW222506   1.355   4.525   6.670  0.2533 -0.3639  0.2344
 3682SOL     OW22507   1.772   1.278   1.340 -0.2022 -0.1278 -0.3687
 3682SOL    HW122508   1.853   1.230   1.323 -0.0761  1.4197 -4.1340
 3682SOL    HW222509   1.731   1.253   1.258  1.6880  1.5979 -1.8582
 3683SOL     OW22510   4.400   3.035  15.408 -0.8434 -0.1065 -0.3473
 3683SOL    HW122511   4.464   3.107  15.407  0.3574 -1.1302  1.7743
 3683SOL    HW222512   4.382   3.023  15.315 -0.1545 -0.8876 -0.3828
 3684SOL     OW22513   0.789   2.858   5.889 -0.8915 -0.1709  0.2739
 3684SOL    HW122514   0.806   2.921   5.959 -0.8425  0.8059 -0.6304
 3684SOL    HW222515   0.864   2.877   5.834 -1.1071  1.3032  0.5026
 3685SOL     OW22516   2.557   0.390   5.946  0.5698 -0.7064  0.0585
 3685SOL    HW122517   2.548   0.389   6.041 -0.2476 -0.3754 -0.0072
 3685SOL    HW222518   2.472   0.353   5.921  0.7603 -1.8083  1.0784
 3686SOL     OW22519   2.253   4.662  14.040  0.8775 -0.8300  0.5689
 3686SOL    HW122520   2.278   4.572  14.017 -2.0488 -1.2231 -1.1350
 3686SOL    HW222521   2.282   4.659  14.131 -1.2836 -1.7644  1.2220
 3687SOL     OW22522   0.860   0.143   6.795 -0.2154  0.2164  0.0395
 3687SOL    HW122523   0.905   0.159   6.879  0.1757  0.1412 -0.1543
 3687SOL    HW222524   0.789   0.088   6.827  0.3082  0.3340  1.4178
 3688SOL     OW22525   2.212   3.225   3.275 -0.6728  0.2967 -0.1874
 3688SOL    HW122526   2.249   3.149   3.232 -0.6559  0.5422 -0.6067
 3688SOL    HW222527   2.293   3.273   3.295 -1.4429  1.9883 -1.1402
 3689SOL     OW22528   1.683   4.356   4.783  0.2470  0.0962 -0.0839
 3689SOL    HW122529   1.759   4.349   4.726 -0.0513 -2.4939 -0.1359
 3689SOL    HW222530   1.714   4.306   4.859 -0.0636  1.1751  0.7645
 3690SOL     OW22531   4.483   3.518   7.407  0.1235  0.0846  0.0560
 3690SOL    HW122532   4.440   3.433   7.406 -1.0760  0.6658  2.3895
 3690SOL    HW222533   4.516   3.513   7.497  2.1419  1.6781 -0.5983
 3691SOL     OW22534   3.073   3.729   9.729 -0.0991  0.2863 -0.0858
 3691SOL    HW122535   3.040   3.664   9.667  0.7697  0.6296 -0.9127
 3691SOL    HW222536   3.094   3.813   9.687  1.8967 -0.1463  0.0531
 3692SOL     OW22537   1.495   0.988  13.650 -0.3094 -0.1093 -0.4841
 3692SOL    HW122538   1.578   0.990  13.697 -0.7421 -0.2710  0.2726
 3692SOL    HW222539   1.505   1.053  13.580  0.4224  1.1729  0.8019
 3693SOL     OW22540   0.613   0.763   8.956  0.4561 -0.3383 -0.5740
 3693SOL    HW122541   0.613   0.720   9.042  1.9597  0.9129  0.0336
 3693SOL    HW222542   0.690   0.819   8.965  0.3222 -0.5379  1.8046
 3694SOL     OW22543   0.643   1.874  14.240  0.2927  0.2217  0.3076
 3694SOL    HW122544   0.575   1.852  14.304  0.0132 -3.3206 -1.2172
 3694SOL    HW222545   0.682   1.788  14.223  3.1071  1.4545  0.5027
 3695SOL     OW22546   3.779   2.553   9.853 -0.4156 -0.1558  0.1340
 3695SOL    HW122547   3.844   2.535   9.785  0.4957 -0.5308  1.1024
 3695SOL    HW222548   3.782   2.647   9.865  0.4996 -0.0171 -1.2011
 3696SOL     OW22549   3.381   1.991   1.577 -0.0448  0.1091 -0.6443
 3696SOL    HW122550   3.454   1.979   1.637 -0.2786 -0.7940 -0.5373
 3696SOL    HW222551   3.331   2.055   1.628  0.0627  1.2786 -2.0070
 3697SOL     OW22552   2.757   4.693   3.882 -0.0798 -0.6183  0.8286
 3697SOL    HW122553   2.750   0.064   3.885 -1.1509 -0.6759  0.0307
 3697SOL    HW222554   2.725   4.665   3.797  0.6725 -1.9410  0.9812
 3698SOL     OW22555   4.417   4.034   8.493 -0.6947 -0.1778 -0.1178
 3698SOL    HW122556   4.435   4.097   8.423  0.7822 -1.7889 -1.2022
 3698SOL    HW222557   4.334   4.070   8.524 -0.9900 -0.5851 -0.4406
 3699SOL     OW22558   4.140   2.293   7.380  0.4684  0.4881  0.4989
 3699SOL    HW122559   4.159   2.218   7.435 -3.0498 -1.1987 -0.5595
 3699SOL    HW222560   4.087   2.338   7.446  2.0808  2.9832  0.1374
 3700SOL     OW22561   3.543   1.670   9.531  0.2418 -0.5213  0.2653
 3700SOL    HW122562   3.494   1.668   9.613  0.4327  2.3656  0.4619
 3700SOL    HW222563   3.628   1.644   9.567  1.1401  0.2105 -1.3240
 3701SOL     OW22564   2.166   1.578   8.848 -0.5046 -0.4245  0.2465
 3701SOL    HW122565   2.090   1.520   8.847  0.1447 -1.2308 -1.0340
 3701SOL    HW222566   2.235   1.523   8.813 -1.6982 -1.9638  0.3261
 3702SOL     OW22567   0.606   1.679  14.528  0.4227  0.0626 -0.3479
 3702SOL    HW122568   0.579   1.770  14.525 -0.6740 -0.2002  2.3886
 3702SOL    HW222569   0.565   1.650  14.446 -1.0569  2.6477 -0.4893
 3703SOL     OW22570   0.762   3.381   6.079 -0.3248  0.4788 -0.7393
 3703SOL    HW122571   0.689   3.407   6.024 -1.8662 -0.5560  0.8304
 3703SOL    HW222572   0.831   3.416   6.023 -0.5263  0.6319 -0.8903
 3704SOL     OW22573   2.954   3.542   5.971  0.0692  0.2028 -0.7302
 3704SOL    HW122574   2.948   3.629   5.930 -2.5021 -0.0175 -0.8169
 3704SOL    HW222575   2.961   3.550   6.066  2.5128  0.2529 -0.9284
 3705SOL     OW22576   1.414   2.015   2.442  0.0484  0.1916  0.2698
 3705SOL    HW122577   1.467   2.047   2.516 -0.2673  0.4418  0.3883
 3705SOL    HW222578   1.472   2.049   2.374  0.4694  0.9402  0.9903
 3706SOL     OW22579   3.558   1.129   8.360 -1.0331 -0.2607  0.3276
 3706SOL    HW122580   3.644   1.092   8.380 -1.2426  0.2652  2.2425
 3706SOL    HW222581   3.575   1.177   8.279  1.1029 -2.1390 -0.3318
 3707SOL     OW22582   3.061   0.547   7.707 -1.0084 -0.2894 -0.2097
 3707SOL    HW122583   2.973   0.586   7.710 -1.3302 -1.3379  4.2319
 3707SOL    HW222584   3.080   0.518   7.796  3.2305  1.7294 -0.4805
 3708SOL     OW22585   2.291   3.449   4.571  0.2926  0.1774 -0.2055
 3708SOL    HW122586   2.225   3.449   4.640 -1.7772 -0.7566 -2.1762
 3708SOL    HW222587   2.358   3.512   4.598  1.4673 -2.0542  2.1007
 3709SOL     OW22588   3.676   3.250  16.353  0.5861 -0.9795 -0.6668
 3709SOL    HW122589   3.765   3.269  16.322  0.4569  1.2839  0.3194
 3709SOL    HW222590   3.670   3.155  16.347 -0.9646 -1.0040  1.2970
 3710SOL     OW22591   3.952   0.875   5.060 -0.4316  0.8172  0.0785
 3710SOL    HW122592   3.921   0.966   5.055  1.8842  1.4632 -2.4690
 3710SOL    HW222593   3.934   0.850   4.969  0.5950  0.0421  0.0967
 3711SOL     OW22594   0.545   3.156   7.491  0.0892 -0.4383  0.0192
 3711SOL    HW122595   0.597   3.077   7.476 -0.7418 -0.5443 -2.2741
 3711SOL    HW222596   0.458   3.126   7.466 -0.6999  3.1334 -1.5566
 3712SOL     OW22597   0.254   2.711   8.957  0.5231 -0.5517  0.0176
 3712SOL    HW122598   0.166   2.724   8.921 -0.1919 -0.8532  1.6210
 3712SOL    HW222599   0.270   2.797   8.995 -3.2639 -0.2539  0.9563
 3713SOL     OW22600   1.532   0.853   5.185 -0.0787 -0.6503  0.0534
 3713SOL    HW122601   1.494   0.901   5.259  2.6121 -0.6041  1.4059
 3713SOL    HW222602   1.626   0.851   5.201  0.5201  1.8080 -3.2169
 3714SOL     OW22603   2.744   3.876   8.579  0.3549  0.9152  0.3756
 3714SOL    HW122604   2.758   3.871   8.484 -0.6707 -1.4658  0.3479
 3714SOL    HW222605   2.829   3.912   8.603 -0.5462  0.1642  4.6147
 3715SOL     OW22606   3.441   3.113   9.705 -0.2109 -0.1639 -0.4596
 3715SOL    HW122607   3.450   3.075   9.617  1.8319 -1.0352  0.1224
 3715SOL    HW222608   3.464   3.202   9.678  0.1755  0.3882  1.6877
 3716SOL     OW22609   3.694   1.935   5.438  0.3467 -0.5966 -0.0096
 3716SOL    HW122610   3.786   1.962   5.433  0.3179 -0.4746  0.1192
 3716SOL    HW222611   3.706   1.840   5.437  0.7166 -0.5279 -1.5203
 3717SOL     OW22612   3.134   3.099   4.094 -1.3097 -0.3014 -0.1282
 3717SOL    HW122613   3.096   3.179   4.132  0.7374  2.1689 -3.2309
 3717SOL    HW222614   3.049   3.057   4.079 -1.0826  0.1528 -2.7220
 3718SOL     OW22615   0.443   3.791   2.125  0.5418  0.0252  0.4034
 3718SOL    HW122616   0.432   3.706   2.083 -1.4091  0.4184  0.1249
 3718SOL    HW222617   0.355   3.827   2.116 -0.1137 -2.0555 -1.4423
 3719SOL     OW22618   2.812   1.778  16.985  0.6578  0.0396  0.6823
 3719SOL    HW122619   2.781   1.754  16.898 -1.1888 -0.3319  1.4483
 3719SOL    HW222620   2.898   1.817  16.969 -0.4412  1.7458 -1.0307
 3720SOL     OW22621   3.679   1.858   3.172  0.0991 -0.1210 -0.0978
 3720SOL    HW122622   3.660   1.764   3.181 -0.4587 -0.1182 -1.2399
 3720SOL    HW222623   3.622   1.888   3.101  0.3311 -0.2946 -0.3561
 3721SOL     OW22624   1.084   2.142  12.580 -0.0545  0.2094 -0.3712
 3721SOL    HW122625   1.091   2.094  12.498 -1.0060 -0.3342 -0.1360
 3721SOL    HW222626   1.067   2.066  12.635  0.2580  0.5789  0.2498
 3722SOL     OW22627   1.796   1.081   4.359  0.3743  0.3286  0.1309
 3722SOL    HW122628   1.837   1.020   4.421  2.2781  2.3762  0.8822
 3722SOL    HW222629   1.703   1.065   4.376  0.0936  1.6868 -0.1415
 3723SOL     OW22630   3.396   4.713   1.407 -0.0499  0.1481  0.1329
 3723SOL    HW122631   3.382   4.632   1.457 -1.8684  1.3534  1.5773
 3723SOL    HW222632   3.381   4.680   1.319  1.7074 -0.7156  0.1548
 3724SOL     OW22633   4.645   2.797   7.292 -0.5998  0.0261  0.1836
 3724SOL    HW122634   4.671   2.706   7.279  0.1825  0.4205 -1.0682
 3724SOL    HW222635   4.664   2.812   7.385  0.2787 -2.1013  0.3604
 3725SOL     OW22636   4.500   4.685   3.883  0.5819 -0.2461  0.0300
 3725SOL    HW122637   4.516   4.648   3.796 -2.5467 -0.3473 -0.5231
 3725SOL    HW222638   4.576   0.018   3.892  0.0580  0.5811 -0.8445
 3726SOL     OW22639   4.622   4.082   1.630 -0.3624 -0.1639  0.1190
 3726SOL    HW122640   4.647   4.020   1.699 -0.6097 -0.3143  0.0744
 3726SOL    HW222641   4.705   4.114   1.594  0.6271 -2.0109  0.7240
 3727SOL     OW22642   1.871   0.567   7.081 -0.4995  0.3502 -0.3087
 3727SOL    HW122643   1.872   0.659   7.109 -0.6918  0.0131  0.8142
 3727SOL    HW222644   1.778   0.556   7.103 -0.5636  3.9606  1.3182
 3728SOL     OW22645   0.172   0.929   5.730  0.0787  0.1336 -0.0186
 3728SOL    HW122646   0.255   0.928   5.681 -0.7496 -0.8750 -1.4024
 3728SOL    HW222647   0.108   0.964   5.668  1.9432  1.1330 -1.4231
 3729SOL     OW22648   4.042   4.626   7.691 -0.7622  0.0534  0.1385
 3729SOL    HW122649   3.999   4.689   7.634  0.1118  0.7761  0.2816
 3729SOL    HW222650   4.132   4.638   7.660 -1.4934  0.2146 -1.9096
 3730SOL     OW22651   1.096   2.120   4.145  0.2058 -0.3525 -0.2443
 3730SOL    HW122652   1.148   2.112   4.224  0.6644  0.6665 -0.4420
 3730SOL    HW222653   1.118   2.041   4.095  1.2672  0.2895 -0.7996
 3731SOL     OW22654   3.239   3.708   5.894  0.0060  0.0935 -0.6491
 3731SOL    HW122655   3.301   3.664   5.952 -0.7032  3.4851  2.6644
 3731SOL    HW222656   3.295   3.781   5.867 -0.9702  1.8056  1.9713
 3732SOL     OW22657   1.311   0.166  16.473  0.0787  0.1722  0.1645
 3732SOL    HW122658   1.279   0.076  16.469 -0.1244  0.1986  1.1614
 3732SOL    HW222659   1.269   0.199  16.553  0.3364  0.1407  0.3137
 3733SOL     OW22660   3.026   1.755   3.631 -0.3031 -1.2654  0.2396
 3733SOL    HW122661   3.070   1.804   3.561 -0.6838 -1.9829 -0.5053
 3733SOL    HW222662   3.032   1.817   3.704  0.7392 -0.8052 -0.2389
 3734SOL     OW22663   2.836   1.335  13.239 -0.3324 -0.0339 -0.2509
 3734SOL    HW122664   2.883   1.269  13.189  2.4844  1.5232  0.3247
 3734SOL    HW222665   2.893   1.410  13.224  0.2793 -0.0229  2.1509
 3735SOL     OW22666   0.062   4.385  11.707  0.0633  0.0835 -0.8526
 3735SOL    HW122667   0.040   4.478  11.695 -1.7036 -0.1176  0.9941
 3735SOL    HW222668   4.718   4.344  11.760  0.1303  1.0112 -0.0411
 3736SOL     OW22669   3.448   1.508   1.818  0.4317 -0.2369 -0.1446
 3736SOL    HW122670   3.468   1.432   1.765  0.8613 -1.9653  2.5099
 3736SOL    HW222671   3.458   1.581   1.756 -0.3706 -0.2613 -0.3090
 3737SOL     OW22672   1.384   0.670   4.586  0.0164  0.0130  0.4855
 3737SOL    HW122673   1.453   0.731   4.560  0.3171  0.7847  3.0754
 3737SOL    HW222674   1.314   0.705   4.531  0.4490 -1.2423 -0.8507
 3738SOL     OW22675   1.852   0.498   4.749 -0.1942 -0.5483 -0.0224
 3738SOL    HW122676   1.944   0.483   4.771  0.3951  0.0867 -2.0726
 3738SOL    HW222677   1.840   0.453   4.666 -0.2079 -0.9203  0.1763
 3739SOL     OW22678   2.609   2.792   8.651 -0.0264  0.0005 -0.2067
 3739SOL    HW122679   2.682   2.770   8.709  0.9412  2.1409 -0.6255
 3739SOL    HW222680   2.656   2.803   8.569  0.0925  1.5184  0.0710
 3740SOL     OW22681   1.984   0.754   5.046  0.1277  0.1872 -0.3173
 3740SOL    HW122682   1.930   0.827   5.076  0.0610 -0.8437  2.0339
 3740SOL    HW222683   2.008   0.789   4.960 -1.1237 -2.1238 -1.6037
 3741SOL     OW22684   1.647   3.793   5.915  0.0221  0.2152  0.3121
 3741SOL    HW122685   1.707   3.772   5.843  0.4096 -0.9292  0.9758
 3741SOL    HW222686   1.686   3.874   5.947 -2.7071  2.3167 -1.6412
 3742SOL     OW22687   1.705   0.748  14.583  0.1606  0.2609 -0.0605
 3742SOL    HW122688   1.730   0.819  14.643  0.3871 -0.9725  1.3035
 3742SOL    HW222689   1.610   0.737  14.590  0.4274 -2.0567 -0.1172
 3743SOL     OW22690   1.958   0.489  11.100  0.4514  0.0890 -0.1344
 3743SOL    HW122691   2.030   0.544  11.132 -0.9281  1.2373  1.0537
 3743SOL    HW222692   1.998   0.442  11.027  0.0207  2.2254 -1.7372
 3744SOL     OW22693   3.256   2.953   8.908  0.5953  0.8442 -0.1859
 3744SOL    HW122694   3.270   2.863   8.938 -1.0736  0.6055 -0.1116
 3744SOL    HW222695   3.254   3.006   8.988 -1.6536 -1.0021  1.0016
 3745SOL     OW22696   3.618   2.929  13.568 -0.5775 -0.1791  0.5423
 3745SOL    HW122697   3.626   2.987  13.493 -0.7463 -0.6496  0.1565
 3745SOL    HW222698   3.548   2.980  13.609 -1.1402 -0.0066 -0.6268
 3746SOL     OW22699   2.719   0.968   7.244  0.0813  0.3788 -0.1876
 3746SOL    HW122700   2.675   1.047   7.274 -2.7116 -1.1470 -0.2657
 3746SOL    HW222701   2.665   0.898   7.282  0.6074  0.4612  0.7081
 3747SOL     OW22702   4.263   4.176   2.112  0.3551 -0.5001  0.1062
 3747SOL    HW122703   4.314   4.095   2.113  0.7368 -0.2934 -1.3760
 3747SOL    HW222704   4.253   4.193   2.018 -2.4976  0.6307  0.6165
 3748SOL     OW22705   2.757   1.929   7.310 -0.2477 -0.1191  0.2992
 3748SOL    HW122706   2.818   1.984   7.261  1.3388  1.5646  4.2325
 3748SOL    HW222707   2.795   1.843   7.289  0.7871  0.3900  0.0999
 3749SOL     OW22708   3.189   0.899  16.371 -0.1443 -0.1482 -0.1834
 3749SOL    HW122709   3.154   0.935  16.289  1.3422 -0.2815 -0.8702
 3749SOL    HW222710   3.269   0.855  16.343 -1.0312 -1.0064 -1.3949
 3750SOL     OW22711   2.926   2.886   9.285 -0.3584 -0.0141  0.1020
 3750SOL    HW122712   2.844   2.907   9.331 -0.5305  0.5470 -0.4583
 3750SOL    HW222713   2.896   2.801   9.252  1.8117 -0.7226 -0.0158
 3751SOL     OW22714   1.095   4.669   5.125  0.0181 -0.2627  0.3739
 3751SOL    HW122715   1.004   4.700   5.125  0.3242  0.6102 -0.0889
 3751SOL    HW222716   1.121   4.681   5.216 -0.0158 -0.4943  0.4150
 3752SOL     OW22717   0.273   2.532   4.617  0.0639 -0.2821 -0.3360
 3752SOL    HW122718   0.315   2.495   4.540 -0.7009  1.1339 -1.4441
 3752SOL    HW222719   0.217   2.595   4.571 -0.2347 -0.4273 -0.1688
 3753SOL     OW22720   2.956   4.332   1.294 -0.1538 -0.1790  0.4794
 3753SOL    HW122721   2.989   4.422   1.292 -0.1102 -0.2371 -1.4866
 3753SOL    HW222722   2.963   4.310   1.201 -1.5119  0.4129  0.2202
 3754SOL     OW22723   0.109   1.768   7.521 -0.0862  0.1538  0.2264
 3754SOL    HW122724   0.144   1.855   7.501 -1.3673  0.4041 -0.9733
 3754SOL    HW222725   0.130   1.765   7.614  1.1133 -3.1285 -0.1308
 3755SOL     OW22726   0.388   1.538   2.779 -0.1194  0.4261 -0.5647
 3755SOL    HW122727   0.351   1.477   2.715 -1.0889  0.8393 -0.4004
 3755SOL    HW222728   0.331   1.614   2.766 -1.7488 -1.3018 -3.4680
 3756SOL     OW22729   2.119   4.443   4.559  0.3194 -0.3613 -0.7898
 3756SOL    HW122730   2.071   4.496   4.496 -0.8485 -0.1031  0.2976
 3756SOL    HW222731   2.137   4.363   4.509 -0.0690 -0.9514  0.0025
 3757SOL     OW22732   2.660   3.604   1.042 -0.2119 -0.0949  0.5462
 3757SOL    HW122733   2.737   3.641   1.085  0.4019  0.3726 -0.9667
 3757SOL    HW222734   2.691   3.521   1.005  1.0359  0.2968  0.7163
 3758SOL     OW22735   4.295   2.412   4.493  0.0829 -0.4509  0.1659
 3758SOL    HW122736   4.289   2.346   4.562  4.0321 -1.0116 -0.0243
 3758SOL    HW222737   4.220   2.389   4.438 -1.2625  2.7757  0.6158
 3759SOL     OW22738   0.626   2.432   8.889  0.5274 -0.3796 -0.0570
 3759SOL    HW122739   0.698   2.494   8.882 -0.0461  0.1105 -1.6814
 3759SOL    HW222740   0.581   2.440   8.973  1.1694  0.7292  0.1838
 3760SOL     OW22741   0.648   2.265  14.480 -0.2655  0.2673  0.2043
 3760SOL    HW122742   0.735   2.242  14.513  0.0740  0.1660 -0.7448
 3760SOL    HW222743   0.657   2.229  14.391 -1.1462 -0.0758  0.2575
 3761SOL     OW22744   0.499   3.493  11.319  0.1135 -0.4541  0.5893
 3761SOL    HW122745   0.515   3.400  11.307  0.4248 -0.4449  0.9487
 3761SOL    HW222746   0.584   3.536  11.316  0.1929 -0.6502  0.0424
 3762SOL     OW22747   3.982   0.384   7.531 -0.0618 -0.1993  0.8849
 3762SOL    HW122748   3.955   0.350   7.446  0.1395 -0.2692  0.8490
 3762SOL    HW222749   3.959   0.476   7.515  0.5932 -0.1357  0.3320
 3763SOL     OW22750   0.309   3.962   8.468  0.0449  0.0920  0.0566
 3763SOL    HW122751   0.346   3.996   8.386  0.1740 -0.1043  0.0349
 3763SOL    HW222752   0.388   3.937   8.515  0.7067 -1.5972 -1.9406
 3764SOL     OW22753   0.949   0.284   7.059  0.0911  0.1636  0.3324
 3764SOL    HW122754   0.885   0.331   7.112  0.4108  0.8300  0.1329
 3764SOL    HW222755   1.005   0.279   7.137  0.7073  0.9892 -0.0568
 3765SOL     OW22756   3.317   1.329   8.652  0.4727  0.2826  0.3385
 3765SOL    HW122757   3.327   1.387   8.577 -0.2047 -1.2466 -0.9281
 3765SOL    HW222758   3.377   1.257   8.634  1.1746  0.5498  1.6071
 3766SOL     OW22759   4.113   3.302   0.841 -0.2033 -0.2260  0.4149
 3766SOL    HW122760   4.056   3.253   0.782  1.9323 -1.9173 -0.2533
 3766SOL    HW222761   4.056   3.336   0.910  0.2849 -0.9436  1.1692
 3767SOL     OW22762   1.987   2.647   6.514 -0.4083 -0.4107 -0.7314
 3767SOL    HW122763   1.928   2.571   6.514  1.0336 -1.5438  0.3733
 3767SOL    HW222764   1.991   2.670   6.607  2.5057  3.1285 -1.7586
 3768SOL     OW22765   0.044   2.776   3.240  0.1016 -0.7368  0.3535
 3768SOL    HW122766   4.677   2.763   3.212 -0.1749  0.6732  0.6009
 3768SOL    HW222767   0.043   2.762   3.335 -0.9848 -1.9875  0.1537
 3769SOL     OW22768   0.725   1.274   4.232  0.1075 -0.4441  0.8052
 3769SOL    HW122769   0.812   1.240   4.210  0.9672  0.9122  2.0819
 3769SOL    HW222770   0.717   1.229   4.316  2.5649 -1.2865  0.6037
 3770SOL     OW22771   1.240   2.817   8.989 -0.0345  0.6528 -0.0287
 3770SOL    HW122772   1.269   2.900   9.026  0.9933 -0.2303  1.1103
 3770SOL    HW222773   1.291   2.751   9.036 -0.6198  1.9525  2.4282
 3771SOL     OW22774   1.738   3.259   1.234 -0.6464 -0.1757 -0.5953
 3771SOL    HW122775   1.815   3.212   1.203  0.0296  0.4348  0.1428
 3771SOL    HW222776   1.703   3.305   1.158  1.3487  2.3431 -0.0036
 3772SOL     OW22777   0.778   1.816   2.842 -0.4317  0.0688  0.2667
 3772SOL    HW122778   0.777   1.806   2.937  0.2581 -2.0404  0.0488
 3772SOL    HW222779   0.742   1.729   2.826 -2.0493  0.8895 -0.5435
 3773SOL     OW22780   2.176   0.940   9.920 -0.2551  0.4021  0.0532
 3773SOL    HW122781   2.148   0.943   9.829  1.5281  0.1405 -0.4859
 3773SOL    HW222782   2.256   0.889   9.909 -2.6672 -2.9288 -1.9806
 3774SOL     OW22783   4.578   1.867   2.002 -0.0615  0.2769  0.1488
 3774SOL    HW122784   4.604   1.859   1.910 -3.9811  0.4684 -0.9914
 3774SOL    HW222785   4.483   1.865   1.989  0.0011 -2.2010  0.1220
 3775SOL     OW22786   1.913   3.525   4.308 -0.2552 -0.0233  0.5493
 3775SOL    HW122787   1.820   3.545   4.299  0.2670  0.3612 -3.6971
 3775SOL    HW222788   1.934   3.599   4.366 -0.4924  0.5181 -0.0680
 3776SOL     OW22789   3.583   1.728   6.862 -0.3491 -0.1528  0.1263
 3776SOL    HW122790   3.503   1.677   6.859 -0.2347 -0.3829  0.8662
 3776SOL    HW222791   3.579   1.774   6.946 -0.0948 -0.1712  0.1488
 3777SOL     OW22792   3.131   4.011  11.697 -0.7709 -0.1496 -0.1394
 3777SOL    HW122793   3.149   3.928  11.741  3.5722  1.4061  1.0540
 3777SOL    HW222794   3.198   4.015  11.629  1.0806 -0.6921  1.6502
 3778SOL     OW22795   2.645   2.744   5.543 -0.3473  0.1214 -0.3314
 3778SOL    HW122796   2.566   2.714   5.587  0.8364 -1.0900  0.9785
 3778SOL    HW222797   2.696   2.771   5.619  1.1974 -0.4464 -1.1675
 3779SOL     OW22798   4.447   2.857   6.237  0.5456  0.0722  0.3141
 3779SOL    HW122799   4.405   2.774   6.215 -1.8236  1.3174  0.1301
 3779SOL    HW222800   4.385   2.886   6.304  0.8033  1.1224  0.0999
 3780SOL     OW22801   3.183   1.284   1.883 -0.3183  0.3370  0.2035
 3780SOL    HW122802   3.265   1.263   1.840 -0.3828  0.8416 -0.1623
 3780SOL    HW222803   3.185   1.215   1.949 -0.1845 -0.5301 -0.7114
 3781SOL     OW22804   2.599   3.310   8.104  0.0339 -0.0964  0.1229
 3781SOL    HW122805   2.536   3.239   8.121 -1.8777  1.6274  0.2473
 3781SOL    HW222806   2.564   3.381   8.158 -1.7403  0.1358 -1.3375
 3782SOL     OW22807   0.904   4.241   2.140  0.1322  0.6788  0.1081
 3782SOL    HW122808   0.884   4.333   2.156 -0.9350  0.7597 -1.7077
 3782SOL    HW222809   0.966   4.259   2.069 -1.9735 -0.7841 -2.1062
 3783SOL     OW22810   4.668   0.756   6.999 -0.1611 -0.2484 -0.2147
 3783SOL    HW122811   4.687   0.662   6.993 -0.6806 -0.3135 -0.8678
 3783SOL    HW222812   4.578   0.753   6.968 -0.4073  1.7270  0.3392
 3784SOL     OW22813   2.282   4.703   9.895 -0.6635 -0.3284  0.0540
 3784SOL    HW122814   2.369   0.019   9.901 -1.0015  0.5047 -0.6415
 3784SOL    HW222815   2.244   0.050   9.948  1.2164  1.0622 -0.4548
 3785SOL     OW22816   4.346   2.516   2.665  0.0686 -0.4700 -0.4463
 3785SOL    HW122817   4.359   2.468   2.747 -2.9759 -1.0877 -0.3413
 3785SOL    HW222818   4.410   2.475   2.607  0.8815  0.0549  0.0576
 3786SOL     OW22819   2.625   1.406   1.309 -0.3814  0.0985  0.0335
 3786SOL    HW122820   2.532   1.424   1.295 -0.7845 -0.9541  1.3008
 3786SOL    HW222821   2.639   1.313   1.289 -1.5433 -0.5363  2.1294
 3787SOL     OW22822   0.497   1.232   4.069 -0.3221 -0.0127  0.2095
 3787SOL    HW122823   0.544   1.271   3.996  0.7236 -1.3425  0.1624
 3787SOL    HW222824   0.573   1.228   4.127 -0.6536  0.6119  0.6861
 3788SOL     OW22825   4.582   0.318   9.599  0.3936 -0.1551 -0.7981
 3788SOL    HW122826   4.512   0.295   9.537 -0.4597  0.2944 -0.0075
 3788SOL    HW222827   4.622   0.231   9.601  1.5199  0.3446 -1.6547
 3789SOL     OW22828   2.944   4.522   7.046 -0.0453 -0.6617  0.6104
 3789SOL    HW122829   3.017   4.470   7.079  1.0079  1.5693  1.7476
 3789SOL    HW222830   2.961   4.500   6.954 -0.1684  2.8731 -0.2565
 3790SOL     OW22831   0.417   2.199  13.115  0.0428 -0.0853 -0.1744
 3790SOL    HW122832   0.502   2.155  13.120  0.2045  0.5908  3.4296
 3790SOL    HW222833   0.375   2.150  13.186  0.1191 -0.5628 -0.4585
 3791SOL     OW22834   1.088   4.253   6.568 -0.3536 -0.3283 -0.4449
 3791SOL    HW122835   1.056   4.331   6.523 -1.9671 -0.6499  0.1495
 3791SOL    HW222836   1.092   4.290   6.656 -1.5010  0.7551 -0.8579
 3792SOL     OW22837   1.283   2.766   3.067  0.1210 -0.7938  0.2160
 3792SOL    HW122838   1.216   2.754   2.999 -1.1222  0.4304  1.2199
 3792SOL    HW222839   1.328   2.844   3.034 -0.5283 -1.5685 -2.5095
 3793SOL     OW22840   1.597   0.178   2.890 -0.4699  0.1998 -0.4870
 3793SOL    HW122841   1.568   0.089   2.908 -0.2914  0.2446  0.0352
 3793SOL    HW222842   1.679   0.172   2.939 -1.3740 -2.1247  0.7546
 3794SOL     OW22843   0.013   2.190   5.891 -0.1723 -0.9086  0.8128
 3794SOL    HW122844   0.104   2.162   5.901  0.8285  1.2434 -2.2797
 3794SOL    HW222845   0.020   2.284   5.874 -1.4698 -1.5200 -3.2107
 3795SOL     OW22846   3.781   1.866   8.887 -0.3672  0.0868  0.1743
 3795SOL    HW122847   3.872   1.876   8.914 -0.4231 -1.9082  1.0986
 3795SOL    HW222848   3.748   1.950   8.919  1.5302  0.3673  1.3788
 3796SOL     OW22849   2.009   4.408   7.391 -0.0009 -0.0304 -0.3301
 3796SOL    HW122850   1.959   4.431   7.313 -0.2709 -0.6407 -0.3308
 3796SOL    HW222851   2.087   4.379   7.343 -0.2913  2.7412 -2.5588
 3797SOL     OW22852   2.638   4.428   8.531  0.2773 -0.6789 -0.3291
 3797SOL    HW122853   2.709   4.364   8.531 -1.9536 -3.1169  2.8710
 3797SOL    HW222854   2.579   4.392   8.464 -1.5252  0.6609  0.5359
 3798SOL     OW22855   4.585   2.477   2.137 -0.2810  0.1203 -0.2369
 3798SOL    HW122856   4.541   2.403   2.095  0.6173  0.1710 -1.2874
 3798SOL    HW222857   4.618   2.524   2.061  0.0566 -1.4408 -1.0577
 3799SOL     OW22858   1.939   1.689   3.534  0.3936 -0.0001  0.1971
 3799SOL    HW122859   1.902   1.722   3.616 -0.8146  0.1868 -0.4249
 3799SOL    HW222860   2.030   1.667   3.552 -0.0143 -1.5129  0.4379
 3800SOL     OW22861   3.563   0.140   2.660 -0.7273  0.5801 -0.0855
 3800SOL    HW122862   3.592   0.049   2.661  0.1685  0.8640 -0.3073
 3800SOL    HW222863   3.569   0.161   2.753  1.1474  0.7282 -0.2467
 3801SOL     OW22864   2.012   3.063   1.404  0.6307  0.4840 -0.8627
 3801SOL    HW122865   2.098   3.032   1.375  1.4042  0.7420  1.1162
 3801SOL    HW222866   1.953   3.040   1.333  1.3357 -1.2327 -0.8935
 3802SOL     OW22867   1.166   1.080   2.878 -0.2442  0.2793 -0.0881
 3802SOL    HW122868   1.081   1.046   2.852 -0.9785  0.4121  2.1160
 3802SOL    HW222869   1.172   1.174   2.862 -1.0114  0.8578  3.0507
 3803SOL     OW22870   2.885   0.069   2.261 -0.0574  0.0568  0.0965
 3803SOL    HW122871   2.803   0.021   2.268 -0.0629 -0.0303 -0.6365
 3803SOL    HW222872   2.883   0.084   2.167  1.1716  2.7392  0.4913
 3804SOL     OW22873   4.215   1.543  14.924  0.4936  0.0075  0.2718
 3804SOL    HW122874   4.131   1.551  14.969  0.1351  0.3968 -0.4663
 3804SOL    HW222875   4.194   1.527  14.832  1.0942 -0.1497  0.1617
 3805SOL     OW22876   1.418   3.422   4.464  0.1063  0.2844  0.9214
 3805SOL    HW122877   1.446   3.350   4.408  1.4779 -0.2240  2.2615
 3805SOL    HW222878   1.442   3.391   4.552 -0.7199  0.1453  1.0936
 3806SOL     OW22879   2.898   1.839  13.034  0.7045 -0.2116 -0.5866
 3806SOL    HW122880   2.980   1.858  13.080  0.6008  2.3258 -1.4078
 3806SOL    HW222881   2.926   1.857  12.944  0.4996  0.8910 -0.4350
 3807SOL     OW22882   4.654   2.485   3.843  0.2057 -0.7333  0.3644
 3807SOL    HW122883   4.647   2.392   3.824 -1.5848 -0.1596 -1.8295
 3807SOL    HW222884   4.694   2.478   3.930 -2.3704 -0.5781  1.5449
 3808SOL     OW22885   0.378   4.546  13.141 -0.5923 -0.3502  0.2357
 3808SOL    HW122886   0.462   4.528  13.099 -1.0847  0.5861 -1.1573
 3808SOL    HW222887   0.385   4.497  13.223 -1.3380  2.2726  1.8551
 3809SOL     OW22888   3.825   1.743  10.704 -0.4089 -0.2519  0.1818
 3809SOL    HW122889   3.745   1.714  10.748 -1.3536  1.1054 -0.6664
 3809SOL    HW222890   3.877   1.664  10.718  3.3284  2.1674  0.0756
 3810SOL     OW22891   2.082   2.205  15.676 -0.4523  0.3076 -0.3431
 3810SOL    HW122892   2.168   2.245  15.684 -0.3256  0.3614 -1.8954
 3810SOL    HW222893   2.045   2.190  15.763  0.5081 -0.2720 -0.0333
 3811SOL     OW22894   1.464   0.131   2.536 -0.1959  0.0462  0.0076
 3811SOL    HW122895   1.435   0.210   2.582  0.1210  0.1877 -0.0321
 3811SOL    HW222896   1.490   0.072   2.606 -1.9210 -1.5093 -0.6607
 3812SOL     OW22897   1.624   0.230  11.394 -0.4751 -0.0754  0.6132
 3812SOL    HW122898   1.624   0.290  11.319 -1.7122 -0.8472  0.0013
 3812SOL    HW222899   1.533   0.204  11.407 -1.0074  1.6439  0.4026
 3813SOL     OW22900   3.331   0.273   0.793  0.5697  0.3333 -0.4320
 3813SOL    HW122901   3.377   0.281   0.709 -2.5296 -0.5771 -2.2332
 3813SOL    HW222902   3.247   0.234   0.767  0.1042  1.0808 -0.0598
 3814SOL     OW22903   4.536   3.749   9.814 -0.1015  0.0870 -0.8156
 3814SOL    HW122904   4.454   3.750   9.863  0.6419 -3.1081  0.5022
 3814SOL    HW222905   4.599   3.723   9.881  0.0303  0.5166 -0.7712
 3815SOL     OW22906   1.102   3.160  14.633 -0.2320  0.0939  0.1452
 3815SOL    HW122907   1.124   3.172  14.725 -1.3776 -1.3776  0.6130
 3815SOL    HW222908   1.172   3.101  14.603 -0.2904  0.2874 -0.3714
 3816SOL     OW22909   4.075   4.097   7.287  0.3385 -0.1231 -0.0726
 3816SOL    HW122910   3.985   4.069   7.308 -0.0541  1.1901 -0.0030
 3816SOL    HW222911   4.055   4.176   7.235 -0.5841  0.8171  1.7122
 3817SOL     OW22912   3.173   0.869   8.668  0.3220  0.1014 -0.2528
 3817SOL    HW122913   3.099   0.836   8.718  1.6586 -2.1925  0.2369
 3817SOL    HW222914   3.195   0.953   8.708 -0.2756  0.6661 -1.1017
 3818SOL     OW22915   2.630   3.942   9.270  0.1760 -0.3776  0.6294
 3818SOL    HW122916   2.687   3.875   9.233  0.8243  1.0894 -0.9792
 3818SOL    HW222917   2.639   4.014   9.208  0.1725 -1.0428 -0.1424
 3819SOL     OW22918   0.297   4.521   0.378  0.3687 -0.4355 -0.2061
 3819SOL    HW122919   0.225   4.485   0.325  0.3175 -1.1640  0.3518
 3819SOL    HW222920   0.363   4.461   0.344  0.0824 -1.1124  0.4347
 3820SOL     OW22921   4.522   2.380  10.077 -0.1965  0.1188 -0.2871
 3820SOL    HW122922   4.551   2.333   9.999 -0.2723  0.9967 -0.8417
 3820SOL    HW222923   4.508   2.303  10.132  3.5251 -0.5638 -0.3004
 3821SOL     OW22924   4.403   2.899   4.748 -0.5861 -0.4843 -0.3964
 3821SOL    HW122925   4.342   2.971   4.765 -1.6788 -0.7153 -3.3975
 3821SOL    HW222926   4.475   2.923   4.806  0.6228 -0.0963 -2.0481
 3822SOL     OW22927   0.910   4.166  16.998  0.5502 -0.6701 -0.1209
 3822SOL    HW122928   0.889   4.201  16.912 -0.9749 -2.4524 -0.4756
 3822SOL    HW222929   0.995   4.207  17.012  0.2051 -0.3554  1.0522
 3823SOL     OW22930   2.825   3.929  14.448  0.0680  0.5357  0.3218
 3823SOL    HW122931   2.787   4.012  14.476 -1.2632 -0.6302  2.0412
 3823SOL    HW222932   2.913   3.925  14.483  0.4364  1.1052 -0.5491
 3824SOL     OW22933   3.887   2.730   5.094 -0.1752  0.2772 -0.8598
 3824SOL    HW122934   3.951   2.801   5.100  0.8752 -1.0345  3.1859
 3824SOL    HW222935   3.803   2.777   5.097  1.1314  2.4853  1.0341
 3825SOL     OW22936   3.350   0.909   9.299 -0.3679  0.2571  0.1314
 3825SOL    HW122937   3.289   0.906   9.225 -1.8005  0.0459  1.3209
 3825SOL    HW222938   3.294   0.924   9.375  1.1565  0.5246  1.2066
 3826SOL     OW22939   0.412   1.644   1.315  0.8054  0.2820 -0.8939
 3826SOL    HW122940   0.464   1.564   1.314 -0.5255 -0.5689 -1.7637
 3826SOL    HW222941   0.326   1.626   1.353  0.6565  2.4037 -0.2020
 3827SOL     OW22942   2.214   1.623   3.658  0.2068 -0.0591  0.3398
 3827SOL    HW122943   2.297   1.661   3.629  0.2123 -0.8043 -0.6374
 3827SOL    HW222944   2.235   1.532   3.639  3.3954  0.5333  1.1136
 3828SOL     OW22945   0.187   4.227   6.545 -0.1274  0.7736  0.8780
 3828SOL    HW122946   0.124   4.298   6.552 -0.0697  0.5449  3.8468
 3828SOL    HW222947   0.264   4.273   6.512  0.6719 -1.8915 -1.0246
 3829SOL     OW22948   3.268   4.350  10.361  0.3110  0.4033 -0.8649
 3829SOL    HW122949   3.253   4.256  10.363  0.8042  0.3300 -0.5023
 3829SOL    HW222950   3.260   4.376  10.453 -1.2966 -0.5394 -0.7462
 3830SOL     OW22951   0.771   4.388  15.064 -0.0331  0.1167  0.4325
 3830SOL    HW122952   0.857   4.428  15.050  0.1547 -1.0874 -1.8896
 3830SOL    HW222953   0.768   4.407  15.158  1.2486 -0.5214  0.6011
 3831SOL     OW22954   2.060   1.228   7.769 -0.4913  0.5179 -0.0581
 3831SOL    HW122955   2.029   1.317   7.788 -0.1538 -0.1437  3.5489
 3831SOL    HW222956   2.067   1.236   7.674  1.2209  1.5669  0.1563
 3832SOL     OW22957   4.722   1.099   8.020  0.1567  0.0436  0.6238
 3832SOL    HW122958   4.712   1.181   7.973  0.2226 -0.2103  0.1740
 3832SOL    HW222959   4.651   1.047   7.984  0.6449  0.4001 -0.8670
 3833SOL     OW22960   0.137   2.560   6.989  0.1190 -0.3229 -0.3727
 3833SOL    HW122961   0.107   2.523   6.906  0.8880 -0.5628 -0.5506
 3833SOL    HW222962   0.209   2.620   6.968 -0.0891 -1.0094 -3.1118
 3834SOL     OW22963   0.906   3.235   6.784 -0.1204  0.3965 -0.5321
 3834SOL    HW122964   0.902   3.257   6.691 -0.0531  0.3743 -0.5407
 3834SOL    HW222965   0.961   3.311   6.806 -1.2602  0.5754  1.7018
 3835SOL     OW22966   3.836   0.957   8.130  0.0852 -0.3472 -0.1464
 3835SOL    HW122967   3.842   0.863   8.113 -1.8466 -0.8003  1.6304
 3835SOL    HW222968   3.767   0.948   8.196  2.4526 -1.7187  2.1721
 3836SOL     OW22969   1.537   3.593   0.060 -0.0505  0.1260  0.5369
 3836SOL    HW122970   1.482   3.671   0.049  2.2633  1.2641 -3.0001
 3836SOL    HW222971   1.473   3.536   0.101 -0.1953 -0.0507  0.0632
 3837SOL     OW22972   0.100   4.581  17.336  0.0780  0.2287  0.3464
 3837SOL    HW122973   0.035   4.650  17.328  0.6464  0.6463 -0.6708
 3837SOL    HW222974   0.062   4.527  17.406 -0.7607  1.3901  0.7801
 3838SOL     OW22975   2.020   0.691   6.441 -0.2310  0.0965  0.3863
 3838SOL    HW122976   2.059   0.668   6.526 -1.7838  0.1195  1.0944
 3838SOL    HW222977   1.955   0.756   6.467 -2.9004 -1.7568 -1.6859
 3839SOL     OW22978   0.697   0.402   6.366  0.8140 -0.2840 -0.4262
 3839SOL    HW122979   0.721   0.324   6.416  2.7709 -1.0873 -2.5804
 3839SOL    HW222980   0.773   0.461   6.361 -0.5243  1.7118  2.8068
 3840SOL     OW22981   0.346   1.388  11.449 -0.1893  0.3152  0.0681
 3840SOL    HW122982   0.318   1.303  11.415  2.2379 -0.2436 -0.5390
 3840SOL    HW222983   0.345   1.369  11.543 -0.8829 -0.9690 -0.2066
 3841SOL     OW22984   3.401   1.851   5.013  0.1579 -0.2116 -0.0034
 3841SOL    HW122985   3.456   1.898   5.076  2.0271  1.2737 -2.7920
 3841SOL    HW222986   3.421   1.762   5.044 -3.0446 -0.2569  2.0331
 3842SOL     OW22987   2.294   3.057  15.904  0.3167  0.0277  0.4445
 3842SOL    HW122988   2.370   3.082  15.851 -0.2452  1.7180  0.4323
 3842SOL    HW222989   2.296   3.124  15.971 -0.1605  2.9751 -2.4803
 3843SOL     OW22990   0.553   4.394   0.144 -1.0473 -0.2569  0.0107
 3843SOL    HW122991   0.562   4.304   0.111  0.3964  0.2181 -0.8775
 3843SOL    HW222992   0.554   4.373   0.237  0.0751 -1.2449 -0.2214
 3844SOL     OW22993   4.463   0.459   4.555 -0.3000 -0.5000 -0.3317
 3844SOL    HW122994   4.423   0.487   4.473  0.5119 -0.8691 -0.8512
 3844SOL    HW222995   4.454   0.365   4.543 -0.8912 -0.2779 -1.5362
 3845SOL     OW22996   2.906   0.149   7.856 -0.2933 -0.6866 -0.7651
 3845SOL    HW122997   2.942   0.216   7.797  2.8640 -3.5992 -2.0897
 3845SOL    HW222998   2.979   0.091   7.877  0.3989  0.8265  1.0325
 3846SOL     OW22999   1.551   1.771  15.970  0.1424 -0.5888 -0.3773
 3846SOL    HW123000   1.480   1.752  16.030  0.6234 -2.5198 -0.4343
 3846SOL    HW223001   1.576   1.681  15.951  2.8851  0.6143 -2.6854
 3847SOL     OW23002   0.596   0.469   0.895 -0.4329 -0.1149  0.1427
 3847SOL    HW123003   0.634   0.422   0.969  1.4406 -1.2778 -1.5583
 3847SOL    HW223004   0.545   0.405   0.844  1.7947 -1.4252 -0.4390
 3848SOL     OW23005   4.272   2.850  10.822  0.7545  0.2331 -0.2867
 3848SOL    HW123006   4.281   2.810  10.736  0.5455 -0.4315 -0.0005
 3848SOL    HW223007   4.266   2.771  10.875 -0.6698 -0.2147 -1.1223
 3849SOL     OW23008   4.446   0.638  17.477 -0.6604  0.2095  0.0144
 3849SOL    HW123009   4.484   0.710  17.427 -1.0889  1.1087  0.9816
 3849SOL    HW223010   4.448   0.675  17.565 -3.5261  1.3621 -0.3958
 3850SOL     OW23011   3.904   0.649  11.073 -1.0270 -0.0020 -0.0446
 3850SOL    HW123012   3.985   0.700  11.069 -0.4229 -0.7932  1.9956
 3850SOL    HW223013   3.842   0.719  11.096  0.0970  0.9588  0.0949
 3851SOL     OW23014   0.845   0.794   3.839  0.1777  0.0048  0.0519
 3851SOL    HW123015   0.844   0.887   3.816 -0.6890  0.0780  0.3718
 3851SOL    HW223016   0.893   0.751   3.768 -1.7254  0.2938 -1.4078
 3852SOL     OW23017   2.946   1.113   7.292 -0.5962  0.6557 -0.5533
 3852SOL    HW123018   3.012   1.130   7.225  0.2683  0.6322  0.2890
 3852SOL    HW223019   2.874   1.076   7.241 -1.4747  0.0821  1.0966
 3853SOL     OW23020   3.609   0.109  14.471 -0.0200 -0.1931  0.4481
 3853SOL    HW123021   3.572   0.083  14.555  1.0966  0.6945  1.2205
 3853SOL    HW223022   3.615   0.031  14.416 -0.8493 -0.9898  1.4929
 3854SOL     OW23023   3.170   3.112   4.489 -0.3523 -0.0354  0.3640
 3854SOL    HW123024   3.119   3.168   4.549  0.5827  2.4059 -1.1443
 3854SOL    HW223025   3.128   3.119   4.403 -0.4353 -1.5938  0.2767
 3855SOL     OW23026   1.191   0.992   8.671 -0.0835 -0.5161 -0.5872
 3855SOL    HW123027   1.155   1.031   8.750  0.2484  0.1693 -0.7704
 3855SOL    HW223028   1.274   0.957   8.704 -1.0272 -1.8777  0.3082
 3856SOL     OW23029   0.547   2.293   2.327  0.3042 -0.0736 -0.5546
 3856SOL    HW123030   0.561   2.376   2.373 -2.2283 -0.6160  1.1489
 3856SOL    HW223031   0.550   2.233   2.402 -1.3912 -0.0732 -0.5035
 3857SOL     OW23032   3.686   2.748   6.256 -0.0847 -0.4314 -0.0180
 3857SOL    HW123033   3.687   2.838   6.289  0.8611 -0.9110  1.2611
 3857SOL    HW223034   3.722   2.707   6.335 -0.5626  1.9407  1.4523
 3858SOL     OW23035   3.691   3.760   5.167  0.1033  0.0159  0.2285
 3858SOL    HW123036   3.654   3.706   5.097 -2.3435  3.0434 -0.7998
 3858SOL    HW223037   3.753   3.814   5.119 -1.2061  0.1638 -1.2890
 3859SOL     OW23038   3.335   2.338  14.612 -0.3755 -0.0541  0.2610
 3859SOL    HW123039   3.416   2.360  14.566  0.7469 -2.0465  1.3137
 3859SOL    HW223040   3.335   2.243  14.620 -2.1499 -0.0459  0.3915
 3860SOL     OW23041   2.750   2.299   2.893 -0.0507 -0.8441  0.3773
 3860SOL    HW123042   2.702   2.246   2.829  1.5158 -3.1787  1.1176
 3860SOL    HW223043   2.815   2.233   2.919  1.3946  0.3375 -0.2651
 3861SOL     OW23044   2.849   3.150   5.257  0.0512 -0.2343  0.1168
 3861SOL    HW123045   2.850   3.226   5.199  3.4965 -0.5268 -0.1532
 3861SOL    HW223046   2.850   3.080   5.191 -2.3865 -1.9902  1.9274
 3862SOL     OW23047   4.003   4.194   4.077 -0.3997 -0.3895 -0.2360
 3862SOL    HW123048   3.914   4.180   4.109 -0.1089 -1.2636  0.1980
 3862SOL    HW223049   3.987   4.184   3.983 -1.5616 -1.3769  0.0711
 3863SOL     OW23050   3.913   1.657   4.808 -0.5028  0.7574  0.3492
 3863SOL    HW123051   4.006   1.663   4.830 -1.0721  0.4195  2.8770
 3863SOL    HW223052   3.887   1.741   4.770 -0.1174  1.4493  1.6212
 3864SOL     OW23053   3.647   4.120   5.742 -0.1892  0.0707  0.2975
 3864SOL    HW123054   3.725   4.070   5.766  0.4874  0.6830 -0.5845
 3864SOL    HW223055   3.663   4.113   5.647 -0.0254  3.2399  0.0998
 3865SOL     OW23056   0.038   3.673   8.651 -0.0284  0.1474 -0.2669
 3865SOL    HW123057   0.044   3.716   8.737  1.8192  0.5032 -0.5606
 3865SOL    HW223058   4.711   3.727   8.591 -1.4867 -1.1486 -0.2081
 3866SOL     OW23059   1.348   1.622   3.122 -0.1772  0.1485 -0.2122
 3866SOL    HW123060   1.285   1.681   3.164 -0.4931 -0.4661  0.1858
 3866SOL    HW223061   1.322   1.633   3.031 -1.0277  1.8320  0.2365
 3867SOL     OW23062   0.793   2.818  14.020 -0.2527 -0.3530 -0.2353
 3867SOL    HW123063   0.738   2.880  13.972  0.8221  0.3467 -0.5583
 3867SOL    HW223064   0.826   2.873  14.091  0.1399  0.0748 -0.7452
 3868SOL     OW23065   2.218   1.758   1.111 -0.2799 -0.5045  0.1725
 3868SOL    HW123066   2.141   1.815   1.111 -0.6831 -1.0571 -0.5700
 3868SOL    HW223067   2.179   1.677   1.081 -0.3630  0.2021 -1.5966
 3869SOL     OW23068   0.070   4.618  16.807  0.0775 -0.1055 -0.2996
 3869SOL    HW123069   0.138   4.665  16.856 -1.3082  1.3452  0.2197
 3869SOL    HW223070   0.119   4.536  16.799  1.1211  0.7674 -2.6825
 3870SOL     OW23071   2.582   3.856   1.550 -0.4069 -0.1320  0.8606
 3870SOL    HW123072   2.568   3.951   1.554 -1.1035 -0.0798 -2.8012
 3870SOL    HW223073   2.506   3.829   1.498 -0.6057 -0.3175  1.2497
 3871SOL     OW23074   2.007   0.692   4.443  0.0341  0.1537 -0.0381
 3871SOL    HW123075   1.981   0.783   4.459 -0.9166 -0.3965  1.4853
 3871SOL    HW223076   2.004   0.694   4.347  1.1113  0.6546 -0.0588
 3872SOL     OW23077   2.483   3.630  12.430 -0.1647 -0.1922  0.2743
 3872SOL    HW123078   2.547   3.612  12.499 -2.3470  0.9584  2.6019
 3872SOL    HW223079   2.419   3.561  12.444  0.0737 -0.5317 -0.3178
 3873SOL     OW23080   2.365   0.201   9.289  0.6767 -0.1510  0.1575
 3873SOL    HW123081   2.405   0.249   9.362 -3.1083  2.9151  0.2545
 3873SOL    HW223082   2.412   0.252   9.222 -0.8044  0.0874 -0.7031
 3874SOL     OW23083   2.041   2.460   4.955 -0.3907 -0.1615 -0.1813
 3874SOL    HW123084   2.136   2.463   4.961 -0.6786  4.9970  2.1810
 3874SOL    HW223085   2.017   2.451   5.047  0.0662 -1.4546 -0.1911
 3875SOL     OW23086   2.381   1.306  11.332  0.0099 -0.7022 -0.4958
 3875SOL    HW123087   2.366   1.240  11.399 -2.4710 -0.0169 -0.3691
 3875SOL    HW223088   2.311   1.368  11.352  0.6839 -0.1194  0.0811
 3876SOL     OW23089   2.645   2.833   5.044  0.1752 -0.2055 -0.2935
 3876SOL    HW123090   2.657   2.845   5.138  1.7800 -0.5977 -0.4355
 3876SOL    HW223091   2.646   2.925   5.019  1.8580  0.6066  2.7819
 3877SOL     OW23092   1.184   1.797   2.124  0.4350 -0.0806 -0.3363
 3877SOL    HW123093   1.260   1.799   2.183 -0.2151 -3.4905  0.5730
 3877SOL    HW223094   1.119   1.756   2.181  1.1838  0.5309  0.9686
 3878SOL     OW23095   2.283   2.288   2.608 -0.0325  0.0058 -0.4940
 3878SOL    HW123096   2.286   2.211   2.551 -2.0250 -2.1739  2.3564
 3878SOL    HW223097   2.216   2.342   2.564  1.7112  3.6554  1.2946
 3879SOL     OW23098   4.328   1.420   6.646 -0.1144  0.7039  0.4363
 3879SOL    HW123099   4.305   1.352   6.709  1.5446 -0.6324 -0.3953
 3879SOL    HW223100   4.393   1.371   6.595 -1.6811 -1.2313  0.3465
 3880SOL     OW23101   2.153   4.301   6.507  0.1668 -0.2197 -0.3991
 3880SOL    HW123102   2.219   4.234   6.527  0.6970  0.2171 -0.6606
 3880SOL    HW223103   2.210   4.360   6.457 -0.5580 -1.0137 -2.1616
 3881SOL     OW23104   1.019   3.171   8.372  0.2681  0.4158 -0.4086
 3881SOL    HW123105   1.050   3.241   8.315  2.8218  0.1017  0.5790
 3881SOL    HW223106   1.058   3.196   8.456 -0.9167  0.8527  0.0211
 3882SOL     OW23107   4.122   2.441   0.720  0.6290 -0.1241 -0.0891
 3882SOL    HW123108   4.070   2.429   0.640  0.2981  0.1233  0.0931
 3882SOL    HW223109   4.069   2.512   0.755  3.3581  0.7245  2.2756
 3883SOL     OW23110   1.185   0.115  13.866  0.0477 -0.0865  0.6029
 3883SOL    HW123111   1.123   0.124  13.939  0.8753 -0.7008  1.3889
 3883SOL    HW223112   1.174   0.027  13.829  1.1465  0.3219 -0.7052
 3884SOL     OW23113   2.857   4.010   6.884 -0.0700  0.5378  0.1013
 3884SOL    HW123114   2.766   3.982   6.896  0.3108 -1.2662 -1.2725
 3884SOL    HW223115   2.917   3.938   6.866  0.7103  0.2755  3.6848
 3885SOL     OW23116   3.690   3.878   6.029  0.5214  0.1829  0.2849
 3885SOL    HW123117   3.762   3.932   5.995  1.8918 -2.0915 -0.4393
 3885SOL    HW223118   3.689   3.808   5.964  1.2825  0.3538  0.0792
 3886SOL     OW23119   1.839   3.796   2.038 -0.1138  0.3218 -0.1111
 3886SOL    HW123120   1.841   3.885   2.001  0.1355  0.4671  0.2566
 3886SOL    HW223121   1.746   3.775   2.029 -0.1524  0.0813  0.9477
 3887SOL     OW23122   4.411   0.854  12.282 -0.0153  0.6340  0.4939
 3887SOL    HW123123   4.369   0.822  12.203  0.2468 -1.9457  1.3912
 3887SOL    HW223124   4.470   0.779  12.290 -3.4604 -2.1687 -0.4296
 3888SOL     OW23125   4.245   1.215   2.500  0.0580  0.5037  0.3636
 3888SOL    HW123126   4.202   1.286   2.452  0.1642  1.2988  1.4235
 3888SOL    HW223127   4.262   1.159   2.425 -2.3383  0.6444 -0.2890
 3889SOL     OW23128   0.732   4.034   7.258  0.4160 -0.3473  0.2387
 3889SOL    HW123129   0.771   4.122   7.259 -0.3025  0.0030 -1.8275
 3889SOL    HW223130   0.672   4.049   7.185  0.1618 -1.6373  0.1775
 3890SOL     OW23131   3.596   0.188   3.310 -0.1007  0.1808 -0.1847
 3890SOL    HW123132   3.553   0.163   3.392  1.6395 -0.9686  0.3769
 3890SOL    HW223133   3.657   0.115   3.300  0.5532  0.4977  1.3993
 3891SOL     OW23134   4.044   2.100   3.309 -0.2224 -0.2609 -0.2131
 3891SOL    HW123135   4.125   2.056   3.336  0.5377  0.9274 -0.5662
 3891SOL    HW223136   4.008   2.130   3.392 -1.0314 -2.0874  0.0888
 3892SOL     OW23137   4.706   3.255   4.948  0.3736 -0.0987  0.7645
 3892SOL    HW123138   0.033   3.280   4.872 -0.4633  2.4142  1.0228
 3892SOL    HW223139   0.013   3.299   5.027  0.7357  1.4017 -0.2234
 3893SOL     OW23140   2.019   4.412  14.721 -0.3449 -0.6396  0.0354
 3893SOL    HW123141   1.995   4.427  14.812  1.0138 -1.0462  0.4660
 3893SOL    HW223142   1.934   4.423  14.678  0.5194 -1.7800 -1.9412
 3894SOL     OW23143   2.323   2.600  12.908 -0.4126 -0.3203 -0.2196
 3894SOL    HW123144   2.325   2.518  12.958 -3.3438 -0.1404  0.2051
 3894SOL    HW223145   2.403   2.594  12.856  0.3272  0.9470  0.7922
 3895SOL     OW23146   0.369   4.510  17.338 -0.3435 -0.1891  0.0152
 3895SOL    HW123147   0.287   4.560  17.343 -0.7518 -0.7138 -1.5613
 3895SOL    HW223148   0.334   4.429  17.374  2.6042 -1.6777 -0.4844
 3896SOL     OW23149   0.790   1.747   4.227  0.0655 -0.5515 -0.2676
 3896SOL    HW123150   0.823   1.671   4.276  0.2058 -1.5374 -1.9187
 3896SOL    HW223151   0.706   1.756   4.271  0.0670 -0.6663 -0.2416
 3897SOL     OW23152   0.683   3.841   4.384 -0.7544  0.5871 -0.3192
 3897SOL    HW123153   0.747   3.834   4.455 -0.9423  3.1114  0.0998
 3897SOL    HW223154   0.603   3.810   4.425  1.0860 -0.9809  2.0516
 3898SOL     OW23155   3.013   1.743   6.144 -0.1188 -0.2976  0.0961
 3898SOL    HW123156   3.043   1.670   6.091 -1.4831 -1.1266  0.4645
 3898SOL    HW223157   2.919   1.737   6.128  0.1179 -1.7084 -0.7613
 3899SOL     OW23158   0.135   3.344   1.916  0.0128  0.0134 -0.3064
 3899SOL    HW123159   0.152   3.281   1.845  3.0040  0.5506 -0.0582
 3899SOL    HW223160   0.047   3.373   1.892  0.5701  2.1930  0.3287
 3900SOL     OW23161   1.613   3.065  11.016  0.2586 -0.1057 -0.1215
 3900SOL    HW123162   1.680   3.133  11.021  0.7707 -0.5036 -1.6196
 3900SOL    HW223163   1.617   3.041  11.109  0.4456  0.0490 -0.0895
 3901SOL     OW23164   4.269   1.311   5.618 -0.1134 -0.2821 -0.0124
 3901SOL    HW123165   4.230   1.342   5.536 -2.1967 -0.3676  0.9586
 3901SOL    HW223166   4.245   1.218   5.611  0.8459 -0.4862 -0.6399
 3902SOL     OW23167   4.498   0.264   2.629 -0.5962  0.3892 -0.3757
 3902SOL    HW123168   4.587   0.234   2.609 -0.8145 -0.6042  0.1242
 3902SOL    HW223169   4.444   0.187   2.611  2.3870 -1.5417 -1.1467
 3903SOL     OW23170   0.268   2.309   6.781  0.3080  0.2204  0.3136
 3903SOL    HW123171   0.215   2.234   6.807  0.5817 -0.5745 -1.4061
 3903SOL    HW223172   0.302   2.273   6.699  1.7002  1.0322  0.5472
 3904SOL     OW23173   3.017   3.627   8.584  0.2086 -0.0799 -0.3189
 3904SOL    HW123174   2.962   3.646   8.659  0.4999  1.2743 -0.4518
 3904SOL    HW223175   2.998   3.703   8.530  1.2310  1.2061  1.1448
 3905SOL     OW23176   2.922   4.540   8.140 -0.1498  0.1983  0.1447
 3905SOL    HW123177   2.829   4.565   8.137 -0.3193 -0.5344 -0.5425
 3905SOL    HW223178   2.949   4.602   8.208  0.2407  0.8180 -0.5719
 3906SOL     OW23179   0.301   3.792   5.083 -0.2426  0.1669 -0.7410
 3906SOL    HW123180   0.379   3.758   5.128 -1.5235  0.3967  1.6843
 3906SOL    HW223181   0.343   3.832   5.007  0.2566 -3.1718 -2.2180
 3907SOL     OW23182   2.573   1.644   6.999  0.3928 -0.8393 -0.2921
 3907SOL    HW123183   2.535   1.704   6.935  1.0376 -1.0082 -0.8355
 3907SOL    HW223184   2.639   1.705   7.033 -0.0447 -0.7809  0.4439
 3908SOL     OW23185   2.524   3.146   9.328 -0.6987  0.6342 -0.0025
 3908SOL    HW123186   2.455   3.097   9.374  0.7419 -0.1898  1.2925
 3908SOL    HW223187   2.476   3.199   9.265 -2.8881  0.5075  1.5550
 3909SOL     OW23188   0.395   4.348   5.240  0.0896 -0.5325 -0.0771
 3909SOL    HW123189   0.430   4.308   5.160  1.3259  0.1542  0.1171
 3909SOL    HW223190   0.302   4.356   5.218  0.6511  0.2615 -2.1903
 3910SOL     OW23191   4.689   1.648  11.350  0.3631 -0.5747 -0.5588
 3910SOL    HW123192   4.703   1.739  11.375  0.9156 -0.7862 -0.0904
 3910SOL    HW223193   4.708   1.594  11.427 -0.6221 -0.1784 -0.0495
 3911SOL     OW23194   0.165   0.927   8.278  0.4772  0.0886 -0.8018
 3911SOL    HW123195   0.166   1.018   8.249 -2.7300  0.2043 -0.4972
 3911SOL    HW223196   0.133   0.883   8.200  2.6602  0.4831 -1.9047
 3912SOL     OW23197   0.084   4.122  11.564  0.7637 -0.1537 -0.3996
 3912SOL    HW123198   0.076   4.104  11.658  0.9247 -0.2902 -0.4116
 3912SOL    HW223199   0.093   4.217  11.554  0.2559 -0.3358 -2.4524
 3913SOL     OW23200   3.858   4.318   5.892 -0.4409  0.1012  0.4944
 3913SOL    HW123201   3.828   4.400   5.932  0.3691 -0.4456  2.2329
 3913SOL    HW223202   3.833   4.329   5.801 -1.8412 -0.0495  0.8512
 3914SOL     OW23203   2.882   2.737   3.626 -0.7230 -0.3703  0.2754
 3914SOL    HW123204   2.798   2.737   3.579 -0.8476  1.8756  0.4676
 3914SOL    HW223205   2.862   2.671   3.692  0.7400 -1.7602 -0.6975
 3915SOL     OW23206   1.623   4.635   0.562 -0.3447  0.0088 -0.4615
 3915SOL    HW123207   1.582   4.722   0.557 -0.3808 -0.2086 -3.7331
 3915SOL    HW223208   1.703   4.649   0.614 -1.4847 -0.9256  1.5554
 3916SOL     OW23209   3.004   0.945   3.470 -0.4617 -0.2141 -0.3078
 3916SOL    HW123210   2.922   0.990   3.448  0.0818  0.3737 -1.1635
 3916SOL    HW223211   3.060   0.974   3.398  0.8983  0.0019  0.8371
 3917SOL     OW23212   0.496   4.317  14.906 -0.0494  0.0011 -0.0423
 3917SOL    HW123213   0.525   4.251  14.842 -0.8411  0.1746 -0.5692
 3917SOL    HW223214   0.562   4.384  14.886  0.2113  0.1105  1.1946
 3918SOL     OW23215   2.696   1.383   7.417 -0.0097 -0.5381  0.1032
 3918SOL    HW123216   2.691   1.288   7.430  2.0647 -1.1417 -3.7368
 3918SOL    HW223217   2.778   1.384   7.368 -0.7629 -2.0098 -1.1623
 3919SOL     OW23218   1.807   0.027   6.649 -0.1570 -0.0771 -0.5256
 3919SOL    HW123219   1.824   0.120   6.637 -0.2217  0.3686  2.9613
 3919SOL    HW223220   1.898   0.003   6.663  0.5794  3.6618  0.9515
 3920SOL     OW23221   0.112   0.388  13.171 -0.7711  0.1557 -0.0520
 3920SOL    HW123222   0.197   0.422  13.200 -0.5173  0.4783 -1.1527
 3920SOL    HW223223   0.122   0.295  13.190  0.5777  0.6049  1.4757
 3921SOL     OW23224   0.125   1.190   6.232 -0.5122  0.3347  0.1270
 3921SOL    HW123225   0.177   1.261   6.196 -1.8734  0.0820 -2.3193
 3921SOL    HW223226   0.149   1.206   6.323 -2.1551  0.6240  0.5195
 3922SOL     OW23227   2.380   0.749   8.031  0.2105  0.2297 -0.5540
 3922SOL    HW123228   2.407   0.664   8.067  2.4842  1.1325 -0.1354
 3922SOL    HW223229   2.365   0.730   7.939  1.0940 -2.2318 -0.2007
 3923SOL     OW23230   4.283   0.537  17.281  0.7736  0.0049 -0.3440
 3923SOL    HW123231   4.303   0.631  17.276 -2.5569  0.6242 -1.9100
 3923SOL    HW223232   4.306   0.526  17.374  1.0012 -0.7467 -0.4876
 3924SOL     OW23233   0.865   3.703  10.532  0.7078  0.0316 -0.8066
 3924SOL    HW123234   0.815   3.773  10.490  1.6956  1.6570  0.7491
 3924SOL    HW223235   0.795   3.655  10.576 -0.1920  1.4866 -0.6509
 3925SOL     OW23236   0.794   3.918   7.713 -0.7410 -0.3840 -0.3344
 3925SOL    HW123237   0.871   3.884   7.759 -0.1489  0.7853 -0.4362
 3925SOL    HW223238   0.821   3.885   7.627 -0.4044 -0.5225 -0.1750
 3926SOL     OW23239   3.604   3.679   2.627 -0.0053 -0.0159 -0.0063
 3926SOL    HW123240   3.665   3.611   2.599 -0.0915 -0.0148 -0.1931
 3926SOL    HW223241   3.523   3.646   2.589  0.7163 -1.9166  0.1216
 3927SOL     OW23242   0.873   4.098   4.702  0.1960 -0.1026  0.4562
 3927SOL    HW123243   0.964   4.070   4.702 -0.1784 -1.3180  0.0364
 3927SOL    HW223244   0.870   4.138   4.615  0.6868  0.3919  0.6757
 3928SOL     OW23245   2.369   0.330  17.121  0.4800  0.8962 -0.0140
 3928SOL    HW123246   2.335   0.405  17.170 -3.6466 -1.1632  0.2200
 3928SOL    HW223247   2.310   0.317  17.047  0.1540  2.4998 -0.0313
 3929SOL     OW23248   0.502   4.421  15.384 -0.0787 -0.0355 -0.1230
 3929SOL    HW123249   0.516   4.514  15.366  2.7962 -0.6395 -0.9801
 3929SOL    HW223250   0.418   4.405  15.341  0.8409  1.6185 -2.5469
 3930SOL     OW23251   0.667   1.967  11.810  0.0588 -0.2345 -0.3576
 3930SOL    HW123252   0.658   1.902  11.740 -0.8043 -2.4448  1.7916
 3930SOL    HW223253   0.731   1.931  11.872  1.4077  1.4120 -0.8130
 3931SOL     OW23254   1.544   0.600  14.883 -0.3583 -0.5498 -0.3847
 3931SOL    HW123255   1.558   0.684  14.839 -0.8674 -0.7686 -0.9561
 3931SOL    HW223256   1.610   0.601  14.952 -0.1245 -4.2711 -0.5585
 3932SOL     OW23257   3.739   3.431   7.294  0.1679 -0.3445  0.2801
 3932SOL    HW123258   3.774   3.513   7.328 -1.0585  1.7772 -3.5669
 3932SOL    HW223259   3.810   3.368   7.309  0.9142 -0.0729 -2.0699
 3933SOL     OW23260   1.954   2.794   1.054  0.1789  0.0615 -0.3358
 3933SOL    HW123261   1.981   2.735   0.983 -0.0451  0.5691 -0.8449
 3933SOL    HW223262   1.863   2.803   1.028  0.3390 -0.5256 -1.1052
 3934SOL     OW23263   0.248   0.204   2.737  0.3937  0.1858 -0.1979
 3934SOL    HW123264   0.266   0.112   2.758 -0.8906 -0.6395 -2.7212
 3934SOL    HW223265   0.301   0.244   2.806 -0.4458  2.2790 -0.7683
 3935SOL     OW23266   2.307   2.334   1.896  0.8338  0.5073  0.0426
 3935SOL    HW123267   2.242   2.392   1.856  0.5630  1.5278  1.9662
 3935SOL    HW223268   2.341   2.399   1.957 -1.5632  1.1031  0.7543
 3936SOL     OW23269   4.210   0.800  15.959 -0.1909 -0.3010 -0.1083
 3936SOL    HW123270   4.217   0.801  15.864  0.9595  1.1077 -0.0075
 3936SOL    HW223271   4.190   0.890  15.986  1.2562  0.5686 -1.9691
 3937SOL     OW23272   1.362   3.254   2.146 -0.6754 -0.0543 -0.4510
 3937SOL    HW123273   1.416   3.200   2.089  0.9038 -0.6181  1.5862
 3937SOL    HW223274   1.298   3.197   2.189  0.4673 -1.0472 -0.0726
 3938SOL     OW23275   4.208   0.259   1.684 -0.2304  0.1205 -0.0344
 3938SOL    HW123276   4.125   0.278   1.642  1.4000  0.2220 -3.2332
 3938SOL    HW223277   4.183   0.287   1.772  0.3581 -1.6401  0.7066
 3939SOL     OW23278   3.083   3.539   4.196  0.1409  0.5644 -0.4097
 3939SOL    HW123279   3.018   3.472   4.219  0.4046  0.7853  1.0195
 3939SOL    HW223280   3.103   3.521   4.104  1.9927  0.6817 -0.0306
 3940SOL     OW23281   2.177   0.518   2.016  0.2932 -0.4976 -0.4791
 3940SOL    HW123282   2.129   0.550   1.939  2.5594  0.3060 -1.5681
 3940SOL    HW223283   2.107   0.480   2.069  1.3848  1.2065  2.1981
 3941SOL     OW23284   3.085   1.674   4.709  0.5518  0.1584  0.1428
 3941SOL    HW123285   3.021   1.742   4.729  1.5695  0.7018  1.5502
 3941SOL    HW223286   3.059   1.642   4.623 -0.0012  1.0230 -0.0129
 3942SOL     OW23287   3.667   1.942   8.542  0.4271  0.5529 -0.6041
 3942SOL    HW123288   3.693   1.939   8.634  3.1219 -1.0067 -1.3999
 3942SOL    HW223289   3.743   1.985   8.502 -0.2692 -1.3125 -3.9673
 3943SOL     OW23290   3.899   2.700  12.133  0.5077 -0.0170  0.0318
 3943SOL    HW123291   3.857   2.634  12.078  0.7432 -1.8405  2.0075
 3943SOL    HW223292   3.865   2.775  12.085 -1.0890 -1.3083 -0.8222
 3944SOL     OW23293   4.358   3.995  15.280  0.1433  0.6098 -0.1187
 3944SOL    HW123294   4.355   3.984  15.375 -1.8386  1.6678 -0.0642
 3944SOL    HW223295   4.341   4.088  15.272  1.7618  0.8182 -1.0457
 3945SOL     OW23296   0.959   4.435   5.606 -0.4101  0.1309  0.6052
 3945SOL    HW123297   1.004   4.431   5.521 -0.5420  0.8620  0.5008
 3945SOL    HW223298   0.952   4.530   5.615  0.4730  0.0361  2.2452
 3946SOL     OW23299   3.459   3.129   0.496 -1.0491 -0.6417  0.7298
 3946SOL    HW123300   3.390   3.101   0.557 -1.5142  1.1356  0.9995
 3946SOL    HW223301   3.480   3.048   0.448 -1.1197  0.4219 -1.0804
 3947SOL     OW23302   3.159   4.465   8.044 -0.2709  0.4220 -0.8353
 3947SOL    HW123303   3.067   4.474   8.069 -0.2184 -1.0755 -0.1065
 3947SOL    HW223304   3.185   4.373   8.037  0.5193  0.3859  2.5545
 3948SOL     OW23305   0.796   0.241   3.123 -0.2762 -0.0444  0.1360
 3948SOL    HW123306   0.730   0.296   3.166 -0.9933 -0.6993 -0.1284
 3948SOL    HW223307   0.814   0.309   3.057  0.7927  0.9335  1.4309
 3949SOL     OW23308   1.191   2.355   9.718  0.3807 -0.0094 -0.2881
 3949SOL    HW123309   1.096   2.353   9.718  0.3266  2.9676  1.9485
 3949SOL    HW223310   1.209   2.343   9.811  1.1174 -1.8201 -0.6539
 3950SOL     OW23311   3.839   3.205   7.887 -0.2005 -0.3972  0.3299
 3950SOL    HW123312   3.806   3.246   7.967 -0.0942  1.7080 -0.7187
 3950SOL    HW223313   3.881   3.281   7.847 -2.5242 -0.0283 -1.3597
 3951SOL     OW23314   2.923   2.180   6.891 -0.2633 -0.1873  0.0663
 3951SOL    HW123315   2.835   2.203   6.861 -0.2428 -0.0825  0.0857
 3951SOL    HW223316   2.978   2.234   6.835  1.2791 -1.3908  0.4353
 3952SOL     OW23317   1.892   0.876   7.061 -0.5075 -0.1721  0.2981
 3952SOL    HW123318   1.814   0.929   7.078  0.3742  1.2501 -0.0577
 3952SOL    HW223319   1.951   0.898   7.134 -1.5402 -0.6628  1.2798
 3953SOL     OW23320   0.452   0.314   0.697  0.3183 -0.2531 -0.0774
 3953SOL    HW123321   0.451   0.317   0.601  0.8587 -1.2840 -0.1212
 3953SOL    HW223322   0.406   0.397   0.706  0.7190 -0.1077  0.5871
 3954SOL     OW23323   2.073   0.780  12.506  0.7629 -0.0868 -0.2327
 3954SOL    HW123324   1.993   0.805  12.460  2.4164 -0.2068 -3.2033
 3954SOL    HW223325   2.145   0.803  12.447 -0.3158  1.9168 -0.7546
 3955SOL     OW23326   2.144   3.336   5.735  0.9177 -0.3397  0.3050
 3955SOL    HW123327   2.070   3.307   5.680 -0.1239  0.6370  1.1919
 3955SOL    HW223328   2.099   3.372   5.811 -0.2333 -1.3428  0.1136
 3956SOL     OW23329   1.845   4.179   4.963 -0.1205  0.2412 -0.1312
 3956SOL    HW123330   1.935   4.152   4.985 -0.4646 -1.3846 -0.6973
 3956SOL    HW223331   1.825   4.108   4.903 -0.7903 -0.1554  0.5628
 3957SOL     OW23332   0.455   0.233   6.142 -0.4250 -0.3402  0.1099
 3957SOL    HW123333   0.441   0.253   6.234 -0.5364 -0.9354  0.2219
 3957SOL    HW223334   0.550   0.228   6.136 -0.3932  0.6585 -0.3117
 3958SOL     OW23335   3.838   4.557   7.471  0.4378  0.4981  0.2770
 3958SOL    HW123336   3.898   4.628   7.446  1.5218 -0.6741 -0.4552
 3958SOL    HW223337   3.892   4.479   7.461 -0.4550 -0.3602  2.2361
 3959SOL     OW23338   3.960   0.195   1.554  0.0092 -0.0417  0.8124
 3959SOL    HW123339   3.877   0.168   1.516  0.8900  2.3601 -2.7649
 3959SOL    HW223340   3.957   0.162   1.644  0.8645 -1.5964  0.2718
 3960SOL     OW23341   2.396   1.936   2.897  0.3401  0.3804 -0.1011
 3960SOL    HW123342   2.362   1.858   2.943  0.0850 -0.6702 -2.0951
 3960SOL    HW223343   2.325   1.943   2.834 -0.7792  0.3783  1.1541
 3961SOL     OW23344   0.151   3.718   2.835  0.3442  0.0196  0.2468
 3961SOL    HW123345   0.170   3.666   2.756  0.8177 -1.1770  1.1471
 3961SOL    HW223346   0.059   3.735   2.815  1.1606  0.0402 -3.4321
 3962SOL     OW23347   0.717   0.504   4.116  0.2947 -0.5261  0.4586
 3962SOL    HW123348   0.741   0.595   4.134  0.8913 -0.1457 -2.2575
 3962SOL    HW223349   0.653   0.521   4.047 -0.6454 -0.7737  1.2754
 3963SOL     OW23350   2.858   2.025   6.053  0.0719 -0.3304 -0.2076
 3963SOL    HW123351   2.798   1.993   6.120 -0.9298  1.0880 -0.4295
 3963SOL    HW223352   2.929   1.963   6.038  1.1416  1.3023 -1.9783
 3964SOL     OW23353   2.802   3.036   6.470  0.2115 -0.0223 -0.3468
 3964SOL    HW123354   2.861   3.110   6.460 -1.4774  1.3832  0.0380
 3964SOL    HW223355   2.777   3.011   6.381 -0.7958  0.4824 -0.2168
 3965SOL     OW23356   2.852   3.019  11.931  0.3908 -0.1567  0.6913
 3965SOL    HW123357   2.917   3.006  11.999  1.4916 -1.6225 -0.6347
 3965SOL    HW223358   2.790   2.947  11.947  0.8093 -0.6872 -0.0720
 3966SOL     OW23359   0.668   2.548   5.571  0.3897 -0.2141 -0.0362
 3966SOL    HW123360   0.756   2.573   5.599  1.3864 -1.9405 -1.6101
 3966SOL    HW223361   0.662   2.466   5.619 -0.2884  0.4188  0.9645
 3967SOL     OW23362   4.489   2.533   9.803  0.4183 -0.2688 -0.5127
 3967SOL    HW123363   4.408   2.545   9.854  1.4971  0.6089  1.0170
 3967SOL    HW223364   4.566   2.557   9.855  0.9098  1.2485 -1.9428
 3968SOL     OW23365   2.209   3.998   2.421  0.4269 -0.0177 -0.2849
 3968SOL    HW123366   2.288   4.026   2.375  1.1088 -1.4391  0.0094
 3968SOL    HW223367   2.170   3.932   2.364  0.6850 -1.1183  0.8180
 3969SOL     OW23368   0.164   1.649   7.764  0.2669  0.2237  0.6536
 3969SOL    HW123369   0.073   1.624   7.745  0.2240  0.4324  0.5838
 3969SOL    HW223370   0.146   1.677   7.854  1.1418  0.3888  0.7799
 3970SOL     OW23371   0.753   0.306  12.141  0.3111 -0.5191  0.0072
 3970SOL    HW123372   0.716   0.226  12.104 -0.6848 -0.6590  1.3228
 3970SOL    HW223373   0.741   0.283  12.233 -0.1416  0.5454  0.2068
 3971SOL     OW23374   3.516   0.990   5.000  0.1105  0.0886  0.6146
 3971SOL    HW123375   3.528   0.962   4.909  0.8429  0.0504  0.7220
 3971SOL    HW223376   3.579   1.063   5.007  3.5384 -2.8221  0.0675
 3972SOL     OW23377   0.446   1.779   4.809 -0.1933 -0.1051  0.1391
 3972SOL    HW123378   0.414   1.869   4.801 -0.0527  0.0347  1.1685
 3972SOL    HW223379   0.415   1.747   4.724  0.9301 -0.7429 -0.0245
 3973SOL     OW23380   1.376   3.464   0.903  0.1025  0.2696 -0.2856
 3973SOL    HW123381   1.401   3.526   0.972  0.5534  1.5281 -1.5694
 3973SOL    HW223382   1.280   3.470   0.903 -0.0331 -1.7899  0.4798
 3974SOL     OW23383   0.117   4.018  13.275 -0.0706 -0.1799 -0.6308
 3974SOL    HW123384   0.038   3.970  13.299  1.8687 -2.8876  0.3151
 3974SOL    HW223385   0.148   4.045  13.362  0.3526  1.2171 -1.2160
 3975SOL     OW23386   0.692   1.664  15.498 -0.3638  0.0349 -0.2110
 3975SOL    HW123387   0.674   1.571  15.511  1.1960 -0.3209 -0.4988
 3975SOL    HW223388   0.701   1.692  15.589 -0.4308 -1.2737  0.1915
 3976SOL     OW23389   4.146   3.163  13.017 -0.1304 -0.1437 -0.4128
 3976SOL    HW123390   4.213   3.141  13.082 -1.8213 -0.0140  1.3518
 3976SOL    HW223391   4.194   3.200  12.943 -0.4769  3.5200  1.1900
 3977SOL     OW23392   3.353   4.051   9.281 -0.4554 -0.1537  0.0318
 3977SOL    HW123393   3.397   4.048   9.366  3.4547 -1.1630 -1.9856
 3977SOL    HW223394   3.283   3.988   9.293 -0.4632 -0.1626 -0.0570
 3978SOL     OW23395   2.427   1.290   8.154 -0.2999  1.1761 -0.4243
 3978SOL    HW123396   2.349   1.322   8.111 -1.0705 -0.5259 -0.2916
 3978SOL    HW223397   2.412   1.196   8.160  2.0190  0.7981 -0.4460
 3979SOL     OW23398   3.605   1.926   2.892  0.3228 -0.2853  1.1232
 3979SOL    HW123399   3.543   1.853   2.884 -1.1411  0.8614  1.9322
 3979SOL    HW223400   3.553   1.998   2.928  2.2535  0.0650  3.2111
 3980SOL     OW23401   2.411   1.740   5.254  0.2548 -0.5925 -0.2751
 3980SOL    HW123402   2.499   1.732   5.219  0.3347  2.0692 -0.7214
 3980SOL    HW223403   2.431   1.816   5.308  1.0230 -1.5629  0.7909
 3981SOL     OW23404   2.805   0.643   7.673 -0.4898  0.2634  0.3988
 3981SOL    HW123405   2.802   0.641   7.578  0.5254  1.3600  0.3435
 3981SOL    HW223406   2.715   0.659   7.703 -0.1101 -0.2259  1.8330
 3982SOL     OW23407   3.456   4.091   3.196 -0.0841 -0.1850  0.3638
 3982SOL    HW123408   3.511   4.014   3.182 -1.0160 -0.8137  0.1816
 3982SOL    HW223409   3.392   4.059   3.259 -0.0630  2.6347  1.8255
 3983SOL     OW23410   1.772   3.256   1.818  0.0053  0.2196  0.3160
 3983SOL    HW123411   1.842   3.291   1.874 -2.8767  2.7869  2.2741
 3983SOL    HW223412   1.812   3.275   1.733 -1.7597  0.4995 -0.4449
 3984SOL     OW23413   3.603   0.907   6.890  0.0282  0.3009 -0.2603
 3984SOL    HW123414   3.514   0.941   6.888 -0.3664 -0.5743  1.9162
 3984SOL    HW223415   3.647   0.944   6.967 -0.0814  0.2048 -0.1503
 3985SOL     OW23416   1.241   1.358   2.853  0.2690 -0.1230  0.1390
 3985SOL    HW123417   1.331   1.349   2.885  1.0673  1.8171 -1.5863
 3985SOL    HW223418   1.225   1.452   2.851  0.1190 -0.1450  0.4718
 3986SOL     OW23419   1.180   2.770  10.524  0.4887  0.0793  0.4865
 3986SOL    HW123420   1.206   2.838  10.587  1.0215  0.5026 -0.1994
 3986SOL    HW223421   1.260   2.718  10.522  0.4647  0.2144 -2.9736
 3987SOL     OW23422   2.649   4.369  13.416  0.5182 -0.5820  0.1327
 3987SOL    HW123423   2.659   4.407  13.329 -1.2473 -0.5593 -0.0594
 3987SOL    HW223424   2.711   4.410  13.477  2.1393 -0.9164 -1.2632
 3988SOL     OW23425   1.149   4.578   4.426 -0.2965 -0.1631 -0.5063
 3988SOL    HW123426   1.067   4.614   4.392  0.5070 -1.2904 -3.6014
 3988SOL    HW223427   1.215   4.641   4.398  2.0664 -1.7900  1.4456
 3989SOL     OW23428   0.641   4.476   7.940 -0.4939 -0.0504 -0.0232
 3989SOL    HW123429   0.625   4.388   7.976 -0.5604  0.7628  1.9533
 3989SOL    HW223430   0.643   4.460   7.846 -1.7108  0.1668 -0.0854
 3990SOL     OW23431   0.023   3.397   2.946  0.2842  0.2367  0.5019
 3990SOL    HW123432   0.039   3.470   3.006 -0.1557  1.5087 -0.9278
 3990SOL    HW223433   4.660   3.375   2.979  0.0443  1.2323  0.5470
 3991SOL     OW23434   1.495   0.633   7.821 -0.0925 -0.0709 -0.0475
 3991SOL    HW123435   1.447   0.550   7.820  1.7242 -1.1173 -0.5243
 3991SOL    HW223436   1.565   0.625   7.757  0.0552 -2.8183  0.4766
 3992SOL     OW23437   2.457   3.496   3.095 -0.5954 -0.3523  0.2932
 3992SOL    HW123438   2.420   3.565   3.040 -1.7851 -1.8198 -0.7231
 3992SOL    HW223439   2.479   3.543   3.176 -1.2297  1.1581 -0.4142
 3993SOL     OW23440   4.684   4.360   4.891  0.2717  0.0118 -0.1090
 3993SOL    HW123441   4.608   4.301   4.888  0.2972  0.0758 -1.9079
 3993SOL    HW223442   4.651   4.449   4.878 -0.6158 -0.1939  0.7368
 3994SOL     OW23443   3.573   3.026  13.923  0.1584 -0.1272 -0.0949
 3994SOL    HW123444   3.513   3.082  13.973 -1.3168 -1.3281 -0.5448
 3994SOL    HW223445   3.514   2.961  13.886 -0.8579  1.6951 -1.6618
 3995SOL     OW23446   2.877   1.525   3.725  0.2144  0.1199 -0.2779
 3995SOL    HW123447   2.830   1.510   3.643  1.1810  0.3372 -0.8690
 3995SOL    HW223448   2.920   1.603   3.689 -1.3247  1.6738  1.3009
 3996SOL     OW23449   0.057   2.328   2.655 -0.2322  0.0036  0.4210
 3996SOL    HW123450   4.708   2.308   2.596 -1.7817  3.1222  1.3302
 3996SOL    HW223451   0.009   2.375   2.723 -1.1709 -0.0246 -0.2171
 3997SOL     OW23452   1.070   0.272   3.141  0.3610  0.0748 -0.1293
 3997SOL    HW123453   1.046   0.189   3.098  0.3041 -0.0985  0.2354
 3997SOL    HW223454   1.000   0.279   3.206 -0.2481  1.3901 -0.9262
 3998SOL     OW23455   1.500   0.662  17.514 -0.3045  0.1209 -0.1678
 3998SOL    HW123456   1.495   0.757  17.527 -0.3946  0.0473  0.3296
 3998SOL    HW223457   1.444   0.647  17.438 -3.4479  0.0252  2.1697
 3999SOL     OW23458   3.077   4.454   1.767  0.5537  0.3445  0.3511
 3999SOL    HW123459   3.007   4.443   1.832 -1.3787 -2.0777 -2.1497
 3999SOL    HW223460   3.038   4.512   1.701  0.7049 -1.6240 -1.4489
 4000SOL     OW23461   2.055   3.318  12.843 -0.0578 -0.2274 -0.2256
 4000SOL    HW123462   2.141   3.312  12.800  0.3764 -0.2334  0.6301
 4000SOL    HW223463   2.003   3.351  12.770 -1.4030  0.7494  1.1894
 4001SOL     OW23464   1.453   3.272   8.456  0.1027 -0.1657 -0.5182
 4001SOL    HW123465   1.406   3.253   8.537 -1.0613  0.5407 -1.0349
 4001SOL    HW223466   1.525   3.330   8.480  0.3749 -0.3275 -0.9274
 4002SOL     OW23467   0.482   2.283   9.510  0.6024 -0.0091 -0.5313
 4002SOL    HW123468   0.570   2.286   9.547  0.9010  1.0306 -1.3119
 4002SOL    HW223469   0.455   2.374   9.522  0.1961 -0.2604  0.4228
 4003SOL     OW23470   2.364   2.515   2.070  0.5752  0.5301  0.1061
 4003SOL    HW123471   2.302   2.569   2.118  0.0145  1.0940 -1.2402
 4003SOL    HW223472   2.408   2.464   2.137 -0.3349 -0.8789 -0.3863
 4004SOL     OW23473   4.363   4.586   0.039 -0.0630 -0.3237  0.4043
 4004SOL    HW123474   4.357   4.657  17.672  0.9330  0.7493  1.5077
 4004SOL    HW223475   4.444   4.549   0.004  1.1246  0.9947  1.7613
 4005SOL     OW23476   1.900   0.140   7.974 -0.2374 -0.1871 -0.1397
 4005SOL    HW123477   1.932   0.051   7.961  0.7551  0.3712 -1.5465
 4005SOL    HW223478   1.831   0.146   7.907 -1.7610 -0.1650  1.4478
 4006SOL     OW23479   0.399   0.118  17.611 -0.3202  0.2531  0.1455
 4006SOL    HW123480   0.454   0.040  17.607 -0.6229  0.0894 -0.7903
 4006SOL    HW223481   0.322   0.077  17.573  1.3798  0.7287 -3.7206
 4007SOL     OW23482   3.581   2.055   8.928 -0.7033 -0.0710  0.1075
 4007SOL    HW123483   3.543   2.125   8.875  0.0931 -1.4492 -2.2703
 4007SOL    HW223484   3.516   1.985   8.913 -1.1161 -0.1920  2.4219
 4008SOL     OW23485   0.292   3.469   4.085  0.2322  0.8757 -0.2313
 4008SOL    HW123486   0.212   3.497   4.040  0.3513  2.9336  0.8611
 4008SOL    HW223487   0.345   3.434   4.014 -2.6165  0.2341 -2.0803
 4009SOL     OW23488   1.516   3.511   0.676  0.2949  0.4441 -0.6938
 4009SOL    HW123489   1.589   3.450   0.666 -0.4487 -0.9076  2.0596
 4009SOL    HW223490   1.482   3.497   0.764  0.6996  0.6559 -0.5076
 4010SOL     OW23491   1.307   0.556  15.972 -0.0298 -0.8427 -0.4582
 4010SOL    HW123492   1.220   0.519  15.956 -1.0281  1.7109 -0.9774
 4010SOL    HW223493   1.358   0.487  15.931  0.2482 -1.0666  0.2639
 4011SOL     OW23494   0.483   2.102   2.563  0.2062  0.0583 -0.2082
 4011SOL    HW123495   0.499   2.041   2.635  2.7613 -0.1814 -0.9923
 4011SOL    HW223496   0.420   2.052   2.511  1.0543 -1.3912  0.1818
 4012SOL     OW23497   2.556   2.058  13.847  0.0339 -0.1170 -0.2387
 4012SOL    HW123498   2.468   2.069  13.882 -0.1813 -0.9178 -0.5354
 4012SOL    HW223499   2.549   1.969  13.813  0.2299  0.2663 -1.2877
 4013SOL     OW23500   1.380   4.260  12.664 -0.5828  0.1148  0.2929
 4013SOL    HW123501   1.382   4.308  12.581 -1.1649 -0.5125 -0.0852
 4013SOL    HW223502   1.348   4.177  12.629  0.0311 -0.8941  2.1371
 4014SOL     OW23503   2.254   1.491   7.737  0.0797  0.3408  0.6288
 4014SOL    HW123504   2.162   1.515   7.746  0.2936  1.6181 -0.7307
 4014SOL    HW223505   2.282   1.529   7.654 -0.2332 -3.9165 -1.4339
 4015SOL     OW23506   2.374   2.159   5.601  0.3064  0.0677 -0.0636
 4015SOL    HW123507   2.427   2.155   5.680 -1.1306 -0.8031  0.8539
 4015SOL    HW223508   2.349   2.251   5.592  0.3957  0.2142  1.1675
 4016SOL     OW23509   1.185   1.357   4.041 -0.3772 -0.3059  0.2061
 4016SOL    HW123510   1.106   1.312   4.070 -1.1639  1.8427  1.3789
 4016SOL    HW223511   1.175   1.345   3.947  1.1208  2.9129 -0.3762
 4017SOL     OW23512   3.360   3.867  11.817  0.2461 -0.0554 -0.4136
 4017SOL    HW123513   3.330   3.800  11.756  3.6319 -0.9785 -1.0973
 4017SOL    HW223514   3.454   3.849  11.821 -0.0685 -1.8524 -1.0532
 4018SOL     OW23515   0.106   1.878   8.794 -0.5922  0.3727  0.4591
 4018SOL    HW123516   0.188   1.884   8.744 -0.0605 -0.6954  1.1910
 4018SOL    HW223517   0.051   1.853   8.720 -1.0501 -0.9589  1.2517
 4019SOL     OW23518   3.967   4.519   5.611  0.1744 -0.2890  0.0787
 4019SOL    HW123519   3.913   4.442   5.629 -0.1743 -0.6667 -2.5965
 4019SOL    HW223520   3.976   4.501   5.517  1.9116  0.4940  0.0977
 4020SOL     OW23521   4.662   2.912   2.628  0.8476 -0.6123  0.1930
 4020SOL    HW123522   4.654   2.844   2.695  0.7564  0.9893  1.8368
 4020SOL    HW223523   0.007   2.964   2.670 -0.2804  1.5638 -0.6674
 4021SOL     OW23524   0.954   0.891   6.699 -0.6897  0.3810 -0.1010
 4021SOL    HW123525   0.906   0.924   6.623  1.5410  0.2927 -1.5467
 4021SOL    HW223526   1.029   0.951   6.698 -0.7116  0.4413  1.6577
 4022SOL     OW23527   1.553   2.775  10.312  0.0110  0.4086  0.7195
 4022SOL    HW123528   1.640   2.755  10.346 -0.4927 -2.0486  0.6176
 4022SOL    HW223529   1.507   2.807  10.389 -2.3723 -2.5354  0.5244
 4023SOL     OW23530   3.819   3.574   8.610  0.5329  0.2934  0.1807
 4023SOL    HW123531   3.905   3.549   8.645  0.2382 -1.6335 -0.4313
 4023SOL    HW223532   3.767   3.539   8.682  3.4175 -0.2466  2.0166
 4024SOL     OW23533   3.042   0.033  15.545  0.0016 -0.2081  0.0577
 4024SOL    HW123534   3.133   0.062  15.552 -0.0558 -0.2046  0.8336
 4024SOL    HW223535   3.050   4.682  15.486  1.7831 -0.6365  0.8532
 4025SOL     OW23536   0.095   1.200   3.955 -0.3254  0.3790  0.0944
 4025SOL    HW123537   0.167   1.196   3.892  0.3972  0.4531  0.9160
 4025SOL    HW223538   0.037   1.264   3.914  2.5202  0.9502 -3.0428
 4026SOL     OW23539   0.684   0.055  12.843 -0.4901  0.5612  0.6043
 4026SOL    HW123540   0.635   0.121  12.893 -3.7558 -1.3054 -0.2137
 4026SOL    HW223541   0.759   0.033  12.898  0.2714  3.6192  0.8171
 4027SOL     OW23542   0.316   0.827   6.418  0.6369 -0.2051 -0.1442
 4027SOL    HW123543   0.239   0.875   6.387  0.8843  0.5128  0.3503
 4027SOL    HW223544   0.367   0.896   6.460  0.4326  0.2905 -0.7123
 4028SOL     OW23545   3.625   3.018   6.666 -0.1807 -0.3830  0.0079
 4028SOL    HW123546   3.567   3.094   6.668 -0.3040 -0.4938  0.7763
 4028SOL    HW223547   3.693   3.068   6.621 -0.3011  0.9685  1.3156
 4029SOL     OW23548   1.957   1.797   5.991  0.0548  0.5383 -0.6295
 4029SOL    HW123549   1.992   1.751   6.067  0.2656  0.1736 -0.9475
 4029SOL    HW223550   1.975   1.732   5.923 -3.2586 -1.0899  0.0237
 4030SOL     OW23551   2.136   0.705  11.141 -0.8854 -0.6846  1.0165
 4030SOL    HW123552   2.135   0.708  11.237  2.2918  0.4611  1.0143
 4030SOL    HW223553   2.162   0.793  11.116  0.0820 -0.8835  1.3038
 4031SOL     OW23554   0.301   1.194   5.214 -0.1632 -0.0471  0.0808
 4031SOL    HW123555   0.327   1.259   5.278  0.7071  0.8991 -1.2335
 4031SOL    HW223556   0.382   1.183   5.165  0.3757 -0.2155  1.0185
 4032SOL     OW23557   4.537   4.413   4.219 -0.6652 -0.0511  0.0358
 4032SOL    HW123558   4.450   4.394   4.256 -0.5264  0.5766  0.6879
 4032SOL    HW223559   4.533   4.499   4.178  1.0860 -0.3764 -0.7987
 4033SOL     OW23560   1.831   1.430   5.365  0.5843  0.0033  0.2768
 4033SOL    HW123561   1.790   1.386   5.440  0.3295  0.1919  0.2468
 4033SOL    HW223562   1.770   1.503   5.355  0.3867 -0.4743 -1.8834
 4034SOL     OW23563   4.265   3.864   8.207  0.5683 -0.5829 -0.1534
 4034SOL    HW123564   4.358   3.885   8.205  1.2299 -3.4118  0.5944
 4034SOL    HW223565   4.254   3.825   8.294  0.3127  1.5537  0.7624
 4035SOL     OW23566   3.553   3.593  13.452  0.2000 -0.2390 -0.7182
 4035SOL    HW123567   3.542   3.683  13.482  1.8063 -0.2303 -0.1960
 4035SOL    HW223568   3.641   3.605  13.418  0.4100  1.5779  0.4360
 4036SOL     OW23569   0.450   0.591   5.382  0.0607  0.9142 -0.1281
 4036SOL    HW123570   0.446   0.620   5.291 -1.7570 -2.9589 -1.3011
 4036SOL    HW223571   0.488   0.503   5.377  1.7416  1.5528  1.2293
 4037SOL     OW23572   4.028   2.993   1.265 -0.4462 -0.7172  0.0963
 4037SOL    HW123573   3.953   3.050   1.281  1.3888  1.4698  1.0279
 4037SOL    HW223574   4.030   2.947   1.349 -0.5549  1.3401  1.2545
 4038SOL     OW23575   4.387   0.638   8.857  0.6703 -0.1217  0.0224
 4038SOL    HW123576   4.441   0.622   8.779  0.7037 -0.0997  0.0415
 4038SOL    HW223577   4.450   0.684   8.911  0.0136  0.0994  0.6018
 4039SOL     OW23578   2.325   3.980   6.890 -0.1843  0.0471 -0.7463
 4039SOL    HW123579   2.313   3.902   6.945  2.6295 -0.9116 -1.4814
 4039SOL    HW223580   2.288   3.951   6.807 -1.3921 -0.0721 -0.1623
 4040SOL     OW23581   4.011   0.171  10.562 -0.0298 -0.2467 -0.3825
 4040SOL    HW123582   4.027   0.234  10.492 -2.8382  1.1919  0.2519
 4040SOL    HW223583   3.954   0.112  10.514 -1.1496  0.7537 -0.2713
 4041SOL     OW23584   0.240   1.720   2.684 -0.8149 -0.2513  0.0395
 4041SOL    HW123585   0.175   1.669   2.636  1.3084 -0.2815 -2.8596
 4041SOL    HW223586   0.248   1.794   2.623 -2.5551 -0.7321 -0.7765
 4042SOL     OW23587   2.405   3.987   9.394  0.0223  0.2595  0.0559
 4042SOL    HW123588   2.453   4.012   9.473  0.6483  1.4950 -0.7094
 4042SOL    HW223589   2.479   3.979   9.335  0.2149 -1.1742  0.4978
 4043SOL     OW23590   3.536   1.053  16.212 -0.4162 -0.1119 -0.2375
 4043SOL    HW123591   3.513   1.031  16.122 -0.3488  1.2557 -0.5928
 4043SOL    HW223592   3.566   0.966  16.240 -0.7285 -0.2140 -0.2200
 4044SOL     OW23593   1.666   2.427   8.265 -0.0339  0.4979  0.3141
 4044SOL    HW123594   1.751   2.401   8.301  0.6034  2.2302  0.0364
 4044SOL    HW223595   1.611   2.356   8.299  1.5590 -0.0979  1.6542
 4045SOL     OW23596   1.309   2.901   2.232  0.1189  0.1333 -0.8885
 4045SOL    HW123597   1.264   2.821   2.259  0.9592 -0.6098 -1.7084
 4045SOL    HW223598   1.234   2.960   2.242  1.1358  0.7381  2.8529
 4046SOL     OW23599   1.935   2.156   3.804 -0.7358 -0.1575  0.2349
 4046SOL    HW123600   1.998   2.085   3.809  2.7945  2.9197 -1.1424
 4046SOL    HW223601   1.989   2.231   3.831  3.2357 -2.2342 -2.0328
 4047SOL     OW23602   1.951   3.783   1.350  0.1519 -0.1863  0.2229
 4047SOL    HW123603   1.959   3.749   1.260 -0.8385 -2.5903  1.0370
 4047SOL    HW223604   2.027   3.753   1.399 -0.4423 -0.4393  0.9818
 4048SOL     OW23605   3.182   1.481   9.840 -0.4680 -0.1902 -0.4163
 4048SOL    HW123606   3.194   1.567   9.800 -1.2183  0.0683 -0.0722
 4048SOL    HW223607   3.270   1.445   9.831 -0.2627 -0.0810  1.2571
 4049SOL     OW23608   3.440   0.399   4.357  0.3494  0.4369  0.2149
 4049SOL    HW123609   3.526   0.376   4.322  0.3669  1.6070 -0.5005
 4049SOL    HW223610   3.391   0.408   4.275 -0.5798  0.4298  0.7780
 4050SOL     OW23611   2.329   3.427   1.338 -0.7314  0.2803  0.1972
 4050SOL    HW123612   2.302   3.435   1.247  2.3623 -2.3810 -0.9543
 4050SOL    HW223613   2.257   3.368   1.362 -0.8611 -0.2277 -1.4434
 4051SOL     OW23614   0.060   4.613   8.114 -0.6122 -0.7728  0.0822
 4051SOL    HW123615   0.123   4.581   8.051 -0.6606 -0.7733  0.0340
 4051SOL    HW223616   0.112   4.650   8.186  0.4239 -0.1893 -0.9731
 4052SOL     OW23617   4.695   1.369  10.688  0.5104 -0.1671  0.3605
 4052SOL    HW123618   0.030   1.441  10.712 -0.9124  0.7399  1.1041
 4052SOL    HW223619   0.028   1.332  10.620  0.8006  0.1778  0.4179
 4053SOL     OW23620   1.622   4.137  17.136 -0.0146  0.6605 -0.0193
 4053SOL    HW123621   1.674   4.215  17.156  0.9700  0.0313 -0.1355
 4053SOL    HW223622   1.697   4.077  17.136  0.4525  1.2402 -0.2947
 4054SOL     OW23623   0.487   1.188   5.701 -0.0405  0.1111  0.0973
 4054SOL    HW123624   0.571   1.233   5.697 -0.1697  0.5635  2.5223
 4054SOL    HW223625   0.497   1.110   5.645  0.1990  0.0500  0.2277
 4055SOL     OW23626   0.580   2.764   2.189 -0.4073  0.1136  0.4056
 4055SOL    HW123627   0.555   2.831   2.253  0.1643 -0.3942  1.1580
 4055SOL    HW223628   0.530   2.777   2.108 -1.1511 -1.4035  0.6171
 4056SOL     OW23629   2.894   1.441   9.279  0.1197  0.4223  0.0374
 4056SOL    HW123630   2.945   1.511   9.236  0.0178  0.3609 -0.1835
 4056SOL    HW223631   2.837   1.400   9.214  0.8316 -0.6184  0.0684
 4057SOL     OW23632   3.247   4.446   5.629 -0.1991 -0.5437 -0.1136
 4057SOL    HW123633   3.163   4.404   5.615 -0.2992 -0.0769 -0.9325
 4057SOL    HW223634   3.294   4.375   5.672 -0.1220  1.8700  3.8683
 4058SOL     OW23635   0.228   3.201   5.859  0.2535  0.2982  0.1710
 4058SOL    HW123636   0.201   3.292   5.871  2.8681  1.3449 -1.6336
 4058SOL    HW223637   0.293   3.192   5.929  0.4560 -0.9625 -0.1902
 4059SOL     OW23638   3.479   0.551   4.773 -0.1380 -0.3382  0.1545
 4059SOL    HW123639   3.504   0.491   4.844  0.7685  0.1321  0.2262
 4059SOL    HW223640   3.411   0.501   4.728 -1.2659 -0.1783  1.6733
 4060SOL     OW23641   0.464   4.314  16.042 -0.1009  0.1348 -0.1543
 4060SOL    HW123642   0.421   4.248  15.989 -0.0126  0.3413 -0.4819
 4060SOL    HW223643   0.539   4.265  16.074 -0.0105  1.9623  2.4970
 4061SOL     OW23644   0.232   1.332   8.445  0.2766  0.3213 -0.3429
 4061SOL    HW123645   0.302   1.339   8.510 -0.5289 -0.9203  0.6643
 4061SOL    HW223646   0.270   1.283   8.372 -1.9294 -1.0932 -0.5453
 4062SOL     OW23647   3.210   4.129   2.721  0.4098  0.0265  0.1327
 4062SOL    HW123648   3.268   4.124   2.797  1.2656 -0.4221 -0.5509
 4062SOL    HW223649   3.250   4.061   2.667 -0.1170 -0.8953  0.9092
 4063SOL     OW23650   1.780   0.667   2.042  0.4044 -0.6132 -0.7900
 4063SOL    HW123651   1.685   0.661   2.035  0.2888  0.5900 -0.1902
 4063SOL    HW223652   1.790   0.587   1.990  1.5031 -2.2015  1.8812
 4064SOL     OW23653   1.695   4.471   9.208  0.5874 -0.1721 -0.0293
 4064SOL    HW123654   1.771   4.439   9.256  0.5002  0.8928  0.8104
 4064SOL    HW223655   1.738   4.476   9.123  0.9316  1.7693  0.2721
 4065SOL     OW23656   3.470   4.187   9.912 -0.5018  0.1484  0.2833
 4065SOL    HW123657   3.474   4.097   9.882 -1.7482  0.3682 -0.5300
 4065SOL    HW223658   3.397   4.179   9.974 -1.3017 -0.5454 -0.7574
 4066SOL     OW23659   2.276   1.205   5.417  0.5945  0.0495  0.3037
 4066SOL    HW123660   2.201   1.163   5.374 -1.2537  2.9879  0.6624
 4066SOL    HW223661   2.284   1.290   5.375  1.1590  0.2312  0.7857
 4067SOL     OW23662   2.083   3.347   9.619  0.0763  0.3053  0.2224
 4067SOL    HW123663   2.115   3.413   9.680 -0.4718  0.2307  0.5947
 4067SOL    HW223664   2.152   3.360   9.555 -1.0805 -0.1689 -1.1422
 4068SOL     OW23665   4.014   3.515  16.988  0.1935  0.0173 -0.4168
 4068SOL    HW123666   4.077   3.566  16.937  2.2559  0.1929  2.3102
 4068SOL    HW223667   3.925   3.544  16.967  1.0800  1.6055 -1.9979
 4069SOL     OW23668   0.242   2.650   3.644 -0.3467  0.0403 -0.0453
 4069SOL    HW123669   0.243   2.558   3.669  0.7640 -0.6964 -2.7020
 4069SOL    HW223670   0.334   2.667   3.620 -0.1309  0.4265  1.0943
 4070SOL     OW23671   0.740   0.813   4.863 -0.7097 -0.2226 -0.2146
 4070SOL    HW123672   0.782   0.727   4.870  0.7979  0.3939 -1.5440
 4070SOL    HW223673   0.705   0.824   4.951 -0.1812  0.0809 -0.0448
 4071SOL     OW23674   4.657   0.198   5.444  0.3564 -0.3987  0.4712
 4071SOL    HW123675   4.606   0.200   5.524 -0.9302 -2.1936 -0.3071
 4071SOL    HW223676   4.639   0.111   5.409 -1.2784  0.2734 -0.4111
 4072SOL     OW23677   4.603   0.471   4.794  0.3014  0.0605  0.0113
 4072SOL    HW123678   4.571   0.500   4.709 -1.3055 -1.8783 -0.0509
 4072SOL    HW223679   4.667   0.403   4.774 -0.7756 -0.9946  0.1703
 4073SOL     OW23680   1.080   0.289  15.471 -0.0642 -0.1883  0.0422
 4073SOL    HW123681   1.123   0.208  15.500 -0.2419 -0.2520  0.1304
 4073SOL    HW223682   1.155   0.348  15.467  0.2250 -0.6610 -1.3067
 4074SOL     OW23683   2.782   4.260  11.953 -0.1365 -0.2579 -0.3337
 4074SOL    HW123684   2.798   4.198  11.882  1.8542  0.4061 -0.4781
 4074SOL    HW223685   2.822   4.342  11.922 -3.2176  1.1584 -0.6601
 4075SOL     OW23686   2.957   1.724   8.992 -0.2928 -0.4981 -0.2966
 4075SOL    HW123687   2.911   1.789   8.938 -0.9320  0.0414  0.9112
 4075SOL    HW223688   2.981   1.775   9.069 -0.4366 -1.6811  0.5180
 4076SOL     OW23689   1.125   1.992   4.709 -0.5525  0.6105  0.0396
 4076SOL    HW123690   1.068   1.996   4.633 -0.3565 -0.8809 -0.1822
 4076SOL    HW223691   1.211   1.982   4.667 -1.6152  0.4594 -2.0491
 4077SOL     OW23692   0.985   3.755   7.805  0.3808  0.1675  0.4844
 4077SOL    HW123693   1.039   3.739   7.727  0.7676 -0.5536  0.8978
 4077SOL    HW223694   0.947   3.674   7.838  0.3510 -0.2738 -0.6130
 4078SOL     OW23695   4.491   1.050   1.750 -0.0910 -0.2094 -0.8060
 4078SOL    HW123696   4.479   0.958   1.725  0.9362 -1.2867  2.6742
 4078SOL    HW223697   4.535   1.041   1.834 -2.3458 -1.9827  0.1711
 4079SOL     OW23698   0.464   2.144   5.058 -0.6893 -0.9877  0.3204
 4079SOL    HW123699   0.431   2.233   5.045 -0.9300 -1.1414 -0.1076
 4079SOL    HW223700   0.516   2.138   4.978 -3.0655  1.2453 -1.3758
 4080SOL     OW23701   4.475   0.962   6.235 -0.3283 -0.4356  0.1873
 4080SOL    HW123702   4.472   1.011   6.153  1.6986 -1.9399 -0.7797
 4080SOL    HW223703   4.520   0.884   6.202 -0.8245 -0.4355 -0.4854
 4081SOL     OW23704   3.220   3.405   1.806 -0.1198  0.4403 -0.3889
 4081SOL    HW123705   3.231   3.495   1.836 -1.4707  0.4277  0.1582
 4081SOL    HW223706   3.165   3.421   1.730  0.2146 -0.3194 -0.7896
 4082SOL     OW23707   2.044   1.749   7.128 -0.2130  0.0438  0.2913
 4082SOL    HW123708   2.082   1.818   7.074 -1.9869 -1.2807 -2.6710
 4082SOL    HW223709   1.949   1.764   7.132 -0.3608 -0.3540 -2.1317
 4083SOL     OW23710   2.183   1.918   2.741  0.6137 -0.2781  0.1971
 4083SOL    HW123711   2.115   1.985   2.743 -0.4149 -1.3410  0.8380
 4083SOL    HW223712   2.139   1.847   2.694 -0.3662  0.2031  0.3896
 4084SOL     OW23713   2.663   0.926   7.835  0.1190 -0.4315 -0.9980
 4084SOL    HW123714   2.714   0.935   7.754  0.9525 -0.0574 -0.4370
 4084SOL    HW223715   2.582   0.968   7.805 -0.4109 -0.5643  0.2770
 4085SOL     OW23716   2.037   0.946   1.661 -0.1609 -0.6108 -0.0329
 4085SOL    HW123717   1.978   0.906   1.596 -0.3286 -1.3545  0.5844
 4085SOL    HW223718   1.991   0.915   1.739 -0.2178  0.2690  0.2837
 4086SOL     OW23719   1.950   4.169   3.944 -0.3465  0.2873  0.3002
 4086SOL    HW123720   1.904   4.154   3.861 -1.3436  1.0273  0.7138
 4086SOL    HW223721   1.915   4.253   3.972 -0.5848  0.7312 -1.3367
 4087SOL     OW23722   0.548   4.216   8.633  0.0200  0.2851  0.1020
 4087SOL    HW123723   0.462   4.253   8.653  0.9928  0.7823  3.2873
 4087SOL    HW223724   0.589   4.198   8.717  0.7557  1.1917 -0.0646
 4088SOL     OW23725   0.906   2.744   1.816 -0.0404  0.2897  0.5474
 4088SOL    HW123726   0.825   2.789   1.840  0.3067  1.6207 -0.7340
 4088SOL    HW223727   0.937   2.723   1.904  3.3368  0.1752 -0.6630
 4089SOL     OW23728   3.192   0.828   3.132 -0.4787  0.3287 -0.5979
 4089SOL    HW123729   3.133   0.760   3.164  0.4329  0.3167  1.0392
 4089SOL    HW223730   3.181   0.830   3.036  1.8941 -0.7245 -0.8932
 4090SOL     OW23731   2.282   1.489   4.320 -0.6564 -0.1155  0.2366
 4090SOL    HW123732   2.247   1.530   4.399 -0.2326 -0.1478  0.4405
 4090SOL    HW223733   2.375   1.493   4.344 -0.6952 -0.6926  0.4844
 4091SOL     OW23734   3.521   4.657   7.071 -0.4921 -0.2285  0.0268
 4091SOL    HW123735   3.428   4.634   7.077 -0.7348  0.7848  0.0703
 4091SOL    HW223736   3.527   4.675   7.165 -0.1871  0.2535 -0.0896
 4092SOL     OW23737   1.878   0.499   8.141  0.6337  0.5421  0.4102
 4092SOL    HW123738   1.917   0.414   8.160  0.8649 -0.0668 -2.8726
 4092SOL    HW223739   1.957   0.553   8.148  1.1183 -0.4131  2.4553
 4093SOL     OW23740   4.006   2.716  16.649 -0.4540  0.1389 -0.0503
 4093SOL    HW123741   4.064   2.687  16.579 -1.1186  0.0885 -0.5864
 4093SOL    HW223742   3.926   2.738  16.600 -1.2032  1.4803  1.7741
 4094SOL     OW23743   1.199   1.409   1.898  0.3396 -0.5786  0.1812
 4094SOL    HW123744   1.157   1.380   1.817  1.7534 -0.5720 -0.5499
 4094SOL    HW223745   1.126   1.446   1.946  0.7856  1.7235 -0.9277
 4095SOL     OW23746   3.933   1.344   6.224 -0.4311 -0.7348 -0.7827
 4095SOL    HW123747   3.892   1.290   6.155  1.7972 -0.0648 -2.6322
 4095SOL    HW223748   3.945   1.284   6.298 -1.2103 -0.5308 -0.4938
 4096SOL     OW23749   1.684   4.423   6.421 -0.6220 -0.4646  0.0133
 4096SOL    HW123750   1.662   4.469   6.503 -2.7278  2.0428 -1.9502
 4096SOL    HW223751   1.754   4.370   6.458 -1.1549 -1.7612 -0.8501
 4097SOL     OW23752   0.968   1.720   2.272 -0.3944  0.2529  0.5314
 4097SOL    HW123753   0.981   1.744   2.363  1.3238 -1.0150  0.6320
 4097SOL    HW223754   0.885   1.762   2.250 -0.8936  0.5916  3.1346
 4098SOL     OW23755   0.641   1.158   7.085  0.1567  0.5818  0.9731
 4098SOL    HW123756   0.602   1.209   7.014 -1.5250 -1.7338  0.2315
 4098SOL    HW223757   0.732   1.161   7.057  0.1949 -0.7452  0.9643
 4099SOL     OW23758   2.202   2.739   9.604  0.2330  0.2120 -0.7558
 4099SOL    HW123759   2.282   2.705   9.644 -0.1839  1.3416  1.0320
 4099SOL    HW223760   2.136   2.694   9.658  2.1646 -0.6967  0.8632
 4100SOL     OW23761   2.559   2.653  13.763 -0.8409  0.0511  0.0503
 4100SOL    HW123762   2.507   2.685  13.690  0.9537  2.7208 -0.0574
 4100SOL    HW223763   2.542   2.559  13.752 -4.2996  0.9298 -2.0790
 4101SOL     OW23764   2.234   0.720   6.112  0.5221  0.6279 -0.0301
 4101SOL    HW123765   2.224   0.728   6.017  1.2463  1.2514 -0.0511
 4101SOL    HW223766   2.140   0.731   6.127  0.7280  3.2286 -0.6367
 4102SOL     OW23767   4.701   0.096  17.292  0.1794  0.1051  0.7417
 4102SOL    HW123768   4.643   0.097  17.216  1.0270 -2.8706  0.0808
 4102SOL    HW223769   0.059   0.093  17.243  0.4249  0.3983  1.1379
 4103SOL     OW23770   4.636   4.614   9.834  0.2524  0.4251 -0.1248
 4103SOL    HW123771   4.623   4.536   9.781 -0.9228  0.4840  0.0809
 4103SOL    HW223772   4.548   4.623   9.869 -0.6728 -0.7563 -2.1532
 4104SOL     OW23773   3.730   2.173  15.414 -0.5460  0.4292  0.2309
 4104SOL    HW123774   3.727   2.216  15.329 -0.8914  2.8698  1.4704
 4104SOL    HW223775   3.655   2.114  15.406 -0.1881 -0.2442  1.8679
 4105SOL     OW23776   1.130   3.169   7.754  0.3809  0.7662  0.6584
 4105SOL    HW123777   1.202   3.110   7.731 -0.2566  0.5003 -0.6250
 4105SOL    HW223778   1.082   3.119   7.820  1.6625 -2.1962 -0.6494
 4106SOL     OW23779   4.284   3.983   7.165 -0.0978 -0.3499  0.5022
 4106SOL    HW123780   4.287   3.891   7.191  0.0148 -0.5647 -0.2594
 4106SOL    HW223781   4.215   4.014   7.223  1.2457 -0.8435  2.3683
 4107SOL     OW23782   4.646   1.414   7.418  0.1751 -0.4949 -0.5668
 4107SOL    HW123783   0.015   1.427   7.439 -0.3142 -1.6604  2.2557
 4107SOL    HW223784   4.613   1.380   7.501  0.4944  3.4721  1.1329
 4108SOL     OW23785   2.742   3.986   0.764  0.6141  0.0899  0.0634
 4108SOL    HW123786   2.673   3.930   0.729 -0.0340  1.5070 -0.8945
 4108SOL    HW223787   2.816   3.981   0.703 -1.1987  0.3095 -2.1364
 4109SOL     OW23788   1.705   1.462   3.526 -1.0396 -0.1976 -0.5847
 4109SOL    HW123789   1.616   1.467   3.493  0.0913  1.1436 -3.4033
 4109SOL    HW223790   1.719   1.368   3.537  0.5688  0.2482  1.2062
 4110SOL     OW23791   1.707   0.653  10.954 -0.0814 -0.2429 -0.2420
 4110SOL    HW123792   1.712   0.667  11.048 -0.0992 -2.2152  0.0551
 4110SOL    HW223793   1.739   0.737  10.920 -0.0969 -0.3030 -0.4041
 4111SOL     OW23794   0.615   3.376  13.101 -0.0089 -0.1477 -0.4186
 4111SOL    HW123795   0.654   3.464  13.095 -2.6459  0.8579 -2.9862
 4111SOL    HW223796   0.684   3.330  13.149 -1.0693 -0.4042  0.8504
 4112SOL     OW23797   1.886   1.316   8.115  0.5817 -0.0782 -0.0750
 4112SOL    HW123798   1.795   1.345   8.118  1.3418  2.5947 -2.3316
 4112SOL    HW223799   1.923   1.369   8.186 -1.2456 -1.1577  1.6755
 4113SOL     OW23800   4.693   2.121  17.551  0.1326 -0.0549 -0.4976
 4113SOL    HW123801   4.640   2.045  17.574  1.7441 -1.0367 -0.0734
 4113SOL    HW223802   0.046   2.100  17.603  0.4657  1.1823 -0.4789
 4114SOL     OW23803   3.126   2.438  13.276  0.1404  0.2167  0.3388
 4114SOL    HW123804   3.085   2.525  13.286  2.6290  1.8530 -3.7667
 4114SOL    HW223805   3.218   2.461  13.262 -0.5509  1.1299 -2.7276
 4115SOL     OW23806   2.666   0.223   3.768  0.3549 -0.6696  0.0211
 4115SOL    HW123807   2.629   0.311   3.768  1.3553 -0.2524 -0.1227
 4115SOL    HW223808   2.736   0.221   3.702  0.7046  0.3230  0.3737
 4116SOL     OW23809   0.567   1.576   4.573  0.3116 -0.0323 -0.4990
 4116SOL    HW123810   0.618   1.631   4.632  0.8119  1.6014 -2.4375
 4116SOL    HW223811   0.615   1.494   4.566 -0.5740 -0.4518 -1.7016
 4117SOL     OW23812   4.255   1.654  16.881 -0.5201 -0.3472  0.1756
 4117SOL    HW123813   4.305   1.587  16.835 -2.6745 -0.6263 -1.7526
 4117SOL    HW223814   4.318   1.726  16.883 -1.5457  0.5702 -0.0881
 4118SOL     OW23815   1.219   0.092   9.669 -0.7947 -0.2053  0.8536
 4118SOL    HW123816   1.265   0.035   9.606 -0.7554  0.0635  0.6391
 4118SOL    HW223817   1.270   0.173   9.676 -1.7192  0.1688  3.1467
 4119SOL     OW23818   1.114   2.975   7.242  0.3228 -0.0410  0.3349
 4119SOL    HW123819   1.118   3.043   7.310  0.0888 -0.2424  0.5515
 4119SOL    HW223820   1.182   2.918   7.276 -0.0172 -1.5406 -1.5432
 4120SOL     OW23821   1.737   1.046   9.843 -0.2259  0.1044 -0.2152
 4120SOL    HW123822   1.775   0.965   9.811  0.1091  0.4831 -0.7730
 4120SOL    HW223823   1.790   1.071   9.919 -0.3010 -2.5922  0.7080
 4121SOL     OW23824   3.066   3.743   1.340 -0.0226 -0.0740  0.2916
 4121SOL    HW123825   3.009   3.742   1.418  2.2228 -1.9286  1.9221
 4121SOL    HW223826   3.120   3.821   1.351 -2.3707  1.4298  1.2113
 4122SOL     OW23827   0.272   2.147   5.852  0.1754 -0.6672  0.2569
 4122SOL    HW123828   0.298   2.059   5.824  1.3104  0.1339 -1.2188
 4122SOL    HW223829   0.337   2.206   5.814  0.2149 -0.0646  1.2556
 4123SOL     OW23830   2.165   1.487   2.380  0.2064  0.5335  0.0710
 4123SOL    HW123831   2.177   1.433   2.458 -0.5235  0.8028  0.3739
 4123SOL    HW223832   2.237   1.550   2.379  1.3971 -0.7773  1.8769
 4124SOL     OW23833   3.107   0.524   6.187 -0.2509  0.2738 -0.3296
 4124SOL    HW123834   3.130   0.455   6.250 -4.3637  1.0315  2.0820
 4124SOL    HW223835   3.039   0.482   6.134 -0.5171 -1.8904  1.6957
 4125SOL     OW23836   4.644   1.411   1.112  0.0312  0.2450  0.3073
 4125SOL    HW123837   4.662   1.505   1.122 -0.3253  0.0455  2.8659
 4125SOL    HW223838   0.005   1.371   1.129  0.5172  0.0819 -2.5054
 4126SOL     OW23839   4.310   4.071   2.741  0.1672 -0.3719  0.4364
 4126SOL    HW123840   4.327   3.978   2.726 -1.5051 -0.4315 -1.1128
 4126SOL    HW223841   4.221   4.067   2.705 -0.0723  1.4476  0.8350
 4127SOL     OW23842   3.942   2.290   8.130 -0.5313  0.4926 -0.5033
 4127SOL    HW123843   3.997   2.225   8.174  1.6012  3.4184  1.1445
 4127SOL    HW223844   3.977   2.370   8.168  1.4444 -0.0214 -1.2304
 4128SOL     OW23845   1.171   0.279  10.666  0.5465  0.8203 -0.1037
 4128SOL    HW123846   1.197   0.226  10.590  1.4252  0.2957  0.5739
 4128SOL    HW223847   1.097   0.223  10.691  0.8413  0.7044  0.4774
 4129SOL     OW23848   1.209   2.944  15.141  0.2201 -0.2615  0.2901
 4129SOL    HW123849   1.155   2.883  15.091  0.5365 -0.1949 -0.1333
 4129SOL    HW223850   1.153   2.952  15.218 -1.7140 -1.4187 -0.9953
 4130SOL     OW23851   3.325   0.516  14.322  0.0410  0.1295  0.0915
 4130SOL    HW123852   3.355   0.427  14.301 -2.1939 -0.2886 -1.3497
 4130SOL    HW223853   3.396   0.571  14.289 -1.6719  1.1481 -1.9277
 4131SOL     OW23854   3.979   1.778   5.823 -0.1959 -0.0449 -0.1939
 4131SOL    HW123855   3.973   1.781   5.918  0.7120  0.0510 -0.1360
 4131SOL    HW223856   4.017   1.691   5.806 -0.4211 -0.3484  0.8857
 4132SOL     OW23857   3.732   0.412  10.397  0.1379 -0.6765  0.3635
 4132SOL    HW123858   3.785   0.365  10.333 -1.6508 -3.5537  1.0247
 4132SOL    HW223859   3.799   0.468  10.437 -2.4334  2.0406  0.8715
 4133SOL     OW23860   0.753   3.138  13.632 -0.2325 -0.5701 -1.0457
 4133SOL    HW123861   0.806   3.170  13.559  0.1636  0.5860 -0.2561
 4133SOL    HW223862   0.820   3.149  13.699  0.6272  1.8152 -2.3112
 4134SOL     OW23863   1.827   2.010  11.956 -0.4189  0.1625 -0.2359
 4134SOL    HW123864   1.795   2.063  12.029  2.2692 -1.9991  2.5048
 4134SOL    HW223865   1.788   1.925  11.976 -1.4455  0.3276 -1.5349
 4135SOL     OW23866   1.942   0.075   4.586 -0.2147  1.0472 -0.5430
 4135SOL    HW123867   1.950   4.721   4.529  1.0598 -0.3996  1.6146
 4135SOL    HW223868   1.999   0.143   4.551  0.5903 -0.2754 -1.8181
 4136SOL     OW23869   4.195   4.107   9.858  0.0560 -0.1888 -0.5705
 4136SOL    HW123870   4.211   4.031   9.803 -0.5663 -0.0510 -0.9470
 4136SOL    HW223871   4.114   4.137   9.816 -0.6275 -1.3551 -0.1092
 4137SOL     OW23872   0.346   2.414   6.039  0.3097 -0.4039  0.2722
 4137SOL    HW123873   0.382   2.358   5.971 -0.2443  1.1307 -1.2985
 4137SOL    HW223874   0.378   2.500   6.010  0.5879 -0.1376  1.3619
 4138SOL     OW23875   0.816   2.571  13.589 -0.4031  0.3656  0.4174
 4138SOL    HW123876   0.735   2.620  13.604 -0.6245  0.1937 -0.2194
 4138SOL    HW223877   0.850   2.566  13.678 -1.1016 -0.9269  0.6071
 4139SOL     OW23878   2.809   1.132   0.260  0.9051  0.3559  0.1723
 4139SOL    HW123879   2.864   1.171   0.327  3.5841 -0.9748 -1.2452
 4139SOL    HW223880   2.841   1.174   0.180 -1.3103  2.5500  0.4433
 4140SOL     OW23881   0.805   2.642   8.831 -0.4074 -0.0666 -0.5111
 4140SOL    HW123882   0.774   2.703   8.898  1.5265  0.8426 -0.4474
 4140SOL    HW223883   0.815   2.706   8.760 -0.7418 -0.2859 -0.7588
 4141SOL     OW23884   2.837   0.599   2.744 -0.3147 -0.3685 -0.2096
 4141SOL    HW123885   2.804   0.596   2.834  0.2868  1.9195  0.1081
 4141SOL    HW223886   2.915   0.545   2.755  0.1024  0.0381 -1.1204
 4142SOL     OW23887   4.026   2.653   2.033 -0.4629  0.5905  0.0270
 4142SOL    HW123888   3.990   2.734   1.996 -0.1880 -0.2325 -2.0186
 4142SOL    HW223889   4.098   2.698   2.078  0.2067 -0.4848  0.0253
 4143SOL     OW23890   1.629   0.008   4.239  0.4967 -0.7110  0.2337
 4143SOL    HW123891   1.702   0.068   4.250  0.6666 -0.7659 -0.6396
 4143SOL    HW223892   1.640   4.699   4.150 -0.5450  1.9550 -0.8591
 4144SOL     OW23893   2.951   4.155   4.536  0.3912  0.0009  0.1104
 4144SOL    HW123894   3.025   4.097   4.555 -0.4703 -0.4381  2.0761
 4144SOL    HW223895   2.883   4.095   4.504  0.7987 -0.7199  0.6056
 4145SOL     OW23896   3.668   4.464   3.506 -0.3048  0.1690  0.2292
 4145SOL    HW123897   3.739   4.401   3.495  0.8570  1.6472 -0.6861
 4145SOL    HW223898   3.715   4.533   3.553  1.1447 -2.2174  2.2875
 4146SOL     OW23899   1.568   3.528   8.752 -0.2912  0.2627  0.2721
 4146SOL    HW123900   1.625   3.528   8.675 -0.7729  1.2653 -0.0870
 4146SOL    HW223901   1.629   3.495   8.818 -0.7867 -0.8049  0.2064
 4147SOL     OW23902   3.678   0.219   5.638  0.0767 -0.4011  0.3892
 4147SOL    HW123903   3.722   0.291   5.684  0.4256  0.8236 -1.8546
 4147SOL    HW223904   3.628   0.270   5.574  1.1574  1.2763  0.8823
 4148SOL     OW23905   2.525   3.835  17.345 -0.2023  0.0946 -0.1306
 4148SOL    HW123906   2.529   3.923  17.309 -1.8446 -1.3733 -3.8994
 4148SOL    HW223907   2.519   3.858  17.438 -2.0119 -1.0953  0.0541
 4149SOL     OW23908   1.213   0.570   6.432 -0.2446  0.2825 -0.2166
 4149SOL    HW123909   1.170   0.574   6.517 -1.2588  0.8768 -0.7623
 4149SOL    HW223910   1.290   0.518   6.455 -2.5684 -3.2126 -0.4306
 4150SOL     OW23911   2.149   3.987  12.940 -0.1834  0.4702 -0.1654
 4150SOL    HW123912   2.218   3.983  13.007 -0.2770  0.8304 -0.0450
 4150SOL    HW223913   2.199   4.025  12.868  1.0262 -2.1170 -0.6719
 4151SOL     OW23914   0.107   2.746   5.466 -0.2970 -0.6714 -0.0196
 4151SOL    HW123915   0.081   2.838   5.470 -1.6132 -0.9713 -1.9058
 4151SOL    HW223916   0.135   2.737   5.375  1.2874 -0.6494  0.4621
 4152SOL     OW23917   0.891   3.393   7.505  0.0540 -0.4909  0.5491
 4152SOL    HW123918   0.903   3.331   7.433 -0.9126  2.4511 -2.1332
 4152SOL    HW223919   0.796   3.397   7.495  0.2035  0.1617 -0.6672
 4153SOL     OW23920   2.771   2.774   0.020  0.6270  0.7984  0.1289
 4153SOL    HW123921   2.816   2.847   0.061  1.1614  1.4965 -1.7226
 4153SOL    HW223922   2.775   2.799  17.624 -0.7190 -1.0249 -0.4349
 4154SOL     OW23923   2.334   1.369   6.197 -0.3156  0.2066 -0.0575
 4154SOL    HW123924   2.320   1.458   6.166 -1.5526  0.1133  0.2340
 4154SOL    HW223925   2.339   1.377   6.293 -0.6766  0.6474 -0.0755
 4155SOL     OW23926   0.755   1.614  14.242 -0.1753  0.2854 -0.3713
 4155SOL    HW123927   0.780   1.598  14.151  0.3203 -0.6324 -0.0679
 4155SOL    HW223928   0.713   1.539  14.284  0.4933 -0.9910 -2.0141
 4156SOL     OW23929   2.224   4.051   7.309 -0.0967 -0.1860  0.0274
 4156SOL    HW123930   2.305   4.078   7.351  0.1816 -0.7568 -0.1448
 4156SOL    HW223931   2.241   3.960   7.287 -0.2261 -0.3914  0.8036
 4157SOL     OW23932   4.189   3.547   6.509 -0.4843 -0.2657  0.3915
 4157SOL    HW123933   4.233   3.488   6.571  0.5115  1.3761  1.2544
 4157SOL    HW223934   4.260   3.552   6.445 -0.2092  0.9012  0.7719
 4158SOL     OW23935   3.870   0.166  14.861  0.4039  0.3807 -0.3534
 4158SOL    HW123936   3.836   0.227  14.927  1.6642  1.9122 -1.1035
 4158SOL    HW223937   3.821   0.190  14.783 -1.1904  0.5461  0.6844
 4159SOL     OW23938   4.128   3.773   4.021  0.1388  0.5676 -0.6333
 4159SOL    HW123939   4.113   3.685   4.056 -0.3477  0.5568 -0.8590
 4159SOL    HW223940   4.211   3.756   3.978 -0.8836 -2.5080 -1.4196
 4160SOL     OW23941   1.151   2.973  11.328  0.0930 -0.4927  0.0185
 4160SOL    HW123942   1.162   3.054  11.378 -2.5280 -0.5611  0.6755
 4160SOL    HW223943   1.139   3.012  11.241 -2.1305 -0.4175  0.3715
 4161SOL     OW23944   4.337   2.559  12.321 -0.6787 -0.4938  0.1357
 4161SOL    HW123945   4.323   2.558  12.416  0.2631 -0.3726  0.2859
 4161SOL    HW223946   4.433   2.551  12.315 -0.6626 -0.7281  0.6845
 4162SOL     OW23947   4.679   0.735   5.244  0.1586 -0.1489 -0.2796
 4162SOL    HW123948   4.701   0.647   5.273  0.3215 -0.4910 -1.4473
 4162SOL    HW223949   0.040   0.769   5.215  0.1854 -0.7285 -0.8748
 4163SOL     OW23950   0.604   3.729   3.709  0.4051  0.4165 -0.5890
 4163SOL    HW123951   0.697   3.716   3.726  0.7641 -0.0277 -2.7842
 4163SOL    HW223952   0.577   3.762   3.794 -1.3132  0.1059 -1.0190
 4164SOL     OW23953   3.936   2.464   1.473  0.3693  0.5996  0.5255
 4164SOL    HW123954   4.030   2.449   1.484  0.8964  1.5840 -2.7598
 4164SOL    HW223955   3.910   2.504   1.556  2.2023 -2.0217  2.3758
 4165SOL     OW23956   2.533   2.114   7.143  0.2221 -0.1373 -0.2214
 4165SOL    HW123957   2.454   2.160   7.114  0.9745  0.9003 -0.6576
 4165SOL    HW223958   2.591   2.189   7.161  2.6727 -1.9305 -0.6286
 4166SOL     OW23959   2.361   2.471   8.148 -0.6312  0.0651  0.4163
 4166SOL    HW123960   2.382   2.494   8.238 -0.3458 -1.0924  0.6364
 4166SOL    HW223961   2.426   2.519   8.096 -1.6624 -0.7441 -1.6350
 4167SOL     OW23962   2.288   0.071   4.728 -0.0181 -0.0164 -0.3661
 4167SOL    HW123963   2.302   4.715   4.679  0.8188 -0.4824  0.6172
 4167SOL    HW223964   2.283   0.144   4.666 -4.0935 -1.0686 -1.2861
 4168SOL     OW23965   4.395   1.336   4.934  0.1903  0.4936  0.6340
 4168SOL    HW123966   4.435   1.250   4.942  2.5756  1.5652  0.2579
 4168SOL    HW223967   4.366   1.341   5.025 -0.8788 -1.1062  0.3811
 4169SOL     OW23968   2.287   0.574   0.962 -0.1112  0.5953  0.8326
 4169SOL    HW123969   2.310   0.632   1.035 -1.8327  0.4795  1.4625
 4169SOL    HW223970   2.358   0.596   0.901 -2.0286  1.1046 -1.2181
 4170SOL     OW23971   2.119   3.134  16.838  0.0337  0.2036  0.0239
 4170SOL    HW123972   2.041   3.083  16.860 -2.1346  3.3384 -0.4430
 4170SOL    HW223973   2.140   3.159  16.927  1.1479  1.6658 -0.6614
 4171SOL     OW23974   0.732   1.024   5.884  0.6012  0.0263  0.5686
 4171SOL    HW123975   0.814   1.061   5.852  1.1577 -0.9135  0.9005
 4171SOL    HW223976   0.766   0.943   5.923 -0.8526 -0.9780 -0.2298
 4172SOL     OW23977   2.865   4.422  17.013  0.3063 -0.3505  0.3347
 4172SOL    HW123978   2.846   4.514  17.032 -0.0371 -0.6253  1.2992
 4172SOL    HW223979   2.814   4.403  16.934  1.3581 -1.4106 -0.0881
 4173SOL     OW23980   0.948   4.708  10.845 -0.5832 -0.4029  0.1769
 4173SOL    HW123981   0.931   0.054  10.782 -0.7824 -0.6728 -0.0644
 4173SOL    HW223982   0.984   4.645  10.784 -0.8363  2.1764 -2.6352
 4174SOL     OW23983   1.369   0.251   3.870  0.1989 -0.2432  0.6674
 4174SOL    HW123984   1.296   0.193   3.890  1.2185 -1.9928 -0.6308
 4174SOL    HW223985   1.368   0.234   3.775 -1.6429 -0.1364  0.6719
 4175SOL     OW23986   3.547   0.867   7.533  0.3967 -0.1347 -0.3506
 4175SOL    HW123987   3.586   0.784   7.506 -1.0695 -0.6885 -0.7909
 4175SOL    HW223988   3.464   0.825   7.555  0.4397 -1.2448 -2.3409
 4176SOL     OW23989   1.225   0.696   7.936 -0.2343 -0.6629  0.2602
 4176SOL    HW123990   1.308   0.677   7.892 -0.0989  3.0231 -1.0850
 4176SOL    HW223991   1.245   0.743   8.017  1.7925 -1.1832  0.0617
 4177SOL     OW23992   1.867   4.659   1.408 -0.1100 -0.4635  0.4743
 4177SOL    HW123993   1.895   4.573   1.440  2.4107  0.2014  0.0600
 4177SOL    HW223994   1.948   4.704   1.384  0.6768 -1.2533  1.6780
 4178SOL     OW23995   0.919   3.526   3.112  0.6159 -0.2645 -0.3746
 4178SOL    HW123996   0.958   3.509   3.026 -1.7501  0.2451 -1.5402
 4178SOL    HW223997   0.824   3.523   3.099  0.2773  2.1968  1.4518
 4179SOL     OW23998   0.254   2.165   2.272 -1.2341 -0.4266  0.1969
 4179SOL    HW123999   0.291   2.170   2.184 -0.0297 -0.5886  0.6892
 4179SOL    HW224000   0.196   2.241   2.273 -1.3053 -0.4909  1.7615
 4180SOL     OW24001   1.111   4.172   2.645 -0.2068  0.4042 -0.1455
 4180SOL    HW124002   1.170   4.160   2.571  1.9449 -0.7622  1.7996
 4180SOL    HW224003   1.180   4.169   2.711  0.8029  1.7698 -1.1465
 4181SOL     OW24004   4.269   2.616   6.306  0.0770  0.2857 -0.5246
 4181SOL    HW124005   4.269   2.524   6.331 -1.3487  0.0021 -1.5534
 4181SOL    HW224006   4.176   2.634   6.287 -0.0714 -0.5408 -0.5629
 4182SOL     OW24007   0.209   4.058  17.296 -0.0746 -0.2960  0.0382
 4182SOL    HW124008   0.130   4.035  17.345 -2.1433  3.4121 -1.5406
 4182SOL    HW224009   0.257   4.116  17.355  0.1372 -1.3396  0.8842
 4183SOL     OW24010   2.379   3.881   4.027 -0.3271  0.3888 -0.1558
 4183SOL    HW124011   2.312   3.837   3.975 -0.9962  0.7558  0.3906
 4183SOL    HW224012   2.443   3.890   3.956 -2.6664 -1.4351 -2.4614
 4184SOL     OW24013   0.381   0.607   4.740 -0.0418 -0.4934  0.5646
 4184SOL    HW124014   0.376   0.532   4.681 -0.2202  0.6872 -0.9067
 4184SOL    HW224015   0.367   0.561   4.823 -0.7715 -0.3944  0.5001
 4185SOL     OW24016   0.409   1.832   1.905 -0.3209  0.0359 -0.0671
 4185SOL    HW124017   0.444   1.745   1.889 -3.6837 -1.0169 -1.6967
 4185SOL    HW224018   0.492   1.879   1.895 -0.0027 -0.6676 -0.7851
 4186SOL     OW24019   2.925   1.063   2.776  0.0459  0.0879 -0.4689
 4186SOL    HW124020   2.955   1.101   2.859 -1.0830 -0.4605  0.1992
 4186SOL    HW224021   2.922   1.135   2.714  1.2344  1.2253  0.8032
 4187SOL     OW24022   1.736   0.576   4.994  0.0218  0.2526  0.2011
 4187SOL    HW124023   1.764   0.484   4.987 -0.0547  0.0094  3.2064
 4187SOL    HW224024   1.780   0.604   4.914 -0.9647  1.1275 -0.0355
 4188SOL     OW24025   0.501   3.202   5.967 -0.2321  0.1835  0.7102
 4188SOL    HW124026   0.510   3.297   5.958  1.7804  0.0441  1.2572
 4188SOL    HW224027   0.543   3.167   5.889  1.0879  2.1940  0.5032
 4189SOL     OW24028   4.339   0.629   0.593 -0.1963 -0.0330  0.2012
 4189SOL    HW124029   4.362   0.539   0.620 -0.3723  0.0854  0.7525
 4189SOL    HW224030   4.360   0.675   0.674 -0.1865  2.3331 -1.1489
 4190SOL     OW24031   4.579   2.267   6.923 -0.1086 -0.5414 -0.2183
 4190SOL    HW124032   4.612   2.342   6.873 -4.7243  0.4829 -1.7245
 4190SOL    HW224033   4.606   2.196   6.865  0.8644 -1.9065  1.9127
 4191SOL     OW24034   0.429   3.177  14.219  0.5299 -0.3318  0.1096
 4191SOL    HW124035   0.482   3.247  14.256 -0.0114  0.6535 -0.9530
 4191SOL    HW224036   0.474   3.099  14.251  0.5408  0.0367  0.9821
 4192SOL     OW24037   3.980   3.330   4.014 -0.0679  0.0511 -0.1701
 4192SOL    HW124038   4.007   3.239   4.021  0.1684  0.1517  0.2626
 4192SOL    HW224039   3.963   3.331   3.920  0.5692 -0.2856 -0.2826
 4193SOL     OW24040   2.310   2.435  17.491 -0.6008  0.3925 -0.2427
 4193SOL    HW124041   2.271   2.349  17.474  1.3286 -1.0581  2.6009
 4193SOL    HW224042   2.368   2.434  17.415  0.9433  1.4958  0.9165
 4194SOL     OW24043   0.915   3.437   9.975 -0.7292 -0.7189  0.2858
 4194SOL    HW124044   0.936   3.514   9.921 -0.8839 -1.1373 -0.3713
 4194SOL    HW224045   1.003   3.408   9.999 -0.2032 -0.4729 -1.3498
 4195SOL     OW24046   1.976   1.406   4.748 -0.1240  0.1879 -0.6837
 4195SOL    HW124047   1.897   1.450   4.716 -2.2735 -0.7712  3.2423
 4195SOL    HW224048   1.995   1.446   4.833 -0.7953  2.9755 -1.8526
 4196SOL     OW24049   2.389   0.409   1.314  0.3296  0.2915  0.4668
 4196SOL    HW124050   2.420   0.387   1.402  0.9512  2.0291  0.6671
 4196SOL    HW224051   2.330   0.482   1.333  0.2365  0.5326 -0.7706
 4197SOL     OW24052   3.665   2.595  13.189  0.6029  0.4891  0.3682
 4197SOL    HW124053   3.749   2.594  13.235  0.0716  2.5579  1.3418
 4197SOL    HW224054   3.621   2.677  13.209 -2.4840 -1.2530  0.7681
 4198SOL     OW24055   2.177   2.546   8.622  0.4686  0.0569 -0.8360
 4198SOL    HW124056   2.155   2.454   8.634 -0.7997  0.4360 -0.3093
 4198SOL    HW224057   2.272   2.548   8.632  0.8280 -0.4382 -4.1518
 4199SOL     OW24058   1.457   2.577   3.132  0.7285 -0.0374 -0.2273
 4199SOL    HW124059   1.423   2.565   3.221  0.3457  1.0086 -0.2285
 4199SOL    HW224060   1.403   2.651   3.103  1.3338  0.2859 -0.5340
 4200SOL     OW24061   0.758   2.772  11.851  0.2594 -0.2413 -0.1691
 4200SOL    HW124062   0.813   2.788  11.774  0.3781  0.2681  0.0252
 4200SOL    HW224063   0.825   2.769  11.918 -0.2862 -1.6132  0.3058
 4201SOL     OW24064   4.179   2.198   1.907  0.4777  0.1694  0.3050
 4201SOL    HW124065   4.090   2.195   1.871 -0.0935  0.3000  1.7321
 4201SOL    HW224066   4.166   2.279   1.956 -1.2508  1.1942 -1.8238
 4202SOL     OW24067   3.950   3.195   2.346  0.0501  0.1081 -0.4587
 4202SOL    HW124068   3.995   3.230   2.269 -1.4920 -0.6772 -1.7184
 4202SOL    HW224069   4.005   3.123   2.376  1.0653  0.8578 -0.5402
 4203SOL     OW24070   0.304   1.217   1.891  0.2398  1.0548 -0.1864
 4203SOL    HW124071   0.218   1.197   1.927  0.0953  1.5300 -0.2659
 4203SOL    HW224072   0.279   1.245   1.803  1.2328 -0.5402 -0.9916
 4204SOL     OW24073   2.289   0.928  10.645  0.1427  0.3417 -0.0936
 4204SOL    HW124074   2.381   0.902  10.632  0.1282  0.2496 -0.0127
 4204SOL    HW224075   2.301   1.018  10.615  0.0092  0.3676 -0.0710
 4205SOL     OW24076   1.549   4.223   2.572 -0.6331  0.1025  0.0745
 4205SOL    HW124077   1.630   4.219   2.625  0.0401  1.8766 -0.8260
 4205SOL    HW224078   1.563   4.158   2.503 -2.4514  0.4653 -0.6179
 4206SOL     OW24079   4.261   1.685   6.618  0.4696  0.6679  0.2490
 4206SOL    HW124080   4.280   1.598   6.654 -0.6873  0.4188  0.2518
 4206SOL    HW224081   4.335   1.685   6.557  1.6778 -0.1496  1.7172
 4207SOL     OW24082   0.552   1.227   8.178  0.0320  0.0677  1.0573
 4207SOL    HW124083   0.531   1.181   8.260  1.7578  1.5722  2.3404
 4207SOL    HW224084   0.644   1.253   8.188  0.3614 -1.0519  0.9613
 4208SOL     OW24085   0.766   4.012   1.368 -0.2749  0.0816  0.4376
 4208SOL    HW124086   0.811   4.033   1.450  0.8481  3.4077 -1.0244
 4208SOL    HW224087   0.738   3.923   1.387 -0.0148  0.1185  1.0006
 4209SOL     OW24088   2.981   4.270   8.355  0.0588 -0.3494 -0.3745
 4209SOL    HW124089   3.047   4.202   8.371  0.4410 -0.3886 -2.1382
 4209SOL    HW224090   2.950   4.282   8.445  0.4519 -0.9745 -0.1598
 4210SOL     OW24091   2.547   0.239   6.485  0.0782 -0.1454  0.5449
 4210SOL    HW124092   2.529   0.242   6.579  2.5101  0.9070  0.9733
 4210SOL    HW224093   2.482   0.300   6.451  0.8525  0.6383  0.4798
 4211SOL     OW24094   1.103   2.448   3.505 -0.1840 -0.1833  0.1519
 4211SOL    HW124095   1.019   2.487   3.479  1.2585  2.1856 -0.9054
 4211SOL    HW224096   1.157   2.504   3.449  0.7433 -0.1114  1.1355
 4212SOL     OW24097   2.132   1.878   7.389 -0.1635 -0.0435 -0.3548
 4212SOL    HW124098   2.084   1.796   7.403 -2.7436  1.0398 -2.8722
 4212SOL    HW224099   2.073   1.914   7.323  1.1453  0.8428 -1.0377
 4213SOL     OW24100   1.516   0.782   3.247  0.0357 -0.3123 -0.4678
 4213SOL    HW124101   1.524   0.851   3.182 -2.3854  1.3206  0.9445
 4213SOL    HW224102   1.493   0.704   3.196 -0.9703 -0.2110 -0.1745
 4214SOL     OW24103   2.033   3.653   0.205  0.5019  0.4672 -0.9498
 4214SOL    HW124104   2.032   3.676   0.112  0.5438  1.1814 -0.7702
 4214SOL    HW224105   1.943   3.632   0.228 -0.2129  0.7279 -3.5010
 4215SOL     OW24106   3.141   4.293  11.787  0.1921 -0.2440 -0.1819
 4215SOL    HW124107   3.128   4.281  11.881 -2.1782 -1.3768 -0.6393
 4215SOL    HW224108   3.171   4.204  11.766  0.4571 -0.0718 -0.5233
 4216SOL     OW24109   1.107   4.232  17.287  0.4156  0.5031  0.0670
 4216SOL    HW124110   1.201   4.222  17.301  0.3647 -1.4432 -0.9762
 4216SOL    HW224111   1.102   4.215  17.192  0.6447 -1.6841  0.4398
 4217SOL     OW24112   3.213   4.049  13.242  0.2907  0.3491 -0.3964
 4217SOL    HW124113   3.282   4.075  13.302  1.4791  1.6495 -2.2877
 4217SOL    HW224114   3.227   4.125  13.185  1.8065  0.5383  0.2445
 4218SOL     OW24115   1.985   3.944  10.170 -0.2855 -0.2111 -0.1413
 4218SOL    HW124116   1.891   3.937  10.152 -0.5532  2.5190  0.3272
 4218SOL    HW224117   2.014   3.853  10.177 -0.3268 -0.2074  0.0515
 4219SOL     OW24118   3.450   3.408   9.626 -0.3820  0.1611  0.7534
 4219SOL    HW124119   3.498   3.426   9.707  1.2205 -1.2572  0.1167
 4219SOL    HW224120   3.383   3.476   9.630  0.3097  0.8318  0.9905
 4220SOL     OW24121   4.430   0.966   4.534  0.4729  0.3395 -0.5056
 4220SOL    HW124122   4.481   0.900   4.488  0.2687 -0.2443  0.1053
 4220SOL    HW224123   4.445   1.038   4.472 -2.6036  0.5020 -1.0329
 4221SOL     OW24124   2.543   0.627   6.416 -0.4139 -0.2798  0.0515
 4221SOL    HW124125   2.529   0.721   6.424  1.9352  0.1597 -1.0434
 4221SOL    HW224126   2.637   0.622   6.402 -0.1144 -0.6977  2.3391
 4222SOL     OW24127   0.725   0.235   7.626 -0.0950 -0.9558  0.2025
 4222SOL    HW124128   0.691   0.261   7.540  0.6378 -0.4883  0.0582
 4222SOL    HW224129   0.765   0.314   7.662  1.2908 -1.7699  0.4354
 4223SOL     OW24130   2.721   3.294  14.018  0.4185  0.7082  0.1370
 4223SOL    HW124131   2.801   3.345  14.035  0.5865 -1.3192  5.5252
 4223SOL    HW224132   2.697   3.275  14.109  2.0698 -1.1121  0.2070
 4224SOL     OW24133   2.200   3.479   6.136  0.3815 -0.6676  0.4620
 4224SOL    HW124134   2.189   3.394   6.177  0.1993 -0.8387  0.0578
 4224SOL    HW224135   2.120   3.481   6.084  0.1536  0.0418  0.8304
 4225SOL     OW24136   2.320   4.103  12.748  0.4453 -0.1997  0.5088
 4225SOL    HW124137   2.347   4.181  12.701 -1.2059  0.6148  0.9231
 4225SOL    HW224138   2.344   4.040  12.680  0.0249  0.2099 -0.0189
 4226SOL     OW24139   1.211   0.808   9.144  0.0492  0.4652 -0.0224
 4226SOL    HW124140   1.216   0.773   9.233 -1.4545  0.0942 -0.0849
 4226SOL    HW224141   1.164   0.891   9.154  3.1742  2.1289  0.9045
 4227SOL     OW24142   2.312   4.352   7.989  0.2101 -0.5912  0.2478
 4227SOL    HW124143   2.250   4.407   8.037  1.3100  1.5710 -0.8223
 4227SOL    HW224144   2.272   4.266   7.999  0.1204 -0.7651 -1.6294
 4228SOL     OW24145   4.209   4.387   6.462 -0.2682  0.5167 -0.1907
 4228SOL    HW124146   4.159   4.438   6.527 -1.5167 -0.2608 -0.5448
 4228SOL    HW224147   4.219   4.452   6.393  2.7326  0.7645  0.5070
 4229SOL     OW24148   3.071   0.099   3.521  0.4228  0.6193 -0.3730
 4229SOL    HW124149   3.102   0.012   3.547 -0.4469 -0.0890 -1.6947
 4229SOL    HW224150   3.155   0.134   3.490  0.9384  0.8963  1.3711
 4230SOL     OW24151   2.184   3.287  12.270 -0.3451  0.0052 -0.1283
 4230SOL    HW124152   2.264   3.240  12.295 -0.3211  0.0683 -0.0875
 4230SOL    HW224153   2.134   3.214  12.234 -0.8894  1.0039 -1.3678
 4231SOL     OW24154   1.101   3.209   1.726  0.5345 -0.2096 -0.1323
 4231SOL    HW124155   1.118   3.303   1.733 -0.5347 -0.1518  1.7063
 4231SOL    HW224156   1.012   3.215   1.692  0.7175  0.1268 -0.5569
 4232SOL     OW24157   3.471   4.437  10.168  0.3611 -0.7105  0.5581
 4232SOL    HW124158   3.477   4.368  10.101  1.8044 -3.2103  3.2535
 4232SOL    HW224159   3.388   4.425  10.213  0.4050  1.1928  1.1313
 4233SOL     OW24160   2.112   2.546   8.215 -0.3140 -0.1490 -0.1311
 4233SOL    HW124161   2.104   2.462   8.260 -0.2907  0.1055  0.3495
 4233SOL    HW224162   2.193   2.517   8.174  2.0062  2.5889  2.5426
 4234SOL     OW24163   3.718   4.411   5.688 -0.1933 -0.6928 -0.1123
 4234SOL    HW124164   3.734   4.467   5.612 -2.2237 -2.2168 -1.6544
 4234SOL    HW224165   3.634   4.449   5.712 -0.1318  0.3314 -1.4918
 4235SOL     OW24166   0.594   1.178   6.046  0.1046  0.0319  0.6941
 4235SOL    HW124167   0.629   1.125   5.974 -0.1163  0.0189  0.5970
 4235SOL    HW224168   0.566   1.110   6.107  1.2350 -0.1041  1.0690
 4236SOL     OW24169   4.401   4.597   9.955 -0.7984 -0.5953  0.1812
 4236SOL    HW124170   4.399   4.503   9.969 -0.0939 -0.1079  3.5929
 4236SOL    HW224171   4.312   4.630   9.969 -0.8009 -0.5959  0.1672
 4237SOL     OW24172   4.056   3.946   6.832  0.3707 -0.8223 -0.3687
 4237SOL    HW124173   4.035   3.874   6.772 -1.3089 -0.4730 -0.1944
 4237SOL    HW224174   3.965   3.970   6.847  0.3351 -1.0086 -0.2917
 4238SOL     OW24175   1.823   1.022   8.289 -0.2486 -0.1992 -0.0277
 4238SOL    HW124176   1.913   1.050   8.275 -0.4659  0.5057 -0.0338
 4238SOL    HW224177   1.781   1.095   8.334 -0.0456  1.2525 -2.1718
 4239SOL     OW24178   4.194   0.976   9.380 -0.4449 -0.3177 -0.2715
 4239SOL    HW124179   4.099   0.981   9.390 -0.5303 -1.5390 -0.5460
 4239SOL    HW224180   4.209   0.883   9.369 -1.8995 -0.5761 -0.1077
 4240SOL     OW24181   4.661   0.051   9.581  0.0886 -0.0808  0.2041
 4240SOL    HW124182   4.650   4.698   9.637 -0.1629  0.9775  1.5964
 4240SOL    HW224183   4.661   0.010   9.494 -0.6697  0.0388  0.1524
 4241SOL     OW24184   3.117   0.439   0.543  0.1195 -0.2695 -0.0550
 4241SOL    HW124185   3.069   0.418   0.462 -2.4863  1.5205  1.0133
 4241SOL    HW224186   3.198   0.392   0.524  0.1181 -0.5505  0.6651
 4242SOL     OW24187   4.496   0.108   6.921  0.2690  0.1968 -0.2073
 4242SOL    HW124188   4.469   0.197   6.942  2.6685  1.2242 -1.5119
 4242SOL    HW224189   4.513   0.071   7.007 -1.3513  0.7687  0.3582
 4243SOL     OW24190   1.539   2.678  11.153  0.2141  0.0722  0.3946
 4243SOL    HW124191   1.596   2.658  11.079  0.0978  0.2731  0.2477
 4243SOL    HW224192   1.453   2.654  11.118  0.5289 -0.4871 -0.0047
 4244SOL     OW24193   4.170   3.186   6.499  0.3139 -0.4563 -0.1736
 4244SOL    HW124194   4.169   3.141   6.583 -1.6092  1.6108  0.9308
 4244SOL    HW224195   4.258   3.222   6.496  0.3748 -0.8553 -3.1683
 4245SOL     OW24196   0.771   1.298   5.717 -0.0327  0.3605 -0.0577
 4245SOL    HW124197   0.756   1.212   5.677 -1.3259 -1.2528  3.9612
 4245SOL    HW224198   0.818   1.344   5.647  0.7314 -0.9869 -0.4512
 4246SOL     OW24199   4.190   2.615   4.696  0.2576  0.1999  0.2301
 4246SOL    HW124200   4.230   2.528   4.693  0.1884  0.1492  0.7416
 4246SOL    HW224201   4.224   2.660   4.619  0.6714 -1.6006 -0.6598
 4247SOL     OW24202   1.362   0.600   6.758  0.0732  0.1189  0.0004
 4247SOL    HW124203   1.270   0.601   6.731  0.6453 -0.7856 -2.0577
 4247SOL    HW224204   1.370   0.695   6.755 -2.0760  0.3028 -0.2344
 4248SOL     OW24205   2.010   3.006   4.645 -0.2559  0.1821 -0.0847
 4248SOL    HW124206   2.011   2.971   4.734  2.7150  3.1795  1.0993
 4248SOL    HW224207   1.922   2.987   4.615 -1.1197  1.8012  1.3894
 4249SOL     OW24208   1.529   2.028   5.677  0.3273 -0.0992  0.5518
 4249SOL    HW124209   1.458   2.049   5.616 -0.5197 -2.8968  0.5595
 4249SOL    HW224210   1.492   1.945   5.707 -1.0308  0.3669  0.1691
 4250SOL     OW24211   3.036   3.795   6.890  0.4709  0.1277 -0.2627
 4250SOL    HW124212   3.118   3.813   6.937 -0.6258  1.0154  1.3199
 4250SOL    HW224213   3.022   3.703   6.911 -0.9478  0.6646  1.1773
 4251SOL     OW24214   1.731   2.100   4.200  0.0224  0.1498 -0.2872
 4251SOL    HW124215   1.724   2.036   4.271  0.9179 -1.6129 -1.7941
 4251SOL    HW224216   1.664   2.078   4.136 -0.5676 -3.5182  1.6313
 4252SOL     OW24217   1.888   4.288   0.678 -0.0644 -0.1622 -0.0907
 4252SOL    HW124218   1.834   4.211   0.661 -1.1690  1.0745 -2.1876
 4252SOL    HW224219   1.817   4.347   0.703 -0.4727 -0.2628 -1.0046
 4253SOL     OW24220   3.351   1.705  12.176 -0.8855  1.1464  0.2796
 4253SOL    HW124221   3.377   1.614  12.167  0.0087  1.2986  1.3151
 4253SOL    HW224222   3.434   1.736  12.211 -1.1776  1.2615  0.8569
 4254SOL     OW24223   4.303   0.613   5.501  0.4104 -0.0946 -0.1646
 4254SOL    HW124224   4.211   0.614   5.475 -0.0825 -1.6471  1.4838
 4254SOL    HW224225   4.328   0.528   5.465 -0.2929 -1.0985  1.6938
 4255SOL     OW24226   0.486   4.400   7.557  0.2993  0.1449 -0.4270
 4255SOL    HW124227   0.490   4.341   7.482 -0.9292  0.3471 -0.6549
 4255SOL    HW224228   0.423   4.466   7.526  0.0138 -1.0627 -2.3686
 4256SOL     OW24229   0.408   3.060  16.057  0.3532  0.3286  0.4214
 4256SOL    HW124230   0.412   2.980  16.110  2.1174  0.6471  0.7435
 4256SOL    HW224231   0.450   3.035  15.975 -1.6141 -1.3455 -0.0908
 4257SOL     OW24232   1.532   1.667   8.288  0.1232  0.8748  0.0521
 4257SOL    HW124233   1.525   1.580   8.328 -1.3491  1.0690  0.2167
 4257SOL    HW224234   1.542   1.728   8.362 -1.0428  0.3711  0.6164
 4258SOL     OW24235   3.307   3.161   3.877 -0.1950  0.2528 -0.7469
 4258SOL    HW124236   3.226   3.147   3.926  1.2880 -1.1453  1.2620
 4258SOL    HW224237   3.319   3.074   3.839 -4.0035 -0.5394 -0.1771
 4259SOL     OW24238   3.821   3.648  12.018 -0.2895 -0.5998 -0.1684
 4259SOL    HW124239   3.744   3.600  12.048  1.3565 -2.0648  1.6701
 4259SOL    HW224240   3.796   3.737  12.041 -0.3217 -0.4582 -0.7560
 4260SOL     OW24241   2.145   3.825   7.619  0.2561  0.9207 -0.2707
 4260SOL    HW124242   2.216   3.798   7.561  0.7198 -0.7934  1.1002
 4260SOL    HW224243   2.069   3.781   7.582 -1.4552 -0.0927  4.3811
 4261SOL     OW24244   0.069   4.054   8.374 -0.3024  0.0530 -0.2817
 4261SOL    HW124245   0.072   4.150   8.373 -2.3256  0.0995 -2.0671
 4261SOL    HW224246   0.153   4.028   8.411 -0.0637 -1.1629 -1.6723
 4262SOL     OW24247   0.039   3.578   3.994 -0.1375 -0.4063 -0.4072
 4262SOL    HW124248   0.001   3.615   3.914  0.3067  1.1182  0.1043
 4262SOL    HW224249   4.690   3.536   4.041  1.0027 -1.6643  0.2173
 4263SOL     OW24250   4.126   0.162  11.818 -0.0458 -0.0430 -0.3650
 4263SOL    HW124251   4.185   0.119  11.879  0.0947  0.5202 -0.1016
 4263SOL    HW224252   4.095   0.236  11.870  0.7224 -1.2821  1.8496
 4264SOL     OW24253   0.155   0.651   7.646 -0.5568  0.3799 -0.1554
 4264SOL    HW124254   0.134   0.603   7.726  1.9082 -0.9535 -0.2852
 4264SOL    HW224255   0.250   0.640   7.640 -0.3162  2.5232 -0.3787
 4265SOL     OW24256   0.724   2.553   1.997  0.8473 -0.8857  0.0116
 4265SOL    HW124257   0.669   2.508   2.061  0.3231  0.6526  0.6639
 4265SOL    HW224258   0.741   2.640   2.034  2.5173 -0.7489 -1.0828
 4266SOL     OW24259   2.904   2.326   9.537 -0.0661  0.5823 -0.2550
 4266SOL    HW124260   2.957   2.400   9.569 -2.1566  1.2783  1.5774
 4266SOL    HW224261   2.940   2.317   9.449 -0.8248 -0.1025 -0.4901
 4267SOL     OW24262   2.998   3.318   4.841 -0.4206  0.0778 -0.2996
 4267SOL    HW124263   3.082   3.364   4.848 -0.7302  0.7611 -1.0324
 4267SOL    HW224264   3.035   3.239   4.803  0.1354  0.5101 -0.6580
 4268SOL     OW24265   0.054   4.058  13.673  0.3467 -0.0252 -0.0151
 4268SOL    HW124266   4.699   4.025  13.630  0.5918 -1.2869  0.5041
 4268SOL    HW224267   0.032   4.042  13.765 -0.1813  1.8616  0.1996
 4269SOL     OW24268   0.917   3.774  14.250  0.5803  0.1289  0.1977
 4269SOL    HW124269   0.998   3.819  14.227  0.5642 -0.2157 -0.5367
 4269SOL    HW224270   0.852   3.815  14.193  1.9299  0.4260 -1.1206
 4270SOL     OW24271   1.154   3.778   3.644  0.4047  0.4984 -0.9199
 4270SOL    HW124272   1.149   3.874   3.647 -2.0926  0.3255 -0.0344
 4270SOL    HW224273   1.193   3.761   3.729 -0.6454 -2.1963 -0.9789
 4271SOL     OW24274   3.404   0.742  16.327  0.1576 -0.1685  0.1897
 4271SOL    HW124275   3.489   0.773  16.297 -0.9387  0.9614 -1.6967
 4271SOL    HW224276   3.400   0.649  16.304 -1.9504 -0.1192  0.3019
 4272SOL     OW24277   3.389   3.023   6.021 -0.1316 -0.1680 -0.0079
 4272SOL    HW124278   3.301   2.987   6.030 -0.8808  1.4492 -0.9614
 4272SOL    HW224279   3.403   3.079   6.098  0.9520  1.8482 -1.6666
 4273SOL     OW24280   1.641   1.504  13.014 -0.4365 -0.1689  0.3820
 4273SOL    HW124281   1.648   1.481  13.107  0.3882  1.5439  0.7358
 4273SOL    HW224282   1.626   1.598  13.022  0.4138  0.1478 -1.7517
 4274SOL     OW24283   1.166   1.767   4.078 -0.5880  0.1844 -0.5084
 4274SOL    HW124284   1.135   1.832   4.014 -1.7610 -0.1935 -0.3241
 4274SOL    HW224285   1.256   1.800   4.081  0.0681 -1.4276 -2.6590
 4275SOL     OW24286   3.392   3.626   7.478  0.7080  0.1635 -0.1461
 4275SOL    HW124287   3.384   3.612   7.384 -2.0556  3.0980 -0.3082
 4275SOL    HW224288   3.311   3.673   7.495  0.8896  1.4821 -2.9359
 4276SOL     OW24289   1.684   3.110   7.009 -0.1148  0.0530  0.1993
 4276SOL    HW124290   1.658   3.064   7.089  0.3165  0.1944  0.4223
 4276SOL    HW224291   1.598   3.132   6.973  1.2768  0.1453 -3.0199
 4277SOL     OW24292   2.314   4.256   9.988  0.3730 -0.1817 -0.5540
 4277SOL    HW124293   2.279   4.344  10.005  1.0215 -0.0070 -0.1363
 4277SOL    HW224294   2.398   4.271   9.946  0.5192  3.0642  0.9052
 4278SOL     OW24295   0.405   1.328   7.964  0.0769 -0.0129  0.0570
 4278SOL    HW124296   0.457   1.321   7.884  1.7652  0.3395  1.1267
 4278SOL    HW224297   0.459   1.281   8.028 -0.5517 -1.6084 -0.5738
 4279SOL     OW24298   2.338   2.442   4.936 -0.0787  0.7539 -0.2882
 4279SOL    HW124299   2.319   2.400   4.852  0.0973  1.2157 -0.5608
 4279SOL    HW224300   2.399   2.374   4.964 -1.1299  0.3440  0.9367
 4280SOL     OW24301   2.351   1.338  10.171 -0.5752 -0.5406  0.2394
 4280SOL    HW124302   2.320   1.425  10.197 -1.7924 -0.6103 -1.0268
 4280SOL    HW224303   2.434   1.339  10.219  0.2392 -0.3581 -1.1683
 4281SOL     OW24304   1.803   4.158   2.678  0.5413  0.4174 -0.6161
 4281SOL    HW124305   1.862   4.231   2.658 -0.7432  1.7928  0.6658
 4281SOL    HW224306   1.784   4.164   2.771  0.8735 -0.0329 -0.5173
 4282SOL     OW24307   3.670   1.266   1.890  0.6699 -0.0171  0.6702
 4282SOL    HW124308   3.745   1.227   1.845 -2.4699 -4.5132 -0.6253
 4282SOL    HW224309   3.647   1.331   1.823  0.8088 -1.9865 -1.2917
 4283SOL     OW24310   2.276   3.424   3.941  0.4142 -0.0556  0.0024
 4283SOL    HW124311   2.367   3.415   3.970  0.0370 -2.8879  0.3300
 4283SOL    HW224312   2.250   3.476   4.016 -0.3856  1.4022 -1.2826
 4284SOL     OW24313   1.694   4.530   0.294 -0.5912 -0.2356 -0.0834
 4284SOL    HW124314   1.707   4.624   0.281 -0.2100 -0.7952 -3.6695
 4284SOL    HW224315   1.660   4.529   0.384 -2.4935  2.6549 -0.7931
 4285SOL     OW24316   2.195   3.006   9.638  0.2707 -0.1694 -0.5163
 4285SOL    HW124317   2.226   3.017   9.548  1.6036 -0.2298 -0.0527
 4285SOL    HW224318   2.173   2.913   9.634 -0.2051 -0.2035  2.7238
 4286SOL     OW24319   4.284   0.127   8.930  0.4796  0.2045 -0.0639
 4286SOL    HW124320   4.202   0.133   8.881  0.9089  2.0304 -0.5424
 4286SOL    HW224321   4.258   0.144   9.021  0.3218 -1.0277  0.1241
 4287SOL     OW24322   2.567   0.225   2.019 -1.0418  0.2208  0.1429
 4287SOL    HW124323   2.498   0.170   2.055  0.3127 -2.9675 -2.0280
 4287SOL    HW224324   2.516   0.306   2.020  1.4554  1.7981  0.9693
 4288SOL     OW24325   3.834   1.517   7.817  0.2241  0.5513 -0.3022
 4288SOL    HW124326   3.745   1.549   7.833  0.1342  0.5968 -0.8759
 4288SOL    HW224327   3.866   1.498   7.905 -1.3601  2.9884  0.7909
 4289SOL     OW24328   2.781   3.899  10.805  0.2675  0.1040 -0.1185
 4289SOL    HW124329   2.733   3.820  10.783  0.4158 -0.1170  0.3513
 4289SOL    HW224330   2.831   3.913  10.725 -1.6705 -0.0235 -1.3555
 4290SOL     OW24331   0.749   1.279   6.439 -0.0707  0.6382 -0.1597
 4290SOL    HW124332   0.665   1.312   6.408 -0.8337 -1.2862 -0.1603
 4290SOL    HW224333   0.796   1.279   6.356 -0.1815 -2.0757 -0.2245
 4291SOL     OW24334   4.059   0.950   9.719  0.8560 -0.2544  0.7695
 4291SOL    HW124335   3.971   0.935   9.685  1.7942 -0.8035 -1.4942
 4291SOL    HW224336   4.105   0.867   9.703  1.4985  0.5083 -1.3638
 4292SOL     OW24337   3.423   3.601   0.085 -0.1828 -0.4723  0.1810
 4292SOL    HW124338   3.433   3.693   0.062  0.5583 -0.7009 -0.4262
 4292SOL    HW224339   3.492   3.563   0.031 -1.2245 -0.0401 -1.4487
 4293SOL     OW24340   3.982   2.418   5.772  0.3802 -0.2212 -0.1211
 4293SOL    HW124341   4.002   2.501   5.730 -3.5689  1.4957  1.3976
 4293SOL    HW224342   4.071   2.400   5.803 -0.9424  0.8551  4.2954
 4294SOL     OW24343   3.733   1.560  17.079 -0.3800 -0.2345 -0.2591
 4294SOL    HW124344   3.798   1.492  17.060 -1.3672 -1.0287 -0.7956
 4294SOL    HW224345   3.707   1.525  17.165 -0.1010  0.4490  0.1046
 4295SOL     OW24346   4.564   3.183   7.591  0.1791 -0.1411  0.8423
 4295SOL    HW124347   4.580   3.163   7.683 -3.5246  1.3676  1.8152
 4295SOL    HW224348   4.476   3.220   7.598  0.5442  0.6205  1.4957
 4296SOL     OW24349   0.830   2.006   3.189 -0.0092  0.0789  0.1662
 4296SOL    HW124350   0.866   2.072   3.129  3.1178  0.7075  2.7577
 4296SOL    HW224351   0.852   2.047   3.273  0.8204  1.0461 -0.5124
 4297SOL     OW24352   3.159   2.161   4.337  0.0036  0.0242  0.2985
 4297SOL    HW124353   3.248   2.191   4.317 -0.3089  0.7193 -0.0183
 4297SOL    HW224354   3.106   2.225   4.290  0.5777 -1.1617 -1.9449
 4298SOL     OW24355   1.927   3.069   1.125  0.5990  0.6281 -0.1231
 4298SOL    HW124356   1.862   3.018   1.174 -1.0241  2.7501 -0.0904
 4298SOL    HW224357   1.964   2.988   1.089 -0.9788  0.4028 -1.2260
 4299SOL     OW24358   4.563   0.972   3.188  0.4929 -0.2155 -0.0460
 4299SOL    HW124359   4.577   1.038   3.255  0.7176  1.6017 -1.8979
 4299SOL    HW224360   4.532   1.028   3.117 -1.5910 -1.4649 -0.1474
 4300SOL     OW24361   0.953   1.718   2.555 -0.2568 -0.3205 -0.1237
 4300SOL    HW124362   1.044   1.709   2.584 -0.7073  0.0570  1.3921
 4300SOL    HW224363   0.923   1.634   2.520  0.7923 -1.3713  1.5231
 4301SOL     OW24364   0.149   0.593   9.336  0.1727  0.2297  0.1777
 4301SOL    HW124365   0.154   0.624   9.245 -0.0615  1.4491  0.5832
 4301SOL    HW224366   0.235   0.551   9.345  0.2171  0.3281  0.2119
 4302SOL     OW24367   2.317   0.387  11.071  0.0607  0.1144  0.4367
 4302SOL    HW124368   2.362   0.325  11.127 -1.5544 -1.5518 -0.1052
 4302SOL    HW224369   2.331   0.337  10.991  0.9604  0.4719  0.3702
 4303SOL     OW24370   3.120   2.644   3.481  0.2949 -0.1069 -0.1352
 4303SOL    HW124371   3.026   2.626   3.482  0.2536  0.1345  0.8874
 4303SOL    HW224372   3.117   2.726   3.530  0.4842 -0.1455 -0.0588
 4304SOL     OW24373   0.355   2.086   8.326  0.1750  0.2536  0.5172
 4304SOL    HW124374   0.333   2.159   8.384 -0.2192  0.2066  0.4255
 4304SOL    HW224375   0.443   2.100   8.291 -0.3127 -0.5419 -1.0011
 4305SOL     OW24376   0.616   1.693   4.999 -0.4768 -0.1328  0.4357
 4305SOL    HW124377   0.538   1.711   4.946 -0.7790  0.2088  0.9910
 4305SOL    HW224378   0.678   1.673   4.929  0.5650  1.0262  1.0192
 4306SOL     OW24379   1.309   3.985   4.029 -0.1840  0.6060 -0.0198
 4306SOL    HW124380   1.244   3.927   3.989  0.6582 -0.5272  0.2435
 4306SOL    HW224381   1.296   3.961   4.120  3.4903  0.1504  0.3903
 4307SOL     OW24382   2.590   0.138   7.689 -0.5006  0.2095  0.7116
 4307SOL    HW124383   2.590   0.110   7.780 -2.0602  0.5410  0.8085
 4307SOL    HW224384   2.652   0.076   7.650 -1.6784 -0.6003  0.1450
 4308SOL     OW24385   1.901   0.486   9.870  0.0974  0.2553 -0.2394
 4308SOL    HW124386   1.846   0.459   9.944  1.3692 -1.1541  0.1946
 4308SOL    HW224387   1.982   0.501   9.919 -0.3667  2.3847 -0.1517
 4309SOL     OW24388   0.433   3.372   8.566  0.0495  0.0244 -0.4529
 4309SOL    HW124389   0.527   3.382   8.578 -0.1375 -0.3652  1.3739
 4309SOL    HW224390   0.404   3.426   8.640  0.7956  1.1608 -0.9946
 4310SOL     OW24391   0.639   4.708   5.471  0.6581  0.1932 -0.0570
 4310SOL    HW124392   0.698   0.030   5.531 -1.3022  0.2421  1.8266
 4310SOL    HW224393   0.693   4.633   5.445 -1.5805 -1.0193 -1.1505
 4311SOL     OW24394   0.744   1.730   0.548  0.2935 -0.4296  0.1141
 4311SOL    HW124395   0.670   1.749   0.607 -1.6821 -1.1393 -2.1340
 4311SOL    HW224396   0.798   1.678   0.607  0.2020  0.5665  1.0856
 4312SOL     OW24397   4.089   1.260   5.023 -0.0635  0.0073 -0.7199
 4312SOL    HW124398   4.011   1.306   4.992 -0.3039 -0.3623 -0.6618
 4312SOL    HW224399   4.096   1.191   4.957 -1.5925 -1.1361  0.3134
 4313SOL     OW24400   3.066   0.148   6.706 -0.2033  0.3153 -0.3545
 4313SOL    HW124401   3.036   0.121   6.619  2.4211 -2.6775 -0.3301
 4313SOL    HW224402   2.985   0.159   6.755 -0.9548 -2.0301 -1.0633
 4314SOL     OW24403   4.172   3.543  11.505  0.6676 -0.0048 -0.0039
 4314SOL    HW124404   4.202   3.491  11.580 -2.0014  2.4426  2.7424
 4314SOL    HW224405   4.212   3.506  11.426  0.9117  3.0728 -1.3005
 4315SOL     OW24406   3.610   1.126  17.022  0.5845  0.0414 -0.0229
 4315SOL    HW124407   3.616   1.147  17.115 -1.5648 -2.1660  0.6216
 4315SOL    HW224408   3.578   1.036  17.027 -0.2609  0.3996  0.8225
 4316SOL     OW24409   3.482   1.067  17.595  0.1975 -0.1067  0.2197
 4316SOL    HW124410   3.495   0.973  17.582 -0.8048 -0.2894  0.4719
 4316SOL    HW224411   3.432   1.095  17.518  0.5659  2.5173  0.9671
 4317SOL     OW24412   0.207   4.147   1.997 -0.1011 -0.1093 -0.2949
 4317SOL    HW124413   0.152   4.216   1.959 -1.1272 -1.4761 -1.2716
 4317SOL    HW224414   0.290   4.196   1.998  0.7582 -1.5494 -1.2098
 4318SOL     OW24415   3.498   3.417   4.781 -0.4830 -0.1322  0.3101
 4318SOL    HW124416   3.580   3.379   4.811  1.2067  3.1053 -0.1048
 4318SOL    HW224417   3.505   3.430   4.686 -3.4966 -1.9703 -0.1502
 4319SOL     OW24418   2.988   2.218   5.205 -0.0827  0.3947 -0.2961
 4319SOL    HW124419   2.905   2.175   5.226  0.0198  1.0924  1.5000
 4319SOL    HW224420   2.966   2.298   5.158  1.3951  0.2605 -1.2112
 4320SOL     OW24421   3.913   3.121  13.460  0.1933  0.2382 -0.3095
 4320SOL    HW124422   3.962   3.097  13.539 -1.0019  3.2663  1.3472
 4320SOL    HW224423   3.953   3.208  13.454 -0.6887  0.6495 -0.1282
 4321SOL     OW24424   2.946   4.047  17.030 -0.8422 -0.0149  0.2770
 4321SOL    HW124425   2.974   3.958  17.050  0.3719 -0.1965 -2.2666
 4321SOL    HW224426   3.029   4.078  16.994 -1.2881  0.1837 -0.5794
 4322SOL     OW24427   2.647   2.783   7.195  0.4942 -0.3043 -0.0759
 4322SOL    HW124428   2.706   2.815   7.263 -0.8784  2.2910 -0.1311
 4322SOL    HW224429   2.708   2.771   7.123 -0.9082 -0.7073 -1.1978
 4323SOL     OW24430   0.207   1.459   7.392  0.0820  0.2391 -0.9379
 4323SOL    HW124431   0.257   1.461   7.473 -1.8952  1.2374  0.2358
 4323SOL    HW224432   0.263   1.527   7.351  0.1506  0.3909 -0.5889
 4324SOL     OW24433   0.512   1.558   1.877 -0.5865  0.1625  0.1389
 4324SOL    HW124434   0.568   1.481   1.882  2.3060  2.2884  0.3194
 4324SOL    HW224435   0.479   1.543   1.789 -0.1050 -1.2907  0.2063
 4325SOL     OW24436   2.029   1.572   1.006  0.0908  0.0647  0.2340
 4325SOL    HW124437   1.938   1.599   0.991 -0.5872 -2.1896  0.2459
 4325SOL    HW224438   2.021   1.477   1.001 -0.3297 -0.0382  3.0539
 4326SOL     OW24439   1.674   0.844   9.283  0.2876 -0.0632 -0.0620
 4326SOL    HW124440   1.628   0.921   9.316 -0.0646 -0.8962  1.3542
 4326SOL    HW224441   1.766   0.867   9.294  0.9215 -1.5532 -2.2281
 4327SOL     OW24442   3.617   3.765   4.602  0.0176  0.1773  0.4849
 4327SOL    HW124443   3.669   3.840   4.575  1.3041 -0.0656  2.3166
 4327SOL    HW224444   3.685   3.698   4.603 -0.8935 -0.7926 -1.8418
 4328SOL     OW24445   3.269   0.888  13.197 -0.0534  0.5424  0.3118
 4328SOL    HW124446   3.264   0.984  13.193  1.4637  0.5023 -2.1043
 4328SOL    HW224447   3.346   0.881  13.141 -2.2892 -1.0301 -2.5964
 4329SOL     OW24448   2.321   2.393  13.675  0.1215 -0.2446 -0.0363
 4329SOL    HW124449   2.282   2.366  13.757 -1.6275 -0.3854 -0.9211
 4329SOL    HW224450   2.415   2.400  13.695  0.6679 -1.3549 -2.2511
 4330SOL     OW24451   1.125   0.877   7.572 -1.1919  0.6678 -0.4353
 4330SOL    HW124452   1.216   0.852   7.591 -1.2810  0.6422 -0.0397
 4330SOL    HW224453   1.111   0.932   7.649  0.5746  1.4942 -0.7181
 4331SOL     OW24454   0.606   2.648   7.938 -0.1536 -0.0756  0.0600
 4331SOL    HW124455   0.548   2.723   7.943  0.0699  0.1391 -0.5917
 4331SOL    HW224456   0.683   2.691   7.974 -0.2958 -0.2412  0.5529
 4332SOL     OW24457   0.716   1.311   3.856 -0.0609  0.2614  0.0102
 4332SOL    HW124458   0.779   1.327   3.786  1.1255 -1.2063  0.7465
 4332SOL    HW224459   0.746   1.373   3.922  0.6848 -3.0432  2.7321
 4333SOL     OW24460   0.557   4.449  14.375 -0.6562  0.2915 -0.2449
 4333SOL    HW124461   0.554   4.493  14.290  4.0390 -2.8590 -2.0691
 4333SOL    HW224462   0.613   4.511  14.422  0.6192 -0.2126 -1.1011
 4334SOL     OW24463   2.094   2.172   1.886 -0.6637 -0.4570  0.1950
 4334SOL    HW124464   2.081   2.130   1.971 -1.6174 -1.9956 -0.7182
 4334SOL    HW224465   2.175   2.223   1.894 -0.1049 -1.2465 -0.5582
 4335SOL     OW24466   3.405   4.715  10.290  0.5676 -0.1141 -0.4761
 4335SOL    HW124467   3.417   0.060  10.355  0.2269 -0.6577  0.1619
 4335SOL    HW224468   3.381   4.631  10.330  1.7301 -0.2680 -0.1242
 4336SOL     OW24469   0.925   2.226   6.894  0.6486 -0.2464 -0.2603
 4336SOL    HW124470   0.945   2.279   6.817 -4.5171  2.9230  0.5671
 4336SOL    HW224471   0.831   2.208   6.881  0.0321  1.7844  1.4788
 4337SOL     OW24472   0.328   4.679   5.948  0.6736 -0.1254  0.1291
 4337SOL    HW124473   0.355   4.659   5.858  0.1387  0.6570 -0.2044
 4337SOL    HW224474   0.236   4.655   5.941  0.8790 -0.7011 -0.5957
 4338SOL     OW24475   2.682   2.797  13.953  0.2341 -0.4625 -0.0576
 4338SOL    HW124476   2.603   2.785  14.005  0.7423 -0.0531  0.8277
 4338SOL    HW224477   2.656   2.786  13.862  0.3470  1.5122 -0.3266
 4339SOL     OW24478   2.501   0.055   5.824  0.3228  0.1572 -0.4603
 4339SOL    HW124479   2.541   4.693   5.809  1.0330  0.7232 -1.7990
 4339SOL    HW224480   2.492   0.087   5.734  0.9675  0.9758 -0.2374
 4340SOL     OW24481   4.266   3.710   6.960 -0.5735  0.3213 -0.0166
 4340SOL    HW124482   4.352   3.734   6.924 -0.0966  0.3321  1.1253
 4340SOL    HW224483   4.231   3.798   6.956 -0.0560  0.4526 -2.0675
 4341SOL     OW24484   0.964   2.208  14.164 -0.0735  0.9456 -0.4976
 4341SOL    HW124485   0.897   2.260  14.120 -0.9492  0.9038  0.7800
 4341SOL    HW224486   0.973   2.136  14.102  1.1460  1.6776 -1.1730
 4342SOL     OW24487   4.631   1.600  16.697  0.6614  0.4376 -0.6191
 4342SOL    HW124488   4.676   1.622  16.616  2.3905 -0.8039  0.0046
 4342SOL    HW224489   4.688   1.534  16.737  1.0767  1.3828  0.3197
 4343SOL     OW24490   0.085   0.827   3.189  0.1147 -0.1086 -0.1473
 4343SOL    HW124491   0.064   0.819   3.282 -0.3254 -0.5645 -0.2904
 4343SOL    HW224492   0.012   0.884   3.166  0.0359 -0.0658  0.2088
 4344SOL     OW24493   0.291   3.995  10.964 -0.3699 -0.4200  0.3521
 4344SOL    HW124494   0.379   3.980  10.999 -0.4091 -1.8952 -0.1666
 4344SOL    HW224495   0.304   4.024  10.874  1.7825  1.2083  1.2100
 4345SOL     OW24496   0.269   2.725   3.108  0.3886 -0.1203  0.2566
 4345SOL    HW124497   0.186   2.726   3.155  0.8051  2.2837  0.9359
 4345SOL    HW224498   0.277   2.818   3.088  0.2338 -0.1698 -0.0362
 4346SOL     OW24499   2.710   3.378   6.493 -0.3431  0.3535  0.2771
 4346SOL    HW124500   2.683   3.467   6.468  0.6019  0.2495 -1.0778
 4346SOL    HW224501   2.668   3.324   6.426  3.5543 -1.3996 -0.7418
 4347SOL     OW24502   0.337   3.839   6.731 -0.0887 -0.1088 -0.4527
 4347SOL    HW124503   0.380   3.807   6.810 -1.9351 -0.2799  0.4776
 4347SOL    HW224504   0.287   3.914   6.763  0.8486  1.3602 -2.3736
 4348SOL     OW24505   0.925   2.890  13.607 -0.2807 -0.4680 -0.1878
 4348SOL    HW124506   0.970   2.831  13.667 -2.5146 -1.7639  0.2292
 4348SOL    HW224507   0.915   2.958  13.674  0.1868 -0.1111 -0.4738
 4349SOL     OW24508   3.100   4.095  11.205 -0.0377  0.0576 -0.4374
 4349SOL    HW124509   3.131   4.063  11.121  2.2584  0.2832  0.3309
 4349SOL    HW224510   3.014   4.130  11.183 -1.0722 -1.2239  1.6121
 4350SOL     OW24511   2.330   2.768  10.275  0.1232  0.4835 -0.2836
 4350SOL    HW124512   2.300   2.817  10.198 -0.7111  1.8804  0.9463
 4350SOL    HW224513   2.424   2.769  10.258  0.0784 -1.6682 -0.6683
 4351SOL     OW24514   3.345   3.291   5.907  0.4492 -0.3775  0.5746
 4351SOL    HW124515   3.348   3.198   5.883  0.6418 -0.1838 -0.1528
 4351SOL    HW224516   3.437   3.309   5.926  0.6844 -0.8857 -0.0663
 4352SOL     OW24517   4.155   1.945   4.755  0.8558  0.1989 -0.4836
 4352SOL    HW124518   4.142   1.918   4.845 -0.3408  0.7767 -0.4766
 4352SOL    HW224519   4.101   2.024   4.753  0.2922 -0.1622  0.8600
 4353SOL     OW24520   0.573   4.279   6.587 -0.1032  0.2004  0.8220
 4353SOL    HW124521   0.509   4.301   6.520 -2.0977 -1.2848  2.2479
 4353SOL    HW224522   0.565   4.187   6.608 -1.0063  0.9198  3.5984
 4354SOL     OW24523   0.890   3.034  11.617  0.0735 -0.3823 -0.2844
 4354SOL    HW124524   0.957   3.037  11.685  2.4625  0.4278 -2.6498
 4354SOL    HW224525   0.884   2.940  11.603 -1.2793 -0.3753  0.2850
 4355SOL     OW24526   1.858   3.277   5.717 -0.3694  0.7266  0.0600
 4355SOL    HW124527   1.817   3.200   5.755 -0.0644 -0.0372 -1.1914
 4355SOL    HW224528   1.875   3.252   5.627  0.5409 -0.7219  0.6398
 4356SOL     OW24529   1.971   3.695   7.434 -0.7531 -0.0949 -0.0209
 4356SOL    HW124530   2.052   3.668   7.390 -1.1315 -1.1573 -0.0798
 4356SOL    HW224531   1.958   3.782   7.395  0.0837  0.2456  0.4700
 4357SOL     OW24532   1.950   0.706   4.179 -0.1567 -0.8147  0.3969
 4357SOL    HW124533   1.892   0.779   4.203 -1.8506 -1.8706 -0.4978
 4357SOL    HW224534   2.006   0.747   4.114 -1.5283 -0.4071 -0.5214
 4358SOL     OW24535   2.653   2.957   7.877 -0.0530  0.3355 -0.2673
 4358SOL    HW124536   2.742   2.953   7.842  0.6422 -1.2059  1.6431
 4358SOL    HW224537   2.677   3.000   7.959 -1.9201 -1.2997  1.1254
 4359SOL     OW24538   3.592   1.137  14.559  0.5134 -0.1406  0.0368
 4359SOL    HW124539   3.582   1.041  14.561 -0.5392 -0.0292 -0.3692
 4359SOL    HW224540   3.499   1.156  14.548  0.0525 -2.3888 -0.0638
 4360SOL     OW24541   0.781   4.689   3.141 -0.2107  0.2782 -0.2796
 4360SOL    HW124542   0.804   4.668   3.051 -0.6077 -2.2010  0.1855
 4360SOL    HW224543   0.789   0.061   3.135  2.6517  0.0331 -0.3742
 4361SOL     OW24544   2.792   1.245   8.756 -0.0757  0.1825 -0.2626
 4361SOL    HW124545   2.881   1.264   8.726  0.2970  0.7769  1.2215
 4361SOL    HW224546   2.735   1.252   8.679  0.9175  0.2406 -1.0029
 4362SOL     OW24547   2.474   3.903   0.637 -0.1973 -0.3198  0.6206
 4362SOL    HW124548   2.432   3.817   0.637 -0.1088 -0.3825 -2.1294
 4362SOL    HW224549   2.397   3.952   0.665 -1.6363 -0.8068 -2.4948
 4363SOL     OW24550   0.194   2.458  11.238  0.7547  0.2058 -0.3873
 4363SOL    HW124551   0.260   2.431  11.301  1.0049  1.9072  0.0687
 4363SOL    HW224552   0.215   2.402  11.163  2.0009 -1.1151  0.9771
 4364SOL     OW24553   0.318   1.412   6.102 -0.0058  0.0698 -0.4869
 4364SOL    HW124554   0.300   1.497   6.062  2.5282 -0.1324 -2.1072
 4364SOL    HW224555   0.295   1.355   6.028 -2.0023  2.1692 -1.4953
 4365SOL     OW24556   0.486   2.745   5.550 -0.1250  0.0064  0.2562
 4365SOL    HW124557   0.555   2.687   5.583 -0.3274  0.1521  0.9281
 4365SOL    HW224558   0.411   2.708   5.596 -1.2407  1.8340 -0.0779
 4366SOL     OW24559   1.423   3.228  14.808 -0.3480  0.8492 -0.1133
 4366SOL    HW124560   1.384   3.295  14.751  1.4488  1.9823 -0.0119
 4366SOL    HW224561   1.513   3.261  14.813  0.5139 -1.0827 -2.6055
 4367SOL     OW24562   2.484   3.676   1.815 -0.1781 -0.1031 -0.0956
 4367SOL    HW124563   2.512   3.595   1.772  0.8586  0.2115 -0.0204
 4367SOL    HW224564   2.515   3.742   1.753 -1.6992  0.9882  0.3045
 4368SOL     OW24565   3.949   1.897   3.142 -0.3808 -0.0187  0.0817
 4368SOL    HW124566   3.854   1.906   3.149 -0.4298 -0.6956  0.3157
 4368SOL    HW224567   3.981   1.978   3.180 -1.7991  1.2463 -1.4333
 4369SOL     OW24568   1.622   1.682   2.504  0.0797 -0.3920  0.2229
 4369SOL    HW124569   1.696   1.688   2.445 -0.2689 -3.1291 -0.4592
 4369SOL    HW224570   1.651   1.744   2.572  1.6091 -2.2795  1.2871
 4370SOL     OW24571   2.547   2.466   7.858 -0.4147  0.6828  0.5524
 4370SOL    HW124572   2.540   2.522   7.780  2.1319 -0.1497 -0.2686
 4370SOL    HW224573   2.563   2.526   7.931 -2.1708  2.6741 -0.6785
 4371SOL     OW24574   3.968   4.484   3.842 -0.2345  0.9351  0.9969
 4371SOL    HW124575   3.899   4.422   3.866 -0.9800  0.9381 -1.2073
 4371SOL    HW224576   3.926   4.554   3.792 -0.7955 -0.8321 -0.9656
 4372SOL     OW24577   2.508   0.878   7.523 -0.1230  0.2376  0.0408
 4372SOL    HW124578   2.519   0.792   7.483 -1.4800 -0.2123  0.6312
 4372SOL    HW224579   2.414   0.875   7.541 -0.0663  2.5879  0.7648
 4373SOL     OW24580   2.718   2.306   4.186 -0.6836 -0.3396  0.1851
 4373SOL    HW124581   2.711   2.217   4.221  1.1323 -0.6914 -0.3669
 4373SOL    HW224582   2.632   2.311   4.143 -0.6137 -3.2055 -0.2826
 4374SOL     OW24583   3.747   3.075   2.634  0.3966  0.6401  0.1914
 4374SOL    HW124584   3.745   3.001   2.573 -0.7183  1.3867 -0.6898
 4374SOL    HW224585   3.695   3.039   2.706  1.7855 -0.4288  0.6670
 4375SOL     OW24586   3.822   0.361   4.510 -0.1705 -0.2186 -0.6167
 4375SOL    HW124587   3.826   0.267   4.528  2.0698 -0.1359 -0.6897
 4375SOL    HW224588   3.746   0.373   4.454 -0.1184  1.8116 -0.2561
 4376SOL     OW24589   4.719   4.452   6.412 -0.1522 -0.3223  0.3806
 4376SOL    HW124590   0.068   4.405   6.370 -0.3495 -0.5576  0.3006
 4376SOL    HW224591   0.019   4.538   6.379 -1.2865 -0.9133 -1.9804
 4377SOL     OW24592   2.229   0.739   9.429  0.2551  0.0267  0.2922
 4377SOL    HW124593   2.304   0.680   9.442 -0.1856 -0.5134  0.3982
 4377SOL    HW224594   2.269   0.795   9.363 -1.5974 -1.3589 -2.0037
 4378SOL     OW24595   0.683   0.130   6.075 -0.1325 -0.3475 -0.1579
 4378SOL    HW124596   0.634   0.053   6.045 -0.8455  0.6385 -1.5197
 4378SOL    HW224597   0.735   0.089   6.145 -2.7481 -0.7620  1.5501
 4379SOL     OW24598   3.718   3.832  16.450 -0.1862 -0.2275  0.3243
 4379SOL    HW124599   3.813   3.844  16.452  0.0654 -2.4859  1.0101
 4379SOL    HW224600   3.706   3.739  16.433  2.1024 -0.5652  0.5352
 4380SOL     OW24601   4.105   0.094  10.798  0.3291  0.5014 -0.3606
 4380SOL    HW124602   4.031   0.035  10.808 -1.3351  2.6588 -0.0741
 4380SOL    HW224603   4.079   0.129  10.712  2.2142 -0.3756 -1.3040
 4381SOL     OW24604   0.078   3.428  11.043 -0.0979 -0.4432  0.2514
 4381SOL    HW124605   0.088   3.489  11.115 -1.3644 -0.8361  0.7606
 4381SOL    HW224606   0.022   3.475  10.981  0.2030  0.1456  0.4266
 4382SOL     OW24607   2.637   1.676   5.709 -0.2760  0.8116  0.3807
 4382SOL    HW124608   2.586   1.608   5.665  0.6787  0.3043  0.0506
 4382SOL    HW224609   2.720   1.677   5.660 -0.5068  0.0310 -0.0319
 4383SOL     OW24610   1.924   2.576  15.451  0.1548  0.3685  0.6153
 4383SOL    HW124611   1.989   2.615  15.510 -0.5854  0.5648  1.3092
 4383SOL    HW224612   1.913   2.486  15.482  1.6457 -0.3280 -0.9023
 4384SOL     OW24613   3.087   2.352   6.753 -0.4148 -0.1733 -0.2763
 4384SOL    HW124614   3.176   2.366   6.787  0.2623 -0.2911 -2.0073
 4384SOL    HW224615   3.099   2.313   6.666 -2.4726 -1.5098  0.0485
 4385SOL     OW24616   0.444   1.856   7.475  0.0523 -0.1116  0.3350
 4385SOL    HW124617   0.495   1.854   7.556  2.2624  1.2565 -1.0340
 4385SOL    HW224618   0.394   1.936   7.492 -0.6993 -0.7977  1.4127
 4386SOL     OW24619   0.092   4.147   6.040 -0.2450 -0.1391  0.0487
 4386SOL    HW124620   0.124   4.225   6.085  1.1297  0.3469 -1.7796
 4386SOL    HW224621   0.022   4.190   5.991 -0.8476 -0.6446  0.4664
 4387SOL     OW24622   3.543   0.102  13.470  0.1018 -0.1060 -0.2169
 4387SOL    HW124623   3.485   0.105  13.547 -1.3681  1.2101 -1.3797
 4387SOL    HW224624   3.476   0.100  13.402  0.0759 -2.0163 -0.1523
 4388SOL     OW24625   0.591   4.469   7.107 -0.3692  0.0065 -0.8934
 4388SOL    HW124626   0.617   4.427   7.025  0.8277  0.3188 -0.6778
 4388SOL    HW224627   0.497   4.452   7.112 -0.2213 -0.3647  0.5154
 4389SOL     OW24628   4.372   0.356  17.117 -0.1284 -0.5960  0.1928
 4389SOL    HW124629   4.359   0.430  17.177 -0.6656 -0.9020  0.4558
 4389SOL    HW224630   4.428   0.393  17.049 -2.0521  1.4576 -0.2841
 4390SOL     OW24631   2.991   0.077   6.445  0.5845 -0.4429  0.2696
 4390SOL    HW124632   2.921   0.141   6.432 -0.1302 -0.8644  1.9806
 4390SOL    HW224633   2.949   4.717   6.426  0.3011 -0.5255  1.2633
 4391SOL     OW24634   3.474   4.373   7.441  0.5706  0.2009 -0.0547
 4391SOL    HW124635   3.443   4.291   7.401  1.1491  0.6521 -1.4136
 4391SOL    HW224636   3.553   4.356   7.491  0.3020  0.3939  0.4325
 4392SOL     OW24637   3.317   2.667   8.795  0.5323 -0.1363 -0.0480
 4392SOL    HW124638   3.237   2.643   8.749  1.0145 -1.2033 -0.3287
 4392SOL    HW224639   3.282   2.656   8.884 -1.1817  0.5677 -0.6609
 4393SOL     OW24640   4.002   3.708   4.786  0.1713  0.0922 -0.0936
 4393SOL    HW124641   4.025   3.642   4.851  3.5067  0.9441 -0.4434
 4393SOL    HW224642   4.086   3.706   4.741 -0.8726 -1.2909 -1.9636
 4394SOL     OW24643   2.977   1.950  12.759 -0.1284  0.0665  0.3632
 4394SOL    HW124644   3.065   1.983  12.740 -0.9418  1.5329 -0.8024
 4394SOL    HW224645   2.962   1.885  12.691 -0.2234  0.7753 -0.2926
 4395SOL     OW24646   3.546   3.946  13.323 -0.5483  0.2559  0.3163
 4395SOL    HW124647   3.515   4.035  13.309 -0.0113  0.5911  1.3123
 4395SOL    HW224648   3.568   3.951  13.416 -1.5218  1.1578  0.4816
 4396SOL     OW24649   1.648   2.879   5.406 -0.0848 -0.0232 -0.3230
 4396SOL    HW124650   1.672   2.966   5.372  0.9808 -0.7254 -1.3787
 4396SOL    HW224651   1.684   2.821   5.339  0.2496  0.7662 -0.8332
 4397SOL     OW24652   4.343   0.276   9.410 -0.6706  0.2573 -0.1018
 4397SOL    HW124653   4.296   0.222   9.473  0.8556  0.7177  1.4349
 4397SOL    HW224654   4.279   0.332   9.364  1.4542  0.9228 -2.2746
 4398SOL     OW24655   3.520   2.232   4.934 -0.7731  0.1484  0.2245
 4398SOL    HW124656   3.542   2.325   4.926  2.2406 -0.5232  0.7189
 4398SOL    HW224657   3.584   2.209   5.002  0.3162  2.2115 -0.1004
 4399SOL     OW24658   3.667   2.096  15.139 -0.5295 -0.8662 -0.1408
 4399SOL    HW124659   3.763   2.093  15.135 -0.5610 -1.6673 -0.2688
 4399SOL    HW224660   3.655   2.191  15.134  0.1226 -0.9045 -2.2421
 4400SOL     OW24661   3.215   4.688  15.093  1.0768  0.2162 -0.2300
 4400SOL    HW124662   3.245   0.029  15.158  1.2913  0.9755 -1.0930
 4400SOL    HW224663   3.218   4.600  15.131 -0.9216  1.1221  2.0123
 4401SOL     OW24664   1.058   4.624   1.964  0.0476 -0.1377  0.6260
 4401SOL    HW124665   1.121   4.578   1.908  0.6303  2.4618 -0.8583
 4401SOL    HW224666   1.104   4.706   1.982  0.1657 -0.0654 -0.0201
 4402SOL     OW24667   4.198   0.080   5.877 -0.1991 -0.0467 -0.4328
 4402SOL    HW124668   4.163   0.169   5.865  1.8936  0.5886 -1.8401
 4402SOL    HW224669   4.292   0.081   5.896 -0.3604 -0.3630  0.3627
 4403SOL     OW24670   2.405   2.744  13.154 -0.2286  0.5531 -0.2041
 4403SOL    HW124671   2.369   2.697  13.079  1.5270  1.1378 -1.4129
 4403SOL    HW224672   2.451   2.676  13.202  0.8039 -0.7607 -3.0659
 4404SOL     OW24673   2.111   4.577   3.789 -0.2281 -0.0610 -0.7107
 4404SOL    HW124674   2.167   4.634   3.842  3.1527 -1.7248 -2.4664
 4404SOL    HW224675   2.157   4.495   3.807  0.5798  1.0711  2.4218
 4405SOL     OW24676   3.092   0.489   6.623  0.0836 -0.0105 -0.7928
 4405SOL    HW124677   3.010   0.463   6.663  1.2236 -1.4106  0.6337
 4405SOL    HW224678   3.145   0.434   6.680 -1.0258  0.8836  1.0944
 4406SOL     OW24679   4.375   2.338  11.757  0.9041 -0.1078  0.0125
 4406SOL    HW124680   4.441   2.406  11.776 -1.9162  2.5601  0.3003
 4406SOL    HW224681   4.319   2.398  11.707 -0.6213  0.1131  1.9773
 4407SOL     OW24682   1.728   0.609   6.422 -0.1747  0.1641 -0.4598
 4407SOL    HW124683   1.784   0.581   6.494 -0.1143 -2.5725 -1.5820
 4407SOL    HW224684   1.739   0.704   6.430  0.9200  0.1470 -1.6737
 4408SOL     OW24685   2.465   0.699   0.784 -0.3524  0.2665  0.5629
 4408SOL    HW124686   2.482   0.699   0.689 -2.1283 -0.5047  0.2555
 4408SOL    HW224687   2.442   0.790   0.803 -1.8648  0.2600 -1.2292
 4409SOL     OW24688   0.611   2.370  15.100  0.4889  0.1381  0.5865
 4409SOL    HW124689   0.595   2.399  15.010 -0.6730 -0.0682  0.7307
 4409SOL    HW224690   0.617   2.452  15.149 -0.5584  1.4318 -1.4464
 4410SOL     OW24691   3.342   0.791   3.582 -0.0092  0.6433 -0.0210
 4410SOL    HW124692   3.386   0.780   3.498  0.3984  2.4311 -0.0265
 4410SOL    HW224693   3.410   0.755   3.639  0.0095  0.8733  0.0990
 4411SOL     OW24694   2.082   1.156   7.142 -0.5843  0.4649 -0.5669
 4411SOL    HW124695   2.087   1.081   7.201  3.1364  0.5200 -0.8149
 4411SOL    HW224696   2.089   1.231   7.202 -0.7398 -0.3063  0.4199
 4412SOL     OW24697   0.062   4.288   4.614 -0.2258 -1.0172  0.1061
 4412SOL    HW124698   0.078   4.335   4.696  1.2428 -0.8078 -0.2910
 4412SOL    HW224699   0.057   4.351   4.543 -2.7690 -0.9257  0.3679
 4413SOL     OW24700   4.381   4.112   5.665 -0.0923  0.0761  0.0709
 4413SOL    HW124701   4.389   4.062   5.746  1.7475 -0.7371 -0.6244
 4413SOL    HW224702   4.423   4.056   5.600 -0.4997  1.2534 -1.1992
 4414SOL     OW24703   3.253   4.596   3.575 -0.2076 -0.3760 -0.0964
 4414SOL    HW124704   3.233   4.524   3.515 -2.3110 -0.7026  1.0103
 4414SOL    HW224705   3.340   4.624   3.546 -0.8695  0.6613 -1.0786
 4415SOL     OW24706   0.934   2.235   1.423 -0.2546 -0.0552 -0.1925
 4415SOL    HW124707   0.919   2.189   1.505 -1.9029  0.7667 -0.0475
 4415SOL    HW224708   0.866   2.302   1.429  0.6434  0.8589 -0.1630
 4416SOL     OW24709   3.672   0.135  16.972 -0.4626  0.2797 -0.5898
 4416SOL    HW124710   3.658   0.095  17.058 -0.8319 -0.4211 -0.9742
 4416SOL    HW224711   3.748   0.188  16.993 -0.3246  0.0209 -0.4413
 4417SOL     OW24712   3.309   0.788   8.451 -0.0865  0.1440 -0.2127
 4417SOL    HW124713   3.248   0.806   8.522 -1.1762  2.3679 -1.7081
 4417SOL    HW224714   3.375   0.737   8.497  2.4893  1.5836 -2.2724
 4418SOL     OW24715   2.583   2.313   2.570  0.1219 -0.3291 -0.2743
 4418SOL    HW124716   2.606   2.231   2.615 -1.9068 -0.9006 -0.2931
 4418SOL    HW224717   2.489   2.298   2.570 -0.0016  0.4326  1.9250
 4419SOL     OW24718   1.979   2.632   5.526 -0.3917 -0.1689  1.2072
 4419SOL    HW124719   2.006   2.547   5.561 -0.8772 -0.2059  1.5001
 4419SOL    HW224720   1.900   2.648   5.577 -1.4768  0.3170 -0.6421
 4420SOL     OW24721   4.241   0.399   2.346 -0.2502  0.0338 -0.2341
 4420SOL    HW124722   4.243   0.459   2.421 -1.6393 -0.7254  0.4013
 4420SOL    HW224723   4.207   0.457   2.278 -0.0555 -0.1903 -0.5258
 4421SOL     OW24724   3.301   0.182  10.110  0.8628 -0.3022 -0.3741
 4421SOL    HW124725   3.272   0.117  10.046  1.6835 -2.5070  1.4719
 4421SOL    HW224726   3.351   0.119  10.162 -0.3603  0.1900  1.3652
 4422SOL     OW24727   0.840   4.283   5.809 -0.4271 -0.0170 -0.1202
 4422SOL    HW124728   0.846   4.317   5.719 -0.5941 -0.3059 -0.2406
 4422SOL    HW224729   0.874   4.194   5.801  1.3323  0.5653  0.9125
 4423SOL     OW24730   0.667   1.150   9.303 -0.8336 -0.2770 -0.2324
 4423SOL    HW124731   0.663   1.202   9.223 -0.5908  0.4881  0.2576
 4423SOL    HW224732   0.704   1.217   9.361 -0.9962 -1.1677  0.8962
 4424SOL     OW24733   0.700   2.854  13.445  0.0299  0.3592 -0.7391
 4424SOL    HW124734   0.638   2.812  13.506 -0.1301  1.0983 -0.3909
 4424SOL    HW224735   0.776   2.863  13.503 -0.3874 -0.4241 -0.0648
 4425SOL     OW24736   2.875   1.232   2.541  0.2608 -0.4381  0.4366
 4425SOL    HW124737   2.899   1.291   2.469 -2.8187 -1.1262 -1.1797
 4425SOL    HW224738   2.785   1.259   2.561  0.7786  0.4951  1.5115
 4426SOL     OW24739   4.686   2.077   9.154 -0.0803 -0.0105 -0.2075
 4426SOL    HW124740   0.012   1.996   9.144  0.6325  0.4102 -0.0901
 4426SOL    HW224741   0.035   2.139   9.141 -0.2213  0.1920 -0.0149
 4427SOL     OW24742   0.219   0.212   5.986  0.2754 -0.1952 -0.1860
 4427SOL    HW124743   0.231   0.119   6.005 -0.0484  0.0454  1.2252
 4427SOL    HW224744   0.294   0.246   6.034  1.5878 -0.6142 -1.9433
 4428SOL     OW24745   0.929   2.287   2.020  0.4505 -0.1946  0.1687
 4428SOL    HW124746   0.904   2.292   2.112  0.2418  0.0638  0.0982
 4428SOL    HW224747   0.906   2.195   2.006  2.8665 -1.0394  1.6547
 4429SOL     OW24748   2.555   4.578   4.124 -0.1350 -0.1277  0.3071
 4429SOL    HW124749   2.604   4.659   4.136 -1.7020  0.9967 -1.0013
 4429SOL    HW224750   2.604   4.513   4.175 -0.1829  1.5419  2.4569
 4430SOL     OW24751   3.925   2.017   3.998  0.3594  0.0614 -0.4584
 4430SOL    HW124752   3.977   1.941   3.972 -2.6668 -1.9484 -0.5118
 4430SOL    HW224753   3.843   2.005   3.951 -1.0594  1.5538  1.6500
 4431SOL     OW24754   2.644   0.793   9.064 -0.6021 -0.0492 -0.1362
 4431SOL    HW124755   2.610   0.775   9.152  1.2487 -0.1419  0.5505
 4431SOL    HW224756   2.711   0.855   9.093 -1.4598 -0.0836  1.9018
 4432SOL     OW24757   0.693   1.916   6.349  0.0621 -0.6011  0.7878
 4432SOL    HW124758   0.723   2.007   6.344 -1.3826 -0.2163 -0.8740
 4432SOL    HW224759   0.720   1.902   6.440 -1.6213  0.3915  1.4414
 4433SOL     OW24760   2.929   1.456   8.972  0.0676  0.4403 -0.1603
 4433SOL    HW124761   2.968   1.425   8.890 -1.8523  0.7286 -1.1758
 4433SOL    HW224762   2.956   1.548   8.977  1.0845  0.0936  0.5188
 4434SOL     OW24763   1.734   2.164  11.527 -0.2431  0.0225  0.1809
 4434SOL    HW124764   1.794   2.125  11.590  1.8018 -0.8559 -2.2899
 4434SOL    HW224765   1.755   2.258  11.520  1.2532 -0.3316 -0.1206
 4435SOL     OW24766   2.413   3.977   3.499 -0.0935 -0.0444 -0.6762
 4435SOL    HW124767   2.351   4.006   3.432 -0.0257 -0.9002 -1.1120
 4435SOL    HW224768   2.493   3.989   3.447  0.8657 -0.7726  0.6273
 4436SOL     OW24769   2.036   2.696   7.923 -0.5903 -0.2980  0.1116
 4436SOL    HW124770   1.986   2.709   8.003  1.0748  4.1988  0.3753
 4436SOL    HW224771   2.103   2.635   7.954 -1.9370 -0.6653  2.2568
 4437SOL     OW24772   2.862   0.140   8.659 -0.3098  0.2941  0.0754
 4437SOL    HW124773   2.908   0.169   8.580 -0.9588 -1.4047 -0.9407
 4437SOL    HW224774   2.828   0.226   8.683 -0.1267  0.0377  1.2301
 4438SOL     OW24775   0.395   0.654   6.166 -0.0874 -0.5047  0.0661
 4438SOL    HW124776   0.313   0.607   6.176 -0.2326  0.2064  2.0795
 4438SOL    HW224777   0.398   0.708   6.245  0.6273 -0.9944  0.3814
 4439SOL     OW24778   0.611   1.561  11.737  0.4909 -0.5180  0.0198
 4439SOL    HW124779   0.660   1.490  11.696  0.1836 -0.4396 -0.4783
 4439SOL    HW224780   0.535   1.510  11.765 -1.1091  1.0726 -1.4656
 4440SOL     OW24781   0.308   2.089  13.341  0.5219 -0.2153 -0.1856
 4440SOL    HW124782   0.251   2.016  13.365 -0.5711  0.1692 -1.6418
 4440SOL    HW224783   0.320   2.145  13.418 -3.0957 -0.8679  0.8712
 4441SOL     OW24784   3.679   0.879  10.411 -0.0828 -0.0862  0.2753
 4441SOL    HW124785   3.699   0.921  10.494  1.1704 -0.5616  0.2195
 4441SOL    HW224786   3.591   0.845  10.424 -0.3598  0.4035 -0.2937
 4442SOL     OW24787   2.040   1.517  12.766 -0.1793 -0.4314  0.2682
 4442SOL    HW124788   1.949   1.491  12.779 -0.5286  1.1089  0.9533
 4442SOL    HW224789   2.083   1.443  12.723  0.7540  0.0415  0.3911
 4443SOL     OW24790   2.563   0.797   4.761  0.3780  0.2878 -0.5262
 4443SOL    HW124791   2.658   0.786   4.749  0.7173  1.7779  0.7847
 4443SOL    HW224792   2.545   0.732   4.829 -1.7651  0.4269 -0.9598
 4444SOL     OW24793   2.799   2.138  12.853  0.3647 -0.7234 -0.4748
 4444SOL    HW124794   2.872   2.192  12.823  0.2306 -0.9594 -1.2110
 4444SOL    HW224795   2.843   2.054  12.838  2.2200  0.7030 -2.9768
 4445SOL     OW24796   3.865   4.222   2.375 -0.9668 -0.2359 -0.1906
 4445SOL    HW124797   3.791   4.256   2.427 -1.0662 -0.2902 -0.2965
 4445SOL    HW224798   3.853   4.128   2.384  0.3276 -0.2258  1.6346
 4446SOL     OW24799   2.695   2.029   5.567 -0.6343 -0.1885 -0.1993
 4446SOL    HW124800   2.779   2.008   5.607  0.4714  4.1331 -0.3267
 4446SOL    HW224801   2.658   2.086   5.634 -1.1182 -0.0260 -0.6055
 4447SOL     OW24802   3.155   1.532   5.666 -0.0334  0.5700 -0.0868
 4447SOL    HW124803   3.209   1.599   5.708  0.7037 -0.6023  0.8440
 4447SOL    HW224804   3.170   1.549   5.573 -1.3356 -0.8627 -0.5709
 4448SOL     OW24805   3.361   0.079   0.978 -0.2699 -0.2743  0.4371
 4448SOL    HW124806   3.372   0.143   0.907  1.9534  2.7439  3.5275
 4448SOL    HW224807   3.338   0.143   1.045  2.8846  0.8623  0.4369
 4449SOL     OW24808   4.722   0.630   5.889  0.9383 -0.2793 -0.3055
 4449SOL    HW124809   4.712   0.550   5.940 -2.5052  0.1109 -0.3779
 4449SOL    HW224810   0.075   0.606   5.837  0.0116 -1.4399 -1.1267
 4450SOL     OW24811   1.130   3.908   6.382  0.0689  0.2527 -0.1862
 4450SOL    HW124812   1.055   3.911   6.323  1.2945 -0.0892 -1.7537
 4450SOL    HW224813   1.084   3.902   6.465  1.1977 -3.1179  0.1923
 4451SOL     OW24814   3.306   1.063   7.336  0.0580  0.1986  0.5081
 4451SOL    HW124815   3.290   0.982   7.383  3.0525 -1.5836 -1.5790
 4451SOL    HW224816   3.269   1.119   7.404  0.5564  0.5967  0.4480
 4452SOL     OW24817   3.121   4.206   1.628  0.0636 -0.0496 -0.3849
 4452SOL    HW124818   3.207   4.234   1.660 -2.0355  2.5261  3.0226
 4452SOL    HW224819   3.077   4.281   1.669  2.2462  1.0627 -0.1016
 4453SOL     OW24820   2.420   2.061   6.079 -0.0215  0.4593 -0.2387
 4453SOL    HW124821   2.342   2.046   6.025  0.9078  0.7621 -1.6874
 4453SOL    HW224822   2.473   1.981   6.072  0.6282  0.9238 -0.6504
 4454SOL     OW24823   4.076   0.576   8.858  0.3158  0.0339  0.5150
 4454SOL    HW124824   4.167   0.604   8.866  0.3755  0.0130 -0.0459
 4454SOL    HW224825   4.081   0.500   8.799 -0.6878  0.3956 -0.0357
 4455SOL     OW24826   0.381   0.436   4.521  0.0946  0.3961  0.5677
 4455SOL    HW124827   0.460   0.392   4.489  0.3873  1.5384 -0.2828
 4455SOL    HW224828   0.386   0.514   4.466  4.2946 -0.5808 -0.5131
 4456SOL     OW24829   2.699   3.413   7.223 -0.0471  0.8090  0.2675
 4456SOL    HW124830   2.758   3.474   7.268  0.3153  0.2623  0.5280
 4456SOL    HW224831   2.751   3.408   7.143 -2.9094  0.7173 -1.6184
 4457SOL     OW24832   0.336   2.842   4.056  0.1790 -0.8991  0.4407
 4457SOL    HW124833   0.299   2.844   3.968  1.6670 -0.4977 -0.1692
 4457SOL    HW224834   0.429   2.839   4.038  0.0615  0.9204 -0.4972
 4458SOL     OW24835   2.886   2.240   2.036  0.2097 -0.2031  0.1007
 4458SOL    HW124836   2.962   2.206   1.988  1.0509  1.9199 -0.0815
 4458SOL    HW224837   2.911   2.230   2.127  0.0900  1.0147  0.2699
 4459SOL     OW24838   3.541   4.106  10.265 -0.1820 -0.1365  0.2271
 4459SOL    HW124839   3.610   4.167  10.238  0.6575 -0.5170  1.5569
 4459SOL    HW224840   3.578   4.020  10.246  0.4431  0.1367  0.2058
 4460SOL     OW24841   1.262   1.594   7.798 -0.5947  0.7969 -0.2017
 4460SOL    HW124842   1.202   1.647   7.850  0.0786  1.9158 -0.5737
 4460SOL    HW224843   1.251   1.635   7.712 -1.1886  0.8475 -0.0997
 4461SOL     OW24844   3.651   1.809   4.210  0.2665  0.4978  0.1876
 4461SOL    HW124845   3.618   1.893   4.178  0.0417  0.0122 -0.8526
 4461SOL    HW224846   3.617   1.806   4.300 -1.7000 -0.5545 -0.5793
 4462SOL     OW24847   1.590   0.798  12.331  0.8929  0.1604  0.4217
 4462SOL    HW124848   1.582   0.884  12.290  3.0423  0.2528  0.2056
 4462SOL    HW224849   1.508   0.756  12.303  0.1579  3.2947 -2.1849
 4463SOL     OW24850   4.506   4.138   9.141 -0.4669  0.2633 -0.5910
 4463SOL    HW124851   4.508   4.044   9.121 -0.6178 -0.2625  1.8449
 4463SOL    HW224852   4.434   4.135   9.205  1.1592 -0.0220  1.2124
 4464SOL     OW24853   4.514   2.433   7.551 -0.0702  0.9407 -0.5211
 4464SOL    HW124854   4.450   2.394   7.610  2.2983 -0.1731  1.2888
 4464SOL    HW224855   4.590   2.433   7.608 -0.7478 -3.6907  0.3489
 4465SOL     OW24856   3.427   3.725   2.881  0.4341 -0.4055 -0.5599
 4465SOL    HW124857   3.341   3.755   2.849  0.6068  0.2206 -0.4319
 4465SOL    HW224858   3.464   3.721   2.793 -0.0516  1.8093 -0.8676
 4466SOL     OW24859   2.358   3.309   1.090 -0.2448 -0.7372  0.0551
 4466SOL    HW124860   2.403   3.238   1.045 -1.0066 -1.9659  1.2134
 4466SOL    HW224861   2.282   3.264   1.126 -1.1543  0.5958 -0.2053
 4467SOL     OW24862   3.954   4.637  16.000 -0.3363  0.2402  0.8873
 4467SOL    HW124863   4.012   4.676  16.064  0.2064 -1.6791  1.5711
 4467SOL    HW224864   3.918   4.714  15.957 -0.5237  0.8067  2.0588
 4468SOL     OW24865   1.130   4.216   5.652 -0.0306 -0.1400  0.7534
 4468SOL    HW124866   1.077   4.296   5.647 -0.5232 -0.4058  1.9126
 4468SOL    HW224867   1.204   4.243   5.598  0.0270 -0.5088  0.6496
 4469SOL     OW24868   3.564   1.947   5.193  0.0719  0.0611  0.6202
 4469SOL    HW124869   3.632   1.942   5.261 -0.7515 -0.5704  1.4066
 4469SOL    HW224870   3.616   2.012   5.146  1.1161  0.2005  1.9694
 4470SOL     OW24871   1.934   0.922   5.973  0.1503 -0.0734  0.1227
 4470SOL    HW124872   1.917   0.866   6.049  2.1767  0.8448  1.2475
 4470SOL    HW224873   1.947   1.009   6.010 -2.3886  1.1629 -1.8622
 4471SOL     OW24874   0.570   0.513   2.833 -0.5296 -0.0241  0.3069
 4471SOL    HW124875   0.507   0.443   2.817  0.9747 -1.3137  0.0816
 4471SOL    HW224876   0.616   0.530   2.751  1.3173 -0.3527  1.2779
 4472SOL     OW24877   2.444   1.176   8.819 -0.1040  0.4924 -0.1040
 4472SOL    HW124878   2.482   1.227   8.748  0.3234 -1.0773 -1.0215
 4472SOL    HW224879   2.512   1.108   8.812 -1.9669 -1.2796 -0.8230
 4473SOL     OW24880   1.465   1.954   6.735  0.6817  0.5729 -0.1564
 4473SOL    HW124881   1.400   2.019   6.763 -0.4100 -3.0068  5.6144
 4473SOL    HW224882   1.501   1.930   6.821 -1.2618 -0.2480  0.4232
 4474SOL     OW24883   3.274   1.732   5.827 -0.1087 -0.0996 -0.4735
 4474SOL    HW124884   3.303   1.695   5.910  0.6173  0.4837 -0.4624
 4474SOL    HW224885   3.222   1.811   5.844  0.1386  0.4442 -2.1585
 4475SOL     OW24886   2.499   3.817  11.530 -0.1320  0.2072  0.3042
 4475SOL    HW124887   2.442   3.760  11.478  2.3798 -0.7019 -1.4681
 4475SOL    HW224888   2.435   3.832  11.600 -0.5247 -3.0189  0.6487
 4476SOL     OW24889   1.405   1.799   1.934 -0.3160 -0.0718  0.1858
 4476SOL    HW124890   1.321   1.800   1.980 -0.5768  1.7942 -0.3385
 4476SOL    HW224891   1.377   1.759   1.851 -1.4093 -1.6720  1.3282
 4477SOL     OW24892   3.909   4.031   2.078 -0.1418  0.1262 -0.0170
 4477SOL    HW124893   3.950   3.964   2.023 -3.4323 -2.2840  0.4627
 4477SOL    HW224894   3.948   4.012   2.163  1.2519  0.3865 -0.5856
 4478SOL     OW24895   3.146   3.861   5.608  0.4399 -0.3307 -0.1419
 4478SOL    HW124896   3.134   3.901   5.694 -0.8369  1.2650 -1.0581
 4478SOL    HW224897   3.228   3.901   5.580 -0.6152  3.4763  2.3834
 4479SOL     OW24898   1.271   1.729   6.250  0.5389 -0.1853 -0.1569
 4479SOL    HW124899   1.196   1.770   6.206  1.6512  1.3873 -0.6052
 4479SOL    HW224900   1.269   1.777   6.332 -1.6067 -1.6806  0.6436
 4480SOL     OW24901   2.636   4.337  10.287 -0.2118  0.0868 -0.3869
 4480SOL    HW124902   2.594   4.401  10.229 -1.5618  0.5627  1.1073
 4480SOL    HW224903   2.565   4.280  10.317  0.8252 -0.6772  0.5956
 4481SOL     OW24904   3.255   2.709  12.492  0.0471 -0.1259  0.1458
 4481SOL    HW124905   3.236   2.632  12.439 -0.6963 -0.5020  0.9427
 4481SOL    HW224906   3.213   2.777  12.439  2.8388  3.0169  1.9014
 4482SOL     OW24907   1.998   3.304  13.386  0.1197  0.1204 -0.1369
 4482SOL    HW124908   2.009   3.335  13.296  1.7357 -2.0735 -0.6662
 4482SOL    HW224909   2.068   3.354  13.427 -1.0306  0.6118  1.2495
 4483SOL     OW24910   4.394   3.940   2.165 -0.0930 -0.2094  0.2956
 4483SOL    HW124911   4.471   3.995   2.147 -0.2553  0.4200  1.5289
 4483SOL    HW224912   4.395   3.868   2.102  2.4017  1.3993 -1.5093
 4484SOL     OW24913   4.322   3.335   4.227 -0.0425 -0.4208 -0.3790
 4484SOL    HW124914   4.281   3.251   4.206  0.7926 -1.3635  1.7604
 4484SOL    HW224915   4.360   3.323   4.314 -0.1126 -1.6793 -0.5320
 4485SOL     OW24916   0.457   1.699  11.989 -0.0253  0.1463 -0.3292
 4485SOL    HW124917   0.461   1.671  11.898 -0.3772  0.8807 -0.5699
 4485SOL    HW224918   0.525   1.640  12.022 -0.4672 -1.0617 -1.5941
 4486SOL     OW24919   2.103   3.680  12.406  0.4863  1.3664 -0.3029
 4486SOL    HW124920   2.100   3.723  12.491  0.9798 -0.9816  0.8847
 4486SOL    HW224921   2.181   3.626  12.405  0.9368  2.0039  0.4139
 4487SOL     OW24922   3.364   0.502   7.469 -0.4587  0.1659  0.7185
 4487SOL    HW124923   3.404   0.435   7.523 -0.6069  1.5358  2.5563
 4487SOL    HW224924   3.279   0.463   7.448  1.4557 -2.9955 -1.1290
 4488SOL     OW24925   3.270   0.693   8.193 -0.3253  0.1941 -0.2411
 4488SOL    HW124926   3.185   0.720   8.158  0.0937  0.3751 -1.1190
 4488SOL    HW224927   3.277   0.748   8.271  1.0350  1.8407 -1.5291
 4489SOL     OW24928   4.704   0.951   9.831  0.0624  0.2544  0.1650
 4489SOL    HW124929   4.710   0.905   9.748 -1.2537 -1.1167  0.8253
 4489SOL    HW224930   0.072   0.970   9.851  0.3157  0.9973 -1.7682
 4490SOL     OW24931   1.146   2.742  14.669  0.2564  0.2066  0.8894
 4490SOL    HW124932   1.201   2.818  14.649 -1.3458  0.5720 -2.0202
 4490SOL    HW224933   1.203   2.665  14.665 -0.4602 -0.0951 -3.0037
 4491SOL     OW24934   0.868   1.384   3.263 -0.3268  0.1886 -0.1014
 4491SOL    HW124935   0.962   1.371   3.256 -0.1921  0.3004  1.4962
 4491SOL    HW224936   0.834   1.295   3.247 -0.6953  0.2003  0.5945
 4492SOL     OW24937   4.247   1.350   0.374  0.1776  0.1572  0.2686
 4492SOL    HW124938   4.274   1.311   0.457 -0.2314 -2.6919 -0.9072
 4492SOL    HW224939   4.311   1.420   0.386  0.2171 -0.3504  3.0007
 4493SOL     OW24940   4.046   2.777   4.841  0.1194  0.1559 -0.0615
 4493SOL    HW124941   4.095   2.713   4.789 -0.3677  0.0293 -0.3717
 4493SOL    HW224942   3.992   2.716   4.892 -0.3173  1.4921  1.0614
 4494SOL     OW24943   3.823   4.223  17.510 -0.5020  0.0616  0.1285
 4494SOL    HW124944   3.909   4.262  17.493  0.6114 -2.6491 -0.4886
 4494SOL    HW224945   3.756   4.276  17.468  0.7880  1.9106  0.3694
 4495SOL     OW24946   4.475   4.278   1.900  0.0428 -0.4030  0.0804
 4495SOL    HW124947   4.536   4.216   1.940  4.0279  2.3281 -1.7100
 4495SOL    HW224948   4.525   4.318   1.829  0.4175 -0.9907  0.0086
 4496SOL     OW24949   1.176   3.480   1.807 -0.3893 -0.1597  0.1997
 4496SOL    HW124950   1.105   3.521   1.856 -1.5442 -1.7014 -0.1942
 4496SOL    HW224951   1.249   3.485   1.870 -1.2007 -0.2852  1.1510
 4497SOL     OW24952   1.739   4.303   8.317  0.3691 -0.2987 -0.0436
 4497SOL    HW124953   1.784   4.293   8.401 -0.3081 -0.7888  0.2659
 4497SOL    HW224954   1.799   4.339   8.252  1.6671 -0.6662  0.9532
 4498SOL     OW24955   2.308   3.526   3.397  0.6870  0.0325  0.0178
 4498SOL    HW124956   2.278   3.477   3.474  1.2471 -2.1393 -1.1598
 4498SOL    HW224957   2.346   3.460   3.340  1.7695 -0.9203  1.8463
 4499SOL     OW24958   2.816   0.034   2.987  0.3454  0.4322  0.3565
 4499SOL    HW124959   2.871   0.014   2.912  0.2364 -0.8528  0.6071
 4499SOL    HW224960   2.796   0.124   2.963 -0.5881  0.0057 -0.4359
 4500SOL     OW24961   4.399   4.692  13.067  0.3361  0.2403  0.7628
 4500SOL    HW124962   4.364   4.617  13.116  1.2018 -0.3802  0.4403
 4500SOL    HW224963   4.423   4.651  12.984  0.2094 -1.3094  1.4830
 4501SOL     OW24964   1.382   2.624  17.024 -0.2728 -0.6501 -0.0558
 4501SOL    HW124965   1.422   2.646  17.108 -0.4816 -0.4447 -0.0112
 4501SOL    HW224966   1.292   2.649  17.047 -0.0030 -0.8859  1.2222
 4502SOL     OW24967   2.429   1.784   0.648  0.0955 -0.3513  0.0762
 4502SOL    HW124968   2.395   1.870   0.625  1.0893  0.0246  0.0165
 4502SOL    HW224969   2.444   1.799   0.741  0.2373  0.4816 -0.0847
 4503SOL     OW24970   2.314   4.321   1.661 -0.1414 -0.3371  0.2894
 4503SOL    HW124971   2.305   4.391   1.596 -1.2766 -1.3288 -0.6171
 4503SOL    HW224972   2.398   4.329   1.705 -1.3601  0.4015  2.4474
 4504SOL     OW24973   3.309   1.720  11.830 -0.1722 -0.0271 -0.1225
 4504SOL    HW124974   3.280   1.762  11.910 -1.0693  0.8991 -0.9396
 4504SOL    HW224975   3.401   1.704  11.851 -0.9431 -2.4577  1.4216
 4505SOL     OW24976   2.030   2.668   6.073  0.3021 -0.2414  0.3617
 4505SOL    HW124977   2.067   2.713   5.997  0.1629 -1.2590 -0.2979
 4505SOL    HW224978   1.937   2.659   6.055 -0.2881  0.7124  2.9145
 4506SOL     OW24979   3.331   2.898   9.832  0.1278  1.0007 -0.8739
 4506SOL    HW124980   3.411   2.846   9.827 -1.8071 -2.0231 -0.2203
 4506SOL    HW224981   3.362   2.983   9.801  0.6218  0.9261 -0.5696
 4507SOL     OW24982   0.678   1.678  12.556  0.0566 -0.5802  0.0646
 4507SOL    HW124983   0.640   1.671  12.643 -0.5044 -0.3333 -0.1572
 4507SOL    HW224984   0.629   1.609  12.511 -2.0765  0.1245  1.3498
 4508SOL     OW24985   0.249   0.730   3.514 -0.6417 -0.1480 -0.4140
 4508SOL    HW124986   0.154   0.737   3.507 -0.4988  1.6300 -0.6091
 4508SOL    HW224987   0.271   0.666   3.447  0.5043  0.9472 -1.0920
 4509SOL     OW24988   2.198   2.198  10.910  0.4664  0.3871 -0.3273
 4509SOL    HW124989   2.281   2.226  10.950  0.7152  2.9331 -2.6047
 4509SOL    HW224990   2.152   2.159  10.984  1.0346 -0.4708 -0.4273
 4510SOL     OW24991   2.895   0.485   9.169  0.4156 -0.5957  0.4532
 4510SOL    HW124992   2.930   0.414   9.223  1.2789  0.4617  1.2816
 4510SOL    HW224993   2.809   0.491   9.210  0.7742 -0.3915  1.1938
 4511SOL     OW24994   4.227   3.791  11.717  0.1295  0.6098  0.1264
 4511SOL    HW124995   4.199   3.702  11.739 -1.2905  1.4780  1.8596
 4511SOL    HW224996   4.289   3.796  11.790 -0.4953 -1.8432  0.8649
 4512SOL     OW24997   0.515   2.961   4.343  0.8431  0.4294 -0.2755
 4512SOL    HW124998   0.533   2.967   4.250  0.3632 -0.6047 -0.4346
 4512SOL    HW224999   0.447   3.028   4.348  0.6716  0.2593 -0.3487
 4513SOL     OW25000   1.151   1.884  12.934  0.0606 -0.9474 -0.0925
 4513SOL    HW125001   1.223   1.876  12.871 -1.1742 -0.2532 -1.5801
 4513SOL    HW225002   1.196   1.916  13.012 -1.0616  1.9825 -0.6530
 4514SOL     OW25003   2.219   1.930   5.629  0.2347 -0.3434 -0.2247
 4514SOL    HW125004   2.200   1.960   5.717 -1.3963  0.0808 -0.7270
 4514SOL    HW225005   2.253   2.012   5.594 -0.1355 -0.6716 -1.3807
 4515SOL     OW25006   0.532   0.526  15.937  0.3294  0.4054  0.3388
 4515SOL    HW125007   0.501   0.593  15.877  0.7763 -0.3799 -0.7864
 4515SOL    HW225008   0.506   0.448  15.888  2.0380 -0.0559  0.1429
 4516SOL     OW25009   1.720   1.301   5.570  0.1543  0.2049  0.2953
 4516SOL    HW125010   1.633   1.297   5.610 -0.8301  0.9520 -1.8025
 4516SOL    HW225011   1.755   1.362   5.635  0.5565  1.0117 -0.6962
 4517SOL     OW25012   3.037   3.336   0.068 -0.1464  0.0071  0.1177
 4517SOL    HW125013   3.043   3.249   0.107  3.4229  0.2592  0.1294
 4517SOL    HW225014   2.980   3.319  17.690 -1.5026  2.1012  0.6613
 4518SOL     OW25015   4.535   0.267   7.464 -0.4268  0.0328  0.0518
 4518SOL    HW125016   4.505   0.351   7.499 -0.0555  0.9530 -1.8312
 4518SOL    HW225017   4.540   0.220   7.547 -1.8033  0.5292  0.4058
 4519SOL     OW25018   4.109   3.606   2.255  0.0532  0.3543  0.0921
 4519SOL    HW125019   4.024   3.621   2.215 -0.2890 -0.6765  0.4316
 4519SOL    HW225020   4.165   3.576   2.183  1.0454  1.8493  0.2224
 4520SOL     OW25021   1.486   0.395   2.686 -0.0910  0.2287  0.3683
 4520SOL    HW125022   1.535   0.359   2.760 -1.9328 -0.6941  1.1459
 4520SOL    HW225023   1.399   0.395   2.726  0.4447 -2.9819  1.5138
 4521SOL     OW25024   4.213   4.026   4.115 -0.0584 -0.3512 -0.1629
 4521SOL    HW125025   4.144   4.090   4.134  1.6653  1.5887 -0.5079
 4521SOL    HW225026   4.166   3.956   4.068  2.2117 -0.8994 -1.5860
 4522SOL     OW25027   2.465   1.762   3.367 -0.5774  0.3506 -0.1398
 4522SOL    HW125028   2.399   1.795   3.307  0.2720  0.1708 -1.1765
 4522SOL    HW225029   2.483   1.844   3.413  0.5883 -1.7183  3.1593
 4523SOL     OW25030   3.225   1.520   2.035  0.4753 -0.0960  0.4400
 4523SOL    HW125031   3.234   1.481   1.948  2.1227  1.3615 -0.0414
 4523SOL    HW225032   3.208   1.437   2.080  0.3397 -0.4095 -0.1764
 4524SOL     OW25033   3.319   1.605   6.058  0.0915 -0.2153 -0.2474
 4524SOL    HW125034   3.240   1.552   6.047 -1.6802  2.2991  0.4111
 4524SOL    HW225035   3.388   1.540   6.042  1.5881  1.1312  0.7940
 4525SOL     OW25036   3.156   2.500   7.400  0.8267 -0.1833  0.3899
 4525SOL    HW125037   3.167   2.568   7.333 -0.5184  0.0367  0.3984
 4525SOL    HW225038   3.071   2.533   7.426 -0.7043 -0.9907 -3.5582
 4526SOL     OW25039   1.212   3.508   5.864 -0.3480 -0.2262  0.3731
 4526SOL    HW125040   1.202   3.523   5.958 -0.5833  1.9079  0.0035
 4526SOL    HW225041   1.284   3.444   5.857 -0.3624  0.0674 -2.2873
 4527SOL     OW25042   0.396   1.534  15.376 -0.0899  0.2206 -0.6200
 4527SOL    HW125043   0.308   1.572  15.380 -0.3924 -0.4144 -1.3884
 4527SOL    HW225044   0.404   1.464  15.440  1.0005  0.0478 -0.9482
 4528SOL     OW25045   4.386   2.892   7.475  0.4319  0.1132  0.3202
 4528SOL    HW125046   4.466   2.891   7.527 -0.5137  3.2739  1.8962
 4528SOL    HW225047   4.421   2.895   7.386  1.2719 -1.0847  0.6221
 4529SOL     OW25048   1.230   0.425   6.972  0.2764  0.2198  0.4082
 4529SOL    HW125049   1.262   0.491   6.910  2.0076 -1.0811 -0.0829
 4529SOL    HW225050   1.139   0.455   6.977 -0.3327 -1.5270 -0.3655
 4530SOL     OW25051   0.917   3.663   4.040 -0.2867  0.3881 -0.4931
 4530SOL    HW125052   0.827   3.680   4.069 -0.1661  1.8284 -0.9497
 4530SOL    HW225053   0.976   3.729   4.077  2.6896 -3.1941  1.0933
 4531SOL     OW25054   3.482   3.474  12.992  0.0174  0.2714  0.0080
 4531SOL    HW125055   3.429   3.531  12.937 -2.2332 -1.8158  0.0237
 4531SOL    HW225056   3.538   3.539  13.035 -1.5956  3.3283 -2.5238
 4532SOL     OW25057   4.361   0.301   6.691  0.2031 -0.5884 -0.8002
 4532SOL    HW125058   4.438   0.344   6.728  0.8306 -1.6619 -0.8598
 4532SOL    HW225059   4.310   0.376   6.660  0.0614 -0.9002 -1.3146
 4533SOL     OW25060   0.862   2.916   4.068  0.4304  0.7965 -0.8417
 4533SOL    HW125061   0.904   2.982   4.124 -2.0060 -0.3774  2.3824
 4533SOL    HW225062   0.906   2.836   4.095 -0.4042  0.3585 -0.7911
 4534SOL     OW25063   2.883   0.665   0.403  0.3428  0.3745  0.3319
 4534SOL    HW125064   2.903   0.573   0.383  0.6813  0.5696 -0.2220
 4534SOL    HW225065   2.887   0.709   0.318  0.9089  0.0940  0.2097
 4535SOL     OW25066   1.704   1.192   6.433  0.0701 -0.0691 -0.0217
 4535SOL    HW125067   1.691   1.203   6.528  1.2378  4.8870 -0.4508
 4535SOL    HW225068   1.796   1.219   6.430 -0.5681  2.1256 -0.0601
 4536SOL     OW25069   2.286   0.271   2.786  0.7019 -1.0812 -0.2160
 4536SOL    HW125070   2.317   0.318   2.864  2.0914  0.5728 -1.7939
 4536SOL    HW225071   2.257   0.189   2.826  0.3240 -0.3555  1.0045
 4537SOL     OW25072   0.416   4.164   4.251  0.3144  0.5745  0.5221
 4537SOL    HW125073   0.362   4.113   4.190  0.4404  0.6121  0.3769
 4537SOL    HW225074   0.374   4.241   4.290  2.7548  1.9300  0.4594
 4538SOL     OW25075   0.503   1.426   6.294  0.7726  0.2426  0.3625
 4538SOL    HW125076   0.419   1.417   6.339  0.8547 -1.0384  0.2672
 4538SOL    HW225077   0.480   1.390   6.208 -0.4102  2.5721 -0.3016
 4539SOL     OW25078   0.880   0.350  15.297  0.4585  0.0683 -0.0485
 4539SOL    HW125079   0.822   0.367  15.371 -0.7985 -0.0422 -0.9885
 4539SOL    HW225080   0.947   0.304  15.346  1.0612 -0.6254 -1.5364
 4540SOL     OW25081   1.854   3.548   5.506  0.4523  0.0081 -0.0489
 4540SOL    HW125082   1.795   3.481   5.540  4.0345 -3.7714 -1.2324
 4540SOL    HW225083   1.879   3.507   5.423  2.1726  0.1799  0.3845
 4541SOL     OW25084   0.809   3.705   8.126 -0.6734  0.3266 -0.0467
 4541SOL    HW125085   0.764   3.705   8.041 -0.8365  2.5651  0.0497
 4541SOL    HW225086   0.846   3.792   8.112  0.1146 -0.4541 -2.8143
 4542SOL     OW25087   2.208   3.811   9.072  0.2447 -0.7376 -0.4396
 4542SOL    HW125088   2.169   3.732   9.111 -0.8608 -0.2795 -0.6037
 4542SOL    HW225089   2.161   3.885   9.109 -1.8532 -1.3728 -1.7734
 4543SOL     OW25090   2.553   2.677   7.708 -0.0730  0.2827 -0.0908
 4543SOL    HW125091   2.554   2.702   7.616 -1.0802  1.7382  0.2881
 4543SOL    HW225092   2.485   2.735   7.743 -1.2741 -0.5621 -1.0487
 4544SOL     OW25093   1.886   3.487  13.938  0.4331 -0.1107  0.4431
 4544SOL    HW125094   1.797   3.458  13.960 -0.4912  1.6619 -0.9787
 4544SOL    HW225095   1.873   3.581  13.925 -1.4999 -0.4929 -0.5237
 4545SOL     OW25096   1.927   0.255   4.938 -0.3612 -0.0776 -0.7484
 4545SOL    HW125097   1.970   0.338   4.955  0.6528 -0.6757 -0.3839
 4545SOL    HW225098   1.893   0.278   4.852 -0.0638  1.1591 -0.5336
 4546SOL     OW25099   2.986   4.391   4.230  0.1877  0.2589  0.2351
 4546SOL    HW125100   2.976   4.297   4.216 -0.3129  0.6028 -1.8204
 4546SOL    HW225101   2.954   4.435   4.150  1.6863 -0.0330 -0.5246
 4547SOL     OW25102   3.502   3.581   4.056 -0.4379 -0.1059 -0.1827
 4547SOL    HW125103   3.578   3.573   3.999  0.4284 -0.9694  1.0792
 4547SOL    HW225104   3.462   3.660   4.019  0.3624  0.7050  0.6839
 4548SOL     OW25105   3.890   2.375   9.210  0.0641 -0.3247  0.3372
 4548SOL    HW125106   3.866   2.328   9.290  0.2849  1.0638  1.2146
 4548SOL    HW225107   3.953   2.439   9.242  0.9220 -0.5236 -0.9673
 4549SOL     OW25108   4.392   0.225   7.850  0.4087  0.0331  0.0549
 4549SOL    HW125109   4.342   0.149   7.880 -0.6824  0.6383 -0.2317
 4549SOL    HW225110   4.325   0.293   7.852 -1.4537 -1.8047 -0.1942
 4550SOL     OW25111   2.754   2.215   5.378  0.1943 -0.1905  0.1552
 4550SOL    HW125112   2.802   2.272   5.439 -1.3253  0.0962  1.0964
 4550SOL    HW225113   2.743   2.135   5.429 -1.1292 -1.1474 -1.6115
 4551SOL     OW25114   3.227   2.704   7.725 -0.0325  0.5395  0.2441
 4551SOL    HW125115   3.306   2.650   7.719 -0.2994  0.3196 -1.3293
 4551SOL    HW225116   3.205   2.689   7.817  2.9325 -1.0809  0.6968
 4552SOL     OW25117   0.917   2.910  15.885  0.3095  0.0220  0.2178
 4552SOL    HW125118   0.935   2.992  15.839 -3.7067  0.9715  0.3475
 4552SOL    HW225119   0.937   2.935  15.976  0.8117  1.2263 -0.2200
 4553SOL     OW25120   3.633   0.614   6.803 -0.0613 -0.3929 -0.0105
 4553SOL    HW125121   3.575   0.668   6.855  0.8364  1.7712 -1.2717
 4553SOL    HW225122   3.616   0.653   6.718 -3.0558  0.4536  0.9889
 4554SOL     OW25123   2.748   0.817   8.502 -0.9116  0.0366  0.0658
 4554SOL    HW125124   2.704   0.900   8.519 -0.6933  0.5112 -1.7404
 4554SOL    HW225125   2.753   0.823   8.407  0.3425  0.4665  0.1536
 4555SOL     OW25126   4.697   0.814   9.604 -0.1381  0.5611 -0.1601
 4555SOL    HW125127   0.027   0.737   9.587 -1.2226 -0.7793  2.5137
 4555SOL    HW225128   4.718   0.865   9.525 -1.3312 -0.1111 -0.9176
 4556SOL     OW25129   2.322   1.450  16.574  0.3172  0.2897 -0.2096
 4556SOL    HW125130   2.228   1.430  16.571  0.5423 -0.6808 -0.6262
 4556SOL    HW225131   2.320   1.490  16.487 -0.3757  1.1382  0.1921
 4557SOL     OW25132   4.437   4.340   0.459  0.1368 -0.2610  0.6272
 4557SOL    HW125133   4.395   4.323   0.374 -2.9509  1.1893  1.8420
 4557SOL    HW225134   4.518   4.379   0.425  0.4127  0.4986  2.1545
 4558SOL     OW25135   2.782   1.867  12.345 -0.4038  0.5826 -0.3429
 4558SOL    HW125136   2.837   1.856  12.423 -3.2215 -0.1170  1.5451
 4558SOL    HW225137   2.717   1.798  12.360 -1.9122  1.8762 -0.9947
 4559SOL     OW25138   4.341   1.707  13.441 -0.1994  0.1357 -0.2829
 4559SOL    HW125139   4.420   1.653  13.439 -1.2568 -1.3529 -1.5634
 4559SOL    HW225140   4.267   1.648  13.431 -0.5451  0.6589 -0.8024
 4560SOL     OW25141   1.220   3.005  16.594  0.4569  0.0236 -0.3371
 4560SOL    HW125142   1.301   3.056  16.596  0.1667  0.4303  1.3652
 4560SOL    HW225143   1.239   2.926  16.643 -0.9528 -1.9020 -2.9066
 4561SOL     OW25144   1.070   1.261   7.966  0.3019 -0.2925 -0.0771
 4561SOL    HW125145   1.051   1.197   8.035  0.1398  1.3720  1.4375
 4561SOL    HW225146   1.036   1.339   8.009  1.8660  0.8473 -0.9121
 4562SOL     OW25147   3.399   4.145   2.934 -0.1959 -0.1148  0.2436
 4562SOL    HW125148   3.445   4.108   3.010  2.3338  1.4143 -0.5436
 4562SOL    HW225149   3.468   4.142   2.868 -0.5364 -0.6367 -0.0857
 4563SOL     OW25150   4.143   0.323  14.408 -0.2453  0.3727 -0.0353
 4563SOL    HW125151   4.061   0.295  14.367  0.5890  0.4811 -1.7840
 4563SOL    HW225152   4.180   0.365  14.330  2.5743  0.0746  1.1536
 4564SOL     OW25153   0.214   2.063  11.929 -0.4148 -0.6485  1.8381
 4564SOL    HW125154   0.308   2.059  11.946  0.0358 -2.3702 -0.9619
 4564SOL    HW225155   0.195   1.970  11.925  2.6119 -1.1797 -0.2861
 4565SOL     OW25156   0.003   1.718   6.351 -0.2026  0.0144 -0.3016
 4565SOL    HW125157   0.072   1.780   6.326  0.6356 -0.8453 -0.1186
 4565SOL    HW225158   0.034   1.680   6.433 -1.1831  1.2324  0.6370
 4566SOL     OW25159   1.220   4.445   8.254  0.1860  0.2034 -0.0121
 4566SOL    HW125160   1.309   4.415   8.236 -0.2404 -0.7440 -0.5011
 4566SOL    HW225161   1.205   4.398   8.336 -0.0457 -3.3879 -2.1405
 4567SOL     OW25162   4.520   2.546   9.325 -0.0041  0.0633  0.2228
 4567SOL    HW125163   4.461   2.588   9.387 -0.2499 -2.3723  1.6245
 4567SOL    HW225164   4.601   2.548   9.376 -0.4942  2.1772  0.9009
 4568SOL     OW25165   1.753   4.136   3.757  0.0848 -0.6341  0.3714
 4568SOL    HW125166   1.722   4.203   3.696  0.9477  0.8848  1.5841
 4568SOL    HW225167   1.676   4.105   3.806 -0.7592 -0.8144 -1.0792
 4569SOL     OW25168   1.460   2.345   6.092 -0.1952  0.3053 -0.3935
 4569SOL    HW125169   1.506   2.323   6.173  1.0841  0.3180 -1.1199
 4569SOL    HW225170   1.517   2.297   6.032 -0.0837  0.9146 -0.7729
 4570SOL     OW25171   1.036   2.880   5.735  0.0499  0.0837 -0.2203
 4570SOL    HW125172   1.088   2.866   5.656  1.2331  1.1328  0.3828
 4570SOL    HW225173   1.017   2.974   5.733 -0.0531  0.0112 -2.1520
 4571SOL     OW25174   2.892   1.807   6.407 -0.1511  0.4625 -0.0328
 4571SOL    HW125175   2.968   1.786   6.353  0.1557  0.4080  0.4195
 4571SOL    HW225176   2.918   1.884   6.458 -2.1691  0.7601  0.5480
 4572SOL     OW25177   2.533   4.624   0.739 -0.3478 -0.7732  0.6995
 4572SOL    HW125178   2.539   4.612   0.834 -1.0889  1.8654  1.0715
 4572SOL    HW225179   2.460   4.567   0.716  0.8393 -2.0145  0.0281
 4573SOL     OW25180   2.056   2.145   6.810 -0.3125 -0.3100 -0.2024
 4573SOL    HW125181   2.129   2.084   6.796 -0.4131 -0.8345  1.6071
 4573SOL    HW225182   2.101   2.230   6.808 -0.4657 -0.1732  2.4055
 4574SOL     OW25183   4.466   0.358  17.410  0.0623 -0.0066  0.0511
 4574SOL    HW125184   4.456   0.453  17.402 -0.1556 -0.2452 -2.4862
 4574SOL    HW225185   4.548   0.344  17.364  0.1380  0.2494  0.1082
 4575SOL     OW25186   2.384   2.477   5.286 -0.4020  0.1873  0.3824
 4575SOL    HW125187   2.380   2.488   5.191 -0.3637  0.1858  0.3808
 4575SOL    HW225188   2.443   2.550   5.306 -1.6190  0.9693  1.1225
 4576SOL     OW25189   3.025   4.255   4.889  0.4400  0.1032 -0.1571
 4576SOL    HW125190   3.054   4.289   4.974 -0.5699 -0.5084  0.4436
 4576SOL    HW225191   3.032   4.161   4.908 -0.3935 -0.3658 -2.2081
 4577SOL     OW25192   2.820   2.680   7.010  0.2293 -0.0032  0.3037
 4577SOL    HW125193   2.901   2.730   7.022  0.3249 -0.2939  0.9087
 4577SOL    HW225194   2.848   2.636   6.930 -0.4984 -0.0638  0.0842
 4578SOL     OW25195   2.804   1.699   0.279 -0.1407  0.5521  0.2350
 4578SOL    HW125196   2.756   1.725   0.200  1.3446  0.7462 -0.5878
 4578SOL    HW225197   2.860   1.627   0.252  1.7385  1.4529  1.6720
 4579SOL     OW25198   2.130   4.404   6.995 -0.3838  0.2466  0.5462
 4579SOL    HW125199   2.196   4.455   7.042 -1.2210  2.5673 -0.8038
 4579SOL    HW225200   2.068   4.385   7.065 -2.9781  0.3629 -1.7369
 4580SOL     OW25201   4.144   2.490   9.308  0.3413 -0.0929  0.2119
 4580SOL    HW125202   4.155   2.574   9.264 -2.9070  0.8984  1.3209
 4580SOL    HW225203   4.212   2.486   9.375  1.8649 -2.0954 -1.4506
 4581SOL     OW25204   0.132   3.305   5.624 -0.2920  0.1085  0.3530
 4581SOL    HW125205   0.151   3.291   5.716  2.3820  1.9178  0.0416
 4581SOL    HW225206   0.193   3.245   5.581  1.1865  0.2103  2.3493
 4582SOL     OW25207   1.482   4.426  10.137  0.1860 -0.3192 -0.0525
 4582SOL    HW125208   1.490   4.331  10.134 -0.7069 -0.4087  0.4919
 4582SOL    HW225209   1.515   4.436  10.226  1.9535 -0.6158 -0.6635
 4583SOL     OW25210   2.004   3.908   7.072  0.0022  0.4513  0.5109
 4583SOL    HW125211   2.098   3.894   7.072 -0.1235 -0.3893  1.0507
 4583SOL    HW225212   1.996   3.893   6.978  1.0216  2.7842  0.0363
 4584SOL     OW25213   4.145   3.538  12.417  0.2579 -0.1998 -0.5345
 4584SOL    HW125214   4.199   3.580  12.485  1.0525 -0.8216 -0.7766
 4584SOL    HW225215   4.154   3.594  12.339 -1.2730 -0.1623 -0.6771
 4585SOL     OW25216   2.002   1.299  12.094  0.1500 -0.0836 -0.2520
 4585SOL    HW125217   1.966   1.281  12.007 -2.7797 -0.2137  0.9827
 4585SOL    HW225218   1.947   1.371  12.125 -2.1627 -0.5696 -3.2118
 4586SOL     OW25219   4.052   2.821  15.729  0.4709  0.1949  0.0175
 4586SOL    HW125220   4.099   2.838  15.647 -2.4968  1.0634 -1.4930
 4586SOL    HW225221   4.120   2.842  15.792  2.2664 -0.1513 -1.7865
 4587SOL     OW25222   1.507   0.516   4.218 -0.1565  0.6007 -0.4900
 4587SOL    HW125223   1.595   0.498   4.185 -0.7032  2.1909 -2.7808
 4587SOL    HW225224   1.456   0.494   4.140  1.0834  0.4363 -1.2496
 4588SOL     OW25225   2.924   4.125   8.136 -0.3666 -0.0676  0.4362
 4588SOL    HW125226   2.830   4.116   8.121 -0.0598  0.7063 -1.8428
 4588SOL    HW225227   2.925   4.200   8.195 -2.3549  0.8565 -0.7357
 4589SOL     OW25228   0.300   0.005  12.533  0.3798 -0.1858  0.5480
 4589SOL    HW125229   0.341   0.090  12.546 -0.0569  0.0645  0.2783
 4589SOL    HW225230   0.346   4.669  12.593  1.2690 -1.5013 -1.4218
 4590SOL     OW25231   1.716   4.607   1.168 -0.2157  0.5547  0.2642
 4590SOL    HW125232   1.695   4.514   1.163  2.4391 -0.0986  1.1810
 4590SOL    HW225233   1.714   4.614   1.263  0.1332  1.8058  0.1736
 4591SOL     OW25234   4.509   0.955   5.215  0.1882  0.1016 -0.5136
 4591SOL    HW125235   4.533   0.997   5.133 -0.7725  2.0529  0.1911
 4591SOL    HW225236   4.551   0.869   5.216  3.3520  1.6516 -0.1169
 4592SOL     OW25237   3.491   0.741  14.345 -0.2488  0.2661  0.2939
 4592SOL    HW125238   3.502   0.776  14.434 -0.3439  1.0740 -0.0129
 4592SOL    HW225239   3.582   0.722  14.322 -0.4869  1.1356 -1.3197
 4593SOL     OW25240   0.126   3.040   8.003  0.2456 -0.0544  0.1537
 4593SOL    HW125241   0.135   3.033   7.908 -2.3025  1.4104 -0.1981
 4593SOL    HW225242   0.037   3.075   7.994 -0.0071 -0.6774  0.2747
 4594SOL     OW25243   4.288   0.169  16.450  0.1402  0.1299 -0.2147
 4594SOL    HW125244   4.273   0.237  16.516 -1.5145  0.4026 -0.8620
 4594SOL    HW225245   4.205   0.146  16.409  0.0964 -0.1447  0.0322
 4595SOL     OW25246   2.052   1.956   4.643  0.3630 -0.0528 -0.3150
 4595SOL    HW125247   2.147   1.967   4.638 -0.0782  2.7359 -2.8619
 4595SOL    HW225248   2.042   1.864   4.621  1.5815 -0.8734  2.5829
 4596SOL     OW25249   3.921   0.942   9.403 -0.4250 -0.5140  0.1263
 4596SOL    HW125250   3.854   0.968   9.465 -1.4052  2.5151 -2.1623
 4596SOL    HW225251   3.879   0.953   9.317 -1.6817 -0.0136  0.8156
 4597SOL     OW25252   3.045   1.784   3.211  0.7100 -0.4497  0.1247
 4597SOL    HW125253   3.051   1.853   3.278 -1.0478 -1.0335  0.8835
 4597SOL    HW225254   3.090   1.824   3.137  1.6950 -1.7717  0.0280
 4598SOL     OW25255   1.183   0.086   5.551 -0.2571  0.2241  0.2576
 4598SOL    HW125256   1.270   0.054   5.574  0.6289  1.7044 -1.0529
 4598SOL    HW225257   1.199   0.145   5.477  0.6136 -1.7009 -1.0748
 4599SOL     OW25258   2.630   1.610   4.768 -0.3399 -0.0643 -0.3914
 4599SOL    HW125259   2.557   1.611   4.830 -1.1371  2.3244 -1.3990
 4599SOL    HW225260   2.644   1.702   4.747  1.8354  0.1286  1.8298
 4600SOL     OW25261   1.378   4.395   2.809  0.0208 -0.5192 -0.1626
 4600SOL    HW125262   1.364   4.301   2.815  1.1383 -0.5045  2.7801
 4600SOL    HW225263   1.399   4.423   2.898  0.4096 -2.6513  0.4240
 4601SOL     OW25264   3.752   3.325  12.986  0.4020 -0.3368  0.1647
 4601SOL    HW125265   3.813   3.388  13.024 -0.9044  0.7286  0.4908
 4601SOL    HW225266   3.783   3.241  13.021  1.9315 -0.0276 -0.4555
 4602SOL     OW25267   2.065   4.054   6.255 -0.3240  0.1758 -0.2703
 4602SOL    HW125268   2.031   4.133   6.212  2.5011  1.3030 -0.4624
 4602SOL    HW225269   2.017   4.072   6.336  0.6091  0.9659  0.1089
 4603SOL     OW25270   2.358   3.451   6.488  0.7062  0.1281  0.5442
 4603SOL    HW125271   2.408   3.438   6.568 -0.1276  1.5532  1.2843
 4603SOL    HW225272   2.283   3.391   6.495 -0.2673  1.3790  0.7237
 4604SOL     OW25273   4.048   3.711   6.683 -0.0904  0.1246 -0.2823
 4604SOL    HW125274   4.098   3.651   6.629  1.0858  0.6401  0.2291
 4604SOL    HW225275   3.975   3.728   6.623 -0.9145 -0.7931  0.4416
 4605SOL     OW25276   0.353   2.157  11.265  0.4754  0.2218 -0.3145
 4605SOL    HW125277   0.429   2.167  11.323  1.8951 -1.8603 -1.8750
 4605SOL    HW225278   0.316   2.079  11.306  1.7665 -0.8153 -1.1268
 4606SOL     OW25279   2.097   0.864   3.927  0.0718  0.6111 -0.5585
 4606SOL    HW125280   2.022   0.917   3.900  1.0702  1.9673 -0.6992
 4606SOL    HW225281   2.149   0.935   3.964 -0.9576 -0.5424  3.0454
 4607SOL     OW25282   3.013   2.398  17.074  0.2029  0.2185  0.6588
 4607SOL    HW125283   3.009   2.302  17.077 -3.5052  0.4021  1.1536
 4607SOL    HW225284   3.032   2.404  16.980  3.4562  2.6419  1.4788
 4608SOL     OW25285   1.797   3.992   5.653 -0.4305 -0.0001 -0.4714
 4608SOL    HW125286   1.775   4.059   5.717  0.0585 -0.0114 -0.2973
 4608SOL    HW225287   1.822   3.918   5.709  1.3772 -0.8849 -2.4836
 4609SOL     OW25288   4.616   3.607  10.947 -0.3057  0.1136  0.8827
 4609SOL    HW125289   4.661   3.658  11.015  0.5219 -1.6057  1.6162
 4609SOL    HW225290   4.524   3.623  10.968 -0.9115  0.8747 -2.4570
 4610SOL     OW25291   3.082   1.036  16.160 -0.3412 -0.6103 -0.5544
 4610SOL    HW125292   3.016   1.050  16.228 -0.6279  3.0632 -1.5805
 4610SOL    HW225293   3.120   1.124  16.168 -1.8790  0.0442 -0.4967
 4611SOL     OW25294   0.134   0.871   2.803 -0.2970 -0.4636 -1.2262
 4611SOL    HW125295   0.118   0.836   2.715 -2.5814 -1.8238 -0.2697
 4611SOL    HW225296   0.046   0.889   2.835  1.0934  2.2969  1.0024
 4612SOL     OW25297   2.213   1.204   4.858  0.4434  0.0945 -0.0007
 4612SOL    HW125298   2.243   1.253   4.782  3.0656 -0.1387  0.8723
 4612SOL    HW225299   2.286   1.142   4.857  0.4119 -0.0108  2.2974
 4613SOL     OW25300   1.471   0.362  15.845  0.2600  0.0377  0.1849
 4613SOL    HW125301   1.561   0.358  15.812  0.4254 -2.8343  1.0102
 4613SOL    HW225302   1.422   0.363  15.763  0.5569  2.1307  0.0209
 4614SOL     OW25303   1.989   4.700   8.519 -0.2008  0.3291  0.2943
 4614SOL    HW125304   1.897   4.722   8.506 -0.3372  1.2051  2.9251
 4614SOL    HW225305   1.993   4.614   8.561  0.0446  1.2004  2.0182
 4615SOL     OW25306   0.142   0.479   2.486  0.3483  0.5762  0.2992
 4615SOL    HW125307   0.221   0.511   2.528  0.9093 -1.1143  0.5436
 4615SOL    HW225308   0.089   0.556   2.465 -1.7021 -0.7565  0.5290
 4616SOL     OW25309   2.921   3.009   2.788 -0.0825 -0.6608  0.6865
 4616SOL    HW125310   2.893   2.969   2.871 -0.0579 -0.9869  0.5355
 4616SOL    HW225311   2.861   3.083   2.783 -0.3864 -0.9828 -0.2275
 4617SOL     OW25312   0.805   1.594   4.796 -0.1752 -0.3768 -0.0494
 4617SOL    HW125313   0.867   1.643   4.850  0.0616  0.3107 -0.9448
 4617SOL    HW225314   0.835   1.611   4.706 -0.1313  1.9909  0.4182
 4618SOL     OW25315   2.115   1.606   1.601  0.8494 -0.6402  0.4847
 4618SOL    HW125316   2.121   1.512   1.615  2.3742 -0.8504 -1.4352
 4618SOL    HW225317   2.033   1.614   1.649  2.2404 -0.1914  2.8294
 4619SOL     OW25318   2.810   3.969   7.868  0.0896 -0.2093  0.0846
 4619SOL    HW125319   2.751   4.014   7.929  0.6006  0.3146  0.1894
 4619SOL    HW225320   2.801   3.880   7.903 -0.4073  0.2304  1.0767
 4620SOL     OW25321   0.574   3.653   8.437 -0.5226  0.3976 -0.3182
 4620SOL    HW125322   0.545   3.728   8.488 -0.0826 -1.2072  2.2744
 4620SOL    HW225323   0.509   3.590   8.467  2.7181 -3.7063 -1.7915
 4621SOL     OW25324   0.912   3.186  15.224 -0.3299 -0.5833  0.1561
 4621SOL    HW125325   0.946   3.103  15.257  0.0972 -0.0971  0.9357
 4621SOL    HW225326   0.989   3.215  15.175  0.0089  2.4096  2.5067
 4622SOL     OW25327   2.446   3.487   5.993 -0.2666  0.0241 -0.1640
 4622SOL    HW125328   2.359   3.477   6.031  0.6972 -0.6498  1.8649
 4622SOL    HW225329   2.474   3.403   5.955  0.5846 -0.4067  1.4353
 4623SOL     OW25330   1.288   0.469  15.548 -0.3469  0.1715  0.0674
 4623SOL    HW125331   1.276   0.541  15.487  2.0142  0.6081  0.1499
 4623SOL    HW225332   1.372   0.436  15.516  0.1161  0.3017  1.1596
 4624SOL     OW25333   3.392   1.208   1.714 -0.3121 -0.4647  0.5043
 4624SOL    HW125334   3.360   1.186   1.627  1.8256  2.6174 -1.0935
 4624SOL    HW225335   3.487   1.195   1.711  0.0278  1.7171  1.7377
 4625SOL     OW25336   0.090   4.216   1.487 -0.5780  0.2427 -0.0300
 4625SOL    HW125337   0.177   4.183   1.464 -0.0541 -0.5570  3.0587
 4625SOL    HW225338   0.049   4.227   1.402 -2.0932 -3.4948  0.2550
 4626SOL     OW25339   3.457   2.224  13.523 -0.1018 -0.2245  0.3866
 4626SOL    HW125340   3.494   2.309  13.548 -1.9816  1.0640 -1.1900
 4626SOL    HW225341   3.366   2.254  13.527  0.3805  1.0629  1.5610
 4627SOL     OW25342   4.489   1.738   4.781  0.6598 -0.0649 -0.6468
 4627SOL    HW125343   4.539   1.814   4.749  0.0186  0.5231 -0.2544
 4627SOL    HW225344   4.478   1.759   4.874  0.4406 -1.6086 -0.3307
 4628SOL     OW25345   2.204   1.500   6.459  0.1804 -0.4336  0.2565
 4628SOL    HW125346   2.175   1.512   6.549 -0.6035  0.2799 -0.0920
 4628SOL    HW225347   2.161   1.574   6.416 -1.0594 -1.4921 -0.2878
 4629SOL     OW25348   3.579   4.146   6.163  0.1840 -0.5805  0.4249
 4629SOL    HW125349   3.536   4.116   6.244 -1.6354 -2.0981 -1.1200
 4629SOL    HW225350   3.607   4.064   6.123  0.1236 -0.9755  1.1986
 4630SOL     OW25351   1.305   1.026   0.749 -0.0705  0.4010  0.0103
 4630SOL    HW125352   1.210   1.013   0.752 -0.2834  2.1273  0.6187
 4630SOL    HW225353   1.321   1.076   0.669 -0.6378  1.6452  0.6746
 4631SOL     OW25354   3.726   4.343   3.903 -0.2092 -0.2072  0.2055
 4631SOL    HW125355   3.631   4.352   3.913  0.0489 -0.9629  3.2794
 4631SOL    HW225356   3.726   4.254   3.866 -1.1268 -0.6194  1.1893
 4632SOL     OW25357   4.673   2.698   0.359 -0.1853 -0.2027 -0.0246
 4632SOL    HW125358   0.005   2.741   0.424 -1.1601  1.5275 -0.3180
 4632SOL    HW225359   4.588   2.743   0.356 -0.0387  0.2718  2.3150
 4633SOL     OW25360   4.074   0.355   8.697 -0.0994 -0.3575 -0.2274
 4633SOL    HW125361   4.025   0.280   8.729  0.4545 -0.7860 -0.3911
 4633SOL    HW225362   4.040   0.381   8.611 -2.1750 -1.1410  0.3672
 4634SOL     OW25363   0.814   0.537   7.686  0.2135  0.0035 -0.8128
 4634SOL    HW125364   0.904   0.528   7.719 -0.2650 -2.4080 -0.1837
 4634SOL    HW225365   0.800   0.629   7.711  0.9802  0.0457 -0.5420
 4635SOL     OW25366   2.974   1.551   7.429 -0.0625  0.0501 -0.3569
 4635SOL    HW125367   3.017   1.554   7.515 -2.1933  1.1706  0.6494
 4635SOL    HW225368   2.997   1.637   7.396  3.5628 -0.7796 -0.0145
 4636SOL     OW25369   3.824   0.561   2.674  0.2186 -0.0001  0.1128
 4636SOL    HW125370   3.895   0.626   2.670 -0.5043  0.7692 -0.1869
 4636SOL    HW225371   3.871   0.484   2.707 -1.6346 -1.2525 -0.2005
 4637SOL     OW25372   2.100   2.670  15.640 -0.4041  0.7217  0.1533
 4637SOL    HW125373   2.109   2.739  15.706  1.1738  0.8952 -0.2408
 4637SOL    HW225374   2.119   2.595  15.696 -1.4725 -0.0360 -0.4891
 4638SOL     OW25375   2.838   1.068   4.753  0.0960 -0.5060  0.1634
 4638SOL    HW125376   2.815   1.130   4.684  2.3447  1.2387  0.9676
 4638SOL    HW225377   2.803   1.104   4.835 -1.3063 -0.2405 -0.5690
 4639SOL     OW25378   3.432   3.342  14.777  0.4722  0.4869 -0.1683
 4639SOL    HW125379   3.373   3.332  14.703 -0.8537  0.5972  0.8730
 4639SOL    HW225380   3.474   3.256  14.780  1.5323  0.9719 -1.0018
 4640SOL     OW25381   0.137   3.471  13.471 -0.0039  0.4027 -0.4743
 4640SOL    HW125382   0.196   3.420  13.416  0.6346  0.0971  0.4901
 4640SOL    HW225383   0.054   3.424  13.476 -0.1151  0.5890 -0.6194
 4641SOL     OW25384   3.404   0.316   7.990  0.2017  0.5660 -0.1887
 4641SOL    HW125385   3.459   0.238   7.985 -1.2040 -0.4492 -0.0311
 4641SOL    HW225386   3.446   0.374   7.927 -1.2710 -0.7243 -2.3605
 4642SOL     OW25387   0.508   3.261   5.345  0.1424  0.1053 -0.0727
 4642SOL    HW125388   0.456   3.296   5.273  0.2644 -2.0208 -1.1924
 4642SOL    HW225389   0.598   3.286   5.322  1.2452 -3.2168  0.6327
 4643SOL     OW25390   4.344   0.746   7.240  0.1568 -0.2887  0.2921
 4643SOL    HW125391   4.265   0.732   7.188  0.3597  2.0655 -0.6461
 4643SOL    HW225392   4.314   0.737   7.331 -1.5472 -1.0574 -0.3603
 4644SOL     OW25393   3.113   3.474   3.141 -0.0234 -0.2549  0.4023
 4644SOL    HW125394   3.157   3.389   3.137 -6.1475 -3.2243 -3.6636
 4644SOL    HW225395   3.090   3.492   3.050 -1.4353 -0.3930  0.7334
 4645SOL     OW25396   3.164   0.923   9.481  0.7860  0.4056 -0.1178
 4645SOL    HW125397   3.158   0.958   9.570  3.3916 -1.2195  0.7196
 4645SOL    HW225398   3.116   0.845   9.509 -0.0271  0.2318 -2.0297
 4646SOL     OW25399   3.600   3.447  15.295  0.5909  0.1826 -0.1685
 4646SOL    HW125400   3.616   3.368  15.244 -0.1350  1.3998 -2.2582
 4646SOL    HW225401   3.577   3.511  15.229  0.6867 -0.0310 -0.4080
 4647SOL     OW25402   2.382   0.110   2.132  0.0077  0.0491 -0.1763
 4647SOL    HW125403   2.286   0.110   2.135  0.0030 -0.6852 -0.2755
 4647SOL    HW225404   2.401   0.146   2.218 -0.0843 -0.2457 -0.0322
 4648SOL     OW25405   4.525   2.594   5.678  0.2373 -0.1545 -0.7949
 4648SOL    HW125406   4.560   2.569   5.592 -0.2715  0.7604 -1.2610
 4648SOL    HW225407   4.436   2.565   5.656  0.3387 -0.0586 -1.3308
 4649SOL     OW25408   0.857   1.244   6.159  0.1880  0.2668 -0.0467
 4649SOL    HW125409   0.779   1.234   6.104 -0.9076  0.4003  1.4666
 4649SOL    HW225410   0.910   1.192   6.100 -0.5586 -1.8909  1.1875
 4650SOL     OW25411   3.965   0.384  10.046  0.7322 -0.1885  0.2747
 4650SOL    HW125412   3.872   0.363  10.045  0.5890  0.4229  0.8912
 4650SOL    HW225413   3.972   0.460  10.103  0.3371 -0.2301  0.3781
 4651SOL     OW25414   3.920   0.945   3.105 -0.8187  0.1438 -0.1844
 4651SOL    HW125415   3.925   0.981   3.194  1.5105 -0.4754 -0.0686
 4651SOL    HW225416   4.011   0.946   3.074  0.6723 -0.5721  4.0638
 4652SOL     OW25417   3.987   3.062   2.774 -0.2871  0.1527 -0.1595
 4652SOL    HW125418   3.989   2.966   2.766  0.4417  0.2657 -1.3226
 4652SOL    HW225419   3.917   3.069   2.709 -0.0074 -0.1364 -0.4981
 4653SOL     OW25420   4.587   0.740   4.480 -0.0177  0.1355 -0.5555
 4653SOL    HW125421   4.549   0.652   4.481 -1.9873  0.9884 -1.7941
 4653SOL    HW225422   4.630   0.740   4.394  1.0544 -3.4254 -0.0437
 4654SOL     OW25423   1.746   4.025   4.763  0.0894  0.4213 -0.1946
 4654SOL    HW125424   1.682   3.965   4.724 -0.2804 -0.5376  1.8920
 4654SOL    HW225425   1.751   4.098   4.701  0.7215  0.5536  0.0149
 4655SOL     OW25426   3.104   1.913   2.274 -0.8207 -0.1496  0.3995
 4655SOL    HW125427   3.177   1.896   2.214 -0.0224 -0.0270  1.3497
 4655SOL    HW225428   3.058   1.964   2.207 -0.7247  0.2016  0.6090
 4656SOL     OW25429   1.513   0.372  13.981 -0.3352 -0.0194  0.0141
 4656SOL    HW125430   1.540   0.352  14.070 -1.8365 -0.7529  0.3074
 4656SOL    HW225431   1.585   0.323  13.942  0.0168  0.3017  0.2702
 4657SOL     OW25432   0.287   4.086  10.533  0.3755  0.6495 -0.2548
 4657SOL    HW125433   0.330   4.074  10.448  1.1011  0.2419  0.1719
 4657SOL    HW225434   0.368   4.083  10.583 -0.5391 -1.1390  1.1249
 4658SOL     OW25435   0.216   2.034   4.402  0.6040  0.5627 -0.5083
 4658SOL    HW125436   0.307   2.012   4.423  1.1473  3.1746 -0.1710
 4658SOL    HW225437   0.179   1.946   4.401  1.8324  0.0606 -1.1761
 4659SOL     OW25438   2.350   0.305  14.077 -0.1471 -0.3011 -0.3878
 4659SOL    HW125439   2.437   0.266  14.086  0.5162  1.4230  0.6560
 4659SOL    HW225440   2.309   0.245  14.140  0.8915 -2.0508 -1.3915
 4660SOL     OW25441   2.517   2.828   8.194 -0.1690 -0.3624  0.2855
 4660SOL    HW125442   2.423   2.820   8.209  0.0564 -0.9752  1.3175
 4660SOL    HW225443   2.527   2.922   8.211  0.7403 -0.4414  0.1888
 4661SOL     OW25444   0.410   2.748   6.699 -0.2170  0.3462 -0.3933
 4661SOL    HW125445   0.420   2.754   6.794 -0.3404 -0.4106 -0.3308
 4661SOL    HW225446   0.315   2.752   6.696 -0.2589  0.4752  0.9252
 4662SOL     OW25447   2.806   1.056   8.111  0.6069 -0.7858  0.3887
 4662SOL    HW125448   2.761   1.061   8.026 -1.1567  2.8595  1.5231
 4662SOL    HW225449   2.747   1.107   8.167  0.9149 -0.0080  0.0129
 4663SOL     OW25450   3.863   0.693   7.984  0.3591  0.4192 -0.1037
 4663SOL    HW125451   3.921   0.715   7.912 -1.6845  0.8524 -1.6343
 4663SOL    HW225452   3.773   0.711   7.956  0.2290 -0.9909 -0.5914
 4664SOL     OW25453   3.879   4.416   7.802  0.4178 -0.2638  0.0499
 4664SOL    HW125454   3.914   4.340   7.849 -2.0870 -1.6956 -0.3958
 4664SOL    HW225455   3.960   4.450   7.765  0.0523 -0.5122 -0.9699
 4665SOL     OW25456   3.472   2.095   3.680 -0.2455  0.3777  0.2392
 4665SOL    HW125457   3.477   2.093   3.585  1.2433  1.8262  0.2766
 4665SOL    HW225458   3.427   2.013   3.696 -1.6286  0.9438 -0.7917
 4666SOL     OW25459   4.683   1.796   9.630  0.2634 -0.1749 -0.0568
 4666SOL    HW125460   4.611   1.777   9.570  0.2167 -0.0905 -0.0274
 4666SOL    HW225461   4.722   1.710   9.643  0.4799 -0.3987 -2.3312
 4667SOL     OW25462   0.956   0.337   4.347  0.5853 -0.2994 -0.2624
 4667SOL    HW125463   0.988   0.409   4.293 -1.2806 -1.1838 -2.5492
 4667SOL    HW225464   1.025   0.315   4.409 -0.1881 -1.7987  0.0780
 4668SOL     OW25465   2.194   3.895   8.099  0.2897 -0.7658  0.5362
 4668SOL    HW125466   2.244   3.816   8.078  0.4019  0.1577 -2.6358
 4668SOL    HW225467   2.160   3.855   8.180 -0.3385  0.1472  0.7272
 4669SOL     OW25468   4.082   2.203   5.043  0.2371  0.2686  0.2296
 4669SOL    HW125469   4.164   2.240   5.011 -0.0426 -1.7958 -2.8683
 4669SOL    HW225470   4.099   2.108   5.041  0.1071  0.1611  3.9573
 4670SOL     OW25471   0.447   4.278   2.809  0.3008  0.6326  0.2342
 4670SOL    HW125472   0.424   4.288   2.717 -1.3186  1.4141  0.7264
 4670SOL    HW225473   0.534   4.319   2.812  0.3976  0.3333  1.6364
 4671SOL     OW25474   3.963   2.172   0.197 -0.0329  0.0555 -0.0548
 4671SOL    HW125475   3.871   2.146   0.201 -0.3581  1.3743  1.2709
 4671SOL    HW225476   3.989   2.158   0.106  1.6766  0.2022  0.4118
 4672SOL     OW25477   3.142   3.136   6.359  0.7911  0.2997 -0.3792
 4672SOL    HW125478   3.131   3.167   6.448 -1.6634  0.0564 -0.5996
 4672SOL    HW225479   3.066   3.178   6.318  0.1368  0.6622  1.2346
 4673SOL     OW25480   4.437   4.708   4.328 -0.3386  0.4664 -0.0472
 4673SOL    HW125481   4.473   0.071   4.312 -0.4376  0.7183  1.1402
 4673SOL    HW225482   4.375   4.693   4.256 -2.2262  0.2467  1.6319
 4674SOL     OW25483   1.842   4.460   4.110  0.3898  0.1471 -0.2064
 4674SOL    HW125484   1.758   4.504   4.096  0.2592 -0.1770 -0.4338
 4674SOL    HW225485   1.900   4.535   4.099  1.3501 -0.4973  0.4193
 4675SOL     OW25486   2.087   2.080  11.147  0.6211  0.2570 -0.0798
 4675SOL    HW125487   2.108   1.991  11.176 -1.9703 -0.6887 -1.0647
 4675SOL    HW225488   2.012   2.106  11.200  0.6498  0.1358  0.0226
 4676SOL     OW25489   3.268   3.906   6.492  0.3614 -0.0444  0.0136
 4676SOL    HW125490   3.279   3.915   6.398  1.1739 -1.1894 -0.0024
 4676SOL    HW225491   3.198   3.841   6.498  1.5440 -1.2919  0.1483
 4677SOL     OW25492   1.037   0.359   8.389 -0.4279  0.2348  0.3261
 4677SOL    HW125493   1.110   0.403   8.434  0.0333  1.5407 -1.6905
 4677SOL    HW225494   1.008   0.289   8.447 -1.5148 -0.8259 -1.5212
 4678SOL     OW25495   1.974   2.041   4.362  0.0506  0.1975  0.1168
 4678SOL    HW125496   1.974   2.127   4.320 -2.5327 -1.3599 -3.0850
 4678SOL    HW225497   2.006   1.986   4.290 -0.6009 -0.4671  0.3277
 4679SOL     OW25498   3.624   2.671  17.121  0.5392  0.3094 -0.4739
 4679SOL    HW125499   3.532   2.681  17.096  0.6394 -1.2977 -1.5050
 4679SOL    HW225500   3.641   2.759  17.154 -2.0061  1.1754 -1.4089
 4680SOL     OW25501   0.307   0.065   0.648  0.4331 -0.4486  0.3533
 4680SOL    HW125502   0.337   0.151   0.677 -0.5583  0.6693 -1.9389
 4680SOL    HW225503   0.278   0.032   0.733  0.1262 -1.6109 -0.2080
 4681SOL     OW25504   1.944   1.343   2.863  0.3168 -0.4352 -0.2841
 4681SOL    HW125505   1.977   1.354   2.774 -0.7852  0.3379 -0.5996
 4681SOL    HW225506   1.864   1.391   2.844  1.4568  2.1679  1.5010
 4682SOL     OW25507   2.496   0.366   0.402  0.5737 -0.3772  0.6016
 4682SOL    HW125508   2.462   0.399   0.319 -2.7123 -1.3221  1.5565
 4682SOL    HW225509   2.426   0.369   0.468  2.1427 -0.6267  2.2775
 4683SOL     OW25510   3.135   3.353  12.746 -0.4577  0.0670 -0.4275
 4683SOL    HW125511   3.085   3.424  12.706  0.6264 -1.0322 -3.7249
 4683SOL    HW225512   3.073   3.281  12.732 -1.4426  0.5678  1.3021
 4684SOL     OW25513   2.357   1.269   8.478 -0.1591 -0.0195 -0.3770
 4684SOL    HW125514   2.344   1.211   8.403  0.9602  1.0328 -1.3938
 4684SOL    HW225515   2.323   1.353   8.448  0.9915  0.4051 -0.4934
 4685SOL     OW25516   4.372   3.010  15.812  0.5065 -0.3073 -0.3590
 4685SOL    HW125517   4.355   2.922  15.847  1.8436  0.2394  1.6292
 4685SOL    HW225518   4.453   2.990  15.765  1.9927  0.9737  1.6713
 4686SOL     OW25519   1.582   2.177   6.569 -0.9552 -0.2425  0.1883
 4686SOL    HW125520   1.674   2.171   6.594 -1.2556 -0.8037  1.1747
 4686SOL    HW225521   1.550   2.145   6.654  3.2761 -0.0992  1.8189
 4687SOL     OW25522   1.127   0.246   4.820 -0.5072 -0.8084  0.0687
 4687SOL    HW125523   1.165   0.283   4.740 -1.1067  0.7938  0.5124
 4687SOL    HW225524   1.173   0.163   4.828 -0.0248 -0.3091  2.2786
 4688SOL     OW25525   3.789   0.483   5.684 -0.7852 -0.0290  0.0494
 4688SOL    HW125526   3.779   0.562   5.632 -1.1041 -1.0727 -1.4985
 4688SOL    HW225527   3.849   0.436   5.626 -0.8168  2.5286 -2.0242
 4689SOL     OW25528   2.185   0.466  16.177 -0.1281  0.0155  0.1091
 4689SOL    HW125529   2.146   0.551  16.157  3.3809  1.2536 -1.4990
 4689SOL    HW225530   2.144   0.458  16.264 -1.2471 -0.4664 -0.4622
 4690SOL     OW25531   2.612   4.139  14.460 -0.4613  0.1752 -0.5361
 4690SOL    HW125532   2.589   4.132  14.553 -0.0739  0.3926 -0.4285
 4690SOL    HW225533   2.525   4.132  14.421 -0.1350 -2.0832 -0.8691
 4691SOL     OW25534   3.432   3.405   8.951  0.2413  0.3397 -0.1933
 4691SOL    HW125535   3.473   3.330   8.995 -2.2036 -0.4646  0.6988
 4691SOL    HW225536   3.506   3.454   8.914 -1.3444  1.5635 -1.7457
 4692SOL     OW25537   0.975   3.346   1.280  0.1574 -0.4736 -0.0335
 4692SOL    HW125538   0.997   3.253   1.274  0.9320 -0.2587 -0.5703
 4692SOL    HW225539   0.887   3.341   1.318  0.3247 -1.1561  0.2647
 4693SOL     OW25540   0.016   2.869  10.745  0.0323  0.2288 -0.0294
 4693SOL    HW125541   0.080   2.926  10.789  1.2373 -0.6152 -0.6840
 4693SOL    HW225542   0.082   2.824  10.693  1.5233  2.2943  0.0286
 4694SOL     OW25543   2.972   2.823   8.931 -0.2927  0.1109 -0.0745
 4694SOL    HW125544   2.974   2.864   9.018 -1.8112  1.3823 -0.6304
 4694SOL    HW225545   3.061   2.787   8.935 -0.2361  0.2439 -0.1499
 4695SOL     OW25546   2.532   3.914   2.800  0.1562  0.1212  0.0970
 4695SOL    HW125547   2.549   3.821   2.781  3.0509  0.6170  0.2523
 4695SOL    HW225548   2.448   3.909   2.845 -1.2805  0.7193 -2.5286
 4696SOL     OW25549   1.318   4.595  11.390  0.2021  0.0334 -0.6837
 4696SOL    HW125550   1.304   4.689  11.377  0.1855  0.0528 -0.5252
 4696SOL    HW225551   1.257   4.557  11.327 -1.9934  1.6813  0.4717
 4697SOL     OW25552   3.952   1.416   8.030 -0.2927 -0.2104  0.0669
 4697SOL    HW125553   4.017   1.346   8.024  1.4705  1.1866  2.5854
 4697SOL    HW225554   3.912   1.385   8.112 -0.3819  3.1005  1.2598
 4698SOL     OW25555   0.175   4.082   6.784  0.0794  0.0609 -0.6906
 4698SOL    HW125556   0.179   4.096   6.689 -0.7239  1.7502 -0.4839
 4698SOL    HW225557   0.098   4.138   6.796 -0.9933 -1.2817 -1.2551
 4699SOL     OW25558   3.787   1.590   0.214 -0.2965 -0.1115  0.4466
 4699SOL    HW125559   3.810   1.499   0.195  2.4291  0.8604 -0.8487
 4699SOL    HW225560   3.813   1.627   0.129 -1.2423  3.3511  1.6576
 4700SOL     OW25561   2.374   0.091   3.528 -0.3783  0.2857  0.0907
 4700SOL    HW125562   2.374   0.163   3.465 -0.0194  1.0181  0.9380
 4700SOL    HW225563   2.411   0.021   3.474  0.4293  0.7408  0.0544
 4701SOL     OW25564   1.651   4.115   0.753 -0.1975  0.1494 -0.3700
 4701SOL    HW125565   1.577   4.096   0.695 -0.4790  2.2897 -0.7181
 4701SOL    HW225566   1.615   4.182   0.810 -1.2936 -1.0510  0.3592
 4702SOL     OW25567   2.473   2.600   4.106  0.7690  0.2292 -0.3060
 4702SOL    HW125568   2.456   2.642   4.190 -0.1916 -1.0614  0.1458
 4702SOL    HW225569   2.508   2.516   4.134 -0.7281 -0.4152 -0.3633
 4703SOL     OW25570   0.107   2.826   3.820  0.6084 -0.0779  0.2110
 4703SOL    HW125571   0.031   2.798   3.872  1.8981 -1.7975  1.1535
 4703SOL    HW225572   0.137   2.747   3.774 -0.1427  0.1028 -0.6017
 4704SOL     OW25573   2.449   1.447   1.091  0.0851 -0.0109 -0.0601
 4704SOL    HW125574   2.423   1.519   1.033 -1.9041 -1.7727 -1.3046
 4704SOL    HW225575   2.518   1.406   1.038  0.2113  0.2014 -0.0613
 4705SOL     OW25576   1.641   4.098   6.081  0.1701 -0.0751 -0.1273
 4705SOL    HW125577   1.645   4.179   6.131 -0.3465 -0.7627  1.0226
 4705SOL    HW225578   1.556   4.069   6.116 -0.9843  1.2461 -1.8034
 4706SOL     OW25579   4.273   1.162  12.698 -0.4782  0.2676  0.0026
 4706SOL    HW125580   4.209   1.142  12.766 -0.0852 -0.6905  0.0884
 4706SOL    HW225581   4.347   1.188  12.753 -0.7493  1.1060 -0.0173
 4707SOL     OW25582   1.922   3.739   9.055  0.4719  0.2993  0.7524
 4707SOL    HW125583   1.877   3.821   9.036  1.9752  1.6076  2.9068
 4707SOL    HW225584   1.982   3.751   8.980  0.8939  2.1037  1.3712
 4708SOL     OW25585   1.202   1.797  10.025  0.3886  0.0814 -0.8492
 4708SOL    HW125586   1.290   1.817  10.057  0.5264 -2.1462  0.1370
 4708SOL    HW225587   1.209   1.703  10.044 -0.3980  0.0913 -0.4862
 4709SOL     OW25588   1.873   2.353   6.098  0.1313 -0.5074  0.3068
 4709SOL    HW125589   1.916   2.384   6.178  0.1751  0.7252 -0.1959
 4709SOL    HW225590   1.880   2.258   6.109  2.0539 -0.4701 -0.5761
 4710SOL     OW25591   1.619   0.991   2.570  0.2919  0.2014 -0.6419
 4710SOL    HW125592   1.588   0.920   2.627  0.1623  0.7298 -0.0540
 4710SOL    HW225593   1.555   1.060   2.585 -0.9329 -1.0249 -0.2335
 4711SOL     OW25594   0.332   1.914   8.680 -0.3147 -0.7530  0.0892
 4711SOL    HW125595   0.345   1.989   8.622 -1.5939 -0.1475  0.5822
 4711SOL    HW225596   0.418   1.911   8.723 -0.5859  0.4361  0.7266
 4712SOL     OW25597   4.156   4.336  15.781  0.4290 -0.1505  0.1165
 4712SOL    HW125598   4.203   4.295  15.853  3.9893  0.7138 -1.7144
 4712SOL    HW225599   4.187   4.426  15.776 -0.5257  0.1657 -0.2811
 4713SOL     OW25600   3.049   4.554  14.939 -0.4200 -0.1481 -0.1743
 4713SOL    HW125601   2.983   4.514  14.996  0.4940 -2.1518 -0.5145
 4713SOL    HW225602   3.098   4.613  14.997 -0.6591 -1.7273  1.6133
 4714SOL     OW25603   3.549   2.030   6.013  0.3901 -0.2264  0.4760
 4714SOL    HW125604   3.561   2.023   5.919  0.2034  0.2309  0.4218
 4714SOL    HW225605   3.625   1.979   6.044 -1.0069 -1.4701  1.8542
 4715SOL     OW25606   1.561   3.250   8.114 -0.1110 -0.3260 -0.0132
 4715SOL    HW125607   1.500   3.297   8.172  1.0032 -0.9175  1.6631
 4715SOL    HW225608   1.510   3.194   8.056 -0.0534  1.9256 -2.2296
 4716SOL     OW25609   2.917   0.123   5.408 -0.2700 -0.4052 -0.9812
 4716SOL    HW125610   2.874   0.164   5.483 -0.9894  0.2153 -1.7181
 4716SOL    HW225611   2.976   0.192   5.379  1.2587 -1.5599 -0.5644
 4717SOL     OW25612   0.601   4.528  13.873  0.4183 -0.0341  0.3297
 4717SOL    HW125613   0.655   4.592  13.918 -0.9532  0.4661  1.2445
 4717SOL    HW225614   0.655   4.501  13.798  0.7922 -0.8123  0.8812
 4718SOL     OW25615   1.873   4.402   7.162  0.4764  0.0247  0.6665
 4718SOL    HW125616   1.856   4.309   7.150 -0.2296  0.4706 -1.7239
 4718SOL    HW225617   1.784   4.430   7.183  1.2932  0.7625  3.1172
 4719SOL     OW25618   2.577   4.586   8.219  0.0552  0.6986 -0.5463
 4719SOL    HW125619   2.501   4.636   8.188  0.5131  2.0969  0.5798
 4719SOL    HW225620   2.608   4.635   8.295  0.2117 -1.8460  1.0333
 4720SOL     OW25621   0.803   3.316   4.920  0.2138 -0.2452  0.3133
 4720SOL    HW125622   0.855   3.370   4.979 -0.3412 -1.3273  1.8101
 4720SOL    HW225623   0.853   3.323   4.839 -1.0518  2.2855 -0.2451
 4721SOL     OW25624   1.489   1.443   8.963 -0.0669 -0.6927 -0.0727
 4721SOL    HW125625   1.536   1.526   8.954 -2.5003  0.7380  0.2066
 4721SOL    HW225626   1.426   1.461   9.033  0.9652  0.8293  0.4476
 4722SOL     OW25627   3.822   3.127   5.120 -0.4271 -0.1102  0.6292
 4722SOL    HW125628   3.883   3.067   5.076  2.5974  2.6979  1.0154
 4722SOL    HW225629   3.834   3.100   5.211  0.9938  0.5402  0.6376
 4723SOL     OW25630   3.738   0.824  17.685  0.1052 -0.4806  0.0707
 4723SOL    HW125631   3.729   0.829   0.083 -0.2498  1.3075 -0.0534
 4723SOL    HW225632   3.662   0.771  17.662 -0.9676  1.4949 -0.9854
 4724SOL     OW25633   1.418   2.981   1.258 -0.0611  0.2613  0.1430
 4724SOL    HW125634   1.423   2.993   1.353 -1.4734 -1.8771  0.4928
 4724SOL    HW225635   1.385   3.066   1.227 -1.8534 -0.1497  0.9267
 4725SOL     OW25636   1.010   1.945   5.716  0.3748  0.0295  0.0238
 4725SOL    HW125637   1.093   1.949   5.667 -0.6783  2.6919 -1.5620
 4725SOL    HW225638   0.980   2.032   5.689  0.9202 -0.8082 -3.3397
 4726SOL     OW25639   3.698   3.287   9.831  0.0640  0.4473  0.1847
 4726SOL    HW125640   3.690   3.378   9.801  1.9430  1.0088  1.3501
 4726SOL    HW225641   3.625   3.291   9.892 -0.6132 -0.6711 -0.5735
 4727SOL     OW25642   2.257   1.721   8.054  0.5082  0.2432  0.7865
 4727SOL    HW125643   2.167   1.692   8.067  0.1335  0.8992 -0.3043
 4727SOL    HW225644   2.257   1.702   7.960  0.9541  1.3051  0.5663
 4728SOL     OW25645   1.194   0.245   5.306 -0.5655 -0.0620  0.8001
 4728SOL    HW125646   1.187   0.330   5.348  1.2447  0.2310  0.5001
 4728SOL    HW225647   1.129   0.248   5.235 -0.1559  3.8254  0.6167
 4729SOL     OW25648   0.140   4.576   7.208  0.2487 -0.3153  0.0230
 4729SOL    HW125649   0.053   4.536   7.196 -0.8637  2.4957 -1.1800
 4729SOL    HW225650   0.153   4.625   7.127  0.0454  0.4414  0.4479
 4730SOL     OW25651   3.623   3.392   0.473 -0.0321 -0.4549 -0.6813
 4730SOL    HW125652   3.706   3.428   0.505 -0.7675 -1.0212  1.9320
 4730SOL    HW225653   3.607   3.440   0.392  1.3075  2.1326  0.5850
 4731SOL     OW25654   2.805   2.373   3.806 -0.1852 -0.1069 -0.3526
 4731SOL    HW125655   2.884   2.325   3.829 -0.7991 -2.0597 -2.4136
 4731SOL    HW225656   2.816   2.460   3.845 -1.7510  0.2241 -0.6484
 4732SOL     OW25657   4.129   1.392   0.851 -0.2242  0.1086 -0.1372
 4732SOL    HW125658   4.050   1.425   0.893 -2.0073 -2.0220 -1.8259
 4732SOL    HW225659   4.195   1.420   0.915 -0.0196  1.8496 -1.1039
 4733SOL     OW25660   4.568   4.118   4.823  0.0849  0.6186  0.2724
 4733SOL    HW125661   4.477   4.145   4.813 -0.8974 -2.4826  0.9083
 4733SOL    HW225662   4.588   4.135   4.731 -0.3863  0.4732  0.1441
 4734SOL     OW25663   3.761   1.895  16.775  0.5395  0.3249 -0.2501
 4734SOL    HW125664   3.726   1.807  16.787  0.4925  0.2247 -1.1031
 4734SOL    HW225665   3.810   1.899  16.857  1.1129 -0.7752 -0.5415
 4735SOL     OW25666   0.252   4.642  15.109  0.2712 -0.1657  0.0986
 4735SOL    HW125667   0.243   4.568  15.049 -0.4051 -1.4816  1.8529
 4735SOL    HW225668   0.163   4.639  15.143 -0.1450 -4.3703 -1.3935
 4736SOL     OW25669   2.678   4.680  17.469  0.3255 -0.3693  0.1552
 4736SOL    HW125670   2.636   0.012  17.403  0.5078  2.6325  2.5607
 4736SOL    HW225671   2.645   4.593  17.447  0.1969 -0.0860 -0.7580
 4737SOL     OW25672   0.935   0.499   6.033 -0.9765 -0.2158 -0.0775
 4737SOL    HW125673   1.031   0.502   6.031 -0.9019 -1.9102  1.1343
 4737SOL    HW225674   0.920   0.508   6.127 -2.8322 -0.4418 -0.3439
 4738SOL     OW25675   0.422   0.186  12.267 -0.4950 -0.0860 -0.0047
 4738SOL    HW125676   0.352   0.181  12.332 -0.1816  1.1896  0.4378
 4738SOL    HW225677   0.493   0.205  12.329  0.0212  1.7501 -1.1480
 4739SOL     OW25678   4.510   1.405  11.001 -0.6980 -0.7934  1.0160
 4739SOL    HW125679   4.605   1.418  11.000 -0.8654  0.2721 -0.2757
 4739SOL    HW225680   4.481   1.494  10.984  0.0657 -0.2415  2.6615
 4740SOL     OW25681   3.297   2.474   2.384 -0.5700 -0.7928 -0.1136
 4740SOL    HW125682   3.274   2.486   2.292 -1.9005 -1.4482  0.1401
 4740SOL    HW225683   3.211   2.479   2.425 -0.2243  1.1365  0.3767
 4741SOL     OW25684   1.085   2.215   6.542  0.5494 -0.0219  0.1999
 4741SOL    HW125685   1.080   2.137   6.487 -0.2068 -0.8526  1.4402
 4741SOL    HW225686   1.128   2.185   6.623 -2.6653  1.0213  2.3064
 4742SOL     OW25687   3.693   2.247   2.517  0.0992 -0.1364 -0.4464
 4742SOL    HW125688   3.655   2.316   2.462  0.6518  0.5654  0.0523
 4742SOL    HW225689   3.784   2.278   2.523  0.2667 -0.8433  0.5130
 4743SOL     OW25690   2.185   2.715   2.201  0.7357 -0.2570 -0.2436
 4743SOL    HW125691   2.176   2.746   2.291  0.7824 -2.2237  0.4494
 4743SOL    HW225692   2.183   2.792   2.145  0.6850 -0.0513  0.0425
 4744SOL     OW25693   3.668   2.327   3.632 -0.2532  0.4832  0.8531
 4744SOL    HW125694   3.621   2.315   3.714 -1.5133  1.0687  0.2021
 4744SOL    HW225695   3.706   2.239   3.627 -1.2372  0.2761 -2.9847
 4745SOL     OW25696   1.188   4.150   7.914  0.1966  0.2068  0.4030
 4745SOL    HW125697   1.212   4.060   7.892 -2.3923 -0.7322  1.4591
 4745SOL    HW225698   1.249   4.167   7.986  0.8001  3.3109 -0.8132
 4746SOL     OW25699   1.451   3.123   6.177 -0.3352  0.2343 -0.4226
 4746SOL    HW125700   1.502   3.126   6.257 -0.7165 -3.4733 -0.0419
 4746SOL    HW225701   1.384   3.057   6.198 -2.2099  2.4563  0.6539
 4747SOL     OW25702   2.028   2.465   4.112 -0.0065 -0.0078  0.1758
 4747SOL    HW125703   1.962   2.438   4.177 -1.0545  0.2927 -0.7567
 4747SOL    HW225704   2.058   2.551   4.142  0.8985  0.5268 -2.2738
 4748SOL     OW25705   0.329   0.303   7.255 -0.0081 -0.3714  0.0291
 4748SOL    HW125706   0.270   0.276   7.325 -2.2245  0.9110 -1.3414
 4748SOL    HW225707   0.415   0.270   7.282 -0.2007 -0.9296 -0.0468
 4749SOL     OW25708   2.399   2.574   9.287 -0.8108 -1.0619  0.1351
 4749SOL    HW125709   2.409   2.607   9.376 -0.2859 -3.0147  0.8110
 4749SOL    HW225710   2.331   2.629   9.248 -1.6715 -0.6812  2.2178
 4750SOL     OW25711   4.480   1.525  10.650 -0.2026 -0.3580  0.4096
 4750SOL    HW125712   4.539   1.450  10.660  1.2555  0.9401  1.5081
 4750SOL    HW225713   4.499   1.584  10.723 -0.7632  0.8229 -0.3907
 4751SOL     OW25714   4.250   1.130   0.842 -0.3501  0.0326 -0.5542
 4751SOL    HW125715   4.248   1.226   0.846 -1.9373  0.0766 -2.0790
 4751SOL    HW225716   4.217   1.106   0.755 -0.1613 -0.1936 -0.5625
 4752SOL     OW25717   0.719   0.676  14.799  0.2330 -0.3547 -0.3083
 4752SOL    HW125718   0.786   0.632  14.746  0.6783  0.8691 -0.7732
 4752SOL    HW225719   0.774   0.753  14.813  0.0476 -0.0906 -0.9935
 4753SOL     OW25720   3.240   3.088  10.984  0.3288 -0.4195 -0.0467
 4753SOL    HW125721   3.310   3.065  11.045  0.3127  1.8924  0.8205
 4753SOL    HW225722   3.291   3.094  10.903 -0.6680 -1.9469 -0.8040
 4754SOL     OW25723   1.450   4.178   5.503 -0.4299  0.3125  0.7642
 4754SOL    HW125724   1.493   4.263   5.491 -1.6355  0.6258 -1.3871
 4754SOL    HW225725   1.463   4.147   5.413  2.2468  0.5551  1.0624
 4755SOL     OW25726   3.963   3.060   3.499 -0.8908  0.3328 -0.0206
 4755SOL    HW125727   3.970   2.969   3.526 -0.3647  0.4055  0.0824
 4755SOL    HW225728   4.027   3.098   3.560 -1.2795 -0.8785  1.1470
 4756SOL     OW25729   0.421   4.099   5.472  0.2348  0.2910 -0.4925
 4756SOL    HW125730   0.490   4.160   5.500  0.4027 -0.7079  1.2421
 4756SOL    HW225731   0.458   4.071   5.388  1.3127  0.5145 -0.0903
 4757SOL     OW25732   1.190   2.103   9.353  0.2643 -0.6811 -0.3256
 4757SOL    HW125733   1.261   2.157   9.319  0.0994  0.0765  0.5420
 4757SOL    HW225734   1.230   2.074   9.435  0.1332 -0.3057 -0.1303
 4758SOL     OW25735   4.718   0.408  14.057  0.4732  0.6740 -0.4769
 4758SOL    HW125736   4.698   0.496  14.027  0.7079  0.3333 -1.6129
 4758SOL    HW225737   0.068   0.422  14.117  1.6659  3.0502 -2.4900
 4759SOL     OW25738   1.306   1.278   6.015  0.0789 -0.2965 -0.1258
 4759SOL    HW125739   1.342   1.205   6.065 -0.1257 -1.1136 -1.1738
 4759SOL    HW225740   1.216   1.246   6.013  0.5476 -1.5670 -0.6172
 4760SOL     OW25741   2.985   1.743  15.709  0.4823 -0.0505 -0.0843
 4760SOL    HW125742   3.068   1.784  15.734 -0.4284  2.2444 -0.8872
 4760SOL    HW225743   2.923   1.815  15.711 -0.8679 -1.2038 -0.6347
 4761SOL     OW25744   4.135   1.412   7.823  0.0160  0.1606  0.3883
 4761SOL    HW125745   4.101   1.472   7.889  2.4036  1.5134  0.3946
 4761SOL    HW225746   4.086   1.434   7.744  0.4788  0.6255  0.2321
 4762SOL     OW25747   0.936   2.222   5.055  0.0461  0.2410 -0.1991
 4762SOL    HW125748   1.026   2.233   5.023  0.2612  0.9870  0.6599
 4762SOL    HW225749   0.888   2.256   4.979  1.1162 -0.2986 -1.1225
 4763SOL     OW25750   2.380   2.893   2.389  0.7907 -0.2008 -0.1541
 4763SOL    HW125751   2.332   2.853   2.462 -0.6093 -0.4555 -1.2166
 4763SOL    HW225752   2.461   2.926   2.428  0.1779  1.0796  0.0303
 4764SOL     OW25753   4.053   2.571   3.740  0.5885 -0.0844  0.5620
 4764SOL    HW125754   3.960   2.563   3.716  0.4409  0.4180  0.9486
 4764SOL    HW225755   4.085   2.565   3.651  0.2191 -0.3649  0.4468
 4765SOL     OW25756   1.626   1.766   3.898  0.4135  0.6863  1.0592
 4765SOL    HW125757   1.623   1.699   3.967  1.0405 -0.1103  0.3100
 4765SOL    HW225758   1.705   1.752   3.846  1.1038 -0.5976  2.4514
 4766SOL     OW25759   0.473   2.515   1.409  0.1600  0.0388  0.0236
 4766SOL    HW125760   0.513   2.563   1.481  1.0192 -0.7826  0.0834
 4766SOL    HW225761   0.391   2.562   1.394 -0.2023 -0.7297 -0.3734
 4767SOL     OW25762   3.484   4.593   3.129 -0.1643  0.1566  0.7437
 4767SOL    HW125763   3.528   4.602   3.044  0.8761  0.5806  1.3271
 4767SOL    HW225764   3.516   4.513   3.169  0.4303 -0.6700 -1.3668
 4768SOL     OW25765   3.928   3.246   7.444 -0.0831  0.0278 -0.5234
 4768SOL    HW125766   3.863   3.230   7.512  2.5637 -0.5229  1.8962
 4768SOL    HW225767   4.012   3.224   7.485  0.0034  2.6220  0.7023
 4769SOL     OW25768   1.162   1.177   1.571  0.3240  0.4158 -0.4828
 4769SOL    HW125769   1.096   1.242   1.595  1.4404  1.3632  0.0085
 4769SOL    HW225770   1.169   1.186   1.476 -0.2812  0.3941 -0.5303
 4770SOL     OW25771   3.828   4.220   3.221  0.1328 -0.5300  0.1781
 4770SOL    HW125772   3.839   4.147   3.160  1.3461 -0.3197  0.1433
 4770SOL    HW225773   3.909   4.269   3.210 -1.0980  1.7223  1.2373
 4771SOL     OW25774   2.300   2.443   3.777 -0.2719 -0.3530 -0.3580
 4771SOL    HW125775   2.389   2.410   3.766  0.0761  1.4252 -2.8071
 4771SOL    HW225776   2.307   2.535   3.752  1.1550 -0.7493 -1.4069
 4772SOL     OW25777   0.616   0.038   4.204  0.1817  0.5692 -0.2204
 4772SOL    HW125778   0.634   4.668   4.197 -0.3223  0.3283  1.7834
 4772SOL    HW225779   0.704   0.073   4.210  0.1906  0.9003 -2.2698
 4773SOL     OW25780   3.816   1.398   8.309  0.2437  0.7152  0.3603
 4773SOL    HW125781   3.779   1.420   8.394  0.1562 -0.9513  0.7526
 4773SOL    HW225782   3.754   1.330   8.284  2.1958 -1.2125  0.8284
 4774SOL     OW25783   1.444   4.244  14.312 -0.3738  0.0396 -0.4946
 4774SOL    HW125784   1.422   4.254  14.220 -2.4176  0.3713  0.0394
 4774SOL    HW225785   1.531   4.207  14.300 -0.3384  0.5372 -1.7580
 4775SOL     OW25786   4.457   4.211  13.001 -0.0873 -0.2324  0.9849
 4775SOL    HW125787   4.550   4.211  12.977  0.2606  1.4298  2.2786
 4775SOL    HW225788   4.433   4.122  12.976  0.6419 -0.5162  1.3175
 4776SOL     OW25789   1.990   3.220   6.050 -0.2012 -0.1541  0.1885
 4776SOL    HW125790   1.947   3.305   6.047 -2.0072 -1.1037 -1.1929
 4776SOL    HW225791   1.920   3.169   6.090 -0.2217 -0.4787 -0.2518
 4777SOL     OW25792   1.552   2.244   8.421  0.1950  0.3482 -0.3353
 4777SOL    HW125793   1.631   2.192   8.429  0.0269 -0.3231 -2.9155
 4777SOL    HW225794   1.497   2.216   8.494 -0.9700 -1.2274 -1.8058
 4778SOL     OW25795   2.066   1.661   4.866 -0.2031  0.2875 -0.2601
 4778SOL    HW125796   2.112   1.709   4.935  1.0991 -1.6608  0.2125
 4778SOL    HW225797   1.984   1.653   4.914 -0.9588  1.1176 -1.3981
 4779SOL     OW25798   2.022   2.037   3.167  0.2546 -0.1103 -0.1435
 4779SOL    HW125799   2.005   2.053   3.259  1.8211  3.4787 -0.4939
 4779SOL    HW225800   2.013   2.122   3.124 -1.1012 -0.1941 -0.0293
 4780SOL     OW25801   2.698   1.318   3.020  0.1023  0.1205  0.3072
 4780SOL    HW125802   2.763   1.254   3.047 -0.7674 -1.2396 -0.8152
 4780SOL    HW225803   2.754   1.344   2.947  0.5781 -3.0927 -0.4731
 4781SOL     OW25804   1.214   1.879   5.928 -0.2482  0.7842  0.4405
 4781SOL    HW125805   1.194   1.965   5.967  0.3106  0.8901  0.4968
 4781SOL    HW225806   1.145   1.866   5.863 -1.1150 -0.2780  1.5767
 4782SOL     OW25807   1.515   4.520   8.630  0.3420 -0.1505 -0.9261
 4782SOL    HW125808   1.593   4.477   8.664  0.1576 -0.0860 -0.4171
 4782SOL    HW225809   1.460   4.444   8.613 -0.7197  0.2711  0.5711
 4783SOL     OW25810   0.508   0.225   4.914  0.1308 -0.0372  0.0701
 4783SOL    HW125811   0.428   0.236   4.863 -0.2736  1.1835  0.9612
 4783SOL    HW225812   0.477   0.231   5.004 -0.4827 -0.0988 -0.1374
 4784SOL     OW25813   3.402   2.296   5.396  0.0271  0.2520 -0.3627
 4784SOL    HW125814   3.452   2.249   5.463  2.3994  0.4204 -2.0136
 4784SOL    HW225815   3.365   2.219   5.352 -3.0960  0.6561  1.5322
 4785SOL     OW25816   2.464   2.653   8.887 -0.1474  0.3526 -0.0819
 4785SOL    HW125817   2.507   2.645   8.973 -1.5103 -1.1035  0.4530
 4785SOL    HW225818   2.513   2.725   8.849  0.8278 -0.5645 -0.5606
 4786SOL     OW25819   0.351   0.194   1.285 -0.1750 -0.3138 -0.8244
 4786SOL    HW125820   0.287   0.234   1.343  2.1431  1.6584  0.3867
 4786SOL    HW225821   0.350   0.243   1.203  1.0777 -0.6789 -1.0515
 4787SOL     OW25822   2.214   2.273   4.201 -0.3984 -0.5225  0.2816
 4787SOL    HW125823   2.141   2.319   4.160 -0.6775  0.6205  2.0707
 4787SOL    HW225824   2.210   2.310   4.289  1.6443  0.4897 -0.0458
 4788SOL     OW25825   3.157   1.629   6.928 -0.7465 -0.0888  0.0396
 4788SOL    HW125826   3.178   1.609   7.019  0.5945  3.8281  0.5647
 4788SOL    HW225827   3.144   1.723   6.935  0.0512  0.0206 -0.0122
 4789SOL     OW25828   4.394   3.447   2.728  0.1192  0.4318  0.7106
 4789SOL    HW125829   4.348   3.366   2.709  1.9393 -1.0678  2.7792
 4789SOL    HW225830   4.383   3.503   2.650  2.1168 -0.1547  0.0106
 4790SOL     OW25831   1.034   1.495   2.108  0.0699 -0.6384  0.0750
 4790SOL    HW125832   1.018   1.406   2.139  2.4913 -1.2518 -0.4833
 4790SOL    HW225833   1.003   1.547   2.182 -0.8409 -0.4703 -0.4207
 4791SOL     OW25834   0.414   1.835  12.472 -0.1545 -0.2702  0.0829
 4791SOL    HW125835   0.409   1.892  12.395  0.6180 -0.3897 -0.0536
 4791SOL    HW225836   0.439   1.750  12.437  1.4014  0.4674 -0.5567
 4792SOL     OW25837   0.925   2.438   6.599 -0.4957 -0.2498 -0.0959
 4792SOL    HW125838   0.961   2.511   6.650 -1.5535  0.1902  0.0206
 4792SOL    HW225839   0.991   2.369   6.598  2.0411  2.1361 -0.0273
 4793SOL     OW25840   1.299   2.267   2.534 -0.2083 -0.4333 -0.1977
 4793SOL    HW125841   1.360   2.246   2.463 -1.4037  4.2656 -2.5918
 4793SOL    HW225842   1.352   2.331   2.581 -0.4970 -0.6438  0.4076
 4794SOL     OW25843   0.650   2.295   1.851 -0.0575 -0.2610 -0.5034
 4794SOL    HW125844   0.622   2.243   1.776 -0.4990  0.7340 -1.0219
 4794SOL    HW225845   0.593   2.257   1.918  0.9696 -1.2328 -0.1810
 4795SOL     OW25846   2.834   3.851   5.043 -0.1267 -0.1550  0.8454
 4795SOL    HW125847   2.916   3.829   5.087  1.1801  2.5015 -0.2360
 4795SOL    HW225848   2.835   3.804   4.960 -0.7467  2.8659 -0.9006
 4796SOL     OW25849   3.623   2.255  16.392 -0.4528 -0.0233 -0.4546
 4796SOL    HW125850   3.665   2.191  16.450  1.3928 -1.3785 -3.2840
 4796SOL    HW225851   3.551   2.275  16.451 -1.6183  1.2437 -2.3161
 4797SOL     OW25852   2.077   1.992   0.211  0.2738  0.2436 -0.0469
 4797SOL    HW125853   2.060   2.030   0.298 -2.9607  1.2813 -1.1266
 4797SOL    HW225854   2.087   1.899   0.232  0.5089  0.0222 -1.1893
 4798SOL     OW25855   3.106   3.621  10.398 -0.1117 -0.4646  0.2574
 4798SOL    HW125856   3.013   3.642  10.393  0.1216  1.1113  2.3444
 4798SOL    HW225857   3.114   3.581  10.485  2.0153 -0.4212  0.0894
 4799SOL     OW25858   3.403   1.297  16.021 -0.6236  0.1740 -0.1940
 4799SOL    HW125859   3.450   1.342  16.092 -0.5956  1.3883 -0.9868
 4799SOL    HW225860   3.429   1.207  16.039 -0.3307  0.4422  0.7250
 4800SOL     OW25861   2.515   1.796   6.757  0.5811 -0.3813  0.1460
 4800SOL    HW125862   2.517   1.891   6.742  0.6789 -0.3590  0.3061
 4800SOL    HW225863   2.591   1.760   6.712 -0.7794  0.3042 -2.6955
 4801SOL     OW25864   3.568   2.443   2.391 -0.6250  0.2143  0.3478
 4801SOL    HW125865   3.631   2.488   2.335  0.7789 -1.2859  0.6873
 4801SOL    HW225866   3.490   2.486   2.357 -0.0825  1.2569  0.4073
 4802SOL     OW25867   4.317   1.035   3.435  0.6676  0.3083 -0.3470
 4802SOL    HW125868   4.281   0.952   3.466 -1.1759  1.0221 -0.5821
 4802SOL    HW225869   4.374   1.059   3.508  2.2027  0.0761 -1.4902
 4803SOL     OW25870   2.285   2.259   8.524 -0.5626  0.3721 -0.2081
 4803SOL    HW125871   2.368   2.306   8.531  0.0929 -0.4702 -2.5020
 4803SOL    HW225872   2.251   2.271   8.613  1.3553  1.1640  0.4327
 4804SOL     OW25873   0.619   4.311   5.426  0.7090  0.4873  0.5295
 4804SOL    HW125874   0.694   4.347   5.378  0.6545  1.7524  1.3912
 4804SOL    HW225875   0.552   4.313   5.358  1.0484  2.7661  0.2479
 4805SOL     OW25876   3.760   2.783  16.467  0.6615  0.0362  0.2883
 4805SOL    HW125877   3.727   2.709  16.415  1.2000  0.0324 -0.0448
 4805SOL    HW225878   3.712   2.853  16.423  1.1066  0.8626  1.1166
 4806SOL     OW25879   0.325   2.391   4.400 -0.0729 -0.3611  0.3616
 4806SOL    HW125880   0.237   2.420   4.376 -0.2016 -2.0191 -1.1971
 4806SOL    HW225881   0.364   2.387   4.313  1.0417  0.3180  0.8263
 4807SOL     OW25882   3.435   0.664   9.043  0.4622  0.0968  0.2017
 4807SOL    HW125883   3.343   0.662   9.070  0.9812  0.0227  1.9964
 4807SOL    HW225884   3.437   0.754   9.009 -2.1837 -0.0465 -0.3314
 4808SOL     OW25885   0.940   4.605   6.726 -0.0807  0.2194 -0.1620
 4808SOL    HW125886   0.907   4.694   6.711 -1.7911 -0.4319 -0.1337
 4808SOL    HW225887   1.011   4.635   6.784 -1.9877  1.0665  1.7424
 4809SOL     OW25888   0.329   1.983   6.604  0.5531 -0.2752  0.3605
 4809SOL    HW125889   0.279   2.011   6.681  0.9473  0.7013  0.2721
 4809SOL    HW225890   0.367   2.070   6.587  1.9240 -0.7946  0.7626
 4810SOL     OW25891   1.766   3.562   6.601  0.7058 -0.1133 -0.2791
 4810SOL    HW125892   1.748   3.545   6.509  3.2307  0.9412 -0.9691
 4810SOL    HW225893   1.734   3.474   6.622 -0.0776  0.0499 -0.8161
 4811SOL     OW25894   0.100   3.853   0.897 -0.6859  0.3495 -0.4422
 4811SOL    HW125895   0.117   3.896   0.981  0.7864  1.0531 -1.1102
 4811SOL    HW225896   0.010   3.827   0.917 -1.0203  1.6376 -0.2731
 4812SOL     OW25897   4.650   1.298   8.660 -0.1910  0.0072 -0.0713
 4812SOL    HW125898   4.591   1.222   8.655 -0.1758  0.0880 -1.7227
 4812SOL    HW225899   0.010   1.258   8.686 -0.1177  0.6958  0.7142
 4813SOL     OW25900   3.124   3.448   8.363 -0.9118 -0.1118 -0.0656
 4813SOL    HW125901   3.170   3.369   8.392  0.7759  1.2057  0.7962
 4813SOL    HW225902   3.062   3.473   8.432 -2.8511 -0.9956 -1.4758
 4814SOL     OW25903   0.925   1.611   0.724 -0.0943 -0.0154 -0.0658
 4814SOL    HW125904   0.949   1.519   0.711 -1.0443 -0.2860  0.0424
 4814SOL    HW225905   0.944   1.616   0.818  2.4428 -1.7991 -0.4753
 4815SOL     OW25906   2.775   2.909  10.435 -0.1064  0.3279 -0.3724
 4815SOL    HW125907   2.826   2.973  10.384  1.5117 -0.9160 -0.3251
 4815SOL    HW225908   2.684   2.933  10.419 -0.2019  0.0244 -0.2908
 4816SOL     OW25909   0.187   4.000   8.120  0.1605  0.6814 -0.0837
 4816SOL    HW125910   0.139   4.046   8.188 -0.9995  0.6457 -0.8848
 4816SOL    HW225911   0.278   4.029   8.126  0.8361 -0.7375 -3.1307
 4817SOL     OW25912   3.958   1.518   1.044  0.2885  0.7590 -0.5484
 4817SOL    HW125913   3.876   1.477   1.072 -1.2041  3.6812 -0.6217
 4817SOL    HW225914   3.932   1.610   1.049 -1.7872  0.2001 -1.0090
 4818SOL     OW25915   2.216   0.672   2.907 -0.4065  0.1577  0.7767
 4818SOL    HW125916   2.269   0.731   2.853 -2.3306  0.3379 -0.9462
 4818SOL    HW225917   2.172   0.615   2.844 -1.0397 -0.4040  1.7252
 4819SOL     OW25918   2.591   3.979   7.677  0.0009 -0.5950 -0.2200
 4819SOL    HW125919   2.658   4.018   7.733 -0.4219 -1.3905  0.8235
 4819SOL    HW225920   2.606   3.887   7.695 -1.2380 -0.7776 -0.1094
 4820SOL     OW25921   4.368   3.312   5.766 -0.3156  0.3944 -0.0478
 4820SOL    HW125922   4.344   3.395   5.725 -0.2215  0.9110  0.9284
 4820SOL    HW225923   4.304   3.252   5.728 -2.5107  0.1691  3.9519
 4821SOL     OW25924   0.422   3.512   0.322  0.2860 -0.0815 -0.0173
 4821SOL    HW125925   0.438   3.503   0.228 -0.5539  1.9280 -0.3332
 4821SOL    HW225926   0.327   3.521   0.328  0.2831 -0.3056  0.2798
 4822SOL     OW25927   3.074   0.763   3.662 -0.4062  1.0823  0.6363
 4822SOL    HW125928   3.027   0.823   3.604 -0.9204 -0.5560 -0.6434
 4822SOL    HW225929   3.162   0.787   3.633 -0.8342 -0.1474 -1.6583
 4823SOL     OW25930   3.328   0.215   0.002  0.7938  0.0077  1.0820
 4823SOL    HW125931   3.268   0.188  17.630 -1.5064  0.1037  3.0457
 4823SOL    HW225932   3.409   0.189  17.654  0.2721  1.2338 -0.5450
 4824SOL     OW25933   0.596   3.519   8.920 -0.2745  0.4431  0.0299
 4824SOL    HW125934   0.644   3.438   8.901  0.5355  0.8624  0.2587
 4824SOL    HW225935   0.511   3.478   8.933  0.6435 -0.5543  3.0838
 4825SOL     OW25936   0.084   3.780   4.566  0.4357  0.5634  0.8333
 4825SOL    HW125937   0.110   3.869   4.590  0.9370  0.9650 -1.1737
 4825SOL    HW225938   4.721   3.767   4.604  0.4013  1.1524  0.9583
 4826SOL     OW25939   0.327   0.680   2.612  0.0041 -0.0693  0.7794
 4826SOL    HW125940   0.368   0.735   2.679  0.8066 -1.3034  1.2887
 4826SOL    HW225941   0.389   0.608   2.613  0.0591 -0.0536 -2.3861
 4827SOL     OW25942   3.456   2.260   0.029  0.5646  0.4519 -0.1915
 4827SOL    HW125943   3.489   2.305  17.648  2.0517  0.7081  0.5829
 4827SOL    HW225944   3.430   2.172  17.696 -1.2269  0.5961  0.9588
 4828SOL     OW25945   3.763   3.557  16.386 -0.2362 -0.8044  0.8785
 4828SOL    HW125946   3.732   3.485  16.440  1.0978 -1.3908  0.8869
 4828SOL    HW225947   3.767   3.518  16.299  0.0689  3.4929 -1.0641
 4829SOL     OW25948   1.504   2.017  11.481  0.3177 -0.9556 -0.3493
 4829SOL    HW125949   1.578   2.077  11.477 -0.8117  0.3584 -1.4970
 4829SOL    HW225950   1.479   2.041  11.570  0.0352  1.2727 -1.0310
 4830SOL     OW25951   3.768   1.526  16.145 -0.5510  0.3779  0.2877
 4830SOL    HW125952   3.738   1.435  16.142 -2.0689  0.7916  3.0103
 4830SOL    HW225953   3.766   1.546  16.052  0.6845 -0.5025  0.0652
 4831SOL     OW25954   2.038   2.738   1.590 -0.2050  0.4247 -0.2473
 4831SOL    HW125955   2.023   2.787   1.508 -0.1446 -0.2663 -0.6728
 4831SOL    HW225956   1.981   2.665   1.565  0.5366 -0.7338  1.5320
 4832SOL     OW25957   0.037   4.424  16.027  0.5655  0.0974 -0.1763
 4832SOL    HW125958   0.006   4.415  15.937 -1.5061  0.1757  0.5221
 4832SOL    HW225959   4.691   4.478  16.066 -0.1508 -1.2978  0.4676
 4833SOL     OW25960   3.920   1.362   4.568  0.2254  0.6849 -0.8326
 4833SOL    HW125961   4.000   1.410   4.588  1.2245 -0.3175 -2.4122
 4833SOL    HW225962   3.965   1.279   4.586  0.0113  1.1598  1.9084
 4834SOL     OW25963   1.266   0.640   8.849 -1.0025  0.4800  0.4969
 4834SOL    HW125964   1.265   0.610   8.940  1.3464 -0.2668  0.2633
 4834SOL    HW225965   1.294   0.731   8.859  1.0148  0.1428 -2.1905
 4835SOL     OW25966   0.755   0.263   8.320  0.0263  0.0134 -0.0927
 4835SOL    HW125967   0.820   0.209   8.275  0.4763  0.4687  0.0082
 4835SOL    HW225968   0.697   0.204   8.368  0.9400  0.4762  1.5799
 4836SOL     OW25969   2.391   1.737   2.652 -0.4369 -0.2981 -0.4858
 4836SOL    HW125970   2.314   1.793   2.642  0.5297  0.8542 -1.5277
 4836SOL    HW225971   2.453   1.790   2.601  0.6324 -0.5237  0.5958
 4837SOL     OW25972   4.027   0.322   7.802  0.0858  0.6269  0.1776
 4837SOL    HW125973   4.012   0.331   7.708  0.4598 -1.1425 -0.0548
 4837SOL    HW225974   4.056   0.231   7.810 -1.8437 -0.0020  0.0857
 4838SOL     OW25975   2.400   4.462   1.149 -0.3194  0.2783  0.1650
 4838SOL    HW125976   2.442   4.426   1.227  0.3186  2.2609  0.7353
 4838SOL    HW225977   2.311   4.492   1.171  0.0253  1.2920  0.1783
 4839SOL     OW25978   3.653   0.147  10.959  0.2427 -0.5798 -0.2488
 4839SOL    HW125979   3.716   0.159  10.887  0.5408 -2.1078 -0.2499
 4839SOL    HW225980   3.667   0.227  11.008 -2.7803  0.1259 -0.5637
 4840SOL     OW25981   0.038   4.673   2.218 -0.1874  0.3507  0.0568
 4840SOL    HW125982   0.081   4.597   2.179  0.5252  0.6013  0.3566
 4840SOL    HW225983   0.105   4.704   2.279 -1.8808  2.3138  0.8985
 4841SOL     OW25984   3.296   0.028   4.578 -0.1569 -0.0212  0.5321
 4841SOL    HW125985   3.304   4.714   4.666 -0.8937  0.1339  0.6647
 4841SOL    HW225986   3.206   0.011   4.550 -0.0968  0.4383  0.0724
 4842SOL     OW25987   3.256   2.847  13.190  0.0552 -0.0809 -0.2818
 4842SOL    HW125988   3.339   2.845  13.237 -0.9126 -2.2405  1.2896
 4842SOL    HW225989   3.200   2.866  13.265  1.4294 -0.0114  0.7293
 4843SOL     OW25990   1.177   2.684   5.289  0.1648 -0.4662  0.4088
 4843SOL    HW125991   1.085   2.661   5.301  0.1383  0.0795  1.2014
 4843SOL    HW225992   1.218   2.599   5.275 -0.9965 -0.9571  0.0032
 4844SOL     OW25993   1.802   3.226   7.993  0.0410  0.7384  0.3026
 4844SOL    HW125994   1.803   3.291   7.923  2.3876  2.6758  2.1330
 4844SOL    HW225995   1.724   3.249   8.044 -0.2738  0.1131  0.0968
 4845SOL     OW25996   4.670   3.610   7.905  0.0036 -0.0243  0.1213
 4845SOL    HW125997   4.588   3.644   7.940  1.0583  0.7680  1.8385
 4845SOL    HW225998   4.700   3.689   7.859  1.0359  0.2306  1.2224
 4846SOL     OW25999   2.291   1.113   7.450 -0.5644 -0.3054  0.3854
 4846SOL    HW126000   2.368   1.084   7.500 -1.4673 -1.1406  1.2798
 4846SOL    HW226001   2.331   1.162   7.378 -1.0894  0.5293  0.6487
 4847SOL     OW26002   1.796   4.718  10.817 -0.3358 -0.3291 -0.2055
 4847SOL    HW126003   1.777   0.056  10.888 -2.1034 -0.8347 -0.2248
 4847SOL    HW226004   1.810   4.641  10.872 -4.1296 -1.0550 -0.2207
 4848SOL     OW26005   0.736   3.956   1.843 -0.5534  0.1919 -0.1145
 4848SOL    HW126006   0.694   3.880   1.802  0.0677 -0.2850  0.1383
 4848SOL    HW226007   0.665   3.984   1.901 -2.1757 -1.5343 -1.2514
 4849SOL     OW26008   2.711   2.702   2.198 -0.1592  0.3035 -0.2258
 4849SOL    HW126009   2.651   2.643   2.243 -0.0350 -0.2537 -0.7898
 4849SOL    HW226010   2.738   2.643   2.128 -1.7767  0.8683 -1.3486
 4850SOL     OW26011   2.473   3.206  14.640 -0.2450  0.0983  0.4102
 4850SOL    HW126012   2.457   3.111  14.639  0.2852  0.0258 -1.8033
 4850SOL    HW226013   2.568   3.205  14.645 -0.2027 -0.0206 -0.5082
 4851SOL     OW26014   2.936   0.334   7.129  0.5006  0.7975 -0.2449
 4851SOL    HW126015   3.022   0.297   7.113 -0.6339 -1.3252 -1.4723
 4851SOL    HW226016   2.904   0.303   7.214  4.1946 -1.4476  0.2984
 4852SOL     OW26017   2.570   4.115   2.546  0.2445  0.3152 -0.1888
 4852SOL    HW126018   2.618   4.039   2.578 -1.3951 -0.7395 -0.2723
 4852SOL    HW226019   2.538   4.080   2.463 -0.2998  1.1329 -0.3204
 4853SOL     OW26020   1.827   1.597   9.114  0.1754 -0.4396 -0.4487
 4853SOL    HW126021   1.913   1.639   9.101  0.5975 -0.9681  0.6486
 4853SOL    HW226022   1.847   1.512   9.076  0.5721 -0.3529 -0.4367
 4854SOL     OW26023   0.254   2.046   3.695  0.1339  0.2215  0.5988
 4854SOL    HW126024   0.212   2.079   3.774  0.3937 -1.1044  1.2837
 4854SOL    HW226025   0.205   1.964   3.685 -2.0696  1.5907  0.2240
 4855SOL     OW26026   2.575   4.203   8.799  0.1607  0.1796  0.4200
 4855SOL    HW126027   2.609   4.292   8.802 -2.1209  1.0671  0.1296
 4855SOL    HW226028   2.583   4.180   8.892  0.7210  0.2717  0.3946
 4856SOL     OW26029   4.149   4.530   6.676 -0.0635  0.5747  0.3371
 4856SOL    HW126030   4.186   4.617   6.684  0.5274  0.5204 -1.9502
 4856SOL    HW226031   4.214   4.484   6.729  1.5151  0.4738 -1.6740
 4857SOL     OW26032   3.797   0.785   9.765  0.5160  0.0012  0.5322
 4857SOL    HW126033   3.870   0.744   9.719  0.2587  1.9866 -1.6129
 4857SOL    HW226034   3.729   0.718   9.774  0.7442  0.1237  3.2260
 4858SOL     OW26035   0.566   3.684   5.422  0.4118 -0.4890 -0.2674
 4858SOL    HW126036   0.493   3.647   5.470 -1.3362  3.2801 -0.0701
 4858SOL    HW226037   0.533   3.689   5.332 -0.9470  1.3075  0.3574
 4859SOL     OW26038   2.116   2.478   9.445 -0.5347  0.1384 -0.2581
 4859SOL    HW126039   2.196   2.453   9.492 -0.7068 -1.0455 -0.5700
 4859SOL    HW226040   2.120   2.573   9.449 -1.8722  0.2200 -1.0510
 4860SOL     OW26041   0.434   0.441   7.032 -0.5003 -0.2098  0.4246
 4860SOL    HW126042   0.393   0.378   6.973 -2.1021  1.5101 -0.3130
 4860SOL    HW226043   0.404   0.421   7.120  0.9304 -2.1184  0.4698
 4861SOL     OW26044   4.403   1.249   4.110  0.7898  0.0648  0.0469
 4861SOL    HW126045   4.418   1.344   4.105  0.2286  0.1335 -0.4142
 4861SOL    HW226046   4.323   1.258   4.162 -0.0552  0.1679 -1.2719
 4862SOL     OW26047   1.208   0.048   2.394 -0.4997  0.4382 -0.7070
 4862SOL    HW126048   1.296   0.067   2.430 -1.1639 -0.4088  1.3913
 4862SOL    HW226049   1.168   0.132   2.418  0.2151  0.2320  1.2839
 4863SOL     OW26050   4.422   2.532   0.811 -0.0314  0.4612  0.2233
 4863SOL    HW126051   4.455   2.535   0.721 -1.9506 -0.9014 -0.5350
 4863SOL    HW226052   4.343   2.479   0.800  1.8819 -2.4881  0.8191
 4864SOL     OW26053   1.239   0.819  17.467 -0.4936  0.8703  0.2778
 4864SOL    HW126054   1.158   0.856  17.501  0.5435  1.6387  1.9305
 4864SOL    HW226055   1.306   0.882  17.493  0.0681 -0.3965  1.9338
 4865SOL     OW26056   2.841   3.578   2.803  0.4489  0.1791 -0.1168
 4865SOL    HW126057   2.763   3.597   2.752 -0.1069 -0.5453  0.4654
 4865SOL    HW226058   2.807   3.554   2.889 -1.1093  0.1099 -0.7650
 4866SOL     OW26059   4.131   0.020  12.274  0.2763 -0.1646  0.5277
 4866SOL    HW126060   4.122   0.071  12.355 -0.8475  0.7329 -0.1682
 4866SOL    HW226061   4.062   4.679  12.287  0.8863 -0.7682  0.7576
 4867SOL     OW26062   2.756   4.685  17.117  0.1263 -0.1311  0.7307
 4867SOL    HW126063   2.768   0.027  17.048  1.0738 -1.3176 -0.2453
 4867SOL    HW226064   2.672   4.719  17.147 -0.9602  0.8951 -3.4762
 4868SOL     OW26065   2.782   0.510   6.400  0.3104  0.4575  0.5800
 4868SOL    HW126066   2.870   0.542   6.379 -0.4998  1.0688 -1.8562
 4868SOL    HW226067   2.794   0.488   6.493 -1.2821 -2.1982  0.1469
 4869SOL     OW26068   1.141   0.083   6.023 -0.2902  0.1039 -0.0449
 4869SOL    HW126069   1.072   0.100   6.087  0.5824 -1.3105  1.2833
 4869SOL    HW226070   1.083   0.051   5.954 -0.0878  0.9441 -0.5936
 4870SOL     OW26071   3.034   4.628  15.305  0.2934  0.4546  0.2275
 4870SOL    HW126072   3.124   4.600  15.291 -0.1431 -0.9789  0.2379
 4870SOL    HW226073   2.979   4.552  15.326 -1.3335  0.7696 -2.8105
 4871SOL     OW26074   4.520   0.427   0.821  0.8960 -0.2768  0.3535
 4871SOL    HW126075   4.460   0.373   0.872  0.4140  0.8579  0.9877
 4871SOL    HW226076   4.490   0.513   0.850 -1.9090 -0.0162 -3.2898
 4872SOL     OW26077   2.010   2.817  10.221  0.4555  0.0665  0.0273
 4872SOL    HW126078   2.094   2.775  10.239 -0.7838 -1.2530  2.7306
 4872SOL    HW226079   2.022   2.878  10.294 -0.0030 -1.9721  1.8035
 4873SOL     OW26080   1.769   1.175  17.435 -0.1823 -0.0517  0.1682
 4873SOL    HW126081   1.781   1.208  17.346  1.2374 -0.2953  0.2637
 4873SOL    HW226082   1.788   1.255  17.482 -0.3369  0.0793  0.0087
 4874SOL     OW26083   0.484   2.618   1.100  0.0506 -0.6290  0.7569
 4874SOL    HW126084   0.552   2.553   1.119  0.6425  0.0827  1.0360
 4874SOL    HW226085   0.526   2.687   1.151  0.8300 -0.6283  0.1194
 4875SOL     OW26086   4.095   1.812   8.379  0.2477  0.0718  0.4084
 4875SOL    HW126087   4.174   1.769   8.346  0.4605 -0.2234  1.3085
 4875SOL    HW226088   4.129   1.892   8.420 -1.7827  2.1385 -1.9561
 4876SOL     OW26089   2.872   0.472   9.518  0.2178  0.1940 -0.3725
 4876SOL    HW126090   2.937   0.451   9.585  0.0970 -0.7432 -0.5532
 4876SOL    HW226091   2.792   0.477   9.570  0.1204  1.6564 -0.6581
 4877SOL     OW26092   4.313   1.554   9.373  0.4960 -0.0772  0.0205
 4877SOL    HW126093   4.359   1.471   9.360  1.2039  0.4237 -0.6870
 4877SOL    HW226094   4.222   1.532   9.393  0.1747 -0.7492 -2.1920
 4878SOL     OW26095   4.520   4.546   4.516 -0.0355  0.4559 -0.2061
 4878SOL    HW126096   4.464   4.481   4.474  2.3601 -2.3447  0.9319
 4878SOL    HW226097   4.513   4.615   4.451  0.5088  1.1649  0.4852
 4879SOL     OW26098   1.076   3.922   6.076  0.5179 -0.2929 -0.2178
 4879SOL    HW126099   1.150   3.861   6.078 -0.8168 -1.9046  0.3328
 4879SOL    HW226100   1.115   3.984   6.015 -1.1320  0.6741 -0.2742
 4880SOL     OW26101   4.405   3.706   9.519  0.3408  0.5675 -0.2117
 4880SOL    HW126102   4.429   3.655   9.596 -1.3486  0.5443  0.3011
 4880SOL    HW226103   4.432   3.651   9.446 -0.8050 -0.1741 -0.0703
 4881SOL     OW26104   4.475   3.821   8.758  0.1383 -0.5477 -0.2670
 4881SOL    HW126105   4.493   3.776   8.675  0.7127  2.2981 -1.7085
 4881SOL    HW226106   4.467   3.746   8.816  2.5871 -1.0563 -0.5958
 4882SOL     OW26107   2.399   0.179   4.074 -0.5045  0.2458  0.0371
 4882SOL    HW126108   2.409   0.226   4.157  0.2320  1.3990 -0.7049
 4882SOL    HW226109   2.482   0.133   4.067 -1.2951 -1.5119  2.1006
 4883SOL     OW26110   2.289   0.609   5.025  0.3075  0.3464  0.5095
 4883SOL    HW126111   2.307   0.683   5.083 -2.4813  0.8034  0.8038
 4883SOL    HW226112   2.381   0.592   5.006  0.3722  0.1618  0.9923
 4884SOL     OW26113   3.867   3.291  11.809 -0.2639 -0.2030 -0.2694
 4884SOL    HW126114   3.887   3.348  11.735  0.9004 -1.4288 -0.8945
 4884SOL    HW226115   3.937   3.313  11.870 -0.9302  1.0885  0.0146
 4885SOL     OW26116   4.341   0.384   6.232 -0.3966 -0.9779 -0.1677
 4885SOL    HW126117   4.297   0.442   6.294 -1.7326 -0.0796 -1.9704
 4885SOL    HW226118   4.392   0.328   6.291  0.0034 -2.2322 -1.7227
 4886SOL     OW26119   1.852   3.103   2.841  0.1247  0.0585  0.2008
 4886SOL    HW126120   1.824   3.182   2.888 -2.9948  0.7291 -2.7688
 4886SOL    HW226121   1.811   3.110   2.755 -1.1917  0.4276  0.8674
 4887SOL     OW26122   2.447   2.192  16.139  0.2552  0.6342  0.2481
 4887SOL    HW126123   2.419   2.283  16.134 -1.6152 -0.1573 -3.9833
 4887SOL    HW226124   2.360   2.154  16.151  0.4461  0.4447  1.0227
 4888SOL     OW26125   2.498   0.681   9.557 -0.7049  1.0272  0.1756
 4888SOL    HW126126   2.497   0.736   9.635  0.3113  1.8431 -0.3811
 4888SOL    HW226127   2.536   0.604   9.599 -1.7380 -0.6093 -1.8820
 4889SOL     OW26128   1.358   4.366   7.191 -0.3805 -0.0188 -0.2474
 4889SOL    HW126129   1.347   4.330   7.103 -1.0848  0.5459 -0.3901
 4889SOL    HW226130   1.326   4.289   7.237  0.7018  0.9531  2.1451
 4890SOL     OW26131   4.248   1.128   4.736  0.9421 -0.0377 -0.3154
 4890SOL    HW126132   4.205   1.082   4.808  2.2434  0.2791  0.6620
 4890SOL    HW226133   4.307   1.070   4.688  0.8135  0.5879 -1.2377
 4891SOL     OW26134   2.974   2.974   7.891  0.5887  0.3215  0.1497
 4891SOL    HW126135   3.043   2.952   7.953 -0.9839  0.3843  1.9161
 4891SOL    HW226136   2.924   3.038   7.941  1.5543  0.8636  0.4151
 4892SOL     OW26137   0.453   0.501   8.435 -0.1688 -0.3841  0.0086
 4892SOL    HW126138   0.418   0.572   8.381  0.3736 -1.4751 -1.7675
 4892SOL    HW226139   0.548   0.504   8.425  0.1080  1.1274  2.8764
 4893SOL     OW26140   2.374   3.858  12.542  0.5720 -0.0105  0.0025
 4893SOL    HW126141   2.395   3.788  12.480 -1.0909 -1.0344  0.5979
 4893SOL    HW226142   2.430   3.927  12.507 -0.6937  0.1142 -1.7648
 4894SOL     OW26143   3.818   0.550   5.038  0.3060  0.3479  0.0856
 4894SOL    HW126144   3.859   0.576   4.956  3.4461  1.3658  1.9853
 4894SOL    HW226145   3.724   0.568   5.035  0.4970  1.2704 -0.0779
 4895SOL     OW26146   2.587   3.361   0.289  0.1672  0.1410  0.6022
 4895SOL    HW126147   2.668   3.399   0.257 -0.4338  1.0848  0.1960
 4895SOL    HW226148   2.574   3.311   0.208 -2.4703  0.8404  0.5790
 4896SOL     OW26149   3.626   4.430   6.918 -0.3290 -0.3109  0.0867
 4896SOL    HW126150   3.655   4.381   6.995  1.1532  0.5794  0.0938
 4896SOL    HW226151   3.613   4.511   6.967 -1.0805  1.0657 -2.3770
 4897SOL     OW26152   4.405   2.424   8.198  0.2992  0.6952  0.4769
 4897SOL    HW126153   4.348   2.384   8.133  1.6641  1.3346 -1.1075
 4897SOL    HW226154   4.471   2.356   8.210 -0.5569 -0.2130  0.0226
 4898SOL     OW26155   1.611   2.269   3.683  0.6657 -0.5177 -0.4237
 4898SOL    HW126156   1.667   2.325   3.737 -1.1551  0.0771  0.8475
 4898SOL    HW226157   1.535   2.323   3.660  0.1412 -1.9072 -1.9111
 4899SOL     OW26158   3.642   3.747   5.462 -0.0527 -0.1697  0.0474
 4899SOL    HW126159   3.687   3.831   5.470  1.1691 -0.7346 -0.8878
 4899SOL    HW226160   3.633   3.739   5.367  2.2853  2.4870 -0.3957
 4900SOL     OW26161   3.459   0.469   2.469  0.9102  0.4724  0.6335
 4900SOL    HW126162   3.486   0.479   2.560 -1.5482 -0.4722  1.4876
 4900SOL    HW226163   3.455   0.560   2.438 -2.8272 -0.2771 -1.1351
 4901SOL     OW26164   2.310   0.009  10.323 -0.9597 -0.0867  0.2705
 4901SOL    HW126165   2.304   4.647  10.281 -0.5109 -0.2451  0.5266
 4901SOL    HW226166   2.332   0.072  10.254 -2.7134 -1.2668 -1.3556
 4902SOL     OW26167   2.616   0.946   6.431 -0.3979  0.3763  0.7073
 4902SOL    HW126168   2.652   1.030   6.458  3.4182 -1.0565 -0.0196
 4902SOL    HW226169   2.554   0.922   6.500 -2.2670 -2.6895 -1.9595
 4903SOL     OW26170   0.711   0.248   6.587 -0.3164 -0.3651 -0.2977
 4903SOL    HW126171   0.629   0.295   6.600  0.8754  3.0434 -5.0549
 4903SOL    HW226172   0.752   0.239   6.673 -0.2689  1.6377 -0.1115
 4904SOL     OW26173   2.593   4.034   9.885 -0.1630 -0.0607  0.7164
 4904SOL    HW126174   2.633   4.092   9.950 -1.0071  0.3048  0.9063
 4904SOL    HW226175   2.661   4.030   9.817  0.3740 -1.6603  1.3433
 4905SOL     OW26176   0.370   3.363   1.106  0.0590  0.2034 -0.2449
 4905SOL    HW126177   0.276   3.381   1.109 -0.2890 -1.5928 -0.4460
 4905SOL    HW226178   0.411   3.431   1.052 -0.9830  0.4266 -0.7595
 4906SOL     OW26179   1.180   2.375  16.637  0.1998  0.2684 -0.3444
 4906SOL    HW126180   1.240   2.422  16.578  0.7377  0.4674  0.3682
 4906SOL    HW226181   1.238   2.323  16.693 -1.2664  0.0548  0.9545
 4907SOL     OW26182   2.120   2.993   6.056  0.3017  0.1732  0.3255
 4907SOL    HW126183   2.173   3.033   5.988 -1.0629 -0.5446 -1.1560
 4907SOL    HW226184   2.039   3.045   6.055  0.4056  0.2911 -1.7800
 4908SOL     OW26185   0.310   1.189   4.587 -0.3688 -0.5160  0.2962
 4908SOL    HW126186   0.354   1.223   4.510  0.0030 -1.1973  0.2055
 4908SOL    HW226187   0.227   1.237   4.585  0.3421  0.6072 -2.3992
 4909SOL     OW26188   1.034   2.114   1.088 -0.3199  0.5511  0.2110
 4909SOL    HW126189   1.123   2.110   1.053  0.0334  2.0437  0.9578
 4909SOL    HW226190   1.043   2.100   1.182 -1.5701 -0.5750  0.1674
 4910SOL     OW26191   2.378   1.321   2.975  0.6891  0.0078 -0.1302
 4910SOL    HW126192   2.469   1.291   2.975  0.3537 -1.0224  0.3274
 4910SOL    HW226193   2.344   1.281   2.895  0.0368 -0.1980  0.2459
 4911SOL     OW26194   3.254   0.126   5.396 -0.1652  0.5066 -0.3547
 4911SOL    HW126195   3.204   0.070   5.456 -1.0695 -0.4149 -1.9544
 4911SOL    HW226196   3.314   0.165   5.459 -1.4973 -2.4105  2.7708
 4912SOL     OW26197   4.013   0.505   1.818 -0.0693 -0.5560 -0.8230
 4912SOL    HW126198   4.028   0.486   1.910  2.4793  0.7873 -0.9540
 4912SOL    HW226199   4.087   0.555   1.783 -1.2558 -0.4405 -3.1976
 4913SOL     OW26200   3.406   2.023   8.484 -0.1598 -0.2257 -0.5174
 4913SOL    HW126201   3.478   1.964   8.510  0.0273  0.5006  0.6071
 4913SOL    HW226202   3.406   2.010   8.389 -1.2804  0.0433 -0.5488
 4914SOL     OW26203   2.976   1.300   4.299  0.2188 -0.3120 -0.6803
 4914SOL    HW126204   3.050   1.252   4.262  0.6645  1.8789 -2.6500
 4914SOL    HW226205   3.022   1.371   4.344 -1.6874 -1.0997  2.4214
 4915SOL     OW26206   4.515   2.617   9.063 -0.0413  0.2923  0.5219
 4915SOL    HW126207   4.488   2.594   9.151 -1.8901  0.5016  0.0119
 4915SOL    HW226208   4.566   2.540   9.037  0.6719  0.4341  1.5130
 4916SOL     OW26209   2.556   1.767  13.085  0.2823  0.0358 -0.3328
 4916SOL    HW126210   2.609   1.724  13.152 -0.0973 -1.6231 -1.0926
 4916SOL    HW226211   2.592   1.855  13.076  1.2048 -0.1898  1.1713
 4917SOL     OW26212   4.613   2.820   8.714 -0.6776  0.0557  0.5869
 4917SOL    HW126213   4.613   2.733   8.675  1.6935  0.5195 -0.4384
 4917SOL    HW226214   4.541   2.857   8.662 -0.0324 -0.9835 -1.0377
 4918SOL     OW26215   2.327   0.978   8.406  0.3430 -0.1405  0.0178
 4918SOL    HW126216   2.364   0.978   8.494 -0.8772 -1.7230  0.5383
 4918SOL    HW226217   2.399   0.934   8.361 -1.6162 -2.2405 -1.1129
 4919SOL     OW26218   2.116   3.695   9.965 -0.7093  0.2755 -0.1151
 4919SOL    HW126219   2.069   3.682  10.047 -0.3413  0.2508  0.0911
 4919SOL    HW226220   2.135   3.789   9.955 -1.5904  0.2873 -1.7483
 4920SOL     OW26221   3.639   3.488  17.680  0.4828  0.0332  0.5702
 4920SOL    HW126222   3.694   3.423  17.636  2.5342  1.7275  0.6521
 4920SOL    HW226223   3.694   3.508   0.058 -1.0067 -0.8746  1.9163
 4921SOL     OW26224   2.622   0.997   9.419  0.1608  0.4856 -1.0168
 4921SOL    HW126225   2.692   1.061   9.438  0.0510  0.4939 -0.6287
 4921SOL    HW226226   2.552   1.008   9.484 -0.0339  0.4644 -1.2252
 4922SOL     OW26227   3.297   4.531  10.567 -0.6511  0.2798 -0.4410
 4922SOL    HW126228   3.228   4.492  10.620  0.5796 -2.9480 -1.2140
 4922SOL    HW226229   3.380   4.499  10.602 -1.4922 -1.1729  0.2227
 4923SOL     OW26230   3.693   0.304  10.066  0.2606  0.4761  0.3411
 4923SOL    HW126231   3.620   0.319  10.127 -0.4005 -3.8765  0.6234
 4923SOL    HW226232   3.644   0.311   9.984  0.1349  0.0642  0.3805
 4924SOL     OW26233   1.169   4.307   4.354 -0.9188 -0.0745 -0.4647
 4924SOL    HW126234   1.149   4.400   4.358  1.0275  0.3082  0.2031
 4924SOL    HW226235   1.264   4.315   4.360 -1.0820 -0.5452  2.6762
 4925SOL     OW26236   3.799   4.705   8.926 -0.6020 -0.3413  0.3840
 4925SOL    HW126237   3.713   4.664   8.931 -0.1412 -1.4445 -0.7395
 4925SOL    HW226238   3.813   4.700   8.831 -0.8790  1.3788  0.2506
 4926SOL     OW26239   2.219   2.780   8.254  0.1390  0.4406  0.7087
 4926SOL    HW126240   2.179   2.805   8.337  0.9821  2.2465  0.5678
 4926SOL    HW226241   2.175   2.698   8.234  1.0354 -0.2303  1.5314
 4927SOL     OW26242   3.264   4.564   7.097  0.3496 -0.1365 -0.4625
 4927SOL    HW126243   3.231   4.646   7.060  1.8577  0.2483 -0.9297
 4927SOL    HW226244   3.241   4.492   7.038 -2.6705  0.9238 -0.6157
 4928SOL     OW26245   3.343   0.040  13.668 -0.7625  0.0939  0.6908
 4928SOL    HW126246   3.277   0.101  13.700 -0.2102  1.0156  0.0609
 4928SOL    HW226247   3.352   4.703  13.742 -2.0936 -0.4819  0.3758
 4929SOL     OW26248   2.160   4.411   1.988  0.2983  0.5235 -0.1308
 4929SOL    HW126249   2.236   4.379   2.037 -0.4746  3.8049  3.1608
 4929SOL    HW226250   2.109   4.461   2.051  0.9845 -0.9907  1.6246
 4930SOL     OW26251   0.576   4.426   8.314  0.1836  0.0929  0.1713
 4930SOL    HW126252   0.659   4.378   8.322  1.6975  2.3515 -1.7825
 4930SOL    HW226253   0.555   4.464   8.399 -1.8385  0.8666 -0.6761
 4931SOL     OW26254   2.504   1.502   3.376 -0.2398 -0.0512  0.3154
 4931SOL    HW126255   2.555   1.519   3.297  0.5152  1.0051  1.0309
 4931SOL    HW226256   2.477   1.592   3.394  0.2681  0.2462 -0.3812
 4932SOL     OW26257   4.468   3.857   2.646  0.0069  0.2267  0.6283
 4932SOL    HW126258   4.415   3.852   2.566  1.0826 -0.9966 -0.0105
 4932SOL    HW226259   4.507   3.770   2.650 -0.0455  0.1210 -1.0429
 4933SOL     OW26260   0.329   3.131   2.494  0.1780 -0.0008 -0.1383
 4933SOL    HW126261   0.275   3.141   2.416  1.5535  0.1517 -1.0767
 4933SOL    HW226262   0.327   3.223   2.521  2.1303 -0.2359  0.8624
 4934SOL     OW26263   3.648   1.545  17.555 -0.2131  0.2972  0.6670
 4934SOL    HW126264   3.629   1.466  17.605  1.5782  0.7321  2.0313
 4934SOL    HW226265   3.571   1.596  17.580 -0.3936  0.9378 -1.1721
 4935SOL     OW26266   0.336   0.732  17.559 -0.3048  0.1282 -0.2670
 4935SOL    HW126267   0.418   0.780  17.567 -0.0216 -0.5767  1.0146
 4935SOL    HW226268   0.393   0.658  17.535  0.0083  0.6981 -1.2845
 4936SOL     OW26269   3.282   2.213  17.511 -0.6854 -0.5690  0.7887
 4936SOL    HW126270   3.264   2.125  17.477 -1.7063 -0.7078  1.6766
 4936SOL    HW226271   3.196   2.248  17.534 -0.7271 -0.0543 -0.1645
 4937SOL     OW26272   0.685   3.060  16.146  0.3824 -0.4460 -0.8049
 4937SOL    HW126273   0.675   2.996  16.076 -0.9160  1.3661 -2.2696
 4937SOL    HW226274   0.772   3.035  16.179 -0.1581  2.7497  2.9971
 4938SOL     OW26275   2.803   0.591   7.418  0.0018  0.4990  0.0541
 4938SOL    HW126276   2.822   0.498   7.406  2.3853  1.1805 -1.3611
 4938SOL    HW226277   2.885   0.629   7.386  0.8465 -0.3112  1.2420
 4939SOL     OW26278   1.386   0.131   8.173 -0.1800  0.0997  0.8780
 4939SOL    HW126279   1.426   0.218   8.177 -1.3193  0.6779 -0.6731
 4939SOL    HW226280   1.306   0.145   8.123  0.5793 -1.2525 -0.6899
 4940SOL     OW26281   1.879   3.669  10.879  0.8837  0.0629  0.3132
 4940SOL    HW126282   1.804   3.728  10.883  1.4369  0.5842  2.8059
 4940SOL    HW226283   1.847   3.621  10.802  2.7680 -0.3372 -0.2205
 4941SOL     OW26284   4.088   4.578   3.390  0.4311  0.4087  0.7143
 4941SOL    HW126285   4.131   4.495   3.371 -2.5209 -0.9969  0.2207
 4941SOL    HW226286   4.130   4.598   3.474 -0.2818 -0.1347  1.2036
 4942SOL     OW26287   4.306   0.153  12.121 -0.2681  0.3372 -0.3413
 4942SOL    HW126288   4.386   0.149  12.173  2.0545 -0.0092 -3.8911
 4942SOL    HW226289   4.239   0.114  12.177 -1.2261 -0.1786 -1.8454
 4943SOL     OW26290   0.421   0.184   5.181 -0.5140 -0.5390  0.3737
 4943SOL    HW126291   0.462   0.243   5.244 -3.2929  2.5918 -0.7439
 4943SOL    HW226292   0.421   0.103   5.232 -0.5653 -0.5676  0.3278
 4944SOL     OW26293   1.175   4.352  14.591  0.2459 -0.3198 -0.0763
 4944SOL    HW126294   1.221   4.435  14.579 -0.2081 -0.7407 -4.7949
 4944SOL    HW226295   1.091   4.386  14.619  1.8984  2.6302  1.3166
 4945SOL     OW26296   0.956   3.708  14.504  0.7060 -0.6464 -0.2547
 4945SOL    HW126297   0.873   3.663  14.491  0.3874 -0.1428  0.0514
 4945SOL    HW226298   0.964   3.720  14.410 -0.1939 -1.0987 -0.3850
 4946SOL     OW26299   4.234   1.035   5.591 -0.3295 -0.1716 -0.0850
 4946SOL    HW126300   4.162   1.009   5.533 -0.5137  1.0606 -0.4090
 4946SOL    HW226301   4.254   0.947   5.623  1.0775  0.5796  1.0499
 4947SOL     OW26302   4.280   0.970  17.566  0.1562  0.8773 -0.3073
 4947SOL    HW126303   4.201   0.940  17.612 -0.3423 -0.0214 -1.7641
 4947SOL    HW226304   4.293   0.902  17.500  1.4404  0.5873  0.2314
 4948SOL     OW26305   0.799   0.462   5.650  0.3831 -0.5181  0.2474
 4948SOL    HW126306   0.854   0.520   5.701 -0.2960  1.1626 -0.9320
 4948SOL    HW226307   0.757   0.512   5.580  1.6617 -0.1262 -0.2260
 4949SOL     OW26308   0.022   1.609   6.598 -0.2003  0.5316 -0.0477
 4949SOL    HW126309   0.019   1.642   6.688 -3.6524 -0.7357  0.2941
 4949SOL    HW226310   4.677   1.543   6.595 -0.8270  1.0940  1.8887
 4950SOL     OW26311   2.921   2.179   7.873 -0.1606 -0.2062  0.5384
 4950SOL    HW126312   2.979   2.206   7.944  1.3974 -1.9271 -0.1116
 4950SOL    HW226313   2.835   2.186   7.915 -1.7105  0.9555 -2.7588
 4951SOL     OW26314   2.801   1.643   1.021  0.5078  0.2236 -0.2959
 4951SOL    HW126315   2.885   1.659   0.980 -0.4818 -0.7046 -2.6784
 4951SOL    HW226316   2.802   1.554   1.056  1.5423  0.3605  0.0072
 4952SOL     OW26317   1.498   3.593   8.311 -0.3555  0.0119  0.0290
 4952SOL    HW126318   1.472   3.682   8.334 -1.3453 -0.6330  1.4062
 4952SOL    HW226319   1.424   3.542   8.345  0.9247 -2.5457 -1.0346
 4953SOL     OW26320   2.792   2.893   5.732 -1.0263  0.7791 -0.0120
 4953SOL    HW126321   2.738   2.962   5.691  0.2320  0.9415 -1.4128
 4953SOL    HW226322   2.834   2.953   5.793 -0.9301  0.1328  0.5477
 4954SOL     OW26323   1.258   4.355   7.576 -0.0633  0.6899  0.3396
 4954SOL    HW126324   1.336   4.344   7.523  0.2537 -0.7617  1.1252
 4954SOL    HW226325   1.287   4.370   7.666 -0.6638 -1.2646  0.8629
 4955SOL     OW26326   4.453   1.416   8.335  0.4327 -0.1230 -0.7224
 4955SOL    HW126327   4.548   1.406   8.337  0.6351  1.8255 -0.7727
 4955SOL    HW226328   4.432   1.406   8.428  0.2325 -0.1492 -0.7700
 4956SOL     OW26329   3.855   4.544   6.535 -0.5332 -0.3603 -0.6294
 4956SOL    HW126330   3.912   4.505   6.601 -0.4886 -2.7106 -2.0539
 4956SOL    HW226331   3.806   4.466   6.508 -1.0970  0.2526 -1.3860
 4957SOL     OW26332   2.920   4.329   3.716 -0.7123  0.4496 -0.3156
 4957SOL    HW126333   2.899   4.355   3.627 -0.1530  0.5102 -0.4257
 4957SOL    HW226334   3.014   4.313   3.708 -1.2417 -2.9999  0.1654
 4958SOL     OW26335   1.108   0.094   3.534 -0.2675 -0.0706  0.5211
 4958SOL    HW126336   1.156   0.079   3.615  0.4189 -0.9692 -0.0495
 4958SOL    HW226337   1.056   0.014   3.547 -0.4690  0.3081  2.0077
 4959SOL     OW26338   2.912   4.124  10.913  0.1662 -0.5979 -1.1152
 4959SOL    HW126339   2.873   4.042  10.882 -0.6873 -0.5415 -0.2023
 4959SOL    HW226340   2.853   4.185  10.868 -0.0627 -0.0338 -0.0390
 4960SOL     OW26341   2.493   1.195   6.331 -0.0421  0.0570  0.3199
 4960SOL    HW126342   2.533   1.112   6.304  1.2829  1.3203 -1.5384
 4960SOL    HW226343   2.486   1.245   6.249 -0.6149 -0.5087  0.0227
 4961SOL     OW26344   3.988   4.074   3.804  0.0087  0.0681  0.8137
 4961SOL    HW126345   4.041   4.004   3.766  1.0974  0.1550  2.1686
 4961SOL    HW226346   3.982   4.138   3.733 -2.5833  0.3181  1.2643
 4962SOL     OW26347   4.496   3.865   3.111 -0.5714  0.1728 -0.1189
 4962SOL    HW126348   4.508   3.890   3.019  0.3464 -0.9832 -0.3207
 4962SOL    HW226349   4.560   3.925   3.149  0.0357 -0.3579 -0.3026
 4963SOL     OW26350   4.616   0.174   8.866  0.3138 -0.0922  0.2914
 4963SOL    HW126351   4.596   0.109   8.933  1.8992 -0.3704  0.4993
 4963SOL    HW226352   4.560   0.246   8.893  1.4091  0.3734  1.3107
 4964SOL     OW26353   3.730   2.269  16.066  0.0236  0.7762 -0.0027
 4964SOL    HW126354   3.812   2.315  16.086 -1.0577  2.4744  0.5056
 4964SOL    HW226355   3.713   2.295  15.976  0.7873  0.6563 -0.1781
 4965SOL     OW26356   1.873   2.120  11.306 -0.3344  0.3584  0.1936
 4965SOL    HW126357   1.826   2.121  11.389 -2.4579  0.0877 -1.0186
 4965SOL    HW226358   1.802   2.147  11.248  1.3537 -2.2123 -3.1299
 4966SOL     OW26359   0.005   3.684   4.264  0.2579  0.1130  0.0740
 4966SOL    HW126360   4.721   3.770   4.305  0.4635 -0.0943  0.5480
 4966SOL    HW226361   4.638   3.653   4.260  1.1148 -2.4274  0.6541
 4967SOL     OW26362   4.649   3.578   1.877 -0.4030 -0.5175  0.7302
 4967SOL    HW126363   4.660   3.574   1.972  1.0097 -0.3039  0.5761
 4967SOL    HW226364   4.616   3.493   1.848  0.4474  0.2017 -2.3587
 4968SOL     OW26365   2.933   4.072   5.469  0.0061 -0.3720  0.3795
 4968SOL    HW126366   2.992   3.999   5.484  2.2913  1.0772 -1.5301
 4968SOL    HW226367   2.998   4.142   5.462 -0.3353 -0.0924 -0.0348
 4969SOL     OW26368   2.857   3.258  13.551  0.2846  0.1518 -0.2386
 4969SOL    HW126369   2.804   3.328  13.512  0.6405  0.0367 -0.9379
 4969SOL    HW226370   2.822   3.180  13.508 -0.8023  0.2533  0.4554
 4970SOL     OW26371   1.698   1.709   4.460 -0.1349  0.0640  0.1371
 4970SOL    HW126372   1.794   1.707   4.467 -0.2436 -1.9186  1.1528
 4970SOL    HW226373   1.687   1.804   4.450  0.0197 -0.0042 -0.6488
 4971SOL     OW26374   3.668   3.880  10.212 -0.4717 -0.5542  0.8544
 4971SOL    HW126375   3.729   3.880  10.138 -0.4782  2.2315  0.8713
 4971SOL    HW226376   3.598   3.825  10.177  0.1998  0.4233 -2.0364
 4972SOL     OW26377   0.507   3.597  11.890 -0.9540 -0.0453 -0.1211
 4972SOL    HW126378   0.562   3.654  11.835 -1.5927  2.0069  1.3593
 4972SOL    HW226379   0.571   3.539  11.931 -2.2469 -1.1961  0.2434
 4973SOL     OW26380   2.190   0.782   5.220  0.2022  0.5499 -0.2327
 4973SOL    HW126381   2.156   0.861   5.261 -0.5713  0.4912 -0.7653
 4973SOL    HW226382   2.119   0.756   5.161  0.1117 -0.5207  0.3397
 4974SOL     OW26383   4.144   1.710   3.621 -0.1032  0.6205 -0.0952
 4974SOL    HW126384   4.105   1.758   3.695 -1.2268 -2.0294  1.0189
 4974SOL    HW226385   4.231   1.694   3.657 -0.1662  0.4683 -0.0099
 4975SOL     OW26386   0.018   2.180  11.285  0.8314 -0.1637 -0.0610
 4975SOL    HW126387   4.713   2.270  11.266  2.0989  0.5047  1.1866
 4975SOL    HW226388   4.710   2.178  11.376 -1.0229  0.8012 -0.6723
 4976SOL     OW26389   4.009   4.400   8.442 -0.7369  0.3123  0.7146
 4976SOL    HW126390   3.985   4.310   8.421  1.6202  0.0761 -0.9585
 4976SOL    HW226391   3.937   4.456   8.413 -1.4853 -1.2687 -0.5025
 4977SOL     OW26392   3.986   0.863   5.657 -0.1512 -0.2088  0.2177
 4977SOL    HW126393   3.943   0.792   5.609  1.5300 -0.1044 -1.4196
 4977SOL    HW226394   3.963   0.937   5.602 -1.4524  0.6378  1.8891
 4978SOL     OW26395   1.226   2.928  15.630 -0.2463 -0.0931  0.0904
 4978SOL    HW126396   1.226   2.995  15.698 -0.5953  0.2366 -0.2317
 4978SOL    HW226397   1.275   2.964  15.556 -0.7503 -3.1294 -1.7162
 4979SOL     OW26398   4.627   3.309   7.053 -0.3823  0.2289  0.3313
 4979SOL    HW126399   4.698   3.359   7.095  1.8566 -1.2816 -1.6382
 4979SOL    HW226400   4.605   3.247   7.123  0.2699 -0.6151 -0.2100
 4980SOL     OW26401   3.219   0.032   6.917  0.9910  0.3911 -0.5417
 4980SOL    HW126402   3.175   0.078   6.846  0.1574 -2.6034 -1.9469
 4980SOL    HW226403   3.257   4.682   6.868 -0.5426  0.1315 -1.3260
 4981SOL     OW26404   3.031   3.644   4.864 -0.1687 -0.2174  0.2161
 4981SOL    HW126405   3.070   3.683   4.942  1.0384  0.5096 -0.7514
 4981SOL    HW226406   3.114   3.605   4.836 -0.3791  0.1193 -0.8940
 4982SOL     OW26407   4.592   4.038   7.913  0.2293 -0.1123 -0.3866
 4982SOL    HW126408   4.592   4.132   7.891  1.0713 -0.2487 -0.9836
 4982SOL    HW226409   4.677   3.998   7.897  1.2932  0.5343  3.6945
 4983SOL     OW26410   1.876   0.898   4.552 -0.4280  0.2196 -0.6236
 4983SOL    HW126411   1.794   0.851   4.571 -0.1795  0.5175  1.1278
 4983SOL    HW226412   1.880   0.950   4.632  1.4186 -1.8423  0.6234
 4984SOL     OW26413   0.022   2.578   8.610 -0.3192 -0.0630  0.1215
 4984SOL    HW126414   4.662   2.576   8.563 -0.2188  0.3727 -0.0798
 4984SOL    HW226415   0.086   2.626   8.557  1.2999 -0.1003  2.0386
 4985SOL     OW26416   3.280   4.195   5.779 -0.3418 -0.7690  0.1728
 4985SOL    HW126417   3.318   4.243   5.852  0.5923  2.5703 -2.4777
 4985SOL    HW226418   3.216   4.141   5.825 -1.0481 -0.5806 -0.5802
 4986SOL     OW26419   1.712   4.464   0.771  0.1130  0.1062 -0.5198
 4986SOL    HW126420   1.723   4.542   0.826 -0.7082  1.5987 -2.4884
 4986SOL    HW226421   1.627   4.484   0.732  0.1888 -1.9301 -1.7564
 4987SOL     OW26422   0.061   1.027   7.034 -0.8313 -0.4048  0.2299
 4987SOL    HW126423   4.718   0.960   7.055 -2.2986  1.7215  2.3881
 4987SOL    HW226424   0.049   1.084   7.109 -0.6800  0.4430 -0.3935
 4988SOL     OW26425   3.120   3.454   1.337  0.2498 -0.0338  0.3489
 4988SOL    HW126426   3.084   3.543   1.333 -0.0201 -0.1461  0.3095
 4988SOL    HW226427   3.159   3.436   1.251 -0.5309  0.8807 -0.2075
 4989SOL     OW26428   4.604   0.864   8.212 -0.0747 -0.1041 -0.4084
 4989SOL    HW126429   4.518   0.840   8.176 -0.3819 -1.4030  1.1692
 4989SOL    HW226430   4.597   0.951   8.252  1.1411 -0.0444 -0.3324
 4990SOL     OW26431   4.046   2.927   2.135  0.1443  0.2816  0.3567
 4990SOL    HW126432   3.987   2.974   2.075  0.7199  1.5068  0.7612
 4990SOL    HW226433   4.124   2.979   2.117 -0.8569  1.6292 -0.1582
 4991SOL     OW26434   1.560   0.323   4.907  0.2923 -0.2625  0.3773
 4991SOL    HW126435   1.601   0.305   4.822  2.1901 -2.2691  1.6861
 4991SOL    HW226436   1.503   0.389   4.870 -1.5055 -3.0553 -1.8450
 4992SOL     OW26437   4.288   3.050   4.147 -0.6448 -0.7228 -0.2554
 4992SOL    HW126438   4.277   2.960   4.116  2.8746 -1.5928  1.0205
 4992SOL    HW226439   4.328   3.085   4.067 -0.8122 -0.7890 -0.3674
 4993SOL     OW26440   0.014   1.533   0.196 -0.9434 -0.2433 -0.6699
 4993SOL    HW126441   4.655   1.565   0.230 -0.5508 -0.6383  0.6229
 4993SOL    HW226442   0.001   1.443   0.225  0.2058  0.1290  1.0265
 4994SOL     OW26443   2.084   1.618   7.513  0.1827 -0.4890 -0.3132
 4994SOL    HW126444   2.178   1.616   7.533  0.1971 -1.2483 -0.4504
 4994SOL    HW226445   2.081   1.545   7.451  0.3582  0.5055 -1.4994
 4995SOL     OW26446   4.617   3.376   9.067 -0.2075  0.3883 -0.0178
 4995SOL    HW126447   4.706   3.401   9.044 -0.4849  0.9448 -0.4856
 4995SOL    HW226448   4.608   3.293   9.021 -1.7798  0.4760  0.1078
 4996SOL     OW26449   0.451   0.304   7.771  0.1677 -0.2573  0.0363
 4996SOL    HW126450   0.451   0.381   7.714 -1.2343  0.4518  0.9978
 4996SOL    HW226451   0.542   0.275   7.768  0.5282  0.6060  2.7822
 4997SOL     OW26452   3.525   2.515  15.993 -0.1041 -1.1290 -0.3485
 4997SOL    HW126453   3.497   2.426  15.973  1.3461 -1.8818  1.0272
 4997SOL    HW226454   3.606   2.507  15.944  0.2165  0.5963 -0.1205
 4998SOL     OW26455   1.071   0.384  16.645  0.0883 -0.4741  0.2399
 4998SOL    HW126456   1.046   0.461  16.696  1.0806  0.0741 -0.0936
 4998SOL    HW226457   1.147   0.345  16.689  0.7445  0.0171 -0.4560
 4999SOL     OW26458   3.461   1.770  11.047 -0.6223  0.1817 -0.1408
 4999SOL    HW126459   3.540   1.745  11.094 -1.4423  1.0347  1.6989
 4999SOL    HW226460   3.458   1.862  11.074  0.2492 -0.0283  0.6590
 5000SOL     OW26461   0.636   2.911   6.811  0.3119 -0.8543  0.0777
 5000SOL    HW126462   0.545   2.936   6.792  0.0503  0.1115  2.5810
 5000SOL    HW226463   0.677   2.935   6.728  0.3354 -1.4516 -0.0861
 5001SOL     OW26464   3.657   2.824   5.842 -0.1678  0.3144  0.0151
 5001SOL    HW126465   3.725   2.837   5.908 -0.0548 -3.4589  0.6354
 5001SOL    HW226466   3.642   2.730   5.842  0.2835  0.2501 -1.2475
 5002SOL     OW26467   3.589   2.527   2.054 -0.0688  0.1505  0.1660
 5002SOL    HW126468   3.661   2.537   2.115 -0.1215  0.0004  0.2538
 5002SOL    HW226469   3.546   2.612   2.064 -1.2028 -0.5428  1.2245
 5003SOL     OW26470   1.174   4.384   9.017 -0.2583  0.4247 -0.0164
 5003SOL    HW126471   1.190   4.457   8.957 -2.3985 -0.3230 -1.4892
 5003SOL    HW226472   1.253   4.331   9.015 -2.3483 -2.6683 -0.3752
 5004SOL     OW26473   1.168   1.056   6.633 -0.5219  0.1136  0.0187
 5004SOL    HW126474   1.214   1.091   6.556 -0.9789  0.2098 -0.2140
 5004SOL    HW226475   1.111   1.132   6.643 -0.5065 -0.3614  3.6235
 5005SOL     OW26476   0.025   3.411   6.112  0.2299 -0.2756 -0.0616
 5005SOL    HW126477   0.092   3.425   6.179 -0.0555  0.6169  0.0404
 5005SOL    HW226478   4.686   3.358   6.161  0.2831  0.6822  1.0407
 5006SOL     OW26479   1.625   2.570  10.909  0.2221 -0.0488  0.6393
 5006SOL    HW126480   1.717   2.571  10.936  0.8514 -2.6944 -1.4835
 5006SOL    HW226481   1.608   2.484  10.872 -1.3363  0.9905 -1.1099
 5007SOL     OW26482   2.597   2.160   5.795 -0.2880 -0.3389  0.3752
 5007SOL    HW126483   2.595   2.218   5.871 -0.6776 -0.9088  0.7991
 5007SOL    HW226484   2.597   2.072   5.831  1.2680 -1.6127 -2.7092
 5008SOL     OW26485   3.715   1.396  10.822 -0.5603 -0.6050  0.5225
 5008SOL    HW126486   3.681   1.484  10.807  0.6382 -0.2577 -0.2154
 5008SOL    HW226487   3.630   1.352  10.823 -1.4065  0.9742 -0.5845
 5009SOL     OW26488   3.349   3.916   1.784 -0.1142  0.3445 -0.0148
 5009SOL    HW126489   3.316   3.835   1.823  1.9582 -0.8677 -0.7802
 5009SOL    HW226490   3.444   3.905   1.782 -0.1020  0.5633 -0.6823
 5010SOL     OW26491   2.585   1.625   8.793 -0.1967  0.3026  0.0718
 5010SOL    HW126492   2.637   1.581   8.861  0.4715  1.1151  0.0861
 5010SOL    HW226493   2.570   1.554   8.731 -0.4768  0.4917 -0.0749
 5011SOL     OW26494   0.266   2.703   2.390  0.1248  0.0331 -0.3323
 5011SOL    HW126495   0.185   2.742   2.356  0.2108  0.4122 -0.1033
 5011SOL    HW226496   0.289   2.642   2.320  1.3991  0.2791 -0.1259
 5012SOL     OW26497   4.543   1.104   8.311  0.2297  0.3352 -0.5581
 5012SOL    HW126498   4.560   1.083   8.403 -0.7599 -0.3926 -0.5501
 5012SOL    HW226499   4.543   1.200   8.316  3.0955  0.3449 -0.4800
 5013SOL     OW26500   1.967   3.332   2.621 -0.6190 -0.2931  0.0848
 5013SOL    HW126501   1.990   3.256   2.567  0.1687  0.1871 -0.2547
 5013SOL    HW226502   2.055   3.366   2.638 -1.2273  0.9633  0.7431
 5014SOL     OW26503   1.218   2.380   2.057  0.0689 -0.2981 -0.0042
 5014SOL    HW126504   1.189   2.396   2.147  2.0849  0.3515  0.5199
 5014SOL    HW226505   1.137   2.379   2.006  0.1344  0.4638 -0.1188
 5015SOL     OW26506   2.377   2.443  11.484  0.4893  0.3423 -0.4020
 5015SOL    HW126507   2.342   2.526  11.518  0.5315 -0.5188  1.7717
 5015SOL    HW226508   2.412   2.474  11.401  3.1008 -0.2728  0.4846
 5016SOL     OW26509   3.789   2.924   7.913  0.3232 -0.1073 -0.1672
 5016SOL    HW126510   3.790   3.008   7.869  0.3811 -0.1207 -0.1917
 5016SOL    HW226511   3.870   2.930   7.964  0.1249  1.3024 -0.0202
 5017SOL     OW26512   3.748   1.487   7.472 -0.0491  0.7899 -0.1830
 5017SOL    HW126513   3.661   1.454   7.496  0.9701 -0.5111  1.6693
 5017SOL    HW226514   3.816   1.469   7.537  1.6364 -0.2624 -2.2643
 5018SOL     OW26515   3.037   3.395   3.621  0.1159 -0.0319 -0.0369
 5018SOL    HW126516   3.066   3.461   3.557  1.3320 -1.9265 -1.4731
 5018SOL    HW226517   3.102   3.327   3.600 -0.0809  0.5414 -2.5761
 5019SOL     OW26518   0.811   2.815   5.343  0.1317  0.7235  0.2962
 5019SOL    HW126519   0.866   2.737   5.354  0.4902  0.6218 -2.0593
 5019SOL    HW226520   0.724   2.776   5.354  0.5457 -0.3895 -0.4013
 5020SOL     OW26521   1.846   0.673  11.697  0.2072 -0.0775 -0.1413
 5020SOL    HW126522   1.897   0.636  11.770 -1.1705 -2.0149 -0.1817
 5020SOL    HW226523   1.770   0.619  11.715  0.5299 -0.3991  0.2520
 5021SOL     OW26524   1.480   2.177  17.567 -0.6683 -0.0168  0.1075
 5021SOL    HW126525   1.542   2.151  17.499 -2.0655 -0.3639 -1.0399
 5021SOL    HW226526   1.400   2.180  17.514 -0.3138  1.5241 -0.3545
 5022SOL     OW26527   1.194   1.281   9.525 -0.2765 -0.0706 -0.2466
 5022SOL    HW126528   1.272   1.309   9.477 -0.9392  0.2927 -1.1330
 5022SOL    HW226529   1.191   1.189   9.501 -0.6832 -0.6887  2.2474
 5023SOL     OW26530   0.619   0.438   3.193 -0.2452 -0.1302  0.3558
 5023SOL    HW126531   0.556   0.434   3.265  0.4990 -1.4127  0.9360
 5023SOL    HW226532   0.612   0.529   3.167  1.4481  0.5487  2.3266
 5024SOL     OW26533   1.846   2.251  10.508  0.1010  0.1400  0.1862
 5024SOL    HW126534   1.821   2.252  10.601 -1.1570  0.4273 -0.1482
 5024SOL    HW226535   1.868   2.343  10.496  0.8907  0.1463  1.5770
 5025SOL     OW26536   3.887   0.588  14.131  0.4543 -0.0878  0.1090
 5025SOL    HW126537   3.948   0.518  14.106 -0.5679 -0.7939 -0.3637
 5025SOL    HW226538   3.833   0.604  14.054  1.7683 -2.0382 -1.2154
 5026SOL     OW26539   3.049   2.074   2.521 -0.5175 -0.2574  0.2556
 5026SOL    HW126540   3.000   2.008   2.570 -2.5343  0.5772 -0.6361
 5026SOL    HW226541   3.091   2.016   2.457 -2.7227 -1.5438 -0.0087
 5027SOL     OW26542   3.344   2.494  13.515  0.4576  0.3892 -0.5918
 5027SOL    HW126543   3.373   2.580  13.544 -2.3566  1.2652 -0.3609
 5027SOL    HW226544   3.257   2.495  13.556  2.0063 -1.5690  2.7915
 5028SOL     OW26545   2.602   0.216   1.763 -0.6648 -0.0790 -0.0705
 5028SOL    HW126546   2.557   0.295   1.732  0.4272  0.7177  0.3899
 5028SOL    HW226547   2.597   0.233   1.857 -1.3440 -1.9487  0.2416
 5029SOL     OW26548   0.500   1.762   4.264  0.1286  0.0039 -0.0702
 5029SOL    HW126549   0.437   1.697   4.296  1.0390 -2.2114 -2.7104
 5029SOL    HW226550   0.522   1.717   4.182 -1.0104 -0.6918  0.0034
 5030SOL     OW26551   0.961   1.671   8.365  0.0607 -0.1446  0.0351
 5030SOL    HW126552   1.054   1.668   8.341  0.0486 -0.1601 -0.0090
 5030SOL    HW226553   0.923   1.677   8.277  0.6805  3.6958  0.0119
 5031SOL     OW26554   1.287   2.406   7.225 -0.2210  0.3398  0.0850
 5031SOL    HW126555   1.353   2.448   7.280  0.1688 -0.0619 -0.0727
 5031SOL    HW226556   1.219   2.375   7.284  0.1203  0.8450  0.7447
 5032SOL     OW26557   3.913   3.667   7.852 -0.0417 -0.9024 -0.0773
 5032SOL    HW126558   3.882   3.714   7.930 -2.5901 -1.5689 -0.6918
 5032SOL    HW226559   3.881   3.727   7.784 -1.9409 -0.1295  1.4721
 5033SOL     OW26560   0.552   3.398  16.565 -0.1813  0.2267  0.0378
 5033SOL    HW126561   0.538   3.464  16.498  1.8814  1.5102  0.8974
 5033SOL    HW226562   0.461   3.384  16.594 -0.4544  2.0078  0.0371
 5034SOL     OW26563   2.992   2.004  11.744  0.5282 -0.7019 -0.3534
 5034SOL    HW126564   2.977   1.947  11.819 -2.5361  0.5758 -0.0324
 5034SOL    HW226565   2.999   1.934  11.678  0.5726 -0.6202 -0.4351
 5035SOL     OW26566   0.031   1.954   3.051 -0.8168  0.3670  0.6096
 5035SOL    HW126567   0.108   2.003   3.080  0.9081 -0.9425 -1.8056
 5035SOL    HW226568   0.071   1.892   2.990 -0.1996  2.7813 -1.4488
 5036SOL     OW26569   2.167   0.227  16.085  0.2033  0.2319  0.1969
 5036SOL    HW126570   2.184   0.322  16.088 -0.5382  0.3566  0.4570
 5036SOL    HW226571   2.234   0.196  16.146  1.5186  0.3395 -1.1986
 5037SOL     OW26572   3.154   2.936  14.907  0.1871 -0.1161  0.3647
 5037SOL    HW126573   3.198   3.012  14.946  0.1260 -0.8654  1.8870
 5037SOL    HW226574   3.226   2.898  14.856 -1.6307 -1.8135 -0.9081
 5038SOL     OW26575   3.409   2.502   4.613  0.5197 -0.1172  0.0180
 5038SOL    HW126576   3.427   2.409   4.609 -0.6328 -0.3238 -0.3157
 5038SOL    HW226577   3.330   2.508   4.559  0.1681 -1.9079  0.3383
 5039SOL     OW26578   3.848   2.443   4.825 -0.1356  0.1767  0.3195
 5039SOL    HW126579   3.859   2.457   4.731  1.5624  1.9007  0.7683
 5039SOL    HW226580   3.754   2.441   4.839 -0.0895  0.7611  0.7061
 5040SOL     OW26581   2.426   4.159  11.391 -0.3519  0.4620  0.1162
 5040SOL    HW126582   2.437   4.233  11.451  2.4788  0.0409  0.0974
 5040SOL    HW226583   2.333   4.138  11.392 -0.6291  1.5756 -1.3346
 5041SOL     OW26584   2.856   2.617   9.235  0.8211  0.1521 -0.1690
 5041SOL    HW126585   2.893   2.592   9.320  3.0589  1.5275 -0.7571
 5041SOL    HW226586   2.930   2.584   9.185  0.8203 -0.2611  0.1026
 5042SOL     OW26587   0.761   3.328   5.266  0.5119 -0.4719 -0.2706
 5042SOL    HW126588   0.837   3.326   5.324 -0.1059  0.4605  0.5813
 5042SOL    HW226589   0.771   3.249   5.215  0.0366 -0.1327 -0.8859
 5043SOL     OW26590   2.042   1.839  16.187  0.0108 -0.7710  0.2980
 5043SOL    HW126591   2.089   1.810  16.109 -0.3626 -1.3959  0.3114
 5043SOL    HW226592   1.953   1.843  16.153  0.2207  1.3400 -0.0494
 5044SOL     OW26593   3.832   1.344   0.140  0.4290 -0.6234 -0.4339
 5044SOL    HW126594   3.894   1.298   0.196  2.8119  3.7629  0.5111
 5044SOL    HW226595   3.764   1.286   0.106 -0.5552 -0.1665  0.7355
 5045SOL     OW26596   1.371   0.122  14.149  0.5824 -0.0219 -0.0501
 5045SOL    HW126597   1.356   0.215  14.169  0.1718 -0.7745  3.1593
 5045SOL    HW226598   1.336   0.115  14.060  0.4582  1.0335 -0.0890
 5046SOL     OW26599   4.299   0.005  13.441  0.0914 -0.0232  0.3138
 5046SOL    HW126600   4.248   0.025  13.520  1.3910 -0.3159  1.2238
 5046SOL    HW226601   4.361   0.077  13.431 -0.7577  0.5133 -1.0589
 5047SOL     OW26602   1.695   0.475  11.776  0.0391  0.2010  0.2604
 5047SOL    HW126603   1.650   0.431  11.704  0.1163 -1.4335  1.2243
 5047SOL    HW226604   1.637   0.453  11.849 -3.9233 -3.0671 -3.8225
 5048SOL     OW26605   0.490   0.585   3.949  0.0058 -0.3957  0.3136
 5048SOL    HW126606   0.443   0.635   3.882  0.0324  0.9721  1.3199
 5048SOL    HW226607   0.449   0.500   3.930  1.5498 -1.3583  1.3167
 5049SOL     OW26608   3.071   1.477   6.018 -0.2666 -0.3621  0.0869
 5049SOL    HW126609   3.103   1.390   5.994 -0.0822 -0.2027 -0.2414
 5049SOL    HW226610   3.003   1.489   5.951  0.4092 -4.3393 -1.2904
 5050SOL     OW26611   0.708   4.409  16.295  0.0226  0.5197  0.5896
 5050SOL    HW126612   0.753   4.424  16.378 -1.0027  2.5618  0.7744
 5050SOL    HW226613   0.662   4.327  16.313  0.6088 -0.7038 -3.5085
 5051SOL     OW26614   0.906   1.796  15.437 -0.4430 -0.2362 -0.5406
 5051SOL    HW126615   0.849   1.718  15.435  0.6197 -0.9542 -2.2611
 5051SOL    HW226616   0.845   1.868  15.455  3.3074  2.8513 -0.2732
 5052SOL     OW26617   2.165   1.109   3.982 -0.0962 -0.1505  0.1197
 5052SOL    HW126618   2.190   1.126   4.073 -1.9223 -1.2885  0.8364
 5052SOL    HW226619   2.115   1.190   3.969  0.9391  0.5919  0.7661
 5053SOL     OW26620   0.424   1.420   2.392  0.1319 -0.4020  0.1285
 5053SOL    HW126621   0.414   1.373   2.309  1.2569 -0.7346  0.1777
 5053SOL    HW226622   0.484   1.492   2.369 -0.4635  0.1677  0.3645
 5054SOL     OW26623   2.022   3.269   3.472 -0.1255  0.6750 -0.0278
 5054SOL    HW126624   2.067   3.278   3.388  1.2820 -0.9433  0.5531
 5054SOL    HW226625   2.084   3.325   3.519  2.7965 -3.0399  0.5418
 5055SOL     OW26626   2.429   2.911   5.316 -0.4039  0.7852 -0.1371
 5055SOL    HW126627   2.433   2.987   5.258 -2.1832  0.3763 -0.8242
 5055SOL    HW226628   2.510   2.920   5.365  0.2416  0.9019 -1.2274
 5056SOL     OW26629   3.194   2.563  11.876 -0.0271  0.1592  0.4893
 5056SOL    HW126630   3.275   2.555  11.824  0.0864  0.4757  0.6220
 5056SOL    HW226631   3.222   2.608  11.955 -0.8522 -0.4976  1.1501
 5057SOL     OW26632   2.828   2.765  12.514 -0.3029  0.3723 -0.2637
 5057SOL    HW126633   2.743   2.793  12.547 -0.7526 -0.7502 -0.4764
 5057SOL    HW226634   2.813   2.768  12.419 -0.7474  0.0941 -0.1999
 5058SOL     OW26635   4.488   3.646   8.257  0.2319 -0.4206 -0.1847
 5058SOL    HW126636   4.536   3.715   8.303  1.6393 -2.0228  0.7554
 5058SOL    HW226637   4.469   3.676   8.169 -0.9289 -1.1579 -0.1824
 5059SOL     OW26638   3.268   2.118   5.187  0.1597 -0.2760 -0.4068
 5059SOL    HW126639   3.188   2.170   5.173 -0.4708 -0.9182  0.7436
 5059SOL    HW226640   3.308   2.123   5.101  0.1697 -2.1584 -0.5112
 5060SOL     OW26641   0.430   0.793   5.680  0.2124 -0.5382  0.2738
 5060SOL    HW126642   0.385   0.722   5.726 -2.0142 -0.4168 -1.7508
 5060SOL    HW226643   0.513   0.806   5.727  0.0886  0.6474  0.1558
 5061SOL     OW26644   1.694   1.339   4.228 -0.7092  0.3146  0.1514
 5061SOL    HW126645   1.735   1.288   4.159 -0.2070  0.5170  0.3000
 5061SOL    HW226646   1.765   1.352   4.291 -0.7964 -0.0170  0.3168
 5062SOL     OW26647   2.919   2.183   2.300 -0.1630 -0.4541  0.3893
 5062SOL    HW126648   2.960   2.163   2.385  0.8432 -1.0305 -0.2357
 5062SOL    HW226649   2.826   2.172   2.322 -0.1431 -0.6331  0.3895
 5063SOL     OW26650   2.453   4.615  13.793  0.2330  0.2686 -0.4651
 5063SOL    HW126651   2.435   4.651  13.880 -0.3779 -0.6357 -0.2149
 5063SOL    HW226652   2.472   4.523  13.812  1.7817  0.5816 -0.5706
 5064SOL     OW26653   4.511   1.816   8.026  0.2634 -0.2349  0.0134
 5064SOL    HW126654   4.415   1.814   8.026  0.2420  0.3598 -0.7657
 5064SOL    HW226655   4.519   1.799   8.119  1.3605 -0.9667 -0.2251
 5065SOL     OW26656   1.059   3.472   2.885  0.0562 -0.2221 -0.1037
 5065SOL    HW126657   1.093   3.554   2.847  1.2131 -0.3959  0.5541
 5065SOL    HW226658   1.137   3.426   2.914  1.2384  0.5106 -2.0709
 5066SOL     OW26659   4.456   1.025   7.928 -0.8295 -0.7874  0.3094
 5066SOL    HW126660   4.432   1.113   7.956 -0.7006  0.1686 -2.5996
 5066SOL    HW226661   4.389   1.006   7.862  0.4360  1.9593 -1.7867
 5067SOL     OW26662   0.921   3.476   3.820  0.0986 -0.2390  0.1986
 5067SOL    HW126663   0.884   3.545   3.764  0.5767  0.7369  1.0893
 5067SOL    HW226664   0.923   3.530   3.899 -0.0649  2.3146 -1.5235
 5068SOL     OW26665   2.280   2.969  13.225  0.3958  0.8387  0.0410
 5068SOL    HW126666   2.353   3.026  13.202  0.2706  0.6932 -0.7401
 5068SOL    HW226667   2.320   2.881  13.224  0.6508  0.9549  0.0719
 5069SOL     OW26668   3.359   4.191  13.667  0.4443  0.3890  0.0118
 5069SOL    HW126669   3.269   4.167  13.689  1.0421  0.7778  2.9641
 5069SOL    HW226670   3.386   4.220  13.754  1.1466  1.1780 -0.4708
 5070SOL     OW26671   1.779   0.244   5.661 -0.2696 -0.0198 -0.2319
 5070SOL    HW126672   1.859   0.198   5.684  1.2785  1.3322 -2.9279
 5070SOL    HW226673   1.757   0.208   5.575 -2.0458  1.3721 -0.3698
 5071SOL     OW26674   2.510   1.323   4.420 -0.3813 -0.0030  0.1101
 5071SOL    HW126675   2.557   1.312   4.503  1.4295 -0.0280 -0.9108
 5071SOL    HW226676   2.581   1.325   4.355  0.0466  1.0212  0.6027
 5072SOL     OW26677   1.760   1.488   7.423 -0.1750 -0.0833 -0.2614
 5072SOL    HW126678   1.721   1.564   7.381 -1.4303 -0.7711 -0.3507
 5072SOL    HW226679   1.755   1.436   7.343 -0.7915  0.8568 -0.8171
 5073SOL     OW26680   0.908   4.247  13.775 -0.5292  0.2216 -0.1377
 5073SOL    HW126681   0.880   4.193  13.701  0.0691 -1.6212  0.9783
 5073SOL    HW226682   0.871   4.191  13.843 -0.0081 -1.8795 -1.5804
 5074SOL     OW26683   1.491   2.589   7.333  0.6239 -0.4180 -0.4923
 5074SOL    HW126684   1.556   2.616   7.268 -1.0155  1.0529 -1.5097
 5074SOL    HW226685   1.509   2.655   7.401 -1.0336  0.4272 -0.8756
 5075SOL     OW26686   2.733   0.194   0.216 -0.2872  0.2125 -0.4506
 5075SOL    HW126687   2.769   0.174   0.130  0.6623 -1.4250  0.3285
 5075SOL    HW226688   2.701   0.283   0.199  2.0071  0.8213 -1.5557
 5076SOL     OW26689   4.451   2.192  14.455  0.4511  0.1625  0.1476
 5076SOL    HW126690   4.489   2.251  14.390  0.5626  0.5047  0.5207
 5076SOL    HW226691   4.425   2.259  14.518 -0.2350 -3.8757  4.1128
 5077SOL     OW26692   2.417   1.642   4.930 -0.2140 -0.2957  0.0721
 5077SOL    HW126693   2.342   1.697   4.952  1.0428  1.1740  0.7170
 5077SOL    HW226694   2.438   1.595   5.011  1.1028 -0.7893 -0.5505
 5078SOL     OW26695   1.456   0.235  10.751  0.0539  0.1572  0.4796
 5078SOL    HW126696   1.517   0.274  10.814 -0.1635 -1.4712  1.7004
 5078SOL    HW226697   1.417   0.167  10.806 -0.3588  0.2646  0.3176
 5079SOL     OW26698   0.207   4.311  12.027 -0.0213  0.4057  0.7319
 5079SOL    HW126699   0.235   4.318  11.936 -1.8358  1.3682  0.2277
 5079SOL    HW226700   0.170   4.398  12.043 -0.1337  0.1587  1.7904
 5080SOL     OW26701   2.543   2.154   3.292 -0.5150 -0.5830 -0.4988
 5080SOL    HW126702   2.489   2.194   3.224 -1.4677  1.5127  1.4847
 5080SOL    HW226703   2.477   2.114   3.349  1.0630 -2.0289  0.2943
 5081SOL     OW26704   2.092   2.173   2.194 -0.2716  0.5413 -0.1747
 5081SOL    HW126705   2.063   2.136   2.278 -0.3053 -0.4605 -0.6280
 5081SOL    HW226706   2.037   2.251   2.189 -0.7115  0.2861  0.5743
 5082SOL     OW26707   1.031   3.212   3.804  1.0519 -0.1223 -0.2001
 5082SOL    HW126708   1.020   3.301   3.772  0.3011  0.3319  1.3487
 5082SOL    HW226709   0.943   3.187   3.831  0.0443  2.3311 -1.2272
 5083SOL     OW26710   2.536   1.482   5.111  0.6447  0.0973 -0.4238
 5083SOL    HW126711   2.574   1.485   5.199 -0.1527 -0.3669 -0.0708
 5083SOL    HW226712   2.580   1.411   5.064  0.7172  0.5184 -0.9942
 5084SOL     OW26713   0.004   4.131   2.708  0.2721 -0.2879  0.3814
 5084SOL    HW126714   0.029   4.223   2.698 -0.1940 -0.3099 -0.9721
 5084SOL    HW226715   0.044   4.096   2.629 -0.7613 -1.7014  0.4804
 5085SOL     OW26716   0.400   4.340   6.381 -0.3817  0.3255 -0.3273
 5085SOL    HW126717   0.346   4.416   6.359 -0.9878  0.5873  2.0393
 5085SOL    HW226718   0.416   4.305   6.294 -1.9242 -0.2049 -0.3955
 5086SOL     OW26719   2.679   4.397  16.781 -0.2409  0.0999 -0.1529
 5086SOL    HW126720   2.644   4.308  16.780  1.6357 -0.6364  0.0820
 5086SOL    HW226721   2.690   4.407  16.686 -1.0415 -1.5012 -0.4263
 5087SOL     OW26722   0.616   1.516   6.835  0.1827 -0.3679  1.1539
 5087SOL    HW126723   0.575   1.429   6.835  0.0628 -0.3246 -0.3233
 5087SOL    HW226724   0.636   1.519   6.928  1.9316 -0.4370  0.7707
 5088SOL     OW26725   4.318   1.382   2.767 -0.2139  0.2790  0.1006
 5088SOL    HW126726   4.348   1.324   2.697  1.6959  2.9975 -1.3489
 5088SOL    HW226727   4.228   1.353   2.784 -0.0555  0.7413  1.6870
 5089SOL     OW26728   0.507   1.991   4.429  0.0484  0.5802 -0.1839
 5089SOL    HW126729   0.522   1.908   4.383 -2.9352 -1.2371  2.1712
 5089SOL    HW226730   0.571   1.990   4.500 -0.1232  1.9971 -0.0194
 5090SOL     OW26731   3.377   0.313   3.165  0.2200 -0.2662  0.3317
 5090SOL    HW126732   3.441   0.332   3.097  0.3843 -1.4346  0.1556
 5090SOL    HW226733   3.411   0.229   3.197  0.9698  0.0107  0.2560
 5091SOL     OW26734   3.450   3.376   6.413  0.4970  0.0233  0.1798
 5091SOL    HW126735   3.459   3.349   6.505  3.5667  0.2467 -0.0591
 5091SOL    HW226736   3.530   3.420   6.386  1.3073 -1.5358  0.0442
 5092SOL     OW26737   3.058   4.667   4.446  0.4018 -0.7462  0.0032
 5092SOL    HW126738   3.086   4.575   4.452  1.0326 -0.6481 -1.4700
 5092SOL    HW226739   2.976   4.655   4.399  0.3475 -1.4899  0.2867
 5093SOL     OW26740   3.659   0.897  10.060  0.1853  0.5860 -0.2421
 5093SOL    HW126741   3.742   0.867  10.095  0.5549  3.3262  1.2114
 5093SOL    HW226742   3.608   0.818  10.078 -0.3792  1.0846  0.3632
 5094SOL     OW26743   4.555   3.092   5.832  0.1119 -0.6970  0.3782
 5094SOL    HW126744   4.649   3.079   5.821  0.3389  1.6478 -0.3897
 5094SOL    HW226745   4.542   3.179   5.795 -0.5921 -0.9781 -0.0451
 5095SOL     OW26746   0.913   3.063   9.131 -0.7739  0.2470  0.1969
 5095SOL    HW126747   0.941   3.147   9.095 -0.7456 -0.5747 -1.7412
 5095SOL    HW226748   0.982   3.003   9.102  0.8084  0.9630  2.5503
 5096SOL     OW26749   4.675   3.778  13.479  0.0805 -0.6346  0.8902
 5096SOL    HW126750   4.641   3.868  13.484  0.2293 -0.5588  0.5338
 5096SOL    HW226751   4.613   3.735  13.537 -2.2382 -0.7509 -1.6274
 5097SOL     OW26752   3.501   3.834  14.452  0.8645  0.3150 -0.7736
 5097SOL    HW126753   3.465   3.914  14.415  2.6004  2.3820  1.9209
 5097SOL    HW226754   3.589   3.828  14.414  1.2589 -0.6184  0.2640
 5098SOL     OW26755   2.042   1.676   2.941 -0.1128 -0.1521  0.0821
 5098SOL    HW126756   2.126   1.633   2.954  1.3880  2.2559 -1.5833
 5098SOL    HW226757   2.063   1.746   2.878  0.0408 -0.3505 -0.0869
 5099SOL     OW26758   0.195   1.124   2.553 -0.4818  1.0140 -0.1628
 5099SOL    HW126759   0.274   1.096   2.506  0.1708 -0.9325  2.0620
 5099SOL    HW226760   0.170   1.036   2.582  0.5876  0.4434 -0.9469
 5100SOL     OW26761   1.228   4.230  10.558 -0.4343  0.1220  0.7466
 5100SOL    HW126762   1.299   4.294  10.558  0.9381 -1.3762  0.9283
 5100SOL    HW226763   1.269   4.144  10.543 -0.3522 -0.1481  2.5222
 5101SOL     OW26764   0.438   0.261   2.948 -0.2525  0.0387 -0.0684
 5101SOL    HW126765   0.461   0.320   3.020  0.2595  0.3323 -0.4737
 5101SOL    HW226766   0.488   0.183   2.974 -0.0559  0.3815  0.5965
 5102SOL     OW26767   0.194   1.685  14.675  0.0648 -0.4410 -0.6811
 5102SOL    HW126768   0.173   1.742  14.602 -0.2853  0.7859  0.3716
 5102SOL    HW226769   0.234   1.607  14.637  0.3757 -0.6657  0.0929
 5103SOL     OW26770   4.472   2.185  15.824 -0.1850 -0.2051  0.6606
 5103SOL    HW126771   4.479   2.153  15.914  0.7640  0.0850  0.6943
 5103SOL    HW226772   4.385   2.153  15.802  0.3775 -0.9446 -0.4948
 5104SOL     OW26773   2.806   0.890   0.144 -0.2693 -0.2086 -0.0638
 5104SOL    HW126774   2.822   0.980   0.173 -1.6587  0.2354 -0.6428
 5104SOL    HW226775   2.783   0.907   0.053 -1.0913  1.2495  0.4126
 5105SOL     OW26776   0.855   0.170   4.158 -0.1943  0.5567 -0.3312
 5105SOL    HW126777   0.925   0.179   4.094  1.5335 -0.3816  1.4193
 5105SOL    HW226778   0.893   0.232   4.219  1.6187 -0.0311 -0.8629
 5106SOL     OW26779   0.485   3.959   3.854 -0.2580 -0.4831 -0.1315
 5106SOL    HW126780   0.421   4.004   3.910  1.6076 -0.6303  2.1127
 5106SOL    HW226781   0.460   3.983   3.765 -1.4649 -1.7467 -0.1249
 5107SOL     OW26782   0.941   4.582   8.405  0.2169  0.1698  0.2206
 5107SOL    HW126783   0.922   4.558   8.496  2.2080  0.4190  0.6864
 5107SOL    HW226784   0.938   4.495   8.365 -1.3681 -0.1553  1.0273
 5108SOL     OW26785   2.569   0.577   6.727  0.1807  0.2475 -0.3386
 5108SOL    HW126786   2.548   0.621   6.645  1.0716  0.0204 -0.6922
 5108SOL    HW226787   2.575   0.653   6.785 -0.4145 -1.0890  1.4758
 5109SOL     OW26788   1.879   2.306   4.311  0.0137 -0.2812 -0.0064
 5109SOL    HW126789   1.819   2.374   4.342  1.3993 -0.0609  2.2063
 5109SOL    HW226790   1.827   2.237   4.271  0.0529 -0.8303  0.8991
 5110SOL     OW26791   1.531   3.448   6.901  0.0830  0.0555 -0.6212
 5110SOL    HW126792   1.615   3.483   6.931 -0.8718  0.8659  1.1139
 5110SOL    HW226793   1.484   3.422   6.981  0.9051 -0.3958 -0.2827
 5111SOL     OW26794   2.051   3.300   4.732  0.2306  0.0644 -0.0303
 5111SOL    HW126795   2.026   3.208   4.727  0.0724  0.2368 -2.1678
 5111SOL    HW226796   2.034   3.321   4.640  0.6907 -0.0546 -0.1433
 5112SOL     OW26797   2.582   1.567   6.135 -0.3350 -0.2851  0.6016
 5112SOL    HW126798   2.494   1.603   6.147 -0.4058  0.0751 -1.0185
 5112SOL    HW226799   2.606   1.541   6.224 -0.6793 -1.5829  0.3238
 5113SOL     OW26800   3.893   3.691   4.302  0.0534  0.4707  0.7033
 5113SOL    HW126801   3.883   3.736   4.218  2.6708  2.7467  1.6109
 5113SOL    HW226802   3.867   3.604   4.271  0.2573  0.7011 -0.0994
 5114SOL     OW26803   4.037   1.916   2.325  0.2273 -0.4865  0.7475
 5114SOL    HW126804   4.045   1.913   2.420  2.6449  0.8456  0.6145
 5114SOL    HW226805   4.020   2.006   2.297  1.8239 -0.2097  0.6216
 5115SOL     OW26806   3.352   1.269   9.272 -0.2474  0.0128  0.1753
 5115SOL    HW126807   3.350   1.363   9.289  3.3712  0.3232 -0.9654
 5115SOL    HW226808   3.319   1.270   9.182  1.5679 -0.1292 -0.5040
 5116SOL     OW26809   0.928   2.993   1.537  0.4134 -0.2115 -0.1106
 5116SOL    HW126810   0.903   2.947   1.457 -1.3916  0.8500 -0.1684
 5116SOL    HW226811   0.993   2.934   1.576  2.0366  1.2471 -0.6415
 5117SOL     OW26812   3.427   3.018   3.401  1.0066  0.4594  0.4384
 5117SOL    HW126813   3.450   3.046   3.312 -0.2654 -3.4974 -1.1583
 5117SOL    HW226814   3.506   2.965   3.416  1.2959  0.2881 -1.6034
 5118SOL     OW26815   0.060   3.813  11.022  0.4136  0.2776  0.3490
 5118SOL    HW126816   0.126   3.875  10.991 -2.0343  3.1043  0.7507
 5118SOL    HW226817   0.086   3.795  11.112  0.2074 -0.9224  0.1617
 5119SOL     OW26818   3.166   3.230   2.011  0.1201 -0.0809  0.3604
 5119SOL    HW126819   3.182   3.300   1.947  0.7716 -0.6510 -0.0967
 5119SOL    HW226820   3.160   3.285   2.090 -1.3488 -1.9383  1.5272
 5120SOL     OW26821   1.126   4.313  15.970 -0.6545  0.2033  0.3422
 5120SOL    HW126822   1.063   4.343  16.035  0.0183  0.9700  0.6445
 5120SOL    HW226823   1.073   4.251  15.919 -0.1041  0.8017 -0.9661
 5121SOL     OW26824   2.322   3.752  12.790  0.3108 -0.3742  0.7287
 5121SOL    HW126825   2.297   3.797  12.709 -0.0731  0.1401  1.1384
 5121SOL    HW226826   2.411   3.716  12.783  0.3866 -0.1764  0.6778
 5122SOL     OW26827   0.458   1.949  10.557  0.3300  0.8494 -0.9001
 5122SOL    HW126828   0.416   1.869  10.587 -0.2638  2.3026  2.2050
 5122SOL    HW226829   0.392   2.013  10.585  1.5694  0.8069  2.1714
 5123SOL     OW26830   1.348   3.029  13.720 -0.2908  0.3813  0.6109
 5123SOL    HW126831   1.382   3.073  13.798  1.2102  0.1203  0.1035
 5123SOL    HW226832   1.270   3.076  13.692  1.4180  2.5730 -0.4389
 5124SOL     OW26833   1.528   1.820  10.859  0.4676  0.4050 -0.4616
 5124SOL    HW126834   1.549   1.745  10.803 -0.2469 -0.7231  0.8024
 5124SOL    HW226835   1.607   1.835  10.911  0.3724  2.3980 -0.8838
 5125SOL     OW26836   4.117   2.113   8.246  0.1114 -0.6607 -0.0360
 5125SOL    HW126837   4.153   2.087   8.331  0.5451 -1.8349 -0.5749
 5125SOL    HW226838   4.188   2.067   8.200  0.9567  2.6678 -2.0742
 5126SOL     OW26839   2.134   3.572   9.230 -0.0993 -0.2819  0.2155
 5126SOL    HW126840   2.058   3.564   9.172 -0.4194 -0.4526  0.6613
 5126SOL    HW226841   2.195   3.510   9.190 -1.2622 -0.5122 -1.2051
 5127SOL     OW26842   2.464   0.590   8.596  0.1704 -0.5828  0.0251
 5127SOL    HW126843   2.469   0.510   8.647  1.9602 -1.4409 -1.4722
 5127SOL    HW226844   2.388   0.583   8.538 -0.8561  1.2140  1.1523
 5128SOL     OW26845   0.098   2.067   5.531  0.4426 -0.3709  0.2740
 5128SOL    HW126846   0.033   2.118   5.482 -2.4741 -1.3054  3.2453
 5128SOL    HW226847   0.158   2.024   5.469 -0.0617 -0.6895  0.0028
 5129SOL     OW26848   1.774   0.828   3.360  0.7117 -0.0393  0.7453
 5129SOL    HW126849   1.699   0.795   3.309  0.2437  0.4879  1.0891
 5129SOL    HW226850   1.788   0.901   3.300 -0.6503 -0.6666 -0.3562
 5130SOL     OW26851   0.942   3.264   7.295  0.8470  0.3894  0.0641
 5130SOL    HW126852   0.890   3.283   7.217 -0.0598  0.8603  0.7879
 5130SOL    HW226853   1.031   3.279   7.264  0.5847  0.7825 -0.5096
 5131SOL     OW26854   2.855   0.906   3.039  0.0527  0.7451  0.5767
 5131SOL    HW126855   2.822   0.876   3.124  1.5038  1.8895  1.5492
 5131SOL    HW226856   2.928   0.844   3.034  0.5630  1.4828 -1.1749
 5132SOL     OW26857   4.616   0.782   6.094 -0.0788  0.4618  0.2953
 5132SOL    HW126858   4.656   0.862   6.058  0.1155 -0.1944 -0.9498
 5132SOL    HW226859   4.640   0.722   6.024 -2.2322  2.0128 -1.7966
 5133SOL     OW26860   0.573   0.939  12.775  0.0368  0.2430 -0.3055
 5133SOL    HW126861   0.518   0.951  12.852  0.1242  1.9602 -0.5042
 5133SOL    HW226862   0.515   0.888  12.718  0.7603  0.0341 -0.8515
 5134SOL     OW26863   3.789   4.196   7.437  0.1795 -0.1458  0.1366
 5134SOL    HW126864   3.761   4.105   7.435  0.1253 -0.1359  0.4818
 5134SOL    HW226865   3.764   4.214   7.527 -2.8312 -1.4281 -0.4640
 5135SOL     OW26866   3.401   1.790   7.294  0.1093 -0.8043 -0.4268
 5135SOL    HW126867   3.370   1.880   7.306 -0.8572 -0.7632 -3.1090
 5135SOL    HW226868   3.471   1.788   7.359  0.8526  1.7692 -1.1537
 5136SOL     OW26869   1.567   2.332   6.860 -0.1319 -0.3473  0.1639
 5136SOL    HW126870   1.507   2.288   6.919 -2.2368  0.0938 -1.6636
 5136SOL    HW226871   1.512   2.364   6.789 -0.5770 -1.0035  0.2139
 5137SOL     OW26872   3.079   2.537  13.565  0.1727 -0.2364 -0.0552
 5137SOL    HW126873   2.996   2.574  13.596 -0.1722  0.3648 -1.6570
 5137SOL    HW226874   3.055   2.523  13.473  1.5285  3.3544 -0.9625
 5138SOL     OW26875   3.632   4.130   5.431  0.2957  0.3324 -0.1346
 5138SOL    HW126876   3.646   4.187   5.355  0.0598 -0.3302 -0.6758
 5138SOL    HW226877   3.702   4.069   5.409  0.1155 -0.4081  1.3970
 5139SOL     OW26878   2.741   3.818   3.884 -0.2104 -0.1999 -0.2032
 5139SOL    HW126879   2.823   3.776   3.857 -0.4495 -1.5890  1.1974
 5139SOL    HW226880   2.697   3.736   3.909 -1.1346  0.2584 -0.3372
 5140SOL     OW26881   0.304   3.716   8.885  0.2740 -0.4338 -0.5191
 5140SOL    HW126882   0.341   3.804   8.884 -1.6876  0.3993  0.7123
 5140SOL    HW226883   0.354   3.688   8.961 -2.1154  0.3029  1.3189
 5141SOL     OW26884   1.764   3.989   4.426  0.0190 -0.4802 -0.0557
 5141SOL    HW126885   1.813   3.959   4.350  2.0826  0.3336  0.9492
 5141SOL    HW226886   1.780   3.916   4.486 -0.8939 -1.0539 -0.5114
 5142SOL     OW26887   3.259   0.857   4.392 -0.0417 -0.7417  0.5466
 5142SOL    HW126888   3.338   0.853   4.339 -0.4153 -0.2750 -0.0444
 5142SOL    HW226889   3.247   0.952   4.397 -0.8588 -0.7584 -0.9625
 5143SOL     OW26890   1.443   2.277  15.814  0.0780 -0.8042 -0.5575
 5143SOL    HW126891   1.443   2.273  15.719 -0.4461 -3.6371 -0.4357
 5143SOL    HW226892   1.429   2.183  15.823  0.4357 -0.8441 -0.4356
 5144SOL     OW26893   3.977   3.754   2.816  0.3058 -0.4216  0.8803
 5144SOL    HW126894   3.974   3.715   2.729  0.4499  2.1982 -0.3028
 5144SOL    HW226895   4.038   3.698   2.863  0.7519  1.0009  2.0012
 5145SOL     OW26896   3.597   1.564   4.118 -0.0467 -0.2748 -0.3775
 5145SOL    HW126897   3.637   1.504   4.181 -0.1546  0.0278 -0.0246
 5145SOL    HW226898   3.595   1.648   4.163 -0.0176  1.2623 -3.2218
 5146SOL     OW26899   0.411   1.879   8.020  0.2100  0.4555  0.7801
 5146SOL    HW126900   0.477   1.948   8.009  0.7101  0.1515  1.8446
 5146SOL    HW226901   0.330   1.927   8.038  1.5295  2.4298  1.4954
 5147SOL     OW26902   4.421   4.702  17.444 -0.5873  0.4710  0.4032
 5147SOL    HW126903   4.411   4.607  17.455  2.1623  0.2537  1.0478
 5147SOL    HW226904   4.392   4.717  17.354  1.7101 -0.5346 -0.5145
 5148SOL     OW26905   4.103   1.535  10.101 -0.1341  0.0135  0.1526
 5148SOL    HW126906   4.115   1.440  10.110  2.1069  0.5746  3.0650
 5148SOL    HW226907   4.192   1.569  10.096  0.2211 -0.7550  1.2903
 5149SOL     OW26908   2.369   2.775  15.968 -0.0122  0.1560 -0.3533
 5149SOL    HW126909   2.416   2.750  15.889  0.2689  1.2725 -0.5464
 5149SOL    HW226910   2.303   2.836  15.935 -1.0909 -0.4257  0.7364
 5150SOL     OW26911   1.268   2.984   6.463  0.6451  0.1067 -0.0568
 5150SOL    HW126912   1.354   2.966   6.500  1.2111  2.8479 -0.0559
 5150SOL    HW226913   1.206   2.964   6.533  0.3661  1.3004  0.0354
 5151SOL     OW26914   4.017   4.479  15.452 -0.2501  0.4420 -0.5083
 5151SOL    HW126915   3.957   4.507  15.522 -1.0069  0.6166 -1.2315
 5151SOL    HW226916   4.103   4.484  15.495  0.2397  0.7593 -1.5264
 5152SOL     OW26917   3.525   3.447  16.737  0.3442  0.2526 -0.7773
 5152SOL    HW126918   3.536   3.540  16.757 -2.1509  0.8524 -2.2100
 5152SOL    HW226919   3.486   3.457  16.650 -0.5805 -1.9950 -0.6262
 5153SOL     OW26920   1.902   3.361   2.050 -0.0062  0.3464 -0.1422
 5153SOL    HW126921   1.948   3.444   2.066 -0.9749  1.1283 -1.4196
 5153SOL    HW226922   1.816   3.390   2.081  0.7978 -0.6472  3.0683
 5154SOL     OW26923   3.216   1.478  17.673  0.2512 -0.4255  0.3021
 5154SOL    HW126924   3.290   1.417  17.671  0.6624  0.0520  0.8240
 5154SOL    HW226925   3.181   1.476   0.065  1.0634  1.0031  0.6506
 5155SOL     OW26926   2.550   2.265   6.478 -0.3618 -0.4713  0.3307
 5155SOL    HW126927   2.521   2.174   6.486  0.2294 -0.6905 -0.0000
 5155SOL    HW226928   2.471   2.315   6.459  0.6077  1.4197  1.2118
 5156SOL     OW26929   1.386   4.051   6.206 -0.2027 -0.0859 -0.7625
 5156SOL    HW126930   1.339   3.993   6.147 -0.8198 -0.2989 -0.0603
 5156SOL    HW226931   1.305   4.084   6.244  1.1577  1.8571  0.4810
 5157SOL     OW26932   2.785   2.073  14.046 -0.4459 -0.1716 -0.2780
 5157SOL    HW126933   2.726   2.055  13.973 -2.2466 -0.9601  1.3943
 5157SOL    HW226934   2.733   2.022  14.108 -2.2268  0.6132 -1.1193
 5158SOL     OW26935   0.192   1.814   4.121 -0.0206 -0.5791 -0.0789
 5158SOL    HW126936   0.239   1.891   4.089 -0.5133 -0.0307  0.5333
 5158SOL    HW226937   0.100   1.822   4.094 -0.4666  1.1789  1.9416
 5159SOL     OW26938   3.691   2.264   2.148  0.7168 -0.1703  0.3053
 5159SOL    HW126939   3.620   2.200   2.139  1.7455 -1.2596  0.0452
 5159SOL    HW226940   3.649   2.339   2.106  0.5475  0.2017  1.1311
 5160SOL     OW26941   4.181   3.493  11.767 -0.1438  0.4623  0.0668
 5160SOL    HW126942   4.200   3.408  11.807 -0.4740 -0.7369 -2.3206
 5160SOL    HW226943   4.158   3.538  11.848 -0.6486  0.2966  0.0159
 5161SOL     OW26944   0.063   0.983  11.874 -0.0290  0.0855  0.3845
 5161SOL    HW126945   0.032   1.023  11.793  1.7238 -1.2652 -0.9724
 5161SOL    HW226946   0.005   1.013  11.944  1.1283 -0.3753  1.5448
 5162SOL     OW26947   3.925   0.655   7.496 -0.0536 -0.1937  0.2895
 5162SOL    HW126948   3.833   0.638   7.474 -1.1277  3.7759  1.6066
 5162SOL    HW226949   3.922   0.746   7.526 -0.1098 -0.0369 -0.1906
 5163SOL     OW26950   2.986   2.963   3.489 -0.3959  0.4601  1.1116
 5163SOL    HW126951   3.066   2.957   3.541  0.9295 -1.4992 -1.1395
 5163SOL    HW226952   2.923   2.908   3.534  0.0002 -0.1136  0.9583
 5164SOL     OW26953   1.404   1.970  15.233  0.1948 -0.6721  0.1672
 5164SOL    HW126954   1.407   1.875  15.220  0.7492 -0.9844  2.6654
 5164SOL    HW226955   1.483   1.999  15.187 -1.0517  2.1688 -0.1516
 5165SOL     OW26956   1.501   4.366   7.864  0.1747  0.4702  0.4024
 5165SOL    HW126957   1.587   4.397   7.891  1.2869 -1.8580 -0.4893
 5165SOL    HW226958   1.503   4.283   7.912 -0.0206  0.0557 -0.3005
 5166SOL     OW26959   3.971   2.369  11.433 -0.4246  0.0904  0.3669
 5166SOL    HW126960   4.001   2.458  11.413 -0.7229  0.4014  1.2959
 5166SOL    HW226961   4.034   2.307  11.396 -0.7508  0.6361 -1.1372
 5167SOL     OW26962   1.899   0.183   6.086 -0.0190  0.0712 -0.0684
 5167SOL    HW126963   1.860   0.178   5.999 -0.1698  2.5370 -0.1610
 5167SOL    HW226964   1.865   0.106   6.130  0.7316  0.5312  1.3166
 5168SOL     OW26965   3.510   0.563   7.826 -0.1198 -0.4502  0.3595
 5168SOL    HW126966   3.428   0.605   7.798  1.4420  0.9262 -2.1315
 5168SOL    HW226967   3.555   0.631   7.876 -0.0073  0.9754 -1.6709
 5169SOL     OW26968   1.121   0.807   1.318 -0.5084 -0.4106  0.7163
 5169SOL    HW126969   1.114   0.712   1.308 -2.2852  0.0523 -2.6881
 5169SOL    HW226970   1.212   0.821   1.292 -1.1906 -2.4235 -2.6668
 5170SOL     OW26971   0.617   2.246   2.913  0.1716  0.1741  0.3663
 5170SOL    HW126972   0.709   2.219   2.920  0.3981  1.6388  3.1765
 5170SOL    HW226973   0.589   2.233   3.004  1.2691 -2.2673  0.3643
 5171SOL     OW26974   1.266   0.364  13.116 -0.2633  0.5171 -0.2636
 5171SOL    HW126975   1.219   0.328  13.042 -1.2304 -2.4707  1.7985
 5171SOL    HW226976   1.275   0.284  13.168  1.8492 -0.7891 -2.6850
 5172SOL     OW26977   1.883   2.525   1.491  0.3905 -0.2448  0.6920
 5172SOL    HW126978   1.796   2.560   1.473  1.1946  2.7559  2.5683
 5172SOL    HW226979   1.865   2.433   1.472 -1.0890  0.0060  0.8691
 5173SOL     OW26980   0.159   2.320   8.573 -0.0746 -0.2516 -0.2559
 5173SOL    HW126981   0.214   2.394   8.546 -0.4710  0.0489 -0.2402
 5173SOL    HW226982   0.096   2.362   8.633 -0.2186 -0.3470 -0.3405
 5174SOL     OW26983   1.315   0.175  11.517  0.0783 -0.2412 -0.1310
 5174SOL    HW126984   1.266   0.159  11.436  1.3161 -0.3575 -0.8504
 5174SOL    HW226985   1.271   0.254  11.546  2.3244 -1.0639  5.5198
 5175SOL     OW26986   1.031   1.430   5.784 -0.5588 -0.3491  0.1014
 5175SOL    HW126987   0.964   1.482   5.828  1.4702  3.2525 -1.0657
 5175SOL    HW226988   0.993   1.415   5.698 -0.6675 -1.3752  0.3268
 5176SOL     OW26989   3.485   1.279  10.858  0.3144  0.1475  0.2205
 5176SOL    HW126990   3.419   1.224  10.816 -0.4405  0.9853  0.3052
 5176SOL    HW226991   3.428   1.338  10.907  1.5610  0.2709  1.5411
 5177SOL     OW26992   2.966   2.053   4.166 -0.2995 -0.2120  0.2125
 5177SOL    HW126993   2.974   2.113   4.092 -1.0734 -0.7742 -0.3277
 5177SOL    HW226994   3.048   2.067   4.213  1.4534  0.0826 -2.9483
 5178SOL     OW26995   0.096   0.500   6.857  0.0443 -0.1353  0.2461
 5178SOL    HW126996   0.154   0.426   6.876  0.1488 -0.4805 -1.5075
 5178SOL    HW226997   0.135   0.524   6.773  0.7994  2.1360  1.2452
 5179SOL     OW26998   3.203   3.598  11.263 -0.2068 -0.1950  0.8654
 5179SOL    HW126999   3.185   3.525  11.321  0.1206  0.0282  1.2527
 5179SOL    HW227000   3.232   3.554  11.183 -0.0846 -0.8607  1.2826
 5180SOL     OW27001   0.294   3.016   7.436  0.2842  0.0256 -0.2239
 5180SOL    HW127002   0.326   2.928   7.456 -0.4943  0.4673  2.9649
 5180SOL    HW227003   0.249   2.990   7.356 -1.7379  0.4800  0.7667
 5181SOL     OW27004   2.000   1.826   8.317 -0.1400  0.5542  0.4128
 5181SOL    HW127005   1.998   1.883   8.240 -0.7198  2.4434  1.8304
 5181SOL    HW227006   1.965   1.747   8.275 -1.7514  1.2696  0.4180
 5182SOL     OW27007   4.445   2.333   1.917 -0.0218  0.0884 -0.4420
 5182SOL    HW127008   4.383   2.263   1.940  1.6795 -0.9961  0.8363
 5182SOL    HW227009   4.408   2.352   1.831 -1.6556  0.4512  0.3415
 5183SOL     OW27010   3.752   4.585   8.408 -0.0515  0.1388  0.0532
 5183SOL    HW127011   3.696   4.555   8.337 -2.1365 -1.3442  2.3449
 5183SOL    HW227012   3.688   4.633   8.461 -0.4854 -0.6275  0.2107
 5184SOL     OW27013   1.507   2.795   5.072 -0.0800  0.5198  0.1784
 5184SOL    HW127014   1.437   2.827   5.129 -1.1536  1.2898 -1.5876
 5184SOL    HW227015   1.561   2.872   5.057  0.7128 -0.4465 -1.8620
 5185SOL     OW27016   0.917   2.622   5.652 -0.0136 -0.3193  0.1460
 5185SOL    HW127017   0.875   2.596   5.734 -1.3297 -4.3194 -1.7686
 5185SOL    HW227018   0.958   2.702   5.684  0.4970  0.6822 -3.0147
 5186SOL     OW27019   3.595   1.556   2.029  0.6069 -0.6259  0.4617
 5186SOL    HW127020   3.565   1.643   2.056 -2.1240 -1.2578 -0.5111
 5186SOL    HW227021   3.525   1.535   1.968  1.0969 -0.3398 -0.2061
 5187SOL     OW27022   4.600   3.048   7.831 -0.4820 -0.5214 -0.7658
 5187SOL    HW127023   4.574   3.104   7.904 -0.7666 -1.2397 -0.3119
 5187SOL    HW227024   4.559   2.963   7.849  2.2988 -1.1633  2.4704
 5188SOL     OW27025   2.052   1.637  14.013 -0.0661  0.8308 -0.0613
 5188SOL    HW127026   2.091   1.566  13.961 -1.3636  0.5956 -0.7138
 5188SOL    HW227027   1.984   1.662  13.951 -0.4666 -1.7099 -0.6335
 5189SOL     OW27028   3.525   2.763   7.458 -0.1156 -0.4743 -0.4027
 5189SOL    HW127029   3.602   2.755   7.402  1.0529  0.7628  1.0641
 5189SOL    HW227030   3.556   2.796   7.542 -1.5452 -0.4727  0.1201
 5190SOL     OW27031   3.015   1.007   6.556 -0.4143  0.0095 -0.2236
 5190SOL    HW127032   3.074   0.932   6.563 -1.1689 -0.3760  1.9515
 5190SOL    HW227033   3.000   1.023   6.649  1.9164 -1.6197  0.4041
 5191SOL     OW27034   2.116   3.522   6.986  0.0022  0.1035  0.4364
 5191SOL    HW127035   2.034   3.496   7.030 -1.2793  1.6550 -1.0488
 5191SOL    HW227036   2.144   3.443   6.941  1.5075  0.6179  0.4911
 5192SOL     OW27037   4.669   3.633  10.022  0.1049  0.4426 -0.3760
 5192SOL    HW127038   4.695   3.640  10.114  0.6549  0.1016 -0.5028
 5192SOL    HW227039   4.702   3.547   9.994  0.3860 -0.1276  1.7020
 5193SOL     OW27040   0.389   1.035   2.342  0.4699 -0.2752  0.3928
 5193SOL    HW127041   0.418   0.945   2.329  0.2771 -0.4127  0.9194
 5193SOL    HW227042   0.469   1.077   2.310  1.0549 -0.7485  1.2290
 5194SOL     OW27043   2.639   1.897  14.207 -0.1855  0.4857 -0.5989
 5194SOL    HW127044   2.583   1.820  14.198  0.3352  0.3639 -2.7648
 5194SOL    HW227045   2.644   1.917  14.301  0.5468  0.7267 -0.6898
 5195SOL     OW27046   1.537   2.813   7.519  0.5523 -0.1170  0.4226
 5195SOL    HW127047   1.540   2.790   7.612 -1.4642  1.2745  0.8454
 5195SOL    HW227048   1.621   2.859   7.516 -0.4417  1.7267  0.7728
 5196SOL     OW27049   4.441   3.529  17.512 -0.5602 -0.3424  0.0116
 5196SOL    HW127050   4.450   3.552  17.420 -0.1734  0.4006  0.2358
 5196SOL    HW227051   4.420   3.436  17.501 -1.4011 -0.0741 -0.6277
 5197SOL     OW27052   0.272   1.364   6.474  0.4309 -0.5028 -0.3581
 5197SOL    HW127053   0.190   1.315   6.485 -0.2425  0.2061 -2.2834
 5197SOL    HW227054   0.244   1.439   6.525  0.9472 -1.8310  1.8919
 5198SOL     OW27055   3.789   2.797   3.085  0.4993 -0.6682 -0.0180
 5198SOL    HW127056   3.752   2.722   3.039 -1.5741  0.7288 -0.5980
 5198SOL    HW227057   3.717   2.801   3.148 -0.6010 -1.1348 -1.2409
 5199SOL     OW27058   3.329   4.105   4.831  0.0567  0.5441 -0.0562
 5199SOL    HW127059   3.384   4.041   4.783  1.4674  1.7266 -0.0070
 5199SOL    HW227060   3.380   4.184   4.811  0.1371  0.3020 -0.8455
 5200SOL     OW27061   0.034   0.084  12.456 -1.0515 -0.7081  0.4920
 5200SOL    HW127062   0.119   0.122  12.480  0.1440 -2.5236 -0.8420
 5200SOL    HW227063   0.022   0.015  12.520 -0.0696 -1.6851 -0.3766
 5201SOL     OW27064   3.575   3.703  17.521  0.6674  0.2319  0.5405
 5201SOL    HW127065   3.561   3.765  17.592 -0.7367 -0.1750  0.6250
 5201SOL    HW227066   3.623   3.634  17.565  1.5386  0.4962  0.0096
 5202SOL     OW27067   0.063   4.000  10.661  0.0944 -0.0207  0.7505
 5202SOL    HW127068   4.704   4.002  10.613  0.2743 -1.7866  0.3490
 5202SOL    HW227069   0.123   4.032  10.594 -1.3937  0.3997 -0.3790
 5203SOL     OW27070   1.330   0.829   4.230 -0.0494 -0.2392  0.0458
 5203SOL    HW127071   1.396   0.772   4.269  0.8210  0.1503 -0.8581
 5203SOL    HW227072   1.373   0.914   4.234 -1.4664  0.5167 -0.7183
 5204SOL     OW27073   2.298   1.156   4.527  0.2090  1.3156 -0.3894
 5204SOL    HW127074   2.384   1.190   4.502  1.2249  0.4600  1.9634
 5204SOL    HW227075   2.322   1.064   4.525  1.4773  1.7104 -2.8920
 5205SOL     OW27076   4.042   1.152   6.711  0.4004  0.2713  0.2974
 5205SOL    HW127077   4.029   1.069   6.757 -4.7096  1.0604  0.2874
 5205SOL    HW227078   4.134   1.169   6.731  0.7845 -2.7759  1.2218
 5206SOL     OW27079   0.447   3.397   3.898  0.5822 -0.5502 -0.2224
 5206SOL    HW127080   0.489   3.437   3.822 -0.5187  1.3842  0.1737
 5206SOL    HW227081   0.515   3.346   3.942 -0.0594  0.9440  2.5398
 5207SOL     OW27082   1.207   1.310  13.464  0.5831 -0.4829  0.0846
 5207SOL    HW127083   1.208   1.239  13.399  0.8640  0.9314 -1.4427
 5207SOL    HW227084   1.246   1.268  13.541 -1.2234 -1.5728  0.4215
 5208SOL     OW27085   0.038   0.679  14.006  0.0750 -0.0147 -0.2394
 5208SOL    HW127086   0.004   0.754  14.055  1.6234  0.4474  0.1461
 5208SOL    HW227087   0.118   0.722  13.974 -0.1101  0.7348  0.3058
 5209SOL     OW27088   3.246   3.088   7.346 -0.1441 -0.3238 -0.3236
 5209SOL    HW127089   3.283   3.135   7.421 -0.9852 -1.5848  0.8787
 5209SOL    HW227090   3.246   3.001   7.385  0.2389 -0.0708  0.2578
 5210SOL     OW27091   3.567   2.416  14.506 -0.6632 -0.2731 -0.8002
 5210SOL    HW127092   3.619   2.496  14.512 -2.6128  1.1055 -2.2738
 5210SOL    HW227093   3.616   2.373  14.436  2.1363  0.2460  0.8613
 5211SOL     OW27094   2.340   3.535   8.064 -0.3270 -0.1513  0.1473
 5211SOL    HW127095   2.265   3.478   8.075  0.5407 -0.3200  5.2739
 5211SOL    HW227096   2.315   3.582   7.985 -0.3651  1.2823  0.9954
 5212SOL     OW27097   3.219   1.602   2.513 -0.0718 -0.2502  0.1252
 5212SOL    HW127098   3.257   1.683   2.547  2.4345 -0.2865 -2.5813
 5212SOL    HW227099   3.278   1.561   2.450  2.0153  0.6057  1.5233
 5213SOL     OW27100   0.153   2.520   6.189 -0.2082 -1.0027 -0.2243
 5213SOL    HW127101   0.171   2.590   6.126 -0.9857 -0.3482  0.2831
 5213SOL    HW227102   0.190   2.450   6.135 -1.0235 -0.2112 -1.8105
 5214SOL     OW27103   0.204   3.058   4.214 -0.3449 -0.3996  0.2589
 5214SOL    HW127104   0.240   3.005   4.143  1.5331  1.7688 -0.3956
 5214SOL    HW227105   0.275   3.120   4.233  0.2896 -0.6324 -1.3747
 5215SOL     OW27106   0.238   1.707   0.690 -0.1726 -0.6179 -0.0342
 5215SOL    HW127107   0.191   1.630   0.723  0.6689 -1.1789 -0.1169
 5215SOL    HW227108   0.282   1.666   0.616  2.4593  2.2084 -0.0062
 5216SOL     OW27109   4.306   1.214   6.796  0.7914 -0.1869  0.1853
 5216SOL    HW127110   4.388   1.166   6.786 -0.5245 -1.9715 -2.0026
 5216SOL    HW227111   4.289   1.201   6.889 -1.8617 -3.1000 -0.7047
 5217SOL     OW27112   3.239   1.116   8.841  0.4227  0.0944 -0.4144
 5217SOL    HW127113   3.275   1.175   8.774  0.0644 -1.0015 -1.5781
 5217SOL    HW227114   3.201   1.169   8.911  2.7796  2.3650 -0.8196
 5218SOL     OW27115   0.350   1.224   4.301  0.0444  0.8100 -0.2142
 5218SOL    HW127116   0.391   1.200   4.218 -0.3030  2.5300 -0.8686
 5218SOL    HW227117   0.272   1.263   4.262 -0.6606 -0.6654 -0.3075
 5219SOL     OW27118   2.031   1.596   5.785  0.0108 -0.0915 -0.1029
 5219SOL    HW127119   2.087   1.586   5.708  0.7095  0.1942  0.3696
 5219SOL    HW227120   1.944   1.567   5.758 -0.7780  4.3670 -2.3833
 5220SOL     OW27121   4.616   1.872  13.478 -0.4271  0.0684  0.0308
 5220SOL    HW127122   4.642   1.954  13.519  3.5088 -0.1326 -2.0824
 5220SOL    HW227123   4.521   1.879  13.470 -0.3812  0.2366 -0.3323
 5221SOL     OW27124   0.867   3.832   4.589 -0.6502 -0.2230 -0.2870
 5221SOL    HW127125   0.835   3.911   4.632  2.0994  1.2874 -0.9975
 5221SOL    HW227126   0.834   3.780   4.662 -2.2022  0.6148 -0.3936
 5222SOL     OW27127   0.022   2.142  11.002  0.7404 -0.5117 -0.1976
 5222SOL    HW127128   0.010   2.221  10.950 -1.3852 -0.5794  0.1699
 5222SOL    HW227129   0.063   2.172  11.082 -1.4234 -2.2346  1.5802
 5223SOL     OW27130   4.549   2.159   3.197  0.8296 -0.4464  0.0449
 5223SOL    HW127131   4.533   2.107   3.118  0.0531  0.4153 -0.3742
 5223SOL    HW227132   4.591   2.237   3.162  2.4449 -0.3062  2.2614
 5224SOL     OW27133   4.134   3.616   5.761  0.1015  0.9210  0.2884
 5224SOL    HW127134   4.087   3.696   5.736 -1.3406  0.8888  2.9361
 5224SOL    HW227135   4.126   3.572   5.676 -3.4785  1.6183  0.2840
 5225SOL     OW27136   2.287   0.979   9.315  0.0541 -0.8756 -0.6878
 5225SOL    HW127137   2.309   0.983   9.408  1.1750 -0.6120 -0.9640
 5225SOL    HW227138   2.226   1.052   9.305  0.8735 -0.1512 -0.3983
 5226SOL     OW27139   1.205   2.755   7.672 -0.3963 -0.3491 -0.0320
 5226SOL    HW127140   1.247   2.811   7.738 -1.7033  1.3031 -0.5973
 5226SOL    HW227141   1.201   2.813   7.595 -0.1332  1.1603  1.0916
 5227SOL     OW27142   2.882   3.825  14.187 -0.2447 -0.0069 -0.1650
 5227SOL    HW127143   2.849   3.810  14.276 -0.6866  0.3032 -0.2719
 5227SOL    HW227144   2.937   3.902  14.201 -2.0526  1.1539  0.5806
 5228SOL     OW27145   0.980   1.879   0.873 -0.1041  0.0225 -0.2506
 5228SOL    HW127146   0.957   1.966   0.904 -2.9726 -0.0810 -2.0818
 5228SOL    HW227147   0.889   1.847   0.872 -0.3096  0.6449 -1.3617
 5229SOL     OW27148   2.888   0.963   9.161  0.2422 -0.5618  0.1822
 5229SOL    HW127149   2.974   0.929   9.183  1.1279  1.9330  0.6144
 5229SOL    HW227150   2.897   0.988   9.069 -1.9094 -0.2249  0.0556
 5230SOL     OW27151   0.089   3.321   6.528 -0.1607 -0.6711 -0.1509
 5230SOL    HW127152   0.045   3.237   6.514 -0.9536 -0.1038 -1.1254
 5230SOL    HW227153   0.134   3.299   6.609 -1.2408 -0.5953  0.4689
 5231SOL     OW27154   1.963   1.350   8.995 -0.0497  0.3386  0.2176
 5231SOL    HW127155   2.041   1.375   9.043  0.8424 -0.5146 -0.7846
 5231SOL    HW227156   2.007   1.312   8.919 -0.3188  1.7366 -0.6413
 5232SOL     OW27157   2.402   1.190   3.234  0.0615 -0.0797 -0.5565
 5232SOL    HW127158   2.381   1.260   3.172  1.1828 -0.3859 -1.2866
 5232SOL    HW227159   2.493   1.170   3.210  0.1854 -0.5983  0.3816
 5233SOL     OW27160   3.267   1.595   8.692 -0.2588  0.3931  0.4257
 5233SOL    HW127161   3.275   1.500   8.702 -1.4475  0.3136  0.5410
 5233SOL    HW227162   3.217   1.601   8.611  0.7087  0.4216 -0.1688
 5234SOL     OW27163   2.853   4.509  11.090 -0.0665 -0.2907  0.2408
 5234SOL    HW127164   2.822   4.518  11.000  0.5607 -2.1273 -0.1516
 5234SOL    HW227165   2.939   4.467  11.083 -0.1392 -0.1282 -1.6511
 5235SOL     OW27166   3.108   3.583   3.417  0.1498 -0.1745 -0.0788
 5235SOL    HW127167   3.182   3.640   3.436 -0.0325 -0.5823  1.8247
 5235SOL    HW227168   3.122   3.553   3.327  0.1155  1.0055 -0.4813
 5236SOL     OW27169   4.070   3.172   7.170 -0.3002  0.0637  0.3623
 5236SOL    HW127170   4.164   3.157   7.173 -0.5350 -0.9600  3.0172
 5236SOL    HW227171   4.049   3.243   7.231 -0.5727 -1.8705  2.5323
 5237SOL     OW27172   4.117   1.644   7.277 -0.4269 -0.2618 -0.6813
 5237SOL    HW127173   4.064   1.722   7.260  2.4705  1.2171 -2.7324
 5237SOL    HW227174   4.203   1.679   7.298 -0.4811  0.0660 -1.0123
 5238SOL     OW27175   0.337   4.529   0.014  0.5887  0.0957  0.0580
 5238SOL    HW127176   0.328   4.487  17.625  2.1436 -1.1503  0.4992
 5238SOL    HW227177   0.389   4.463   0.061 -1.1130 -0.8853  0.5937
 5239SOL     OW27178   0.614   3.159   4.837 -0.3744 -0.2476  0.2124
 5239SOL    HW127179   0.682   3.204   4.888 -0.8338  0.7101 -0.0317
 5239SOL    HW227180   0.569   3.235   4.801 -0.9233 -0.3289  0.7344
 5240SOL     OW27181   4.593   4.140  10.030  0.0425 -0.4619 -0.1157
 5240SOL    HW127182   4.626   4.063  10.076 -0.2409  0.3912  1.4874
 5240SOL    HW227183   4.621   4.124   9.940  1.7841  2.6624 -0.1186
 5241SOL     OW27184   3.285   0.080  15.867 -0.3976 -0.0513  0.8657
 5241SOL    HW127185   3.362   0.078  15.925 -1.3723  0.4047  2.1660
 5241SOL    HW227186   3.233   0.012  15.909  1.4294 -2.8130 -1.2968
 5242SOL     OW27187   3.485   3.436   4.540  0.4197 -0.4510  0.3277
 5242SOL    HW127188   3.417   3.390   4.489  0.1167  1.3869 -0.9120
 5242SOL    HW227189   3.516   3.506   4.483 -0.1395 -1.2665 -1.0038
 5243SOL     OW27190   1.535   3.586   3.862  0.2813 -0.2241  0.3776
 5243SOL    HW127191   1.554   3.620   3.949  2.2012  3.4705 -1.5024
 5243SOL    HW227192   1.521   3.493   3.884 -1.7126  0.4533  2.0059
 5244SOL     OW27193   0.064   0.639   8.209 -0.8064  0.0369 -0.6802
 5244SOL    HW127194   0.016   0.557   8.203 -0.8940  0.1562 -1.7282
 5244SOL    HW227195   4.721   0.707   8.213  0.5843  1.5150 -2.2204
 5245SOL     OW27196   2.479   3.410   1.718 -0.4552 -0.1579  0.5980
 5245SOL    HW127197   2.532   3.331   1.709 -0.1921 -0.2906  3.3706
 5245SOL    HW227198   2.447   3.427   1.629 -0.8836 -2.8664  0.2400
 5246SOL     OW27199   0.187   0.994  13.927 -0.2885 -0.3725 -0.0497
 5246SOL    HW127200   0.145   0.999  13.841  0.5240  1.2216 -0.3480
 5246SOL    HW227201   0.240   0.914  13.929  1.2505  0.6384 -0.7590
 5247SOL     OW27202   1.209   0.203  13.354  0.0860  0.8731  0.1536
 5247SOL    HW127203   1.209   0.159  13.439  0.1428 -0.1668 -0.3774
 5247SOL    HW227204   1.183   0.293  13.375 -0.0845  1.0339 -0.7611
 5248SOL     OW27205   0.809   2.352  11.816  0.2389  0.6922  0.2329
 5248SOL    HW127206   0.881   2.295  11.789 -0.9316 -1.1359  0.9581
 5248SOL    HW227207   0.731   2.308  11.781  2.0342 -0.7227 -1.9623
 5249SOL     OW27208   3.558   2.257   4.275  0.4122  0.0360 -0.3310
 5249SOL    HW127209   3.619   2.238   4.204  0.9994  0.7137 -0.0124
 5249SOL    HW227210   3.590   2.347   4.284 -3.3000  1.3837 -0.7162
 5250SOL     OW27211   0.654   0.339  16.396  0.2566 -0.8220  0.2827
 5250SOL    HW127212   0.671   0.370  16.307  1.5230 -0.8607  0.5136
 5250SOL    HW227213   0.738   0.311  16.431  1.0005 -0.8296 -1.5107
 5251SOL     OW27214   1.491   1.270   5.791  0.0005 -0.5384 -0.0177
 5251SOL    HW127215   1.445   1.282   5.874 -0.7214 -1.0561 -0.3373
 5251SOL    HW227216   1.556   1.201   5.804  1.5334  1.1042  0.9024
 5252SOL     OW27217   4.235   1.162   9.163  0.3475  0.0517 -0.0813
 5252SOL    HW127218   4.157   1.218   9.155  1.6579  1.7142 -1.1460
 5252SOL    HW227219   4.223   1.122   9.249  1.3095  0.0569  0.0544
 5253SOL     OW27220   0.613   4.574  12.337 -0.0719  0.2471 -0.1768
 5253SOL    HW127221   0.684   4.637  12.319  1.3341 -1.0350  0.9064
 5253SOL    HW227222   0.662   4.493  12.325  1.2699  0.9867  0.2540
 5254SOL     OW27223   0.786   0.569   8.612  0.0973  0.3125  0.6597
 5254SOL    HW127224   0.861   0.554   8.671  0.0355  0.5712  0.8063
 5254SOL    HW227225   0.705   0.588   8.659  0.3824  1.1305  0.8293
 5255SOL     OW27226   4.348   0.035   3.520 -0.0687  0.2389 -0.4561
 5255SOL    HW127227   4.401   4.680   3.514  0.8513  0.9611 -1.6765
 5255SOL    HW227228   4.418   0.098   3.535  0.6663 -0.2747 -1.7050
 5256SOL     OW27229   3.989   2.968   4.286  0.0131 -0.4008  0.0232
 5256SOL    HW127230   4.052   2.899   4.265 -1.4747 -1.6687 -0.3331
 5256SOL    HW227231   4.044   3.046   4.288 -1.4849  0.5919  1.9176
 5257SOL     OW27232   2.525   4.567   2.891  0.4291 -0.9838  0.2201
 5257SOL    HW127233   2.612   4.558   2.930  0.2696  2.1823  1.2383
 5257SOL    HW227234   2.551   4.581   2.800  0.9863 -1.4837  0.3016
 5258SOL     OW27235   2.277   3.733   7.043 -0.1225 -0.2584  0.3549
 5258SOL    HW127236   2.206   3.669   7.040  0.6088 -1.0221 -0.6666
 5258SOL    HW227237   2.316   3.699   7.123  1.4248 -1.0214 -0.7266
 5259SOL     OW27238   0.000   1.805  14.891  0.1497  0.0951 -0.3435
 5259SOL    HW127239   0.079   1.804  14.837 -1.2876 -1.6907 -2.4215
 5259SOL    HW227240   0.014   1.892  14.929 -0.3637  0.4036 -0.8637
 5260SOL     OW27241   1.115   3.063  12.759 -0.0188  0.2514  0.1478
 5260SOL    HW127242   1.165   3.033  12.835  1.2291 -0.1063 -0.8124
 5260SOL    HW227243   1.134   2.997  12.692 -1.1822 -1.2953  1.3616
 5261SOL     OW27244   1.298   2.634   2.305  0.1081  0.4115 -0.5491
 5261SOL    HW127245   1.220   2.580   2.319  0.2838  0.2033 -0.3654
 5261SOL    HW227246   1.361   2.572   2.343 -1.2969 -1.0427 -0.6049
 5262SOL     OW27247   4.452   3.112   3.900 -0.1736  0.0506  0.2053
 5262SOL    HW127248   4.378   3.106   3.840  0.1104  4.0130 -0.5384
 5262SOL    HW227249   4.526   3.136   3.844 -0.0999 -2.5231 -0.8186
 5263SOL     OW27250   3.739   1.451  17.325 -0.0680 -0.0027 -0.1119
 5263SOL    HW127251   3.710   1.481  17.411  1.5601  0.7790  0.1598
 5263SOL    HW227252   3.808   1.512  17.300 -1.4833  1.7842  0.3713
 5264SOL     OW27253   4.517   0.375   7.082  0.2498 -0.3928  0.3265
 5264SOL    HW127254   4.578   0.445   7.106  1.2063 -1.0461 -0.2155
 5264SOL    HW227255   4.504   0.395   6.989  1.5062 -1.8576 -0.1584
 5265SOL     OW27256   4.517   3.450   0.068  0.8122  0.3552 -0.0169
 5265SOL    HW127257   4.503   3.487  17.678 -1.0632 -1.1890 -0.3828
 5265SOL    HW227258   4.586   3.388   0.044  0.8204 -0.1451  1.2866
 5266SOL     OW27259   2.310   0.463   6.482 -0.0117  0.0571  0.1960
 5266SOL    HW127260   2.378   0.524   6.452  1.2833 -1.8331 -0.7175
 5266SOL    HW227261   2.260   0.506   6.551  0.1728  0.6504 -0.0395
 5267SOL     OW27262   1.868   3.439  15.252  0.5124  0.4983 -0.2108
 5267SOL    HW127263   1.798   3.377  15.268 -0.5208  0.9946 -2.8367
 5267SOL    HW227264   1.814   3.510  15.217  0.1580  0.1287 -0.4146
 5268SOL     OW27265   1.686   1.800   3.616  0.3332  0.5412  0.3717
 5268SOL    HW127266   1.592   1.818   3.621  0.1365 -0.5576  0.5948
 5268SOL    HW227267   1.722   1.888   3.624  1.7305 -0.0333  0.3745
 5269SOL     OW27268   4.410   1.052  15.893 -0.1464 -0.3473  0.3389
 5269SOL    HW127269   4.336   1.027  15.837 -0.7943  2.1355  0.0389
 5269SOL    HW227270   4.395   1.146  15.907  0.6853  0.1893 -2.4685
 5270SOL     OW27271   3.998   0.967   7.289  0.6088 -0.1916 -0.1210
 5270SOL    HW127272   4.019   1.046   7.340  0.4296 -1.0574  1.3065
 5270SOL    HW227273   3.936   1.006   7.227  0.3052  1.5981  1.2687
 5271SOL     OW27274   2.548   3.349   4.993  0.6346 -0.4681  0.0155
 5271SOL    HW127275   2.497   3.429   4.984 -1.6739 -1.9350  0.1197
 5271SOL    HW227276   2.610   3.373   4.924 -0.2613  1.2270 -0.1809
 5272SOL     OW27277   3.029   0.606   5.548  0.3298  0.2479  0.4390
 5272SOL    HW127278   2.976   0.646   5.478  2.1911  0.7059 -0.7040
 5272SOL    HW227279   2.991   0.658   5.618  1.3226 -1.5925  2.3292
 5273SOL     OW27280   0.335   4.638   2.907 -0.1181 -0.5017 -0.0123
 5273SOL    HW127281   0.409   4.597   2.953  0.6988  0.0626 -0.8123
 5273SOL    HW227282   0.280   4.685   2.969  0.1476  0.6870 -0.6772
 5274SOL     OW27283   1.885   3.525  12.785 -0.0984 -0.1269  0.6486
 5274SOL    HW127284   1.930   3.604  12.816  3.8386 -0.9627 -2.8341
 5274SOL    HW227285   1.872   3.482  12.869  0.3182  0.0259  0.7952
 5275SOL     OW27286   4.377   0.391   3.954  0.1451  0.0640 -0.1399
 5275SOL    HW127287   4.438   0.334   3.908 -0.5665  1.5353 -2.9248
 5275SOL    HW227288   4.294   0.343   3.948  0.0464  0.2285 -0.0831
 5276SOL     OW27289   4.550   4.305   2.856 -0.0309 -0.2450 -0.1816
 5276SOL    HW127290   4.555   4.235   2.791 -0.0652  0.7532 -1.2443
 5276SOL    HW227291   4.483   4.262   2.909  0.7088 -0.0118  0.9440
 5277SOL     OW27292   0.524   4.159   9.893  0.3509 -0.1589  0.5761
 5277SOL    HW127293   0.456   4.204   9.843  0.3557  0.6327  1.2995
 5277SOL    HW227294   0.474   4.132   9.970 -0.1785  2.6767  1.1982
 5278SOL     OW27295   0.623   1.251  14.692 -0.3703  0.6911  0.8707
 5278SOL    HW127296   0.635   1.166  14.649 -1.1566  1.4226 -0.8106
 5278SOL    HW227297   0.562   1.211  14.753 -2.0190 -2.0317 -2.5366
 5279SOL     OW27298   0.640   4.334   2.512  0.1227 -0.4782 -0.4498
 5279SOL    HW127299   0.618   4.423   2.484 -0.3717 -1.1709 -2.2946
 5279SOL    HW227300   0.675   4.350   2.600  1.1636  1.0124 -1.1344
 5280SOL     OW27301   2.754   0.631   6.095  0.3197  0.0653  0.7193
 5280SOL    HW127302   2.701   0.598   6.167  0.2721 -0.1035  0.6089
 5280SOL    HW227303   2.689   0.625   6.025  0.6928 -0.1371  0.3831
 5281SOL     OW27304   4.186   4.153   7.574 -0.0123 -0.2314  0.0991
 5281SOL    HW127305   4.235   4.071   7.582  0.8691  0.4198  1.5092
 5281SOL    HW227306   4.124   4.140   7.503 -1.9498 -1.2380  2.0041
 5282SOL     OW27307   4.416   1.418   7.818 -0.7196 -0.2648 -0.2363
 5282SOL    HW127308   4.323   1.398   7.820 -0.5201 -1.0175  1.3294
 5282SOL    HW227309   4.457   1.355   7.877 -0.0183  2.0394  1.7152
 5283SOL     OW27310   4.392   4.493   5.029  0.3907 -0.3148 -0.2946
 5283SOL    HW127311   4.384   4.586   5.050 -2.8793 -0.3877 -1.2403
 5283SOL    HW227312   4.424   4.501   4.939 -1.5749  3.3386 -0.6782
 5284SOL     OW27313   1.013   0.509   4.796  0.6208 -0.5906  0.1010
 5284SOL    HW127314   1.052   0.427   4.826  1.2556  0.8958  3.3961
 5284SOL    HW227315   0.980   0.556   4.873 -1.5606  0.0097 -1.2075
 5285SOL     OW27316   4.603   4.246   7.595 -0.8918  0.0492 -0.3778
 5285SOL    HW127317   4.612   4.151   7.602  1.7072  0.2615 -0.9101
 5285SOL    HW227318   4.610   4.264   7.689 -1.3227 -1.3716 -0.0718
 5286SOL     OW27319   4.569   3.237   8.025  0.0028 -0.0979  0.8562
 5286SOL    HW127320   4.571   3.270   8.115  1.2531  0.2489  0.6886
 5286SOL    HW227321   4.480   3.263   7.998  0.5463  1.1712  0.2865
 5287SOL     OW27322   3.716   1.887   6.699 -0.7968 -0.1870  0.3126
 5287SOL    HW127323   3.685   1.839   6.775 -2.7632 -1.1013 -1.0375
 5287SOL    HW227324   3.720   1.815   6.635  1.3866 -0.1015  0.3545
 5288SOL     OW27325   2.779   0.770   2.175  0.0162 -0.1118  0.2873
 5288SOL    HW127326   2.764   0.801   2.265 -5.4071 -0.1388 -0.6049
 5288SOL    HW227327   2.734   0.685   2.182 -0.1477 -0.2565 -2.6614
 5289SOL     OW27328   2.142   0.018   4.949  0.3404  0.3395  0.3738
 5289SOL    HW127329   2.185   0.058   4.874  3.2845 -2.0048  0.7783
 5289SOL    HW227330   2.062   4.708   4.909 -0.4149  0.2261  1.9727
 5290SOL     OW27331   1.756   2.695  14.416  0.2298  0.2828 -0.0199
 5290SOL    HW127332   1.720   2.643  14.487 -0.3934 -1.3941 -1.5840
 5290SOL    HW227333   1.782   2.633  14.349  0.4074 -0.7742  1.0223
 5291SOL     OW27334   0.819   2.903   3.038 -0.0850  0.6924  0.2068
 5291SOL    HW127335   0.810   2.969   2.970  0.5422  0.7414  0.1714
 5291SOL    HW227336   0.730   2.868   3.039  0.4741 -0.7120  1.0861
 5292SOL     OW27337   1.813   3.093  13.854  0.0764 -0.6996  0.1477
 5292SOL    HW127338   1.893   3.086  13.906  0.9795 -2.8280 -1.5414
 5292SOL    HW227339   1.744   3.078  13.918  0.8121 -1.5415  0.7503
 5293SOL     OW27340   1.626   2.908   5.687 -0.2802  0.3039 -0.0758
 5293SOL    HW127341   1.534   2.929   5.673 -0.3315 -0.3799 -0.7785
 5293SOL    HW227342   1.643   2.933   5.596  0.8346  0.4174  0.1641
 5294SOL     OW27343   2.549   4.267   4.880 -0.5653  0.1588 -0.2411
 5294SOL    HW127344   2.572   4.175   4.889 -0.2770  0.2726  0.1760
 5294SOL    HW227345   2.592   4.309   4.955 -1.6300 -1.4944  1.2791
 5295SOL     OW27346   1.517   4.302   7.488 -0.6910  0.9773  0.4332
 5295SOL    HW127347   1.571   4.341   7.420 -0.7883  0.4241  0.0370
 5295SOL    HW227348   1.560   4.326   7.570 -2.0590  0.4382  1.3124
 5296SOL     OW27349   0.462   0.696   7.708  0.2450 -0.1065  0.3475
 5296SOL    HW127350   0.504   0.648   7.637 -2.2106 -1.6918 -0.0282
 5296SOL    HW227351   0.504   0.782   7.700  0.2061 -0.4620 -3.8325
 5297SOL     OW27352   0.198   4.702  16.291  0.1471  0.3746 -0.2981
 5297SOL    HW127353   0.229   4.626  16.340  1.2767 -0.5484 -2.4736
 5297SOL    HW227354   0.278   0.030  16.281  0.2206  1.1275  3.9772
 5298SOL     OW27355   3.347   3.716   3.220 -0.1463  0.3217  0.0221
 5298SOL    HW127356   3.430   3.670   3.205  0.5023  1.6159 -0.3768
 5298SOL    HW227357   3.311   3.727   3.132  1.1283 -2.4767 -0.8797
 5299SOL     OW27358   4.681   2.030   6.131  0.1438  0.1725 -0.2649
 5299SOL    HW127359   0.017   2.049   6.059  1.1521  0.1218  0.5574
 5299SOL    HW227360   4.711   2.097   6.192 -0.4477 -0.7996  1.0815
 5300SOL     OW27361   1.109   1.365   4.973 -0.3262 -0.1496  0.4518
 5300SOL    HW127362   1.118   1.333   4.883  1.1232 -0.2489  0.6337
 5300SOL    HW227363   1.190   1.323   5.002  0.5766  1.7692  0.7117
 5301SOL     OW27364   0.682   3.700   7.885  0.0655  0.0227 -0.1784
 5301SOL    HW127365   0.728   3.761   7.828 -0.4095  1.1918  0.6919
 5301SOL    HW227366   0.711   3.618   7.845  2.8948  0.5214  0.8073
 5302SOL     OW27367   0.670   4.040   0.980 -0.0187 -0.2741  0.6649
 5302SOL    HW127368   0.704   4.098   1.048  0.2086  0.9687 -0.5006
 5302SOL    HW227369   0.740   4.037   0.915 -1.8713 -0.0696 -1.3283
 5303SOL     OW27370   2.523   4.445  12.301 -0.4041 -0.2120  0.1296
 5303SOL    HW127371   2.531   4.353  12.276  2.2528  0.4916 -1.7041
 5303SOL    HW227372   2.429   4.446  12.319 -0.2212 -2.4513  1.2066
 5304SOL     OW27373   1.225   0.560   5.061 -0.1276 -0.2572  0.2993
 5304SOL    HW127374   1.319   0.552   5.081  0.4348  0.3915 -2.1262
 5304SOL    HW227375   1.208   0.650   5.089 -1.9316  0.2741 -2.4917
 5305SOL     OW27376   1.776   2.921  10.110  0.5820 -0.0909 -0.1540
 5305SOL    HW127377   1.858   2.874  10.128  1.1461  0.6729 -0.7154
 5305SOL    HW227378   1.797   2.952  10.022  0.5869 -1.1772 -0.5411
 5306SOL     OW27379   0.076   1.675   1.043 -0.7726 -0.8105  0.1110
 5306SOL    HW127380   0.023   1.746   1.008  2.2330  1.6094  0.4530
 5306SOL    HW227381   0.143   1.722   1.092  0.3761  1.0036 -3.2354
 5307SOL     OW27382   0.119   2.096   5.209  0.2684  0.1870 -0.1125
 5307SOL    HW127383   0.158   2.173   5.250 -1.9117  1.6693 -0.8293
 5307SOL    HW227384   0.196   2.049   5.176  0.5579  0.2130  0.5208
 5308SOL     OW27385   1.780   2.492   3.749  0.2387  0.4891 -0.0080
 5308SOL    HW127386   1.760   2.571   3.800 -0.4996 -0.4741  1.2227
 5308SOL    HW227387   1.872   2.478   3.770 -0.0409 -0.5214  0.5777
 5309SOL     OW27388   2.054   0.098   9.718  0.4313  0.0484  0.4940
 5309SOL    HW127389   2.136   0.134   9.683  0.1436  0.2312  0.0016
 5309SOL    HW227390   1.999   0.167   9.680  0.8392  0.8467  1.3738
 5310SOL     OW27391   3.286   3.238   0.757  0.3803  0.2182  0.1883
 5310SOL    HW127392   3.251   3.156   0.722  2.5406 -0.7958  0.4453
 5310SOL    HW227393   3.220   3.301   0.728 -1.1465 -1.4033  0.0788
 5311SOL     OW27394   1.179   1.908   7.587  0.0653  0.4616  0.1729
 5311SOL    HW127395   1.222   1.822   7.595  2.5771  1.5396 -1.4574
 5311SOL    HW227396   1.257   1.956   7.617  0.2119 -0.6448  1.5723
 5312SOL     OW27397   1.730   0.623   8.772 -0.3005  0.0406  0.5235
 5312SOL    HW127398   1.765   0.547   8.819 -0.2875 -0.6778 -0.6477
 5312SOL    HW227399   1.704   0.678   8.846 -1.2158  0.2809  0.0192
 5313SOL     OW27400   2.364   1.028   8.111 -0.0270 -0.2694  0.0401
 5313SOL    HW127401   2.305   1.052   8.040  0.5963  1.9421  0.2727
 5313SOL    HW227402   2.370   0.933   8.101 -0.5027 -0.2078 -0.8057
 5314SOL     OW27403   3.279   1.110   2.319 -0.0653 -0.1534  0.1172
 5314SOL    HW127404   3.226   1.033   2.341 -0.1861  0.0516  0.5321
 5314SOL    HW227405   3.361   1.092   2.365 -2.1946 -0.5291  3.7683
 5315SOL     OW27406   4.023   0.030   0.861  0.7141 -0.4032  0.4689
 5315SOL    HW127407   4.001   4.660   0.862 -2.0531  0.2340  0.5558
 5315SOL    HW227408   3.945   0.073   0.825  1.9214  0.7830 -0.7058
 5316SOL     OW27409   4.242   2.667  13.067  0.0036 -0.0829  0.5697
 5316SOL    HW127410   4.196   2.662  12.983 -0.8678 -1.3629  1.1271
 5316SOL    HW227411   4.301   2.741  13.054  0.7828 -0.5341  1.5243
 5317SOL     OW27412   1.885   4.149  10.374  0.2304  0.3177  0.0784
 5317SOL    HW127413   1.945   4.106  10.313  0.9529  1.5875 -0.0879
 5317SOL    HW227414   1.922   4.130  10.460 -2.4979  0.2090  1.2378
 5318SOL     OW27415   0.985   1.844   9.840 -0.2109 -0.0423  0.1587
 5318SOL    HW127416   0.998   1.925   9.790 -0.8298  0.3310  0.5933
 5318SOL    HW227417   1.056   1.841   9.905 -2.1343  0.0864  2.2806
 5319SOL     OW27418   1.167   2.880  12.551 -0.3189 -0.7771 -0.2428
 5319SOL    HW127419   1.254   2.843  12.567  0.1342 -1.7982 -5.0776
 5319SOL    HW227420   1.175   2.920  12.464  2.5439  0.9575  0.8243
 5320SOL     OW27421   2.092   3.557   3.778  0.2176  0.7428  0.1633
 5320SOL    HW127422   2.163   3.524   3.834 -0.7195  0.8873  1.4282
 5320SOL    HW227423   2.101   3.651   3.788 -0.8606  1.0582 -1.8785
 5321SOL     OW27424   0.343   4.016  15.804 -0.2270 -0.3153  1.1097
 5321SOL    HW127425   0.321   4.108  15.790  0.7065 -0.2172  0.2275
 5321SOL    HW227426   0.351   4.027  15.899 -1.4454  1.6951  0.9662
 5322SOL     OW27427   0.675   0.327  16.700  0.3227 -0.7449  0.4311
 5322SOL    HW127428   0.683   0.237  16.733  0.0308 -0.5845  0.9382
 5322SOL    HW227429   0.587   0.315  16.664  0.3537 -0.2411  0.2012
 5323SOL     OW27430   0.475   1.099   8.436 -0.6409 -0.2349 -0.4290
 5323SOL    HW127431   0.518   1.149   8.505 -1.7083  0.2709 -0.1298
 5323SOL    HW227432   0.532   1.025   8.415 -0.5084 -0.0008 -0.9031
 5324SOL     OW27433   3.720   2.631  13.738 -0.4544  0.0918 -0.4044
 5324SOL    HW127434   3.763   2.686  13.672  1.4172 -1.4695 -0.4974
 5324SOL    HW227435   3.634   2.673  13.740 -0.2647  0.3796  1.5859
 5325SOL     OW27436   2.192   0.436  17.414 -0.0325 -0.3460 -0.5275
 5325SOL    HW127437   2.167   0.380  17.488 -2.2541  0.4043 -0.7436
 5325SOL    HW227438   2.286   0.454  17.424 -0.1534  1.5246 -2.7384
 5326SOL     OW27439   4.213   4.083  12.555  0.2043  0.0809 -0.5502
 5326SOL    HW127440   4.208   4.149  12.486  1.0663  1.8873  1.1260
 5326SOL    HW227441   4.122   4.080  12.586  1.3650  0.0205  2.8341
 5327SOL     OW27442   1.935   3.838   4.696 -0.0802 -0.4551 -0.8186
 5327SOL    HW127443   1.937   3.770   4.763  1.3234 -0.4678 -0.8778
 5327SOL    HW227444   1.868   3.897   4.731 -1.1705 -0.8793 -2.1855
 5328SOL     OW27445   1.435   1.957   3.502 -0.0477 -0.4856 -0.7215
 5328SOL    HW127446   1.375   1.883   3.487  1.1077 -1.4192 -0.7966
 5328SOL    HW227447   1.432   1.963   3.597  1.4342 -0.8186 -0.6623
 5329SOL     OW27448   2.947   2.960   9.698  0.0073  0.3632 -0.1172
 5329SOL    HW127449   2.867   3.011   9.688  0.3353  1.1801  1.3903
 5329SOL    HW227450   2.914   2.871   9.710 -0.1178  0.2003 -1.6944
 5330SOL     OW27451   2.072   1.450  17.460  0.1486 -0.0325 -0.4004
 5330SOL    HW127452   2.012   1.411  17.524  1.6900 -1.5661  0.1152
 5330SOL    HW227453   2.020   1.507  17.403  0.2598 -0.4961 -0.9665
 5331SOL     OW27454   3.054   3.750  11.478  0.0359 -0.0358 -0.1891
 5331SOL    HW127455   3.086   3.669  11.439 -0.1216  0.0750 -0.5530
 5331SOL    HW227456   3.107   3.817  11.434 -0.0209  1.1297  1.4949
 5332SOL     OW27457   0.815   2.165   6.362  0.0233 -0.0315 -0.3131
 5332SOL    HW127458   0.792   2.231   6.297 -0.2291  0.1573 -0.0347
 5332SOL    HW227459   0.907   2.141   6.355 -0.2778 -0.5528 -2.3148
 5333SOL     OW27460   3.929   3.995   3.055 -0.0712  0.6900  0.1251
 5333SOL    HW127461   3.845   3.949   3.049  1.0109 -1.6012  3.0364
 5333SOL    HW227462   3.916   4.056   2.982  0.7666 -2.3241 -2.5333
 5334SOL     OW27463   1.653   3.500   1.367 -0.5329 -0.9845 -0.4878
 5334SOL    HW127464   1.720   3.555   1.325 -1.2067 -0.3399 -0.7191
 5334SOL    HW227465   1.674   3.410   1.341 -3.4011 -2.9756  4.0993
 5335SOL     OW27466   4.449   1.297   9.336  0.8214  0.0069  0.1179
 5335SOL    HW127467   4.399   1.252   9.269 -0.5119 -2.2268  2.6215
 5335SOL    HW227468   4.444   1.226   9.401 -1.8543 -0.1763 -0.2910
 5336SOL     OW27469   4.549   1.286   0.822 -0.5660  0.7092 -0.0770
 5336SOL    HW127470   4.642   1.294   0.841 -0.6609 -1.1566  1.1769
 5336SOL    HW227471   4.525   1.234   0.899  0.6446  0.2915  0.0084
 5337SOL     OW27472   1.328   2.998   1.770 -0.1020 -0.7524  0.2466
 5337SOL    HW127473   1.251   3.054   1.777  0.3925 -0.0422  0.0401
 5337SOL    HW227474   1.387   3.038   1.834 -0.2556  1.3327 -0.8925
 5338SOL     OW27475   3.042   3.449   1.598  0.6764  0.2781  0.3058
 5338SOL    HW127476   3.072   3.461   1.508  1.3083  1.2340  0.6345
 5338SOL    HW227477   3.012   3.536   1.622 -2.1290 -0.8149  0.7030
 5339SOL     OW27478   3.108   4.407   4.689  0.2517  0.1806 -0.4282
 5339SOL    HW127479   3.060   4.368   4.762  1.0891 -0.7264 -0.3451
 5339SOL    HW227480   3.070   4.495   4.696  1.6439  0.7062  0.6038
 5340SOL     OW27481   3.188   2.885   3.667 -0.2236 -0.5046  0.2513
 5340SOL    HW127482   3.276   2.920   3.654 -0.0050 -0.9453  0.5353
 5340SOL    HW227483   3.210   2.813   3.726 -1.5632 -1.0879  0.0413
 5341SOL     OW27484   3.006   0.360   4.299 -0.0658  0.2694 -0.0812
 5341SOL    HW127485   2.911   0.366   4.294  0.0054  0.0820 -1.6232
 5341SOL    HW227486   3.028   0.407   4.218  0.7452 -0.5572 -0.3512
 5342SOL     OW27487   3.826   3.724   8.107 -0.0620  0.0178  0.0969
 5342SOL    HW127488   3.755   3.661   8.121  0.1236  0.1130  1.4893
 5342SOL    HW227489   3.886   3.681   8.168 -0.4864  1.2606  1.3990
 5343SOL     OW27490   0.166   2.485   9.209 -0.2128  0.0600 -0.5682
 5343SOL    HW127491   0.208   2.509   9.292 -1.8881 -0.5873  0.4728
 5343SOL    HW227492   0.116   2.562   9.185  1.3604  0.8175 -1.4362
 5344SOL     OW27493   3.255   2.078   4.921 -0.0024 -0.1844  0.8081
 5344SOL    HW127494   3.284   2.004   4.973  0.2488  0.5166  1.6619
 5344SOL    HW227495   3.332   2.101   4.870 -0.2252 -3.3431 -0.9302
 5345SOL     OW27496   2.124   1.562  12.178  0.4503  0.7604 -0.4555
 5345SOL    HW127497   2.063   1.534  12.246  1.3946  1.2212  0.5851
 5345SOL    HW227498   2.172   1.484  12.154 -1.0710  0.2037 -1.6945
 5346SOL     OW27499   3.579   1.684  16.853 -0.0619  0.4774 -0.2061
 5346SOL    HW127500   3.630   1.657  16.930 -0.2557  1.9691  0.4478
 5346SOL    HW227501   3.495   1.637  16.857  0.0885  0.3610  2.1032
 5347SOL     OW27502   1.953   3.368   1.048 -0.1380  0.7654 -0.3235
 5347SOL    HW127503   1.979   3.359   1.140  1.3915 -0.1212 -0.8348
 5347SOL    HW227504   1.998   3.292   1.012 -1.5503  0.3937 -1.3231
 5348SOL     OW27505   1.677   0.755  11.958 -0.4204  0.4010  0.0815
 5348SOL    HW127506   1.598   0.774  11.906  0.0196  0.7246 -0.4683
 5348SOL    HW227507   1.647   0.671  11.993  2.7428 -0.4541  0.7067
 5349SOL     OW27508   1.221   3.958  17.451  0.2394 -0.0291 -0.2436
 5349SOL    HW127509   1.260   4.009  17.380  0.8244  1.3291  1.0662
 5349SOL    HW227510   1.182   4.033  17.494  1.2591 -0.2001  0.9626
 5350SOL     OW27511   3.925   1.196   7.417 -0.5737 -0.6459 -0.5470
 5350SOL    HW127512   3.837   1.173   7.447 -0.0859  0.5535  1.7620
 5350SOL    HW227513   3.918   1.273   7.361  0.0202  0.5666  1.0750
 5351SOL     OW27514   0.493   2.982   2.311  0.3391 -0.3221  0.0045
 5351SOL    HW127515   0.457   2.996   2.398 -1.4311  0.9105 -0.9116
 5351SOL    HW227516   0.428   3.021   2.252  3.0941  2.5390 -1.1564
 5352SOL     OW27517   0.840   0.906  10.553 -0.0061 -0.0880  0.0995
 5352SOL    HW127518   0.827   0.924  10.460  0.5159 -1.8512 -0.3147
 5352SOL    HW227519   0.935   0.903  10.551  0.0803  1.7989  1.1193
 5353SOL     OW27520   1.898   2.362   7.598  0.5433 -0.3847  0.5825
 5353SOL    HW127521   1.935   2.275   7.614  1.4399  0.0648  0.9048
 5353SOL    HW227522   1.835   2.372   7.670 -0.2918  3.0412 -0.6507
 5354SOL     OW27523   2.125   2.781   8.505 -0.2789  0.0665 -0.7320
 5354SOL    HW127524   2.134   2.694   8.543 -1.2998  1.5501  2.8697
 5354SOL    HW227525   2.215   2.807   8.526  0.3704 -0.3167 -3.0566
 5355SOL     OW27526   3.746   2.666   8.870  0.0239 -0.2262  0.0645
 5355SOL    HW127527   3.763   2.575   8.893 -1.0450 -0.4346  0.0703
 5355SOL    HW227528   3.756   2.715   8.952 -0.1066 -0.3332  0.1450
 5356SOL     OW27529   1.740   3.083   3.296  0.5001  0.3062 -0.2124
 5356SOL    HW127530   1.695   3.010   3.252 -0.7583  0.9441  0.0255
 5356SOL    HW227531   1.768   3.134   3.220 -1.3918 -1.0119 -1.7958
 5357SOL     OW27532   4.550   1.703   0.834 -0.5831  0.5285  0.2001
 5357SOL    HW127533   4.470   1.749   0.862 -1.7647 -0.7633 -1.0101
 5357SOL    HW227534   4.616   1.771   0.818  0.4576 -0.0112  2.2757
 5358SOL     OW27535   1.224   1.182   6.416 -0.1402  0.2282  0.0094
 5358SOL    HW127536   1.313   1.169   6.381 -0.6902  0.7673 -1.5640
 5358SOL    HW227537   1.218   1.274   6.390 -0.9363  0.4847  1.1404
 5359SOL     OW27538   4.251   3.152  15.618  0.8623 -0.0084  0.4007
 5359SOL    HW127539   4.284   3.093  15.686 -0.1398  1.0854  1.8459
 5359SOL    HW227540   4.302   3.126  15.541 -0.2811  2.7277 -1.2686
 5360SOL     OW27541   0.662   0.694   5.502  0.1946 -0.5990 -0.0842
 5360SOL    HW127542   0.581   0.648   5.479 -0.5995  1.3406 -1.1696
 5360SOL    HW227543   0.642   0.730   5.589  0.9955 -0.5292  0.0723
 5361SOL     OW27544   4.588   2.435   0.310 -0.3204  0.0265 -0.3803
 5361SOL    HW127545   4.639   2.515   0.324  0.9971 -0.7700 -0.6515
 5361SOL    HW227546   4.568   2.438   0.217  2.6517 -1.9012 -1.0615
 5362SOL     OW27547   4.123   4.060   8.328  0.4502 -0.3956 -0.1232
 5362SOL    HW127548   4.171   4.136   8.298  1.0861  0.7219  3.7264
 5362SOL    HW227549   4.169   4.001   8.268  0.9911 -0.6358  0.5290
 5363SOL     OW27550   1.497   1.332   2.930  0.1522 -0.1689  0.4809
 5363SOL    HW127551   1.550   1.369   3.001 -0.0262  1.0781 -0.0320
 5363SOL    HW227552   1.546   1.382   2.864 -1.0949 -0.6491 -0.8106
 5364SOL     OW27553   2.509   3.300   6.729 -0.3662 -0.2728 -0.6305
 5364SOL    HW127554   2.530   3.234   6.663  1.0115  0.0894 -0.5473
 5364SOL    HW227555   2.566   3.274   6.802 -0.4189  1.9115  0.2058
 5365SOL     OW27556   0.164   3.391  10.273  0.9214 -0.2079 -0.2422
 5365SOL    HW127557   0.090   3.348  10.315  1.1920 -1.7131 -1.2923
 5365SOL    HW227558   0.233   3.372  10.337 -0.3531  1.3239  1.5505
 5366SOL     OW27559   1.441   1.060   3.025 -0.6205 -0.4806  0.4923
 5366SOL    HW127560   1.461   1.152   3.007 -0.9054 -1.0989 -3.0806
 5366SOL    HW227561   1.354   1.058   2.985 -0.0842 -1.4760 -0.6266
 5367SOL     OW27562   3.755   1.099  10.648  0.2303  0.2080  0.1873
 5367SOL    HW127563   3.813   1.063  10.714  1.7450  0.0027 -1.2655
 5367SOL    HW227564   3.668   1.101  10.689  0.4008  0.5255  0.5318
 5368SOL     OW27565   0.210   4.171  16.385 -0.1496 -0.0280 -0.1248
 5368SOL    HW127566   0.182   4.111  16.316  1.9030 -1.3957  0.2156
 5368SOL    HW227567   0.214   4.252  16.333 -0.1697  0.3230  0.4199
 5369SOL     OW27568   2.833   1.200   5.874 -0.1771  0.1835  0.0398
 5369SOL    HW127569   2.774   1.241   5.938 -1.1690 -1.6745  0.3438
 5369SOL    HW227570   2.803   1.219   5.785 -0.8012 -3.9446 -0.6268
 5370SOL     OW27571   3.377   3.979  11.036 -0.8934 -0.3057 -0.1385
 5370SOL    HW127572   3.451   4.028  10.998  2.6800 -2.1864  4.3993
 5370SOL    HW227573   3.413   3.923  11.104  0.5605 -0.0278 -0.6635
 5371SOL     OW27574   2.845   2.562   2.971 -0.1252 -0.0363  0.2000
 5371SOL    HW127575   2.759   2.596   2.948 -0.2586 -0.5534 -0.0638
 5371SOL    HW227576   2.829   2.469   2.954  0.8248  0.0794 -1.3152
 5372SOL     OW27577   3.435   2.999   3.675  0.4130 -0.0580  0.1428
 5372SOL    HW127578   3.526   3.020   3.699  0.9649 -1.2719 -0.8591
 5372SOL    HW227579   3.426   3.030   3.584  0.0843  0.2728  0.2883
 5373SOL     OW27580   1.740   0.582   1.271  0.3339 -0.6595 -0.1275
 5373SOL    HW127581   1.727   0.536   1.188 -2.2091 -0.5938  0.2350
 5373SOL    HW227582   1.825   0.622   1.253  0.0349 -0.0844 -0.2840
 5374SOL     OW27583   2.030   0.464   1.009  0.0398  0.7628  0.7999
 5374SOL    HW127584   2.000   0.538   1.062  1.0613 -0.0138  2.4666
 5374SOL    HW227585   2.123   0.488   1.001  0.5007 -0.8741  1.1948
 5375SOL     OW27586   0.537   0.890   1.800  0.3515 -0.5111  0.2240
 5375SOL    HW127587   0.609   0.923   1.745  1.5863 -2.5971  0.6065
 5375SOL    HW227588   0.478   0.849   1.737  1.2808 -3.2303  1.1533
 5376SOL     OW27589   1.272   0.388   9.434  0.1268  0.0416  0.6615
 5376SOL    HW127590   1.347   0.343   9.395 -0.3501 -0.4804  0.3416
 5376SOL    HW227591   1.309   0.402   9.521  1.2486 -0.1725  0.2170
 5377SOL     OW27592   0.641   3.830   3.040  0.4552 -0.1696 -0.1322
 5377SOL    HW127593   0.625   3.915   2.998 -1.2468 -1.4109 -2.0293
 5377SOL    HW227594   0.736   3.826   3.028  0.6849  2.0234  1.0529
 5378SOL     OW27595   4.717   4.522   8.549  0.1359  0.2709  0.7928
 5378SOL    HW127596   4.636   4.556   8.511  0.3406  0.5900  0.6431
 5378SOL    HW227597   4.684   4.486   8.631 -0.7598 -2.0839 -0.6162
 5379SOL     OW27598   2.294   2.844   6.672 -0.2147  0.1277  0.0305
 5379SOL    HW127599   2.316   2.852   6.579 -3.8883  0.3553 -0.8280
 5379SOL    HW227600   2.373   2.879   6.714  0.2752  1.4579 -1.9607
 5380SOL     OW27601   1.798   1.815   0.254  0.0132 -0.2603  0.3090
 5380SOL    HW127602   1.890   1.789   0.262  0.6259  1.7240 -0.3005
 5380SOL    HW227603   1.751   1.732   0.260  1.1437 -1.0878 -2.7017
 5381SOL     OW27604   0.943   2.754   3.280 -0.3832  0.2975  0.0533
 5381SOL    HW127605   1.006   2.807   3.329  0.0070 -0.9098  0.8799
 5381SOL    HW227606   0.928   2.813   3.207  0.9152 -1.4919 -1.6489
 5382SOL     OW27607   0.144   3.729  16.062 -0.5137 -0.0257 -0.1033
 5382SOL    HW127608   0.079   3.749  15.994  1.4005 -1.6635 -2.3836
 5382SOL    HW227609   0.225   3.729  16.013 -0.7834  0.3772 -0.5448
 5383SOL     OW27610   0.536   1.968   8.909 -0.3647 -0.3110  0.6836
 5383SOL    HW127611   0.504   2.058   8.914  1.5700  0.3977  0.3765
 5383SOL    HW227612   0.491   1.921   8.979  0.3780 -1.8614  0.1228
 5384SOL     OW27613   1.748   0.643   5.265 -0.2078 -0.0924 -0.3274
 5384SOL    HW127614   1.733   0.662   5.173  4.2014 -1.7674 -1.4353
 5384SOL    HW227615   1.759   0.548   5.272 -0.9246 -0.1297  0.2931
 5385SOL     OW27616   2.954   0.824   4.444  0.2947  0.3554 -0.6218
 5385SOL    HW127617   2.932   0.812   4.352 -0.7588  0.2138 -0.3423
 5385SOL    HW227618   3.046   0.797   4.440  0.7941  1.7516  1.3863
 5386SOL     OW27619   1.929   0.112   7.220 -0.3274  0.2993 -0.0345
 5386SOL    HW127620   1.933   0.046   7.289 -2.0778  0.0976 -0.1202
 5386SOL    HW227621   1.844   0.092   7.180 -0.4902 -1.0617  0.9988
 5387SOL     OW27622   3.307   1.465   7.408 -0.5332 -0.1560  0.0247
 5387SOL    HW127623   3.361   1.417   7.470 -0.1134  3.0658  2.1806
 5387SOL    HW227624   3.218   1.452   7.440 -0.7050 -0.2949 -0.5188
 5388SOL     OW27625   4.468   3.813  15.114  0.2980 -0.2105  0.2155
 5388SOL    HW127626   4.446   3.801  15.021  0.1139  1.8286  0.0049
 5388SOL    HW227627   4.399   3.861  15.160  1.6523  1.0337  0.9135
 5389SOL     OW27628   4.051   3.478  10.844  0.5686 -0.2670 -0.2391
 5389SOL    HW127629   3.987   3.468  10.914  0.8370 -1.6671 -0.1982
 5389SOL    HW227630   4.085   3.565  10.866  0.7773 -0.1101 -1.1681
 5390SOL     OW27631   3.751   1.007  17.453 -0.3006 -0.5398  0.1763
 5390SOL    HW127632   3.732   0.914  17.463 -2.1722 -0.2175 -0.5171
 5390SOL    HW227633   3.763   1.035  17.544  0.2625 -1.6104  0.4350
 5391SOL     OW27634   4.093   2.312   3.015  0.1040  0.4555 -0.2946
 5391SOL    HW127635   4.003   2.284   3.003 -0.7877  2.1156  2.7206
 5391SOL    HW227636   4.083   2.403   3.043 -1.5891  0.4184 -0.7832
 5392SOL     OW27637   4.238   2.652   7.538 -0.5980  0.1065  0.2427
 5392SOL    HW127638   4.292   2.609   7.472 -0.6749  0.7480 -0.2339
 5392SOL    HW227639   4.294   2.729   7.540 -0.1559 -0.2660  2.1736
 5393SOL     OW27640   0.186   0.771   5.111 -0.5235 -0.5106 -0.4732
 5393SOL    HW127641   0.276   0.741   5.122 -1.1626 -2.1595  0.2416
 5393SOL    HW227642   0.190   0.804   5.021 -1.1361 -1.8070 -0.9660
 5394SOL     OW27643   3.986   3.206   5.937 -0.2898 -0.2316 -0.4334
 5394SOL    HW127644   4.065   3.166   5.973  0.3993  1.0180 -0.5624
 5394SOL    HW227645   3.915   3.165   5.986 -1.1755  1.8535 -0.0005
 5395SOL     OW27646   2.405   3.842  10.785  0.0988  0.2788  0.3567
 5395SOL    HW127647   2.342   3.770  10.786 -0.1196  0.4051 -4.3703
 5395SOL    HW227648   2.489   3.806  10.816 -0.5761 -0.0217  1.8121
 5396SOL     OW27649   1.937   0.997   9.253 -0.0549 -0.4711 -0.0718
 5396SOL    HW127650   2.024   1.032   9.234  0.8435 -2.3425  0.5851
 5396SOL    HW227651   1.885   1.013   9.174  1.6532 -0.5609 -1.2316
 5397SOL     OW27652   2.507   1.308   5.868 -0.0643  0.2823 -0.2750
 5397SOL    HW127653   2.449   1.384   5.865  0.2827  0.5201 -1.0878
 5397SOL    HW227654   2.467   1.258   5.796  0.2376 -0.1388 -0.1497
 5398SOL     OW27655   0.826   1.485   9.153 -0.0559 -0.3144  0.3345
 5398SOL    HW127656   0.875   1.561   9.186  0.6406 -0.0805 -1.2653
 5398SOL    HW227657   0.813   1.510   9.061 -0.4254  1.7632  0.9499
 5399SOL     OW27658   0.422   0.550   1.331 -0.3781  0.0219 -0.2812
 5399SOL    HW127659   0.420   0.524   1.239  1.3680  0.2221 -0.3868
 5399SOL    HW227660   0.407   0.465   1.374  0.3235  0.5437  1.0101
 5400SOL     OW27661   1.377   0.337  16.288 -0.5105 -0.2455 -0.1793
 5400SOL    HW127662   1.299   0.389  16.269  1.4535  2.3016 -1.2465
 5400SOL    HW227663   1.350   0.281  16.360 -0.0747 -0.3018 -0.0569
 5401SOL     OW27664   0.673   0.339   4.428 -0.3180 -0.3830 -0.2766
 5401SOL    HW127665   0.729   0.399   4.378  1.8282 -1.2474  1.0435
 5401SOL    HW227666   0.733   0.265   4.437  1.4370  0.9047 -1.3577
 5402SOL     OW27667   0.080   3.407  10.016 -0.2770 -0.5616  0.4524
 5402SOL    HW127668   0.135   3.345   9.967 -0.7178 -0.4025 -0.2404
 5402SOL    HW227669   0.115   3.403  10.105 -0.3398  0.2087  0.5098
 5403SOL     OW27670   3.243   2.207   6.111  0.2245 -0.1200  0.1113
 5403SOL    HW127671   3.321   2.191   6.165  0.5626  0.4471 -0.2034
 5403SOL    HW227672   3.292   2.259   6.048 -0.8789  1.5112  0.6117
 5404SOL     OW27673   2.700   2.199   1.833 -0.2180  0.0763  0.1714
 5404SOL    HW127674   2.746   2.157   1.760 -0.1274  2.1738 -0.9642
 5404SOL    HW227675   2.773   2.229   1.886  0.8377  0.1117 -1.3065
 5405SOL     OW27676   3.570   3.979  16.652 -0.3819  0.3943  0.1419
 5405SOL    HW127677   3.618   3.955  16.572  0.0811  0.4546  0.4031
 5405SOL    HW227678   3.509   3.906  16.643 -0.7383  1.1346 -3.4103
 5406SOL     OW27679   4.388   0.344  13.254 -0.4078  0.7391 -0.3131
 5406SOL    HW127680   4.428   0.296  13.181  0.6856  3.2605 -1.4074
 5406SOL    HW227681   4.417   0.280  13.318  0.1952  0.1469 -1.1894
 5407SOL     OW27682   0.640   4.296  13.394 -0.1783 -0.6866 -0.0605
 5407SOL    HW127683   0.624   4.354  13.319 -0.6176  1.3947  1.6419
 5407SOL    HW227684   0.732   4.278  13.378  0.4547  1.9549  0.6301
 5408SOL     OW27685   0.778   0.752   3.390  0.5103 -1.1244 -0.1109
 5408SOL    HW127686   0.846   0.721   3.449 -0.2374 -0.3379  1.1591
 5408SOL    HW227687   0.705   0.770   3.448 -0.3330 -0.8442 -1.2556
 5409SOL     OW27688   3.908   2.558  12.562 -0.0047  0.1885 -0.2695
 5409SOL    HW127689   3.983   2.582  12.616 -1.9664  2.5120  1.4636
 5409SOL    HW227690   3.857   2.505  12.624 -0.5848 -0.0985 -1.0016
 5410SOL     OW27691   1.569   2.318  16.879 -0.2905  0.4350 -0.0096
 5410SOL    HW127692   1.488   2.272  16.901 -0.6366  0.5422 -1.0576
 5410SOL    HW227693   1.595   2.348  16.966 -0.5886  2.7316 -0.7105
 5411SOL     OW27694   3.871   1.859   9.681  0.1370 -0.1373 -0.0745
 5411SOL    HW127695   3.940   1.793   9.680  0.9473  0.6894  1.7088
 5411SOL    HW227696   3.793   1.805   9.667  0.3487 -0.4977  0.1628
 5412SOL     OW27697   1.334   4.554   4.146 -0.0157  0.4457  0.2114
 5412SOL    HW127698   1.341   4.632   4.202 -0.7582  1.5677 -1.2447
 5412SOL    HW227699   1.267   4.592   4.089  0.2308 -3.0392 -2.3391
 5413SOL     OW27700   1.390   2.115   7.343  0.2749  0.0186 -0.4812
 5413SOL    HW127701   1.359   2.160   7.422  0.7237 -0.0465 -0.2672
 5413SOL    HW227702   1.484   2.122   7.358  0.1387  0.8449  0.0313
 5414SOL     OW27703   1.048   1.868   2.915  0.3638  0.1484 -0.0171
 5414SOL    HW127704   0.986   1.829   2.853  0.1334 -0.3400  0.5188
 5414SOL    HW227705   1.010   1.955   2.929 -0.7079 -0.1027 -1.4297
 5415SOL     OW27706   1.170   2.539   6.340  0.3925  0.1174  0.5403
 5415SOL    HW127707   1.229   2.549   6.415  1.3416 -0.0028 -0.1818
 5415SOL    HW227708   1.217   2.594   6.277 -2.3840 -0.6811 -2.2044
 5416SOL     OW27709   3.482   2.715  10.291 -0.1469  0.0475  0.2073
 5416SOL    HW127710   3.507   2.790  10.345 -1.3605 -0.7829  1.9024
 5416SOL    HW227711   3.469   2.643  10.353 -2.6901 -1.0377 -1.5805
 5417SOL     OW27712   0.931   0.480   6.837  0.2087 -0.5373 -0.0185
 5417SOL    HW127713   0.849   0.527   6.856 -0.3237 -2.0000  1.3365
 5417SOL    HW227714   0.930   0.402   6.892 -1.1475 -1.0413 -0.7304
 5418SOL     OW27715   1.488   3.160  16.607  0.2800 -0.0136  0.2174
 5418SOL    HW127716   1.500   3.109  16.687  0.2556  0.2265  0.3737
 5418SOL    HW227717   1.577   3.151  16.572  0.4579  0.5422  0.5174
 5419SOL     OW27718   1.955   2.112   3.418  0.2716  0.5424 -0.3150
 5419SOL    HW127719   1.890   2.117   3.488  0.1090  0.0196 -0.4317
 5419SOL    HW227720   2.019   2.178   3.444  3.0491 -2.2131 -0.1445
 5420SOL     OW27721   2.684   2.542   4.818 -0.1464 -0.3084 -0.2730
 5420SOL    HW127722   2.688   2.530   4.913 -0.1371  1.3980 -0.0541
 5420SOL    HW227723   2.746   2.612   4.799 -0.8022 -0.0197 -1.3289
 5421SOL     OW27724   1.786   4.555   2.133  0.2207  1.0241 -0.8055
 5421SOL    HW127725   1.751   4.484   2.080 -1.9796  0.4373  1.4090
 5421SOL    HW227726   1.814   4.616   2.065  1.1970  2.2408  0.6824
 5422SOL     OW27727   1.427   0.528   4.804  0.1234 -0.1524 -0.0495
 5422SOL    HW127728   1.398   0.573   4.724  0.6112  2.3066  1.1471
 5422SOL    HW227729   1.362   0.550   4.870 -0.8120  0.0789 -1.0438
 5423SOL     OW27730   0.121   1.782   3.469  0.2062 -0.1461 -0.6409
 5423SOL    HW127731   0.197   1.761   3.523 -1.1290  1.4345  1.8516
 5423SOL    HW227732   0.146   1.735   3.389  1.1235 -1.6039  0.5283
 5424SOL     OW27733   2.468   4.460  13.196 -0.4374  0.8369 -0.1902
 5424SOL    HW127734   2.381   4.449  13.158 -0.4409 -0.6367  0.2454
 5424SOL    HW227735   2.446   4.400  13.268 -1.3155  0.1254 -1.0531
 5425SOL     OW27736   3.522   3.068  11.630 -0.6233  0.7633  0.3843
 5425SOL    HW127737   3.581   3.076  11.556 -0.0739  1.6523  0.9313
 5425SOL    HW227738   3.546   3.139  11.689 -1.2424  2.8418 -1.9012
 5426SOL     OW27739   0.143   0.989   4.474  0.1806 -0.0785  0.3176
 5426SOL    HW127740   0.114   0.946   4.555 -2.4493  2.6482  0.7951
 5426SOL    HW227741   0.197   1.056   4.516  0.2043  0.6404 -0.8682
 5427SOL     OW27742   1.896   0.858  16.622  0.4788  0.1441  0.4889
 5427SOL    HW127743   1.982   0.817  16.610 -0.4030 -1.0726 -1.6749
 5427SOL    HW227744   1.867   0.805  16.696 -0.8093 -0.5844 -0.5357
 5428SOL     OW27745   4.139   1.924   6.626 -0.1953  0.3712 -0.9067
 5428SOL    HW127746   4.175   1.836   6.636 -0.7940  0.0379 -1.6917
 5428SOL    HW227747   4.132   1.927   6.530  0.0818 -3.1062 -1.0214
 5429SOL     OW27748   2.617   4.117   1.257 -0.4478 -0.0712 -0.3599
 5429SOL    HW127749   2.628   4.027   1.227  1.3039 -0.9690  2.9610
 5429SOL    HW227750   2.627   4.167   1.176 -0.9151  1.5673  0.5922
 5430SOL     OW27751   2.342   1.462   0.144 -0.0347 -0.6623 -0.3113
 5430SOL    HW127752   2.380   1.442   0.229  0.6428  1.6366 -0.0768
 5430SOL    HW227753   2.426   1.480   0.102 -0.5091 -0.7968 -1.3188
 5431SOL     OW27754   4.083   1.751  14.116 -0.0308  0.2384  0.0052
 5431SOL    HW127755   4.106   1.793  14.199 -1.4086 -0.4958  0.7669
 5431SOL    HW227756   4.075   1.819  14.050  1.2377 -1.4204 -1.8671
 5432SOL     OW27757   3.400   2.192   4.677  0.4132 -0.7617  0.1548
 5432SOL    HW127758   3.445   2.149   4.604  1.6113 -0.3925  0.6828
 5432SOL    HW227759   3.463   2.190   4.749  0.9004  0.9952 -0.2405
 5433SOL     OW27760   2.617   4.216   0.811  0.5233  0.2592 -0.2228
 5433SOL    HW127761   2.664   4.132   0.808  0.0065 -0.0309 -0.1524
 5433SOL    HW227762   2.549   4.202   0.876  0.2891 -0.7095 -0.6768
 5434SOL     OW27763   0.346   3.477   7.568 -0.1454 -0.9714 -0.2897
 5434SOL    HW127764   0.292   3.546   7.606 -1.3539 -1.2789 -1.4415
 5434SOL    HW227765   0.283   3.409   7.542  0.7058 -1.2653 -1.6152
 5435SOL     OW27766   4.417   3.823   4.214  0.0587  0.3373  0.6816
 5435SOL    HW127767   4.346   3.876   4.177 -0.0331 -1.5377 -1.7919
 5435SOL    HW227768   4.488   3.887   4.205 -0.9213  0.9064 -2.7518
 5436SOL     OW27769   0.573   2.213  11.436  0.3254 -0.0408  0.2858
 5436SOL    HW127770   0.632   2.240  11.365  1.8676  0.7246  1.8537
 5436SOL    HW227771   0.525   2.296  11.444 -0.1739 -0.3617  0.6083
 5437SOL     OW27772   2.028   1.294   1.034  1.0811 -0.5255 -0.0103
 5437SOL    HW127773   1.970   1.249   1.096  0.9953  0.2377  0.4774
 5437SOL    HW227774   2.118   1.274   1.060  1.8607  2.0208 -0.7071
 5438SOL     OW27775   1.556   0.760   8.340  0.0045 -0.1903  0.5012
 5438SOL    HW127776   1.470   0.733   8.311  0.8100 -1.3170 -0.8216
 5438SOL    HW227777   1.608   0.715   8.274 -0.0039  1.5343 -0.6747
 5439SOL     OW27778   0.777   1.510   1.610  0.5670 -0.5202  0.5404
 5439SOL    HW127779   0.812   1.596   1.634 -0.1132 -0.2600  0.6171
 5439SOL    HW227780   0.686   1.535   1.627  0.0824 -1.7928 -0.2022
 5440SOL     OW27781   1.160   3.885  11.505 -0.3610  0.0093  0.1868
 5440SOL    HW127782   1.125   3.876  11.416 -1.2258  3.4393  0.1861
 5440SOL    HW227783   1.251   3.865  11.482 -0.9219 -0.9113 -1.2836
 5441SOL     OW27784   4.198   1.423   6.087 -0.7145 -0.0937 -0.5464
 5441SOL    HW127785   4.120   1.381   6.122  1.4531 -3.3732  0.3764
 5441SOL    HW227786   4.173   1.453   6.000  1.3506  2.0046 -0.4422
 5442SOL     OW27787   3.137   3.943   3.780  0.3247 -0.3193 -0.6737
 5442SOL    HW127788   3.229   3.965   3.792 -0.2839  2.9367 -2.0771
 5442SOL    HW227789   3.094   3.984   3.856 -1.5480  0.4753 -2.1696
 5443SOL     OW27790   2.407   2.315   2.273  0.1582 -0.0621 -0.1086
 5443SOL    HW127791   2.358   2.253   2.327  0.4131  1.6700  2.0755
 5443SOL    HW227792   2.447   2.263   2.203  3.2863  1.8494  0.2451
 5444SOL     OW27793   0.752   2.880   2.517  0.1272 -0.2493 -0.0030
 5444SOL    HW127794   0.663   2.912   2.532  0.6295  1.6220 -1.0441
 5444SOL    HW227795   0.753   2.812   2.584 -1.4637 -0.0822  0.1900
 5445SOL     OW27796   3.807   0.195   4.779  0.1827  0.2822  0.2417
 5445SOL    HW127797   3.810   0.100   4.786 -0.0747  0.1384 -1.5964
 5445SOL    HW227798   3.730   0.221   4.829 -1.0777 -4.2877  0.6450
 5446SOL     OW27799   0.445   2.636  12.351 -0.1677 -0.6078 -0.1812
 5446SOL    HW127800   0.459   2.668  12.262  0.9060  2.4460  1.0713
 5446SOL    HW227801   0.352   2.658  12.359 -0.1165  0.1479 -1.7899
 5447SOL     OW27802   3.483   0.634   3.774 -0.0700  0.2959  0.0338
 5447SOL    HW127803   3.575   0.614   3.762 -0.4455 -0.2869 -1.7853
 5447SOL    HW227804   3.441   0.549   3.785 -0.7732  0.6532  0.1904
 5448SOL     OW27805   4.011   1.833  13.199 -0.0213  0.1752 -0.8000
 5448SOL    HW127806   3.932   1.838  13.145  1.4543 -0.6390 -3.0174
 5448SOL    HW227807   3.989   1.896  13.267 -0.4221 -2.2999  1.3885
 5449SOL     OW27808   3.025   4.009  10.162  0.1937  0.7510 -0.7899
 5449SOL    HW127809   3.000   3.920  10.185 -1.5493  2.1221  2.4854
 5449SOL    HW227810   3.109   4.021  10.207  0.6927 -1.3876 -1.1246
 5450SOL     OW27811   3.166   3.117  13.491  0.0081 -0.0517 -0.0336
 5450SOL    HW127812   3.178   3.185  13.424 -0.8697 -0.6536 -0.8132
 5450SOL    HW227813   3.071   3.123  13.487 -0.0193 -0.4896  0.0023
 5451SOL     OW27814   1.518   2.301   7.800 -0.2701 -0.0900 -0.1672
 5451SOL    HW127815   1.472   2.336   7.876  0.9903  0.5630  0.2924
 5451SOL    HW227816   1.528   2.383   7.752 -0.5521  1.4335  2.4128
 5452SOL     OW27817   0.649   0.338   1.157  0.4150 -0.5255  0.4660
 5452SOL    HW127818   0.629   0.294   1.240  0.9477 -0.2839  0.7230
 5452SOL    HW227819   0.742   0.351   1.174  0.7143 -1.7774 -0.2806
 5453SOL     OW27820   4.644   1.253  15.039  0.2239 -0.0898 -0.2803
 5453SOL    HW127821   4.562   1.270  14.992  0.0668  0.1039  0.0632
 5453SOL    HW227822   4.616   1.187  15.102  0.5400  0.5512  0.5287
 5454SOL     OW27823   2.752   0.826   1.282 -1.0320  0.1682  0.2853
 5454SOL    HW127824   2.741   0.837   1.187  0.4518  1.4449  0.2484
 5454SOL    HW227825   2.810   0.750   1.285 -2.1920 -0.6817  0.8940
 5455SOL     OW27826   3.117   2.088  11.267  0.3893 -0.0198  0.1902
 5455SOL    HW127827   3.162   2.057  11.346  0.8505 -1.2774 -0.5652
 5455SOL    HW227828   3.097   2.180  11.287  3.1025  1.0622 -2.1634
 5456SOL     OW27829   0.889   0.218   0.410  0.0084 -0.2721 -0.3950
 5456SOL    HW127830   0.893   0.163   0.331  0.5124 -1.4854  0.4591
 5456SOL    HW227831   0.983   0.218   0.428 -0.5592  0.9462  2.6315
 5457SOL     OW27832   1.152   4.475  10.422  0.1128  0.1175 -0.3946
 5457SOL    HW127833   1.141   4.526  10.503 -1.3828 -1.9794  0.7567
 5457SOL    HW227834   1.212   4.405  10.446 -2.6625 -2.6948 -1.6192
 5458SOL     OW27835   3.498   4.308   5.946  0.4612  0.1913  0.0913
 5458SOL    HW127836   3.519   4.271   6.032 -0.1059 -1.1069 -0.3233
 5458SOL    HW227837   3.557   4.264   5.886 -0.6334 -1.1189 -0.0201
 5459SOL     OW27838   2.598   4.060  16.067 -0.0973  0.3580  0.2017
 5459SOL    HW127839   2.644   4.141  16.045 -1.2358  1.0225  0.2714
 5459SOL    HW227840   2.520   4.091  16.112  0.4179  0.8292  0.7741
 5460SOL     OW27841   0.847   4.136   6.709  0.2755  0.4149 -0.2249
 5460SOL    HW127842   0.883   4.211   6.756  0.9038 -0.1451  0.1746
 5460SOL    HW227843   0.883   4.153   6.622 -1.8032 -1.4816 -1.4513
 5461SOL     OW27844   0.279   1.816  13.642 -0.7550  0.1366 -0.3115
 5461SOL    HW127845   0.244   1.835  13.555  0.1718  1.5331 -0.3806
 5461SOL    HW227846   0.280   1.908  13.669  2.1915  0.0221 -0.0243
 5462SOL     OW27847   2.427   4.063   4.395  0.2222 -0.0174  0.5103
 5462SOL    HW127848   2.489   4.080   4.324 -0.7318 -0.1393 -0.3606
 5462SOL    HW227849   2.431   4.147   4.441  0.2562 -0.3132  1.0517
 5463SOL     OW27850   3.540   4.341   2.237  0.7716  0.0040 -1.0264
 5463SOL    HW127851   3.572   4.267   2.185 -1.0827 -0.5861 -1.3490
 5463SOL    HW227852   3.612   4.401   2.218 -0.9148  2.1758 -0.5301
 5464SOL     OW27853   3.389   1.209   2.665  0.0832 -0.4941 -0.0746
 5464SOL    HW127854   3.375   1.166   2.749  0.7270 -2.1443 -0.8131
 5464SOL    HW227855   3.445   1.140   2.630 -1.1759 -0.5003 -2.0771
 5465SOL     OW27856   3.315   3.684   8.229 -0.2885  0.4364  0.3649
 5465SOL    HW127857   3.239   3.636   8.196  0.0893 -0.2199  0.4593
 5465SOL    HW227858   3.276   3.735   8.300 -0.9443  1.0531 -0.4305
 5466SOL     OW27859   0.136   1.513  16.963  0.6203 -0.1764 -0.1933
 5466SOL    HW127860   0.220   1.556  16.947  0.0830  1.9951  2.7357
 5466SOL    HW227861   0.165   1.433  17.006 -2.4253 -1.6601 -0.9069
 5467SOL     OW27862   0.755   4.136   8.454 -0.0729 -0.0966  0.4169
 5467SOL    HW127863   0.679   4.159   8.507 -1.4725 -1.7824 -0.8376
 5467SOL    HW227864   0.726   4.069   8.392  1.7406 -1.8121  1.3996
 5468SOL     OW27865   2.167   4.113  11.334 -0.5151 -0.6940 -0.6938
 5468SOL    HW127866   2.104   4.140  11.267  0.3453  2.8244 -0.0880
 5468SOL    HW227867   2.114   4.112  11.414  0.0858 -2.5966 -0.3213
 5469SOL     OW27868   2.479   4.684   1.644  0.6828 -0.0201  0.4956
 5469SOL    HW127869   2.524   0.036   1.681  1.5173  0.1324 -0.8234
 5469SOL    HW227870   2.467   4.638   1.727 -0.5169 -0.7936 -0.0976
 5470SOL     OW27871   3.703   1.286  12.015  0.1583  0.0644 -0.3375
 5470SOL    HW127872   3.758   1.230  12.071 -0.1732  0.1479  0.0687
 5470SOL    HW227873   3.633   1.223  11.996 -1.5720  1.9543 -0.1689
 5471SOL     OW27874   3.159   2.926   6.144  0.0900 -0.2237 -0.0976
 5471SOL    HW127875   3.159   2.967   6.230 -0.4678  0.4690 -0.4279
 5471SOL    HW227876   3.211   2.846   6.153  1.1805  0.3559 -1.2582
 5472SOL     OW27877   0.345   3.167   3.504  0.1261  0.2343 -0.3350
 5472SOL    HW127878   0.288   3.106   3.550 -0.3791  0.9503 -0.0019
 5472SOL    HW227879   0.432   3.129   3.518 -0.0292 -0.2512 -0.7298
 5473SOL     OW27880   1.317   1.044   1.743 -0.4295  0.4462  0.4746
 5473SOL    HW127881   1.277   1.034   1.829 -0.3299  2.3610  0.7483
 5473SOL    HW227882   1.263   1.107   1.694 -0.0639 -0.7565 -1.5105
 5474SOL     OW27883   2.678   2.106   8.226  0.3028 -0.0277  0.3250
 5474SOL    HW127884   2.682   2.178   8.290  0.3959  0.5785 -0.3650
 5474SOL    HW227885   2.757   2.055   8.245  0.3000 -0.7374 -1.6011
 5475SOL     OW27886   4.360   0.731   8.440  0.3718  0.0855  0.1946
 5475SOL    HW127887   4.301   0.667   8.400 -0.6205  0.3663  1.2059
 5475SOL    HW227888   4.440   0.721   8.389  0.1281 -3.8340  0.6062
 5476SOL     OW27889   3.330   2.012   3.312  0.4848  0.1966 -0.1758
 5476SOL    HW127890   3.385   1.949   3.358 -0.7284  1.4744  2.9820
 5476SOL    HW227891   3.396   2.078   3.289 -0.5285  1.2486 -0.0558
 5477SOL     OW27892   0.961   3.505   5.060  0.2384  0.2926  0.2907
 5477SOL    HW127893   0.965   3.577   4.998 -0.6989 -0.9246 -1.1877
 5477SOL    HW227894   0.938   3.550   5.141  1.5670 -0.5635  1.1407
 5478SOL     OW27895   2.776   2.148  13.413  0.0063 -0.1002 -0.1303
 5478SOL    HW127896   2.864   2.140  13.376  0.8192 -0.8631  2.0116
 5478SOL    HW227897   2.765   2.243  13.417 -3.7750 -0.6291  2.5954
 5479SOL     OW27898   2.949   0.010   5.053  0.4111 -0.4130 -0.2056
 5479SOL    HW127899   2.973   0.099   5.079  0.1259 -0.7563  1.2294
 5479SOL    HW227900   2.920   4.691   5.134 -1.9644  0.5279 -0.5462
 5480SOL     OW27901   3.380   4.196   6.464 -0.7342 -0.1464 -0.0972
 5480SOL    HW127902   3.349   4.118   6.418 -0.2363 -0.5197  0.1918
 5480SOL    HW227903   3.356   4.261   6.399  0.4881 -0.5070 -0.9079
 5481SOL     OW27904   1.820   0.550  15.329  0.2954  0.7329  0.2056
 5481SOL    HW127905   1.871   0.590  15.400  0.4916  1.8750 -0.5723
 5481SOL    HW227906   1.860   0.464  15.344  0.2037  0.5900 -0.4020
 5482SOL     OW27907   0.541   2.099   3.856 -0.1605  0.4715 -0.0279
 5482SOL    HW127908   0.492   2.181   3.850 -0.8923  0.0770  0.7077
 5482SOL    HW227909   0.531   2.053   3.773  2.4230  0.0660 -0.1382
 5483SOL     OW27910   3.983   2.119   6.061  0.1639  0.3030 -0.2951
 5483SOL    HW127911   3.960   2.115   5.969  0.4286 -0.1493 -0.3420
 5483SOL    HW227912   3.928   2.050   6.098 -1.0580  0.1246 -2.4934
 5484SOL     OW27913   1.387   1.830   7.306  0.1263 -0.6833  0.0233
 5484SOL    HW127914   1.319   1.840   7.239 -0.4857 -0.1210  0.7342
 5484SOL    HW227915   1.376   1.916   7.347  2.5024 -0.5515  0.3591
 5485SOL     OW27916   1.565   1.457   2.086 -0.5059 -0.1946 -0.0755
 5485SOL    HW127917   1.495   1.393   2.089 -0.3434 -0.4722 -1.7924
 5485SOL    HW227918   1.632   1.424   2.146  1.0438 -1.2851 -2.3839
 5486SOL     OW27919   4.189   1.555   2.404  0.2889  0.2917  0.3322
 5486SOL    HW127920   4.152   1.469   2.386 -2.5719  1.3195  1.4157
 5486SOL    HW227921   4.131   1.572   2.477 -1.9748 -0.2580 -1.3297
 5487SOL     OW27922   3.624   3.070   2.112  0.2632 -0.4946  0.1788
 5487SOL    HW127923   3.566   3.060   2.187  2.5149  1.2188  2.1069
 5487SOL    HW227924   3.621   2.985   2.067 -1.8024 -0.5856  0.4495
 5488SOL     OW27925   3.186   0.963  15.924 -0.0041  0.8519 -0.5158
 5488SOL    HW127926   3.161   1.022  15.995  2.3126 -0.0383  1.0546
 5488SOL    HW227927   3.099   0.926  15.910  0.3661  0.5700 -2.0860
 5489SOL     OW27928   3.269   3.067   1.798  0.2044 -0.5001  0.1323
 5489SOL    HW127929   3.229   3.102   1.719 -0.4619 -0.8368  0.3242
 5489SOL    HW227930   3.228   3.093   1.880 -0.6194 -0.6097 -0.2475
 5490SOL     OW27931   4.296   2.757   3.582 -0.3739 -0.0170  0.7253
 5490SOL    HW127932   4.367   2.821   3.582  2.2955 -3.0045  3.3524
 5490SOL    HW227933   4.330   2.691   3.642  1.5009  0.9540  0.7117
 5491SOL     OW27934   0.989   1.788   7.715 -0.0985  0.4413  0.0623
 5491SOL    HW127935   1.054   1.844   7.672  0.2384 -0.8023 -1.0363
 5491SOL    HW227936   0.947   1.853   7.772  0.9486  0.1062  1.2123
 5492SOL     OW27937   2.731   4.045   7.199 -0.2481  0.1683  0.3795
 5492SOL    HW127938   2.736   3.957   7.235 -2.0275 -0.5793 -1.2083
 5492SOL    HW227939   2.682   4.020   7.121  1.5480 -2.7480  0.2027
 5493SOL     OW27940   0.260   0.103  16.896 -0.5255  0.4933 -0.4779
 5493SOL    HW127941   0.231   0.108  16.988 -0.7629 -1.5203 -0.4219
 5493SOL    HW227942   0.270   0.192  16.864  0.0012  1.0008  1.0893
 5494SOL     OW27943   1.866   2.733   9.537  0.3304 -0.2967  0.2050
 5494SOL    HW127944   1.904   2.680   9.608  0.8449  0.6426  0.6287
 5494SOL    HW227945   1.789   2.681   9.516 -0.3505  1.0199 -0.5093
 5495SOL     OW27946   2.706   3.125   5.629 -0.2854 -0.0020  0.0666
 5495SOL    HW127947   2.675   3.146   5.541  0.1287  3.7136  0.8131
 5495SOL    HW227948   2.796   3.154   5.618  0.0365 -0.1096  2.4112
 5496SOL     OW27949   3.864   3.414   4.242 -0.1599 -0.1093 -0.5968
 5496SOL    HW127950   3.814   3.335   4.262 -0.1319 -0.9472 -3.8864
 5496SOL    HW227951   3.891   3.405   4.151  1.7817 -1.4196  0.1211
 5497SOL     OW27952   1.225   3.323   4.799 -0.0991 -0.1623 -0.1883
 5497SOL    HW127953   1.220   3.251   4.862  3.6968  1.1153  1.5765
 5497SOL    HW227954   1.305   3.366   4.828  1.8157 -1.9283 -2.9706
 5498SOL     OW27955   3.842   3.940   5.405 -0.1221 -0.4115 -0.3494
 5498SOL    HW127956   3.864   3.872   5.340 -0.5860  1.8356 -2.8741
 5498SOL    HW227957   3.930   3.973   5.421 -0.2671 -0.9392  1.4688
 5499SOL     OW27958   1.310   3.268   1.121 -0.0733 -0.3010 -0.3134
 5499SOL    HW127959   1.236   3.315   1.084 -1.2432 -0.4315  1.8736
 5499SOL    HW227960   1.330   3.326   1.194 -1.5849 -1.8555  1.3471
 5500SOL     OW27961   1.674   0.928   6.695  0.7113  0.1900  0.4937
 5500SOL    HW127962   1.684   1.023   6.693 -2.4811  0.5131  1.3776
 5500SOL    HW227963   1.590   0.915   6.739  0.9069 -1.9360  0.2662
 5501SOL     OW27964   0.957   1.181   2.523  0.2272  0.0367 -0.0620
 5501SOL    HW127965   0.923   1.098   2.491  3.0533 -0.8178 -0.7884
 5501SOL    HW227966   0.951   1.184   2.619 -2.1374  0.6079 -0.2217
 5502SOL     OW27967   0.380   3.451  11.642 -0.7457  0.3603 -0.1091
 5502SOL    HW127968   0.443   3.476  11.709  0.6581 -0.6513 -1.0743
 5502SOL    HW227969   0.295   3.483  11.673 -0.7031 -0.9900  1.4371
 5503SOL     OW27970   0.676   1.819   3.098  0.0351  0.6534 -0.0274
 5503SOL    HW127971   0.734   1.877   3.148 -0.1698  1.3947 -0.6369
 5503SOL    HW227972   0.589   1.858   3.108  1.3285  4.1625 -2.2018
 5504SOL     OW27973   0.621   4.148  15.332 -0.2282 -0.2803 -0.1469
 5504SOL    HW127974   0.631   4.177  15.242 -0.3488 -0.1449 -0.1160
 5504SOL    HW227975   0.583   4.226  15.373  2.2105  0.9104 -0.1605
 5505SOL     OW27976   1.526   3.886   7.652  0.3504  0.4536 -0.3307
 5505SOL    HW127977   1.614   3.920   7.671  0.5132  1.3253 -2.6460
 5505SOL    HW227978   1.492   3.955   7.595  0.9827 -0.4120 -1.7351
 5506SOL     OW27979   1.370   3.041   3.045  0.1234  0.0115  0.2389
 5506SOL    HW127980   1.295   3.036   2.986  0.9360  1.3284 -0.8762
 5506SOL    HW227981   1.420   3.112   3.006  2.4961 -1.4924  0.5378
 5507SOL     OW27982   3.401   4.543   7.881 -0.0561 -0.1594  0.5792
 5507SOL    HW127983   3.314   4.523   7.915 -0.9013  0.1618 -1.3735
 5507SOL    HW227984   3.386   4.523   7.788 -0.6367 -0.6908  0.7866
 5508SOL     OW27985   1.570   1.301   4.595  0.3124 -0.7145  0.4737
 5508SOL    HW127986   1.571   1.269   4.686 -0.4521  0.1023  0.7765
 5508SOL    HW227987   1.630   1.374   4.611  0.7161 -0.5167 -1.9871
 5509SOL     OW27988   1.437   0.147   5.923  0.5067  0.5924 -0.1124
 5509SOL    HW127989   1.349   0.131   5.959  1.5835 -0.3492  2.0980
 5509SOL    HW227990   1.483   0.100   5.992 -0.3697  1.8154  1.2988
 5510SOL     OW27991   0.427   1.299   2.133  0.6259 -0.5300 -0.5862
 5510SOL    HW127992   0.404   1.220   2.181  2.7165 -1.0491 -0.4142
 5510SOL    HW227993   0.483   1.272   2.060  1.3448  2.3220 -1.0937
 5511SOL     OW27994   4.387   4.191   3.979  0.2228  0.8397  0.1875
 5511SOL    HW127995   4.334   4.262   4.016  1.9617  2.0464  0.3761
 5511SOL    HW227996   4.338   4.120   4.019  2.6654 -0.1365  1.4416
 5512SOL     OW27997   4.696   1.330   8.398  0.6026 -0.4731 -0.6566
 5512SOL    HW127998   0.066   1.348   8.398  0.2545  1.4211  1.0291
 5512SOL    HW227999   4.676   1.354   8.489  1.5953  0.6696 -0.7306
 5513SOL     OW28000   1.520   3.708   3.541 -0.1059  0.0303  0.2265
 5513SOL    HW128001   1.513   3.643   3.611  0.1406  2.0385  2.1132
 5513SOL    HW228002   1.614   3.711   3.526 -0.1925  2.1377  0.1088
 5514SOL     OW28003   2.476   4.635   3.334 -0.1827  0.3757  0.0250
 5514SOL    HW128004   2.482   4.682   3.251  2.4229 -0.1998 -0.1124
 5514SOL    HW228005   2.569   4.616   3.349 -0.2002 -0.2472 -0.6883
 5515SOL     OW28006   3.219   1.490  14.108  0.5029  0.0147 -0.3049
 5515SOL    HW128007   3.163   1.464  14.181  0.3112  0.1638 -0.3998
 5515SOL    HW228008   3.234   1.402  14.072  0.3549 -0.7131  1.3992
 5516SOL     OW28009   3.744   1.026   2.774 -0.5882 -0.1380  0.1366
 5516SOL    HW128010   3.797   0.961   2.728 -0.8321  0.5030 -1.0711
 5516SOL    HW228011   3.771   1.102   2.721  1.6323  0.5711  2.3010
 5517SOL     OW28012   0.267   3.122   5.441 -0.4153  0.6329  0.4081
 5517SOL    HW128013   0.282   3.040   5.394 -1.6247  1.7636 -1.8962
 5517SOL    HW228014   0.342   3.176   5.416 -1.2042  2.2484  1.5717
 5518SOL     OW28015   2.581   1.494   0.028 -0.1687 -0.1877  0.6160
 5518SOL    HW128016   2.643   1.566   0.013  2.7919 -2.7687  0.4427
 5518SOL    HW228017   2.599   1.449  17.643  0.1026  0.3006  0.4017
 5519SOL     OW28018   2.450   2.705  15.726 -0.0658 -0.0243  0.5544
 5519SOL    HW128019   2.530   2.707  15.674  0.4430 -0.2921  1.3325
 5519SOL    HW228020   2.428   2.795  15.702  1.3210  0.7084  2.0479
 5520SOL     OW28021   2.973   1.964   5.574 -0.3194 -0.2480 -0.0725
 5520SOL    HW128022   3.040   1.920   5.521 -0.8462 -1.0656 -0.0544
 5520SOL    HW228023   3.020   2.039   5.610 -0.4870 -0.2889  0.2234
 5521SOL     OW28024   2.133   0.517  11.523 -0.5030 -0.0159 -0.9403
 5521SOL    HW128025   2.163   0.466  11.449 -4.5264 -4.6790  0.6258
 5521SOL    HW228026   2.111   0.448  11.586 -0.4997  0.8908  0.0665
 5522SOL     OW28027   3.979   3.130  16.106 -0.4563  0.1363 -0.0717
 5522SOL    HW128028   4.065   3.167  16.128 -0.3184 -0.2307  0.0108
 5522SOL    HW228029   3.956   3.168  16.021 -1.7076  2.0909  1.1320
 5523SOL     OW28030   1.049   0.039   2.990 -0.3569 -0.3961  0.2362
 5523SOL    HW128031   1.060   0.051   2.895  0.8558  3.2456  0.8259
 5523SOL    HW228032   1.113   4.692   2.999 -0.3295 -0.2641  1.0205
 5524SOL     OW28033   4.721   2.330   4.383  0.0754  0.4150  0.2436
 5524SOL    HW128034   4.678   2.261   4.433  0.0471  0.8725  0.8564
 5524SOL    HW228035   4.652   2.396   4.382  0.3051  0.6263 -0.8545
 5525SOL     OW28036   3.152   0.982   6.128 -0.2404 -0.2120  0.0937
 5525SOL    HW128037   3.206   0.917   6.173  1.2615  2.0836  1.6024
 5525SOL    HW228038   3.067   0.939   6.116 -0.9861  0.6623  2.2398
 5526SOL     OW28039   3.013   3.549   8.148 -0.4522 -0.7896 -0.4976
 5526SOL    HW128040   2.921   3.540   8.171 -0.4631  1.7428  0.4678
 5526SOL    HW228041   3.053   3.510   8.226 -2.3476  2.1247  1.9308
 5527SOL     OW28042   3.253   1.047   1.991 -0.0070  0.7289 -0.5134
 5527SOL    HW128043   3.339   1.075   1.959  0.4020  1.5521  1.2932
 5527SOL    HW228044   3.271   1.062   2.084 -0.7200 -2.9647  0.2370
 5528SOL     OW28045   3.854   1.007   9.130  0.2607 -0.3035  0.0657
 5528SOL    HW128046   3.866   0.954   9.051  0.1365 -0.4379  0.1348
 5528SOL    HW228047   3.777   0.966   9.170 -1.1975  1.0437 -1.3739
 5529SOL     OW28048   1.055   2.365   5.882  0.1377  0.5104  0.2757
 5529SOL    HW128049   1.074   2.419   5.806 -1.1744  0.7546  0.1158
 5529SOL    HW228050   1.104   2.415   5.947  0.9529  0.1523 -0.0656
 5530SOL     OW28051   3.656   4.569   2.444 -0.4005 -0.2312 -0.4468
 5530SOL    HW128052   3.728   4.630   2.464  1.1258 -1.4586 -2.2409
 5530SOL    HW228053   3.675   4.559   2.351  0.5888 -1.6245 -0.0952
 5531SOL     OW28054   3.172   4.139   0.071  0.0465 -0.1369 -0.2425
 5531SOL    HW128055   3.252   4.127   0.021  0.3983  1.3690 -0.0314
 5531SOL    HW228056   3.152   4.054   0.111 -2.2516  0.6015  0.2424
 5532SOL     OW28057   3.044   1.265   8.417  0.7035 -0.2098  0.1248
 5532SOL    HW128058   3.129   1.295   8.385  0.9050 -1.2912 -0.3728
 5532SOL    HW228059   3.025   1.189   8.362  1.5619  0.2037 -0.7381
 5533SOL     OW28060   1.722   4.462  14.656 -0.1899 -0.9523 -0.2981
 5533SOL    HW128061   1.653   4.396  14.665 -1.1149  0.4782  2.9599
 5533SOL    HW228062   1.715   4.488  14.564  0.6413  2.3036  0.5678
 5534SOL     OW28063   0.849   1.885  12.952 -0.5362  0.0034  0.4983
 5534SOL    HW128064   0.811   1.857  12.868 -0.9265 -1.1113  1.0495
 5534SOL    HW228065   0.941   1.897  12.929 -0.6850 -0.2294 -0.2260
 5535SOL     OW28066   4.096   1.557  14.674  0.1714 -0.1363 -0.6553
 5535SOL    HW128067   4.046   1.632  14.707  0.8903  0.1906 -0.3077
 5535SOL    HW228068   4.108   1.569  14.580 -1.6424  0.2716 -0.8426
 5536SOL     OW28069   1.127   4.435   4.731  0.4533  0.0762  0.3410
 5536SOL    HW128070   1.096   4.435   4.640  0.5654  0.6902  0.3020
 5536SOL    HW228071   1.046   4.450   4.779 -0.1378 -0.7809 -0.3867
 5537SOL     OW28072   1.581   4.671   1.721  0.2161  0.4278 -0.2756
 5537SOL    HW128073   1.624   4.721   1.652  0.6295 -0.2186 -0.4840
 5537SOL    HW228074   1.497   4.658   1.676  0.2403 -2.6016  0.5643
 5538SOL     OW28075   4.366   0.100  15.877  0.1119  0.1153  0.0382
 5538SOL    HW128076   4.325   0.173  15.923  0.7044 -0.0758  0.8682
 5538SOL    HW228077   4.449   0.094  15.924 -1.9625  0.6234  3.8015
 5539SOL     OW28078   0.665   2.234   6.601  0.6005 -0.1032 -0.3483
 5539SOL    HW128079   0.697   2.324   6.611 -0.7228  0.7494 -3.8673
 5539SOL    HW228080   0.718   2.204   6.527 -0.4370 -0.8479 -0.7784
 5540SOL     OW28081   2.891   3.617   6.220  0.3436 -0.0452 -0.1421
 5540SOL    HW128082   2.885   3.701   6.264 -1.3139 -0.1147 -0.2356
 5540SOL    HW228083   2.797   3.609   6.203  0.5988 -0.6155 -1.3382
 5541SOL     OW28084   0.331   1.522   0.496 -0.7166 -0.4227  0.1488
 5541SOL    HW128085   0.418   1.484   0.507 -0.4883 -0.8674 -3.1429
 5541SOL    HW228086   0.275   1.449   0.468 -0.2570 -0.6026 -0.2942
 5542SOL     OW28087   4.264   1.930   7.061  0.3556  0.5081  0.2911
 5542SOL    HW128088   4.262   1.840   7.028  2.3290  0.5179  0.1300
 5542SOL    HW228089   4.211   1.926   7.141 -1.0241  0.6925 -0.6030
 5543SOL     OW28090   3.331   3.586   9.137 -0.6915 -0.0425  0.0978
 5543SOL    HW128091   3.377   3.555   9.059  1.2232 -2.0641  2.0245
 5543SOL    HW228092   3.239   3.561   9.122 -0.4522 -0.1056 -1.2660
 5544SOL     OW28093   3.627   2.088   6.521  0.1653 -0.1375 -0.2809
 5544SOL    HW128094   3.587   2.023   6.462 -1.7177  1.0982 -0.3698
 5544SOL    HW228095   3.650   2.033   6.596  0.2240  0.7132  0.3233
 5545SOL     OW28096   1.274   2.783  16.743 -0.2921  0.6507  0.6665
 5545SOL    HW128097   1.237   2.743  16.821 -1.8021  0.5246 -0.1176
 5545SOL    HW228098   1.331   2.707  16.729  0.2722  1.2986 -0.6009
 5546SOL     OW28099   4.641   3.538   2.155 -0.0797  0.4714  0.1665
 5546SOL    HW128100   0.007   3.504   2.165  0.6254  2.0854 -0.6335
 5546SOL    HW228101   4.619   3.548   2.248 -1.6756 -0.0693 -0.1726
 5547SOL     OW28102   2.221   0.634   3.637 -0.2172  0.4822 -0.1553
 5547SOL    HW128103   2.236   0.660   3.546  1.3870  1.8222  0.4812
 5547SOL    HW228104   2.270   0.551   3.638  0.8851  1.1336 -0.4728
 5548SOL     OW28105   3.738   2.738   8.482 -0.0031 -0.2835 -0.4226
 5548SOL    HW128106   3.772   2.819   8.520  0.6566 -0.2303 -1.1226
 5548SOL    HW228107   3.691   2.707   8.559  0.2284  1.5197  0.4501
 5549SOL     OW28108   4.277   1.754   0.696 -0.7505  0.1391 -0.3734
 5549SOL    HW128109   4.217   1.705   0.752  1.2353  0.9080  2.4412
 5549SOL    HW228110   4.304   1.683   0.638 -1.8998  0.8545 -1.7763
 5550SOL     OW28111   3.678   2.309   8.077  0.3036 -0.1744 -0.5542
 5550SOL    HW128112   3.691   2.391   8.123  2.6246 -0.6223 -0.4171
 5550SOL    HW228113   3.764   2.270   8.094  0.8638  0.5798 -1.6878
 5551SOL     OW28114   0.102   3.718   6.124 -0.3404  0.3996 -0.9108
 5551SOL    HW128115   0.151   3.795   6.152 -0.3264 -0.2130  0.7555
 5551SOL    HW228116   0.107   3.663   6.202 -1.0355  1.6130 -0.0101
 5552SOL     OW28117   1.702   1.239   7.208  0.2149 -0.1645  0.7016
 5552SOL    HW128118   1.609   1.224   7.193  0.8257  0.8013 -4.3210
 5552SOL    HW228119   1.719   1.161   7.261 -0.9877 -2.2803 -2.0180
 5553SOL     OW28120   1.632   3.526   6.364  0.5174  0.3043 -0.5240
 5553SOL    HW128121   1.615   3.590   6.295 -2.1976  1.1784  0.9670
 5553SOL    HW228122   1.543   3.500   6.386 -0.1146 -0.0571 -3.4040
 5554SOL     OW28123   4.546   2.650   2.372  0.1947  0.2929  0.2289
 5554SOL    HW128124   4.602   2.597   2.429 -2.3131 -2.4781  0.0969
 5554SOL    HW228125   4.538   2.595   2.294  0.1831  1.6800 -0.7416
 5555SOL     OW28126   4.375   4.322   9.979 -0.0563 -0.8648  0.4841
 5555SOL    HW128127   4.342   4.244   9.934 -0.7189 -0.3296  0.0413
 5555SOL    HW228128   4.459   4.284  10.003  0.0047 -0.1452  1.4080
 5556SOL     OW28129   2.685   2.353   3.488 -0.0843  0.0445 -0.1366
 5556SOL    HW128130   2.621   2.314   3.430  0.7204 -1.1901 -0.1805
 5556SOL    HW228131   2.745   2.279   3.496 -0.1318 -0.1562 -1.8006
 5557SOL     OW28132   0.265   4.403   8.259  0.3007 -0.2072  0.5933
 5557SOL    HW128133   0.267   4.422   8.165  1.8216 -2.0515  0.2432
 5557SOL    HW228134   0.361   4.400   8.263  0.3646 -2.1821 -2.0630
 5558SOL     OW28135   0.197   4.263   5.499 -0.1568 -1.0627 -0.4237
 5558SOL    HW128136   0.283   4.220   5.500  0.3178 -0.1054  0.0114
 5558SOL    HW228137   0.187   4.256   5.404  1.9423 -2.2538 -0.5399
 5559SOL     OW28138   3.058   0.916   7.428 -0.0476  0.2975  0.0901
 5559SOL    HW128139   3.019   0.855   7.365  0.8366  2.2785 -2.3965
 5559SOL    HW228140   3.013   0.995   7.398 -1.0861 -1.0855 -2.0206
 5560SOL     OW28141   0.473   0.691   5.136 -0.0117 -0.5903 -0.8284
 5560SOL    HW128142   0.539   0.761   5.134 -0.6105 -0.0549 -2.1733
 5560SOL    HW228143   0.507   0.638   5.064 -1.2678 -0.8928 -1.1976
 5561SOL     OW28144   4.551   1.083  12.303 -0.2265 -0.2757  0.1599
 5561SOL    HW128145   4.504   1.003  12.276 -0.1952  0.3967 -1.8935
 5561SOL    HW228146   4.526   1.137  12.228 -2.0812  1.1098  1.7838
 5562SOL     OW28147   2.030   0.209   3.912  0.2987 -0.2894 -0.2286
 5562SOL    HW128148   2.119   0.174   3.905 -0.0107 -0.5854 -2.7105
 5562SOL    HW228149   2.014   0.271   3.841  0.1697  1.7551  1.5849
 5563SOL     OW28150   3.429   2.593   8.032  0.2792  0.1194  0.0759
 5563SOL    HW128151   3.421   2.501   8.009 -0.2185  0.5191 -1.3378
 5563SOL    HW228152   3.505   2.621   7.981 -2.7387  1.1565 -3.8350
 5564SOL     OW28153   4.484   1.190  12.866  0.4588 -0.2562 -0.7096
 5564SOL    HW128154   4.491   1.096  12.881 -2.6053 -0.1861  0.9993
 5564SOL    HW228155   4.567   1.211  12.909 -0.6051  0.0999  1.1590
 5565SOL     OW28156   1.748   1.372   6.199  0.1912  0.5164  0.0907
 5565SOL    HW128157   1.737   1.450   6.253  0.9211 -0.1960  1.2657
 5565SOL    HW228158   1.708   1.308   6.259  1.2524 -2.6241 -2.5291
 5566SOL     OW28159   2.816   2.109   3.364  0.1209 -0.4894 -0.4083
 5566SOL    HW128160   2.796   2.015   3.368  0.7684 -0.6019  0.1648
 5566SOL    HW228161   2.740   2.141   3.314 -1.9437 -1.6615  2.0027
 5567SOL     OW28162   3.835   4.681   8.648 -0.7800  0.3724  0.3228
 5567SOL    HW128163   3.868   0.018   8.581  0.4681  0.0048  0.6086
 5567SOL    HW228164   3.783   4.614   8.604  0.7161 -1.2937  1.1208
 5568SOL     OW28165   0.242   4.583   5.034 -0.3733 -0.0532  0.3002
 5568SOL    HW128166   0.289   4.658   5.070  1.1492 -1.9466  2.2676
 5568SOL    HW228167   0.150   4.605   5.045 -0.6916 -0.9383 -0.6464
 5569SOL     OW28168   3.292   4.399   3.388 -0.7579 -0.5729  0.1629
 5569SOL    HW128169   3.249   4.316   3.406 -0.1132 -1.2349 -1.3212
 5569SOL    HW228170   3.322   4.390   3.297 -0.7372 -0.0400  0.1189
 5570SOL     OW28171   0.170   3.191   9.769 -0.6501  0.3173 -0.0225
 5570SOL    HW128172   0.107   3.178   9.840  0.0901 -1.6681  0.2932
 5570SOL    HW228173   0.129   3.252   9.709  0.6036 -1.4128 -2.6417
 5571SOL     OW28174   1.301   2.500   7.716  0.1247 -0.2154 -0.9299
 5571SOL    HW128175   1.285   2.480   7.808  3.9448  0.5775 -0.1004
 5571SOL    HW228176   1.306   2.596   7.719  1.8417 -0.3066 -1.0813
 5572SOL     OW28177   4.569   4.018  13.463  0.0851  0.1632 -0.3874
 5572SOL    HW128178   4.559   4.113  13.461  0.3205  0.1534 -2.0281
 5572SOL    HW228179   4.480   3.998  13.433 -0.7068  0.4071  1.7871
 5573SOL     OW28180   4.335   2.387   4.765  0.4717  0.1000 -0.2136
 5573SOL    HW128181   4.318   2.329   4.839 -0.3022  0.4702 -0.1039
 5573SOL    HW228182   4.430   2.385   4.751  0.6541  0.9628  0.8564
 5574SOL     OW28183   1.277   3.417  10.845  0.0717  0.0001  0.4230
 5574SOL    HW128184   1.262   3.331  10.803 -1.1097 -0.2368  1.3354
 5574SOL    HW228185   1.372   3.409  10.851 -0.1783 -2.5385  1.0319
 5575SOL     OW28186   3.384   3.762  12.139  0.1441 -0.6329  0.2914
 5575SOL    HW128187   3.302   3.793  12.100  0.5773  0.2309  0.0750
 5575SOL    HW228188   3.427   3.845  12.158  0.8862 -1.1521  0.8546
 5576SOL     OW28189   2.424   0.725   4.524  0.1392  0.5055 -0.0533
 5576SOL    HW128190   2.372   0.660   4.571  0.2206  0.0282 -0.6220
 5576SOL    HW228191   2.437   0.780   4.601 -0.9549  0.9654 -0.2036
 5577SOL     OW28192   3.160   1.929   0.786 -0.0190 -0.7219  0.1892
 5577SOL    HW128193   3.229   1.932   0.852  0.0246  0.7324  0.0778
 5577SOL    HW228194   3.140   2.022   0.774 -1.6861 -0.9972  0.7917
 5578SOL     OW28195   1.410   3.578   7.847  1.0475 -0.2708  0.4816
 5578SOL    HW128196   1.440   3.587   7.757  2.3663 -0.1870  0.9264
 5578SOL    HW228197   1.417   3.663   7.889 -0.2297 -0.0211  0.1928
 5579SOL     OW28198   2.609   0.943   8.818 -0.2154 -0.3329  0.1623
 5579SOL    HW128199   2.538   0.922   8.757 -1.4232  2.2936  0.6659
 5579SOL    HW228200   2.595   0.882   8.891 -0.6995  0.0879  0.4115
 5580SOL     OW28201   4.077   3.996   1.596 -0.3664  0.1103  0.8804
 5580SOL    HW128202   4.051   3.955   1.514 -0.3365 -0.0481  0.9510
 5580SOL    HW228203   4.171   4.012   1.583 -0.1203 -1.5206  0.6296
 5581SOL     OW28204   3.548   2.826  13.324 -0.0457  0.0159 -0.3218
 5581SOL    HW128205   3.618   2.887  13.299 -0.1836  0.6853  0.9422
 5581SOL    HW228206   3.580   2.796  13.409  1.6015  0.0658 -0.9265
 5582SOL     OW28207   3.470   3.991   1.380 -0.3222 -0.1571 -0.2510
 5582SOL    HW128208   3.517   3.922   1.333 -0.4000 -0.1425 -0.3493
 5582SOL    HW228209   3.531   4.060   1.404  1.8145 -1.9883 -0.4190
 5583SOL     OW28210   0.997   4.304   4.108 -0.3889 -0.2414  0.1410
 5583SOL    HW128211   1.050   4.317   4.187  0.3806 -1.4553 -0.1680
 5583SOL    HW228212   1.057   4.246   4.062  0.3104  1.2311 -0.7850
 5584SOL     OW28213   2.770   0.169   6.338  0.4694 -0.3651 -0.4253
 5584SOL    HW128214   2.722   0.112   6.277 -1.1078 -1.5898  1.9902
 5584SOL    HW228215   2.693   0.193   6.389  2.4960  0.6023  2.1590
 5585SOL     OW28216   1.772   3.356   2.796 -0.0752 -0.2219  0.5096
 5585SOL    HW128217   1.798   3.442   2.831 -0.0939 -0.2804  0.6664
 5585SOL    HW228218   1.839   3.341   2.729 -0.0676  0.7959  0.2847
 5586SOL     OW28219   3.816   3.719   1.934  0.1235 -0.2584 -0.1852
 5586SOL    HW128220   3.836   3.642   1.987  1.3575 -0.4044 -0.8709
 5586SOL    HW228221   3.902   3.758   1.920 -0.3531 -0.0778 -2.6228
 5587SOL     OW28222   2.243   2.046  16.255  0.2305  0.3729 -0.1798
 5587SOL    HW128223   2.197   1.967  16.227  0.5381  0.8922 -2.1205
 5587SOL    HW228224   2.168   2.096  16.287  0.5489 -0.8940  2.5548
 5588SOL     OW28225   2.219   1.277   9.859  0.1136  0.1494  0.1021
 5588SOL    HW128226   2.237   1.365   9.894  2.1695  0.1042 -0.8476
 5588SOL    HW228227   2.236   1.225   9.938 -0.5711 -1.6091 -0.9208
 5589SOL     OW28228   4.533   1.341   5.693  0.4603 -0.2655 -0.1602
 5589SOL    HW128229   4.550   1.268   5.752 -0.2665 -1.7198 -1.7415
 5589SOL    HW228230   4.440   1.337   5.668  0.6135  1.5376 -0.9610
 5590SOL     OW28231   1.619   1.978   4.413  0.4123 -0.3985 -0.0223
 5590SOL    HW128232   1.527   1.998   4.429 -0.0328 -0.8093 -1.9611
 5590SOL    HW228233   1.659   2.037   4.476  1.1668 -1.1265  0.1717
 5591SOL     OW28234   2.374   4.584   4.567  0.1618 -0.3058  0.2522
 5591SOL    HW128235   2.309   4.516   4.583 -1.9906  1.6995 -0.0128
 5591SOL    HW228236   2.365   4.583   4.471 -0.0102  2.6617  0.2344
 5592SOL     OW28237   3.883   1.241   9.783  0.2506 -0.1738 -0.1642
 5592SOL    HW128238   3.881   1.298   9.860 -0.3711 -0.6249  0.1563
 5592SOL    HW228239   3.825   1.172   9.816  0.1919 -0.7794 -1.5059
 5593SOL     OW28240   2.621   2.197  13.031 -0.0344  0.0157 -0.1856
 5593SOL    HW128241   2.633   2.123  13.091 -1.8081  1.5887  2.1298
 5593SOL    HW228242   2.686   2.170  12.966  0.9485  1.8885  0.0386
 5594SOL     OW28243   0.986   0.467   6.303 -0.0914 -0.1442 -0.5057
 5594SOL    HW128244   0.988   0.378   6.338  1.2612  0.0345 -0.1303
 5594SOL    HW228245   1.057   0.509   6.351  0.3935 -0.7835 -0.6554
 5595SOL     OW28246   3.495   3.189  16.669 -0.9517  0.3492 -0.2336
 5595SOL    HW128247   3.504   3.261  16.731 -0.7272 -0.1302  0.2942
 5595SOL    HW228248   3.570   3.187  16.609 -0.5955  2.1113  0.1498
 5596SOL     OW28249   4.290   2.392   8.922  0.1959  0.1877  0.5388
 5596SOL    HW128250   4.296   2.462   8.987 -2.1345  1.8640 -1.0310
 5596SOL    HW228251   4.375   2.349   8.928  0.2810  0.1459 -1.0199
 5597SOL     OW28252   3.374   3.147   6.842 -0.4432 -0.1115  0.0278
 5597SOL    HW128253   3.371   3.168   6.936  1.2186 -1.5626  0.4036
 5597SOL    HW228254   3.352   3.055   6.831  0.4348 -0.1807 -1.1615
 5598SOL     OW28255   3.872   3.683   7.080 -0.5475  0.2513  0.3223
 5598SOL    HW128256   3.795   3.715   7.033 -0.3187  2.6904  1.6168
 5598SOL    HW228257   3.895   3.608   7.025  2.0725  1.1904  0.1478
 5599SOL     OW28258   3.384   2.400   6.788 -0.1756 -0.2535  0.0564
 5599SOL    HW128259   3.474   2.425   6.768  0.0562  0.1014  1.5330
 5599SOL    HW228260   3.384   2.313   6.827 -1.6964  0.5149  1.7360
 5600SOL     OW28261   2.856   4.329   3.439  0.2377  0.2421  0.8237
 5600SOL    HW128262   2.898   4.305   3.357 -1.8103 -1.3953  0.2549
 5600SOL    HW228263   2.792   4.397   3.419 -0.6729 -1.1985 -1.1252
 5601SOL     OW28264   0.167   3.712   5.838  0.0779 -0.4329 -0.3209
 5601SOL    HW128265   0.140   3.720   5.930 -1.0586  0.0867 -0.6995
 5601SOL    HW228266   0.154   3.618   5.823  0.9819 -0.4343 -1.1129
 5602SOL     OW28267   3.508   4.416   4.594 -0.0365 -0.2718  0.0124
 5602SOL    HW128268   3.438   4.369   4.549  0.3619 -2.2105  1.4023
 5602SOL    HW228269   3.463   4.446   4.673  0.0997 -1.3980  0.5196
 5603SOL     OW28270   4.481   1.290   8.058  0.0819  0.4437  0.3632
 5603SOL    HW128271   4.546   1.360   8.068  0.6889 -0.5834  3.7994
 5603SOL    HW228272   4.432   1.300   8.140 -0.6389 -1.6621  0.1914
 5604SOL     OW28273   4.709   1.780   5.241  0.0608 -0.4302 -0.1068
 5604SOL    HW128274   4.710   1.861   5.191  3.1801 -0.3429  0.1405
 5604SOL    HW228275   4.623   1.777   5.284 -0.1125  1.4760 -0.3334
 5605SOL     OW28276   0.954   1.016   3.690  0.5097 -0.9254 -0.2923
 5605SOL    HW128277   0.887   1.085   3.695 -0.3461 -1.6657 -1.4983
 5605SOL    HW228278   1.036   1.053   3.657  1.4999 -2.0173  0.9757
 5606SOL     OW28279   4.112   3.220   1.510  0.1487 -0.4349 -0.2972
 5606SOL    HW128280   4.067   3.256   1.433 -1.1897  1.4052  1.3410
 5606SOL    HW228281   4.178   3.171   1.461 -1.5444 -0.5589 -2.4943
 5607SOL     OW28282   2.022   2.666   4.328  0.1498 -0.6990 -0.5167
 5607SOL    HW128283   2.088   2.715   4.377 -1.0176  1.1351 -0.7870
 5607SOL    HW228284   1.969   2.624   4.395  0.2477 -1.2527 -0.7853
 5608SOL     OW28285   3.199   3.848   8.424  0.0680 -0.0602 -0.2168
 5608SOL    HW128286   3.138   3.887   8.487  0.4550 -1.1960  0.8532
 5608SOL    HW228287   3.144   3.864   8.347 -0.0094  0.2222 -0.1023
 5609SOL     OW28288   4.710   3.698   7.440 -0.1173 -0.1705  0.1043
 5609SOL    HW128289   4.702   3.743   7.356  2.5073 -1.9513 -1.1014
 5609SOL    HW228290   4.635   3.641   7.425 -1.1096  0.9722  0.6787
 5610SOL     OW28291   0.452   2.031   9.623 -0.2824  0.1505  0.0047
 5610SOL    HW128292   0.456   2.115   9.576  0.2720  0.1975  0.1339
 5610SOL    HW228293   0.384   2.052   9.686 -0.3248  1.1816 -0.3815
 5611SOL     OW28294   3.654   1.325  14.771 -0.3911  0.1805  0.4087
 5611SOL    HW128295   3.717   1.365  14.711 -0.2211 -1.1587 -0.3006
 5611SOL    HW228296   3.602   1.270  14.712  0.4985  0.0927 -0.2837
 5612SOL     OW28297   0.473   3.077   7.153  0.7137 -0.2065 -0.0745
 5612SOL    HW128298   0.463   3.170   7.172  1.0680  0.5960 -3.7945
 5612SOL    HW228299   0.546   3.093   7.093  1.1291  0.3017  0.5698
 5613SOL     OW28300   4.330   3.093   1.394  0.0158  0.0073  0.5442
 5613SOL    HW128301   4.327   3.045   1.311  0.1032  0.6012  0.1958
 5613SOL    HW228302   4.329   3.023   1.459 -0.1514  0.6236  1.1961
 5614SOL     OW28303   0.649   3.710   4.158 -0.0774 -0.1399  0.0084
 5614SOL    HW128304   0.554   3.714   4.155 -0.0554 -0.4239 -1.3606
 5614SOL    HW228305   0.665   3.774   4.227 -3.1268  1.4508 -0.7604
 5615SOL     OW28306   1.639   4.337   3.574 -0.1203 -0.0143 -0.6544
 5615SOL    HW128307   1.703   4.371   3.510 -2.2720  1.3105 -2.1249
 5615SOL    HW228308   1.561   4.389   3.551 -0.3881  0.3683  1.1586
 5616SOL     OW28309   1.026   1.532   4.243 -0.2021  0.6659 -0.4015
 5616SOL    HW128310   1.062   1.449   4.273 -2.9298 -1.3658 -2.7632
 5616SOL    HW228311   1.087   1.552   4.172 -0.1590  1.5106 -0.1326
 5617SOL     OW28312   0.445   3.339   7.769 -0.1958 -0.0690  0.1448
 5617SOL    HW128313   0.419   3.368   7.681  0.8686 -0.3259 -0.2581
 5617SOL    HW228314   0.362   3.327   7.815 -0.1417  1.7894  0.7255
 5618SOL     OW28315   2.573   4.101   5.333  0.7480 -0.0955  0.8501
 5618SOL    HW128316   2.505   4.074   5.270  2.3861 -0.6520 -0.6691
 5618SOL    HW228317   2.636   4.143   5.275 -2.2623 -0.6848 -2.9116
 5619SOL     OW28318   2.381   0.001   6.903  0.6230  0.1481  0.4962
 5619SOL    HW128319   2.322   4.711   6.978  1.9638 -3.8645  0.8387
 5619SOL    HW228320   2.347   4.655   6.848  1.5173  0.4711 -0.4590
 5620SOL     OW28321   1.256   3.332   2.979  0.1322  0.1169  0.2702
 5620SOL    HW128322   1.244   3.314   3.072 -0.2279 -0.5622  0.0888
 5620SOL    HW228323   1.346   3.305   2.962 -0.0186 -0.1619 -0.0665
 5621SOL     OW28324   3.999   2.576   3.076 -0.0582  0.5997 -0.2843
 5621SOL    HW128325   3.982   2.670   3.085  0.1074  0.3469  2.6094
 5621SOL    HW228326   3.927   2.536   3.125  0.1278 -1.5515 -1.8020
 5622SOL     OW28327   4.584   0.635  12.317  0.4767  0.1636 -0.4032
 5622SOL    HW128328   4.567   0.590  12.400 -1.8316 -2.5489 -2.3515
 5622SOL    HW228329   4.617   0.555  12.276 -0.9163 -1.2746  1.3004
 5623SOL     OW28330   1.703   4.056   3.470 -0.1766  0.1890  0.3528
 5623SOL    HW128331   1.735   4.043   3.559  0.4366  1.5361  0.3406
 5623SOL    HW228332   1.646   4.132   3.481 -0.3199 -0.1628  2.0057
 5624SOL     OW28333   3.721   0.007  17.694 -0.7051 -0.1611 -0.0826
 5624SOL    HW128334   3.689   0.097  17.690 -1.2262 -0.3731 -0.5444
 5624SOL    HW228335   3.651   4.694   0.050  0.3662  0.4383  1.7640
 5625SOL     OW28336   0.748   0.541   8.360 -0.3776 -0.2687  0.1595
 5625SOL    HW128337   0.791   0.456   8.351  0.5919  0.0773  1.5466
 5625SOL    HW228338   0.769   0.550   8.453 -0.0892 -0.8800  0.1568
 5626SOL     OW28339   0.875   3.027  14.223 -0.5412  0.4975  0.3042
 5626SOL    HW128340   0.822   3.063  14.152 -0.9897  0.3510  0.5594
 5626SOL    HW228341   0.812   3.035  14.295 -0.0809 -1.4570  0.9367
 5627SOL     OW28342   4.148   0.970   2.343  0.0850  0.4576 -0.7704
 5627SOL    HW128343   4.150   1.003   2.253  0.7206  0.0901 -0.8923
 5627SOL    HW228344   4.053   0.966   2.354  0.3423 -2.7565  0.5460
 5628SOL     OW28345   4.676   3.142   2.848  0.0851 -0.0929 -0.3135
 5628SOL    HW128346   4.719   3.220   2.884 -0.6234 -0.7931  2.0508
 5628SOL    HW228347   0.030   3.090   2.827 -0.6416 -1.4136  0.2967
 5629SOL     OW28348   4.521   1.782   6.167 -0.1298  0.5605  0.6816
 5629SOL    HW128349   4.589   1.743   6.222  0.0926  0.4200  0.3086
 5629SOL    HW228350   4.566   1.864   6.144 -0.0208  1.4623  4.1272
 5630SOL     OW28351   1.674   2.753   2.570 -0.1824  0.4206  0.2946
 5630SOL    HW128352   1.658   2.658   2.571 -2.3517  0.7726  0.8066
 5630SOL    HW228353   1.743   2.760   2.505  0.8601 -0.9579  1.2464
 5631SOL     OW28354   1.210   0.162  11.260 -0.2936 -0.0525 -0.2665
 5631SOL    HW128355   1.228   0.100  11.190 -1.6155 -1.0088  0.2568
 5631SOL    HW228356   1.120   0.138  11.282  0.3327 -1.3290  0.8952
 5632SOL     OW28357   1.839   0.195  15.493  0.3195 -0.2949  0.2016
 5632SOL    HW128358   1.856   0.110  15.453 -0.0356 -1.9154  3.5022
 5632SOL    HW228359   1.918   0.239  15.460 -0.8143 -0.1396 -2.2345
 5633SOL     OW28360   0.845   4.274   7.332  0.2051 -0.3643 -0.5480
 5633SOL    HW128361   0.826   4.367   7.326  1.2410 -0.2790 -2.6185
 5633SOL    HW228362   0.921   4.276   7.390  1.5186  1.0495 -2.3112
 5634SOL     OW28363   1.345   3.388   6.144  0.4478  0.5763  0.4745
 5634SOL    HW128364   1.404   3.313   6.151 -1.3783 -0.9431 -0.2501
 5634SOL    HW228365   1.400   3.460   6.114  2.6000 -1.6421 -0.8793
 5635SOL     OW28366   0.861   0.880   7.579 -0.3694 -0.1459  0.2728
 5635SOL    HW128367   0.957   0.883   7.572 -0.4409 -2.3177 -1.6230
 5635SOL    HW228368   0.854   0.860   7.672  1.3536 -2.1971 -0.0300
 5636SOL     OW28369   3.661   0.766  10.681 -0.2141  0.0194  0.1006
 5636SOL    HW128370   3.735   0.711  10.707  0.6405 -0.0763 -2.5858
 5636SOL    HW228371   3.618   0.716  10.612 -1.0122 -2.1847  2.1690
 5637SOL     OW28372   4.441   2.862   7.951  0.3259  0.0147 -0.1185
 5637SOL    HW128373   4.468   2.776   7.985  0.5597  0.6562  1.3409
 5637SOL    HW228374   4.364   2.835   7.901  0.5369  1.1884 -1.0752
 5638SOL     OW28375   2.362   0.875   9.057  0.5338  0.2194 -0.3051
 5638SOL    HW128376   2.440   0.820   9.053  0.1869 -0.1538 -2.0998
 5638SOL    HW228377   2.349   0.884   9.151 -0.8835 -1.6497 -0.3311
 5639SOL     OW28378   2.842   2.431   7.785 -0.1360  0.0967  0.3303
 5639SOL    HW128379   2.767   2.395   7.831  0.8217 -0.8770  1.1172
 5639SOL    HW228380   2.909   2.363   7.784 -0.1304  0.0837  1.9104
 5640SOL     OW28381   0.584   0.578   4.916 -0.1908  0.0326  0.4425
 5640SOL    HW128382   0.551   0.606   4.831 -1.5109  2.6128  1.8094
 5640SOL    HW228383   0.642   0.505   4.892 -2.3352 -0.3160 -3.7047
 5641SOL     OW28384   2.703   1.649  13.280  0.4077 -0.2362 -0.4357
 5641SOL    HW128385   2.671   1.559  13.286 -1.9844  0.6355 -0.2137
 5641SOL    HW228386   2.712   1.663  13.374  0.1457  1.5497 -0.6674
 5642SOL     OW28387   2.445   1.346   9.059 -0.5670 -0.3956  0.2748
 5642SOL    HW128388   2.464   1.290   8.984  1.6698  1.2201 -0.3867
 5642SOL    HW228389   2.526   1.337   9.109 -0.9348  1.2482  1.1647
 5643SOL     OW28390   1.448   1.378   3.702  0.1026 -0.0709 -0.4414
 5643SOL    HW128391   1.502   1.311   3.661  0.4215 -0.1919  0.1676
 5643SOL    HW228392   1.496   1.387   3.785  1.2763  0.5278 -1.1830
 5644SOL     OW28393   1.157   3.061  13.987 -0.2042 -0.7883 -0.0561
 5644SOL    HW128394   1.175   3.142  14.035  2.4183 -0.4708 -1.5465
 5644SOL    HW228395   1.246   3.025  13.986  0.6140  1.2846 -0.8553
 5645SOL     OW28396   1.091   2.066   9.731  0.6268 -0.2570 -0.6080
 5645SOL    HW128397   1.109   2.159   9.740 -3.6606  0.3634  1.4372
 5645SOL    HW228398   1.175   2.034   9.698 -0.0673 -1.4785 -1.1881
 5646SOL     OW28399   0.980   0.954   4.326  0.1769 -0.3868  0.0759
 5646SOL    HW128400   0.905   0.896   4.330  0.2447 -0.5584 -1.2170
 5646SOL    HW228401   0.965   0.999   4.409  0.5430 -1.6483  0.8191
 5647SOL     OW28402   0.505   2.490   7.147 -0.2748  0.1518  0.4717
 5647SOL    HW128403   0.453   2.535   7.081  2.1397  0.4417 -1.2273
 5647SOL    HW228404   0.563   2.563   7.170  1.2029 -1.1136  0.7467
 5648SOL     OW28405   2.544   3.317   3.984 -0.8384 -0.3946  0.1078
 5648SOL    HW128406   2.606   3.248   3.960 -1.5796 -0.3608 -1.9251
 5648SOL    HW228407   2.539   3.355   3.896  0.9797  0.1076  0.2035
 5649SOL     OW28408   0.231   1.340   9.478 -0.2363  0.2794  0.2370
 5649SOL    HW128409   0.149   1.318   9.435  1.2758 -2.5184 -1.2087
 5649SOL    HW228410   0.288   1.269   9.447 -2.0073 -1.5468  1.1833
 5650SOL     OW28411   1.909   4.355   9.358  0.2500  0.0069 -0.2851
 5650SOL    HW128412   1.991   4.405   9.354  0.3907 -0.2460 -0.6110
 5650SOL    HW228413   1.950   4.276   9.322  1.4692  0.0238  1.0632
 5651SOL     OW28414   2.318   2.272   9.666  0.4266 -0.2067 -0.1432
 5651SOL    HW128415   2.325   2.210   9.594  1.1138  1.0916 -1.2071
 5651SOL    HW228416   2.386   2.241   9.726  0.4766 -0.3134 -0.2548
 5652SOL     OW28417   4.105   3.170   5.416 -0.3928  0.7955 -0.9102
 5652SOL    HW128418   4.026   3.130   5.380 -0.6517  1.7681 -1.3986
 5652SOL    HW228419   4.175   3.161   5.352 -1.3141 -1.5528 -1.6017
 5653SOL     OW28420   0.333   1.518   7.622 -0.2223  0.5518  0.0339
 5653SOL    HW128421   0.413   1.533   7.674  1.7273 -0.6936 -2.6234
 5653SOL    HW228422   0.276   1.579   7.669  0.0051  1.6214 -1.0693
 5654SOL     OW28423   4.664   2.774  12.890  0.1026 -0.3713 -0.2214
 5654SOL    HW128424   4.573   2.767  12.861  0.3117  1.8504 -1.4144
 5654SOL    HW228425   4.710   2.723  12.823  0.0891 -0.9917  0.2382
 5655SOL     OW28426   4.387   3.488  10.012 -0.3652  0.0016  0.4771
 5655SOL    HW128427   4.408   3.566  10.064 -0.9107 -1.8506  3.4787
 5655SOL    HW228428   4.399   3.430  10.087 -0.0943 -0.3724  0.1421
 5656SOL     OW28429   1.650   4.346   8.814  0.4240 -0.1459 -0.7816
 5656SOL    HW128430   1.704   4.399   8.872  0.8794  2.3317 -3.4850
 5656SOL    HW228431   1.701   4.265   8.821  0.3022 -0.1913 -0.4003
 5657SOL     OW28432   3.143   1.586   7.638  0.1748  0.2321  0.0868
 5657SOL    HW128433   3.156   1.680   7.624  0.7129  0.1213 -0.1339
 5657SOL    HW228434   3.080   1.590   7.711 -0.7536 -1.7901 -0.5999
 5658SOL     OW28435   0.577   4.034   7.814 -0.1709 -0.0185 -1.1011
 5658SOL    HW128436   0.516   3.960   7.809 -1.4433  1.1270 -2.5120
 5658SOL    HW228437   0.661   3.991   7.799  0.7821  0.5427  2.6219
 5659SOL     OW28438   0.750   2.227   2.540 -0.4041  0.0926  0.6390
 5659SOL    HW128439   0.794   2.153   2.582 -1.7945 -1.8600 -1.2801
 5659SOL    HW228440   0.657   2.225   2.566 -0.5927 -0.3453 -0.0457
 5660SOL     OW28441   1.049   1.017   7.797 -0.4994 -0.5621 -0.4299
 5660SOL    HW128442   1.128   1.004   7.851 -1.3327 -0.0326  0.9328
 5660SOL    HW228443   0.998   1.091   7.831  1.5581  1.1402 -0.9959
 5661SOL     OW28444   1.516   3.581   6.041 -0.0741  0.4405  0.0196
 5661SOL    HW128445   1.564   3.657   6.009  1.1436 -0.9974 -1.5925
 5661SOL    HW228446   1.565   3.511   5.997  1.9564  1.6107  0.4412
 5662SOL     OW28447   0.381   2.352   2.636  0.3714  0.0448  0.0439
 5662SOL    HW128448   0.294   2.350   2.595 -0.6555 -0.6803  2.2754
 5662SOL    HW228449   0.414   2.263   2.630  1.4958  0.5912 -1.9257
 5663SOL     OW28450   0.617   2.314   8.068  0.1616  0.4425  0.0184
 5663SOL    HW128451   0.686   2.352   8.124  1.4245  0.7020 -1.7159
 5663SOL    HW228452   0.551   2.383   8.062 -1.2563 -1.0573 -1.4024
 5664SOL     OW28453   2.637   2.041   2.243  0.3842  0.3001 -0.2187
 5664SOL    HW128454   2.636   2.105   2.172 -2.0868  0.0927 -0.3730
 5664SOL    HW228455   2.648   1.964   2.188  0.7047 -0.4296  0.8675
 5665SOL     OW28456   0.531   2.580   5.842  0.0323  0.1593 -0.5572
 5665SOL    HW128457   0.495   2.664   5.869  0.5771  0.9252 -2.2319
 5665SOL    HW228458   0.617   2.588   5.882 -0.4113 -0.9858  0.6168
 5666SOL     OW28459   3.593   3.865   3.113  0.2070 -0.0085  0.4833
 5666SOL    HW128460   3.676   3.820   3.098 -1.1670 -2.4707  0.4156
 5666SOL    HW228461   3.540   3.806   3.059  0.8338  0.4445 -0.6409
 5667SOL     OW28462   4.240   0.427   7.374  0.1079  0.3720 -0.5318
 5667SOL    HW128463   4.320   0.473   7.400  0.8666 -0.9698 -0.4757
 5667SOL    HW228464   4.211   0.393   7.459 -1.3548 -2.1847 -2.0420
 5668SOL     OW28465   4.539   2.083   8.638 -0.4027 -0.2186  0.5785
 5668SOL    HW128466   4.591   2.092   8.717  2.3204 -1.7996 -1.0429
 5668SOL    HW228467   4.538   2.170   8.599 -0.5424 -0.5634 -0.1941
 5669SOL     OW28468   3.385   4.091  17.571  0.1106  0.4396  0.8382
 5669SOL    HW128469   3.327   4.114  17.499  2.1889 -0.4147 -1.0987
 5669SOL    HW228470   3.451   4.161  17.567  2.7291 -2.2470 -2.6420
 5670SOL     OW28471   3.169   0.898   9.105  0.0945 -0.3808 -0.1269
 5670SOL    HW128472   3.160   0.804   9.089  2.0716  0.2308 -4.8799
 5670SOL    HW228473   3.155   0.942   9.021  2.6505 -2.8688 -1.8829
 5671SOL     OW28474   2.874   3.264   6.292  0.0912 -0.6041 -0.2668
 5671SOL    HW128475   2.863   3.348   6.336  1.7773 -1.9100  2.6926
 5671SOL    HW228476   2.817   3.271   6.216  0.8727  0.2253 -0.7728
 5672SOL     OW28477   2.436   0.338   4.292 -0.3047  0.0221  0.0651
 5672SOL    HW128478   2.493   0.407   4.327 -0.2027 -1.1679  2.2597
 5672SOL    HW228479   2.368   0.393   4.254  1.1898  1.7461 -0.1511
 5673SOL     OW28480   4.262   0.395   0.914  0.1490  0.0972 -0.2766
 5673SOL    HW128481   4.201   0.371   0.983  1.6045 -0.6338  0.7506
 5673SOL    HW228482   4.291   0.480   0.945 -0.9756  0.3133  0.1617
 5674SOL     OW28483   3.584   1.290   5.977  0.3027 -0.2810 -0.2654
 5674SOL    HW128484   3.608   1.375   6.013  1.6826 -0.1385 -1.5341
 5674SOL    HW228485   3.519   1.261   6.041  0.2590  2.4425  0.9195
 5675SOL     OW28486   0.923   2.223   5.676 -0.3254  0.0470 -0.0296
 5675SOL    HW128487   0.997   2.251   5.622  0.2210 -2.9887 -0.8601
 5675SOL    HW228488   0.948   2.244   5.765  0.0735 -0.4611 -0.0226
 5676SOL     OW28489   0.823   1.621  13.970 -0.0216 -0.6352  0.3981
 5676SOL    HW128490   0.859   1.574  13.894 -2.1749  0.1689 -1.1259
 5676SOL    HW228491   0.791   1.704  13.935 -2.7540 -2.3203 -1.0974
 5677SOL     OW28492   4.542   2.038  15.031  0.0766 -0.1680  0.4235
 5677SOL    HW128493   4.525   2.126  15.063 -0.8105  0.3861 -1.5576
 5677SOL    HW228494   4.636   2.047  15.013  0.0107 -2.3630 -1.1111
 5678SOL     OW28495   0.550   1.020   7.845  0.0832  0.2079 -0.0641
 5678SOL    HW128496   0.531   1.007   7.752 -1.0147 -3.8864  0.7137
 5678SOL    HW228497   0.462   0.996   7.875 -0.8399  3.3896 -0.2278
 5679SOL     OW28498   2.801   3.689   2.440  0.6619  0.1151  0.1992
 5679SOL    HW128499   2.741   3.689   2.366  0.1905 -2.4410  0.5866
 5679SOL    HW228500   2.761   3.622   2.496 -0.9262  0.6050 -0.3405
 5680SOL     OW28501   3.929   1.615   2.819 -0.0505 -0.1175 -0.3352
 5680SOL    HW128502   3.948   1.537   2.767  1.5909  0.6936 -0.9703
 5680SOL    HW228503   3.995   1.615   2.889  0.0368  2.0563 -0.4036
 5681SOL     OW28504   3.595   2.423   1.134  0.1523 -0.3618 -0.1250
 5681SOL    HW128505   3.671   2.446   1.080  0.7561  1.3318  1.4426
 5681SOL    HW228506   3.601   2.503   1.185  0.2684  0.3206 -1.1980
 5682SOL     OW28507   1.377   0.674   6.069 -0.0132  0.1900  0.2079
 5682SOL    HW128508   1.315   0.602   6.076  0.7494 -0.3980  0.9758
 5682SOL    HW228509   1.366   0.704   6.159  0.1694 -1.2439  0.7021
 5683SOL     OW28510   3.434   3.795   4.780  0.2509  0.1983  0.3264
 5683SOL    HW128511   3.474   3.762   4.861  0.0945  1.0176  0.7385
 5683SOL    HW228512   3.499   3.770   4.714  3.6609  1.1320  3.2620
 5684SOL     OW28513   1.631   1.721   7.326 -0.7341  0.2460 -0.3178
 5684SOL    HW128514   1.682   1.800   7.346 -0.1617  0.5715 -2.9991
 5684SOL    HW228515   1.542   1.755   7.315  0.1770  2.4688 -0.9058
 5685SOL     OW28516   0.611   1.525  14.746  0.3124 -0.4830  0.2111
 5685SOL    HW128517   0.632   1.432  14.744  0.5443 -0.4219 -0.3367
 5685SOL    HW228518   0.603   1.541  14.652 -2.2956 -1.6760  0.2295
 5686SOL     OW28519   0.455   3.626   2.944 -0.4223 -0.4016  0.3979
 5686SOL    HW128520   0.527   3.683   2.916 -2.0936  1.1973 -0.6206
 5686SOL    HW228521   0.382   3.687   2.946 -0.1814 -0.0512 -1.6984
 5687SOL     OW28522   0.884   1.895   5.966 -0.5265  0.4912 -0.2149
 5687SOL    HW128523   0.935   1.973   5.945 -1.3801  0.9431 -0.6137
 5687SOL    HW228524   0.798   1.921   5.998  0.5044  0.2133  2.7131
 5688SOL     OW28525   4.187   2.699   9.129 -0.5332 -0.0444  0.4410
 5688SOL    HW128526   4.126   2.761   9.089 -0.7545  0.1106  1.0195
 5688SOL    HW228527   4.230   2.670   9.048  0.6200 -2.5587  1.9677
 5689SOL     OW28528   1.987   3.798   4.440  0.2398  0.0943 -0.8607
 5689SOL    HW128529   1.975   3.827   4.530 -2.9005  0.8890 -1.5436
 5689SOL    HW228530   2.080   3.813   4.419  0.3053  2.0909  0.8943
 5690SOL     OW28531   0.114   3.994  16.205 -0.1726  0.6206  0.3658
 5690SOL    HW128532   0.033   3.997  16.154  0.1211  1.6603 -0.0447
 5690SOL    HW228533   0.138   3.903  16.187 -2.0854  0.1927 -0.0556
 5691SOL     OW28534   2.316   2.076   2.439  0.1910 -0.2958 -0.6533
 5691SOL    HW128535   2.285   2.030   2.361 -1.4820 -1.0350  0.4569
 5691SOL    HW228536   2.391   2.024   2.469  1.4987  1.6794 -0.5070
 5692SOL     OW28537   2.026   0.774  10.779 -0.0508  0.1593 -0.3572
 5692SOL    HW128538   2.082   0.700  10.804 -1.8252 -0.3058  2.2782
 5692SOL    HW228539   2.102   0.826  10.753  1.0648 -0.7179  1.1909
 5693SOL     OW28540   4.705   1.763   7.288  0.2643  0.4663 -0.9122
 5693SOL    HW128541   0.045   1.728   7.350 -0.9697 -0.4143 -0.1379
 5693SOL    HW228542   4.649   1.800   7.356  0.5331  1.0785 -1.0197
 5694SOL     OW28543   0.042   0.019   6.840 -0.2403 -0.1473  0.2486
 5694SOL    HW128544   4.689   0.065   6.872 -0.6915 -1.1199  0.5487
 5694SOL    HW228545   0.098   0.040   6.915  0.3505  0.2042 -0.2882
 5695SOL     OW28546   0.603   0.767   1.529  0.2178 -0.6264 -0.2061
 5695SOL    HW128547   0.569   0.677   1.536 -2.8368  0.6684  1.6002
 5695SOL    HW228548   0.672   0.754   1.463  0.3259 -1.2035  0.0235
 5696SOL     OW28549   3.420   3.956  15.689 -0.0226  0.9578 -0.0973
 5696SOL    HW128550   3.336   3.959  15.735  0.0076 -0.4308  0.0280
 5696SOL    HW228551   3.383   3.921  15.608  0.1241  3.4553 -1.2693
 5697SOL     OW28552   1.984   1.497   7.759 -0.1199  0.4536  0.3877
 5697SOL    HW128553   1.971   1.545   7.677  0.1834 -1.5448 -0.8110
 5697SOL    HW228554   1.895   1.476   7.787 -0.0175 -0.2889  0.1393
 5698SOL     OW28555   4.559   0.157  17.574 -0.0919 -0.0012 -0.1249
 5698SOL    HW128556   4.534   0.236  17.528 -2.3359 -1.2113 -0.9588
 5698SOL    HW228557   4.514   0.100  17.512 -2.2974 -0.7061  2.1533
 5699SOL     OW28558   2.243   3.091   5.808 -0.2959  0.7263  0.4436
 5699SOL    HW128559   2.301   3.030   5.763 -1.1719  0.1592  0.0787
 5699SOL    HW228560   2.253   3.174   5.762  1.0125 -0.7865 -1.9429
 5700SOL     OW28561   1.125   4.003   8.745 -0.4046  0.0407 -0.4858
 5700SOL    HW128562   1.143   3.909   8.756  0.8897  0.3655  0.1730
 5700SOL    HW228563   1.091   4.006   8.655 -1.1514 -0.5823 -0.2280
 5701SOL     OW28564   2.978   1.121  11.428 -0.0284  0.3008 -0.5246
 5701SOL    HW128565   2.961   1.072  11.508  0.5830 -0.5342 -0.9149
 5701SOL    HW228566   2.939   1.056  11.370 -0.0725 -0.4257  0.3246
 5702SOL     OW28567   3.464   1.440   7.214  0.3683 -0.6700 -0.1902
 5702SOL    HW128568   3.442   1.456   7.305 -0.7108 -0.2671 -0.5214
 5702SOL    HW228569   3.546   1.489   7.209  0.2747 -0.4263  0.6592
 5703SOL     OW28570   2.932   4.211   2.947 -0.1068 -0.1087 -0.3623
 5703SOL    HW128571   2.980   4.217   3.030 -0.1808 -2.7117 -0.1248
 5703SOL    HW228572   2.887   4.129   2.969 -0.8601 -0.6019 -3.8765
 5704SOL     OW28573   0.153   2.757   7.879  0.0625 -0.4551 -0.3284
 5704SOL    HW128574   0.113   2.692   7.821 -1.1211  0.2822 -0.3332
 5704SOL    HW228575   0.182   2.822   7.815 -1.7624  0.0893 -0.6132
 5705SOL     OW28576   2.666   0.921   2.751 -0.5483 -0.1338  0.5102
 5705SOL    HW128577   2.691   0.858   2.683 -1.1209 -0.8888  1.0029
 5705SOL    HW228578   2.748   0.937   2.797  0.7138 -0.3689 -1.6353
 5706SOL     OW28579   4.410   3.219   0.443 -0.8648 -0.2901  0.1056
 5706SOL    HW128580   4.415   3.203   0.537  0.2888 -1.8493 -0.2152
 5706SOL    HW228581   4.318   3.239   0.427 -0.8620 -0.7860 -0.5686
 5707SOL     OW28582   1.334   2.772   4.833 -0.3440  0.2436  0.0945
 5707SOL    HW128583   1.261   2.792   4.891  0.0813 -1.3651  1.1704
 5707SOL    HW228584   1.407   2.761   4.894  0.1744 -2.1844 -0.9493
 5708SOL     OW28585   1.438   3.532  17.493  0.0307  0.4504  0.0338
 5708SOL    HW128586   1.476   3.445  17.480  0.0856  0.6348 -1.0356
 5708SOL    HW228587   1.484   3.566  17.570  0.5914 -0.2162 -0.0149
 5709SOL     OW28588   2.688   0.869   4.125  0.9338 -0.5028  0.3170
 5709SOL    HW128589   2.625   0.828   4.065  0.2792  1.7501 -0.5267
 5709SOL    HW228590   2.642   0.883   4.207  1.9371  3.1976  0.2391
 5710SOL     OW28591   2.641   3.411   5.251 -1.0313 -0.3165 -0.0588
 5710SOL    HW128592   2.647   3.393   5.158  0.5723  3.7742 -0.7532
 5710SOL    HW228593   2.733   3.401   5.274 -1.4457 -0.2271  1.7034
 5711SOL     OW28594   0.273   1.207   5.877 -0.7271 -0.3568 -0.2555
 5711SOL    HW128595   0.349   1.205   5.819 -0.6547  1.6045 -0.2441
 5711SOL    HW228596   0.234   1.121   5.864 -3.9367  1.0238  0.2478
 5712SOL     OW28597   0.285   1.438  14.562 -0.9589 -0.4892 -0.2857
 5712SOL    HW128598   0.267   1.381  14.487  1.8829 -2.3445  0.4359
 5712SOL    HW228599   0.348   1.385  14.611  0.5125  0.1784 -1.4673
 5713SOL     OW28600   3.950   1.641  17.280  0.7560  0.2688 -0.3957
 5713SOL    HW128601   4.005   1.652  17.357  3.3471 -2.2376 -1.8997
 5713SOL    HW228602   4.010   1.642  17.206  0.1783  0.0885 -0.8753
 5714SOL     OW28603   3.739   1.322   8.878 -0.3463 -0.1939 -0.7195
 5714SOL    HW128604   3.668   1.316   8.941  0.7050 -0.4249  0.4520
 5714SOL    HW228605   3.741   1.414   8.852 -0.4944 -0.6624 -2.3704
 5715SOL     OW28606   2.319   2.921   3.120 -0.1466  0.4044 -0.0989
 5715SOL    HW128607   2.321   2.868   3.199 -2.6677  1.3473  0.6281
 5715SOL    HW228608   2.406   2.906   3.085 -0.4298 -0.2708 -0.5132
 5716SOL     OW28609   2.783   1.695   5.987 -0.1905  0.0671  0.1366
 5716SOL    HW128610   2.792   1.661   5.898  1.4823  0.0939  0.3031
 5716SOL    HW228611   2.717   1.638   6.028 -0.0478  0.3425  0.7524
 5717SOL     OW28612   3.203   0.077   7.826  0.0474 -0.4643  0.1605
 5717SOL    HW128613   3.168   0.028   7.751  0.2566 -2.2862  1.2316
 5717SOL    HW228614   3.297   0.077   7.807  0.0775 -1.2244  0.3102
 5718SOL     OW28615   2.697   3.083  13.438 -0.6375 -0.5091 -0.1823
 5718SOL    HW128616   2.645   3.164  13.445 -0.3588 -0.5706  2.4687
 5718SOL    HW228617   2.696   3.067  13.344 -0.8732  0.5472 -0.3683
 5719SOL     OW28618   2.223   3.615  13.018  0.2046 -0.0299  0.3540
 5719SOL    HW128619   2.269   3.647  12.940  0.3401 -0.6546  0.1752
 5719SOL    HW228620   2.132   3.600  12.992  0.3408  1.9239 -1.2508
 5720SOL     OW28621   3.729   0.737   1.036  0.0025 -0.1231  0.3335
 5720SOL    HW128622   3.660   0.720   1.099  1.5676 -1.3703  1.6853
 5720SOL    HW228623   3.677   0.809   1.000  1.9977  1.4832  0.6952
 5721SOL     OW28624   2.887   3.654   1.892  0.2702 -0.8868 -0.5630
 5721SOL    HW128625   2.923   3.656   1.803  0.1741  0.0292 -0.5793
 5721SOL    HW228626   2.902   3.563   1.918  0.6232 -0.7065 -0.1400
 5722SOL     OW28627   2.479   3.569   8.559  0.4773  0.1033  0.3322
 5722SOL    HW128628   2.520   3.629   8.621  0.4816 -1.0560  1.4446
 5722SOL    HW228629   2.430   3.520   8.625 -0.4833 -0.9323 -1.1276
 5723SOL     OW28630   2.814   0.594   3.928  0.0790 -0.0841 -0.1440
 5723SOL    HW128631   2.739   0.544   3.961 -0.2253  0.2709 -0.2951
 5723SOL    HW228632   2.768   0.666   3.884  0.5610  0.1741 -0.2221
 5724SOL     OW28633   1.884   1.007   3.836  0.0145  0.4359 -0.5343
 5724SOL    HW128634   1.910   1.063   3.763  0.3282 -0.1020 -0.8314
 5724SOL    HW228635   1.791   1.002   3.817  0.3787 -0.8331 -2.0056
 5725SOL     OW28636   3.456   0.326  12.093 -0.0264 -0.6165 -0.2574
 5725SOL    HW128637   3.433   0.308  12.001 -2.2961 -0.6370  0.3029
 5725SOL    HW228638   3.520   0.396  12.086 -2.9910  2.2426  1.1294
 5726SOL     OW28639   1.344   0.424   4.389  0.3511 -0.4935  0.3445
 5726SOL    HW128640   1.407   0.441   4.319  0.1120 -0.5451  0.1147
 5726SOL    HW228641   1.356   0.498   4.447  0.3103  0.3933 -0.7711
 5727SOL     OW28642   0.706   4.350   2.825  0.3616 -0.1499 -0.3436
 5727SOL    HW128643   0.785   4.377   2.778 -0.4034 -0.4686 -1.8194
 5727SOL    HW228644   0.722   4.256   2.833  0.1145  0.0426  2.3075
 5728SOL     OW28645   0.694   0.592   2.613 -0.1084  0.6234  0.3609
 5728SOL    HW128646   0.678   0.572   2.521 -0.7914 -1.7289  0.9814
 5728SOL    HW228647   0.663   0.682   2.612 -0.7320  0.3944 -0.6470
 5729SOL     OW28648   1.487   1.038   8.355  0.2412 -0.4374  0.3217
 5729SOL    HW128649   1.560   1.096   8.379 -1.4731  1.7509  0.2589
 5729SOL    HW228650   1.518   0.949   8.371  2.1691 -0.1021 -1.5395
 5730SOL     OW28651   0.269   0.216   4.801  0.5164 -0.1703 -0.2987
 5730SOL    HW128652   0.282   0.139   4.746 -1.3196 -0.7735  0.1119
 5730SOL    HW228653   0.235   0.275   4.734  0.6331  2.9023  2.3197
 5731SOL     OW28654   0.395   2.210   8.926  0.6315 -0.5306  0.2976
 5731SOL    HW128655   0.350   2.204   9.011  3.9839  1.4740  2.2196
 5731SOL    HW228656   0.358   2.293   8.895 -1.5738 -1.1013  1.3576
 5732SOL     OW28657   3.814   1.709   0.804 -0.0461  0.1818 -0.0613
 5732SOL    HW128658   3.722   1.687   0.817 -0.5455  0.7227 -2.6446
 5732SOL    HW228659   3.852   1.737   0.887 -1.3036  1.1133  0.2005
 5733SOL     OW28660   0.511   1.626  13.397 -0.4127  0.5158  0.2331
 5733SOL    HW128661   0.507   1.546  13.344  1.3598  0.4104  0.2748
 5733SOL    HW228662   0.532   1.683  13.323 -2.1617  2.0503  0.9167
 5734SOL     OW28663   1.924   4.675   7.444 -0.1975 -0.4579  0.3396
 5734SOL    HW128664   1.861   4.704   7.510  0.6652 -0.7462  1.2912
 5734SOL    HW228665   1.922   4.579   7.441  1.7625 -0.4192 -2.0616
 5735SOL     OW28666   3.951   0.331   2.863 -0.4102  0.2294 -0.1309
 5735SOL    HW128667   4.026   0.271   2.865  0.3496  1.0725 -2.7070
 5735SOL    HW228668   3.905   0.285   2.792 -1.5211  0.5357  0.3907
 5736SOL     OW28669   1.363   4.482   5.139  0.3960  0.0152  1.1399
 5736SOL    HW128670   1.369   4.577   5.133  0.6717 -0.2086 -1.9060
 5736SOL    HW228671   1.441   4.467   5.193  0.6614  0.9598  1.0166
 5737SOL     OW28672   4.310   4.646   4.076  0.2503  0.1317 -0.0246
 5737SOL    HW128673   4.283   4.555   4.061 -2.1146  0.9125 -0.5730
 5737SOL    HW228674   4.377   4.659   4.009 -0.2722 -1.2216 -0.8029
 5738SOL     OW28675   0.979   3.391   4.711 -0.4339  0.7322 -0.3372
 5738SOL    HW128676   0.996   3.473   4.664 -1.2498  0.5089 -1.0376
 5738SOL    HW228677   1.068   3.366   4.735 -0.4492 -0.3597 -1.4300
 5739SOL     OW28678   3.285   4.694  12.185 -0.1703  0.2906  0.0571
 5739SOL    HW128679   3.270   4.600  12.173  0.4018  0.2342 -0.1851
 5739SOL    HW228680   3.379   4.703  12.194  0.1299  1.3342 -4.1797
 5740SOL     OW28681   3.078   2.258   3.851 -0.9807  1.1351  0.8233
 5740SOL    HW128682   3.152   2.301   3.809 -1.1061 -1.1518 -1.7655
 5740SOL    HW228683   3.127   2.177   3.867 -1.2209  1.0595  1.1583
 5741SOL     OW28684   1.087   2.774   1.594  0.2825  0.5106  0.0657
 5741SOL    HW128685   1.079   2.710   1.524 -2.4021  0.9174  0.0221
 5741SOL    HW228686   1.011   2.761   1.650 -0.2949  1.0917 -0.5893
 5742SOL     OW28687   2.432   3.734   1.350  0.1142  0.0569  0.2680
 5742SOL    HW128688   2.343   3.749   1.317 -0.2708 -0.2051  1.1979
 5742SOL    HW228689   2.432   3.638   1.346 -0.0177  0.1092 -0.9790
 5743SOL     OW28690   0.324   1.252   3.150  0.0083  0.4962 -0.2441
 5743SOL    HW128691   0.339   1.341   3.182 -1.6082 -0.9805  4.5609
 5743SOL    HW228692   0.238   1.270   3.112  0.7267 -1.0995 -2.6214
 5744SOL     OW28693   0.117   3.516   9.048 -0.2937 -0.3506 -0.6623
 5744SOL    HW128694   0.104   3.597   8.999 -0.1202  0.2162  0.2382
 5744SOL    HW228695   0.212   3.527   9.057 -0.7896  1.7778  1.8342
 5745SOL     OW28696   3.787   2.573   2.250  0.3794 -0.2773 -0.3317
 5745SOL    HW128697   3.840   2.509   2.297  1.0165 -0.5939 -1.4842
 5745SOL    HW228698   3.847   2.647   2.259  0.2939 -0.3972  1.1612
 5746SOL     OW28699   4.692   2.053   7.667 -0.1047  0.2739  0.6905
 5746SOL    HW128700   4.679   2.135   7.620 -3.1943 -1.4947 -1.5873
 5746SOL    HW228701   0.048   2.017   7.627 -1.4123  1.8909 -3.3934
 5747SOL     OW28702   2.240   1.780   6.830  0.7669  0.1688  0.5717
 5747SOL    HW128703   2.317   1.766   6.775  0.8788 -0.8057  0.9722
 5747SOL    HW228704   2.274   1.821   6.910  0.0691  0.6439  0.6169
 5748SOL     OW28705   0.716   3.115  12.958  0.1851 -0.5280  0.0040
 5748SOL    HW128706   0.771   3.174  12.907  1.0360 -1.0733  0.2842
 5748SOL    HW228707   0.769   3.091  13.035  1.1396  2.9402  0.4532
 5749SOL     OW28708   3.323   4.121   8.184 -0.0383  0.2463  0.1132
 5749SOL    HW128709   3.368   4.204   8.166  0.9030 -0.2997 -0.0522
 5749SOL    HW228710   3.262   4.120   8.110  1.5663  1.7321 -1.2404
 5750SOL     OW28711   3.363   2.273   5.863  0.0021  0.2592  0.0005
 5750SOL    HW128712   3.299   2.331   5.822 -0.8665  0.1155  1.1537
 5750SOL    HW228713   3.412   2.232   5.791  0.2476  0.8240 -0.1578
 5751SOL     OW28714   3.503   2.045   1.934  0.1935 -0.0578  0.2080
 5751SOL    HW128715   3.572   2.024   1.871  1.1987  2.3447  0.5066
 5751SOL    HW228716   3.498   2.139   1.918 -0.0660 -0.7220 -3.3998
 5752SOL     OW28717   2.572   1.396   8.614  0.0398  0.0744  0.0012
 5752SOL    HW128718   2.501   1.368   8.556 -0.0368 -1.8757  1.0480
 5752SOL    HW228719   2.644   1.401   8.552 -0.9149  1.2009 -1.0359
 5753SOL     OW28720   3.476   1.168   2.042 -0.0893 -0.1792 -0.3001
 5753SOL    HW128721   3.526   1.094   2.077  0.2498  1.6630  3.1016
 5753SOL    HW228722   3.551   1.215   2.004  0.2085  0.2987  0.8870
 5754SOL     OW28723   1.001   0.194   6.443  0.0131  0.0607 -0.2463
 5754SOL    HW128724   0.948   0.221   6.518 -2.4289 -0.0806 -1.9453
 5754SOL    HW228725   1.089   0.201   6.481  0.0821  0.5710 -0.5099
 5755SOL     OW28726   0.660   4.494   4.205 -0.4302  0.0055  0.1780
 5755SOL    HW128727   0.614   4.428   4.257  0.5060 -0.4380  0.4418
 5755SOL    HW228728   0.684   4.448   4.125  1.1678 -0.4144  0.8993
 5756SOL     OW28729   2.452   3.598  11.386 -0.3615  0.0795  0.0540
 5756SOL    HW128730   2.463   3.635  11.299 -1.4634 -1.3852 -0.7209
 5756SOL    HW228731   2.534   3.549  11.394  0.9910  2.6615  1.9276
 5757SOL     OW28732   2.598   1.324   3.897  0.3238 -0.1182 -0.3769
 5757SOL    HW128733   2.612   1.250   3.956  2.3115 -1.6668 -2.8263
 5757SOL    HW228734   2.687   1.358   3.890  0.3113  0.0664  0.2937
 5758SOL     OW28735   3.190   2.206  13.404 -0.2273 -0.1633 -0.5756
 5758SOL    HW128736   3.117   2.176  13.349  0.4012 -0.0918 -1.4543
 5758SOL    HW228737   3.185   2.298  13.380 -1.0387  0.1715  0.8966
 5759SOL     OW28738   0.758   0.701  15.606 -0.2973 -0.5395  0.2046
 5759SOL    HW128739   0.837   0.731  15.651 -0.9319  0.0677  0.9270
 5759SOL    HW228740   0.779   0.702  15.513  1.3852 -1.1725  0.5918
 5760SOL     OW28741   3.157   0.389   7.930 -0.3070  0.4116  0.5634
 5760SOL    HW128742   3.247   0.364   7.951  0.1449  1.2510 -0.3831
 5760SOL    HW228743   3.118   0.305   7.953  0.8225 -0.5302 -0.9586
 5761SOL     OW28744   3.552   3.575   5.625 -0.0572 -0.7758 -0.4148
 5761SOL    HW128745   3.483   3.544   5.567  1.3499 -1.0152 -1.9653
 5761SOL    HW228746   3.601   3.640   5.574  2.1948 -2.5107 -0.4609
 5762SOL     OW28747   1.993   2.968   5.721  0.3542  0.2844 -0.0165
 5762SOL    HW128748   2.036   2.894   5.764  0.6716 -0.0471 -0.9075
 5762SOL    HW228749   2.023   3.036   5.780  1.6132 -2.0481  2.0153
 5763SOL     OW28750   3.897   0.050   5.507  0.3774  0.3588 -0.7301
 5763SOL    HW128751   3.930   4.716   5.576 -2.2328 -0.6101 -0.2756
 5763SOL    HW228752   3.923   0.133   5.546  0.1747  0.1427 -0.1361
 5764SOL     OW28753   3.715   1.717   8.401  0.0125 -0.3875  0.7411
 5764SOL    HW128754   3.704   1.804   8.440 -0.3941 -0.1594  0.1072
 5764SOL    HW228755   3.737   1.676   8.485 -2.3517  1.7424  2.4178
 5765SOL     OW28756   1.551   0.148   6.551 -0.0382 -0.0931  0.2704
 5765SOL    HW128757   1.500   0.080   6.596 -0.5693  1.0953  1.4552
 5765SOL    HW228758   1.638   0.108   6.547  0.9569  2.0377  0.4893
 5766SOL     OW28759   3.161   0.993  17.115 -0.1307 -0.1227  0.4364
 5766SOL    HW128760   3.154   1.006  17.021  1.7012  1.3752  0.5162
 5766SOL    HW228761   3.169   1.082  17.148 -2.2574 -0.3910  1.6743
 5767SOL     OW28762   2.742   3.118   4.282  0.2337 -0.0581 -0.0524
 5767SOL    HW128763   2.666   3.070   4.248  1.3571 -3.6063  2.4283
 5767SOL    HW228764   2.720   3.125   4.375  2.0536  0.5950  0.3349
 5768SOL     OW28765   2.441   1.665   6.467 -0.4980  0.6897 -0.7559
 5768SOL    HW128766   2.357   1.621   6.476 -0.3380  0.3838 -0.7791
 5768SOL    HW228767   2.510   1.599   6.459 -0.8494  0.3187 -0.7219
 5769SOL     OW28768   1.942   2.032   1.704  0.2513  0.5572 -0.2758
 5769SOL    HW128769   1.991   2.102   1.748 -1.6835  0.7762  1.5611
 5769SOL    HW228770   1.887   2.000   1.776  0.3571 -0.1518 -0.5155
 5770SOL     OW28771   3.555   4.510   6.348  0.9678 -0.4089  0.4621
 5770SOL    HW128772   3.459   4.506   6.339  1.1088  0.9576 -1.6666
 5770SOL    HW228773   3.570   4.561   6.427  0.8117 -0.3788  0.4720
 5771SOL     OW28774   3.284   2.333   7.103 -0.1905  0.0526  0.2372
 5771SOL    HW128775   3.296   2.428   7.093 -0.9150  0.2146  0.9244
 5771SOL    HW228776   3.294   2.279   7.025  1.8833 -0.0983  0.6004
 5772SOL     OW28777   2.695   3.612  16.274  0.3969  0.2739  0.4635
 5772SOL    HW128778   2.605   3.598  16.305 -0.4246 -0.6088 -2.2605
 5772SOL    HW228779   2.685   3.653  16.188 -1.2183  1.2187  1.0933
 5773SOL     OW28780   0.682   1.722   6.155 -0.3862 -0.3020  0.0687
 5773SOL    HW128781   0.688   1.666   6.232  0.1107  0.9196  0.9132
 5773SOL    HW228782   0.670   1.806   6.199  2.4542 -0.2499  0.7618
 5774SOL     OW28783   2.297   0.801   7.745  0.4560  0.0571  0.0801
 5774SOL    HW128784   2.289   0.879   7.800 -0.1124 -0.3158  0.5269
 5774SOL    HW228785   2.207   0.770   7.739  0.6446 -0.3904 -0.4000
 5775SOL     OW28786   4.453   3.508   2.363 -0.1481 -0.2901  0.2582
 5775SOL    HW128787   4.375   3.467   2.326 -1.7686  1.1889  2.0193
 5775SOL    HW228788   4.408   3.556   2.433 -1.2174  0.8012 -1.2057
 5776SOL     OW28789   3.377   1.859   6.157 -0.8138 -0.6879  0.1274
 5776SOL    HW128790   3.370   1.780   6.102 -1.4270 -0.1070 -0.6264
 5776SOL    HW228791   3.392   1.920   6.086  0.0319 -0.9684  0.0646
 5777SOL     OW28792   3.904   4.228   6.356  0.2569  0.4002 -0.3721
 5777SOL    HW128793   3.865   4.291   6.295  0.4989  0.8203 -0.0947
 5777SOL    HW228794   3.821   4.188   6.383 -0.0444  1.3776  0.1623
 5778SOL     OW28795   2.870   1.476  13.982 -0.1918 -0.2848  0.3299
 5778SOL    HW128796   2.884   1.398  14.036  2.8385 -0.2368 -0.3666
 5778SOL    HW228797   2.817   1.452  13.906  0.6126 -2.3511  0.4163
 5779SOL     OW28798   3.331   2.640   8.280 -0.0774 -0.1384  0.3186
 5779SOL    HW128799   3.391   2.610   8.213 -0.2378 -1.4890  0.7876
 5779SOL    HW228800   3.333   2.570   8.345 -0.6046 -0.3663  0.0892
 5780SOL     OW28801   2.873   4.309   8.619  0.3292  0.0495  0.2951
 5780SOL    HW128802   2.882   4.404   8.624  1.0605 -0.0738  1.1535
 5780SOL    HW228803   2.888   4.278   8.708  1.4247  0.3397  0.2074
 5781SOL     OW28804   2.758   4.536  10.824 -0.0534 -0.0196 -1.3942
 5781SOL    HW128805   2.671   4.562  10.794  0.0731  1.7690 -0.2030
 5781SOL    HW228806   2.750   4.444  10.800  2.6960  0.0367 -2.5090
 5782SOL     OW28807   1.995   0.249   8.641 -0.2871  0.1228 -0.5863
 5782SOL    HW128808   2.049   0.170   8.640  0.7530  0.8057  1.0362
 5782SOL    HW228809   1.917   0.218   8.595 -1.9405  0.6601  1.8370
 5783SOL     OW28810   4.325   2.891   9.602 -0.1452 -0.4340  0.0825
 5783SOL    HW128811   4.420   2.884   9.600 -0.0999 -0.1330  1.0654
 5783SOL    HW228812   4.313   2.963   9.665  0.0468  1.2187 -1.7570
 5784SOL     OW28813   2.348   3.666   2.922 -0.0706 -0.2147  0.6299
 5784SOL    HW128814   2.286   3.730   2.888 -1.4083 -2.3909 -1.0745
 5784SOL    HW228815   2.363   3.608   2.847  0.9552  0.3219  0.4234
 5785SOL     OW28816   2.586   0.723   7.319 -0.1553 -0.5432  0.3631
 5785SOL    HW128817   2.666   0.675   7.340  0.0355  0.8974  2.9471
 5785SOL    HW228818   2.532   0.650   7.290 -0.7074 -0.2100  0.5421
 5786SOL     OW28819   1.651   2.909   4.859  0.0103  0.4270 -0.1144
 5786SOL    HW128820   1.595   2.902   4.781  1.7331 -0.3177 -1.2922
 5786SOL    HW228821   1.732   2.867   4.830  0.2952  1.1659 -0.3803
 5787SOL     OW28822   2.671   1.395   6.925 -0.3886 -0.0014  0.5821
 5787SOL    HW128823   2.753   1.426   6.886 -0.0956  0.7814  1.8335
 5787SOL    HW228824   2.637   1.482   6.948 -0.4755  0.3044 -0.6811
 5788SOL     OW28825   1.652   1.307   9.140 -0.1659  0.7735 -0.2221
 5788SOL    HW128826   1.650   1.220   9.099  0.6015  0.6863 -0.0719
 5788SOL    HW228827   1.618   1.359   9.067 -0.5930  2.3757  1.1223
 5789SOL     OW28828   2.040   1.125   1.940  0.3492 -0.0942  0.5330
 5789SOL    HW128829   1.968   1.134   1.878  3.0270  3.1727 -2.0673
 5789SOL    HW228830   2.065   1.037   1.910  0.6647  0.0185  0.4643
 5790SOL     OW28831   1.148   2.193  11.179 -0.3866  0.5224  0.4277
 5790SOL    HW128832   1.189   2.277  11.200 -2.0377  0.6989  2.9011
 5790SOL    HW228833   1.145   2.183  11.084  0.4352  0.6638  0.3898
 5791SOL     OW28834   0.402   2.498   7.996 -0.0397  0.1775 -0.3212
 5791SOL    HW128835   0.476   2.550   7.964 -0.7794  0.9318 -0.8133
 5791SOL    HW228836   0.367   2.554   8.065 -1.9810 -2.1930  0.6081
 5792SOL     OW28837   4.549   1.368   2.519  0.6375  0.2132 -0.4286
 5792SOL    HW128838   4.586   1.394   2.435  2.4778  0.5883  0.4966
 5792SOL    HW228839   4.456   1.391   2.513  0.4520 -0.1223  1.0678
 5793SOL     OW28840   1.131   2.702   5.911 -0.0571 -0.2989 -0.1809
 5793SOL    HW128841   1.094   2.773   5.858 -2.8020  0.1338  2.3025
 5793SOL    HW228842   1.218   2.736   5.927 -0.9964  1.4756  1.1908
 5794SOL     OW28843   0.243   0.259   5.469  0.4815 -0.4245  0.5220
 5794SOL    HW128844   0.202   0.298   5.546 -0.3921 -2.4244  1.0880
 5794SOL    HW228845   0.248   0.170   5.506  0.0801 -1.0587 -0.9357
 5795SOL     OW28846   4.166   0.366   5.440 -0.5852  0.3255  0.4631
 5795SOL    HW128847   4.232   0.304   5.410  0.3858  0.9556  1.2948
 5795SOL    HW228848   4.084   0.333   5.403  0.0629  0.1966 -0.8441
 5796SOL     OW28849   1.045   2.500   3.105 -0.0340  0.4847  0.4356
 5796SOL    HW128850   1.006   2.570   3.158 -0.0258  0.2109  0.7931
 5796SOL    HW228851   0.988   2.423   3.110 -0.0112  0.4608  0.3209
 5797SOL     OW28852   1.819   3.978   9.002 -0.0662 -0.4729  0.2686
 5797SOL    HW128853   1.803   3.997   9.095 -0.0685  0.2055  0.1274
 5797SOL    HW228854   1.844   4.065   8.972 -1.9053  0.0218  0.2079
 5798SOL     OW28855   0.358   3.367   3.294  0.2432 -0.7540 -0.5068
 5798SOL    HW128856   0.434   3.339   3.244 -0.1526 -1.0742 -0.9237
 5798SOL    HW228857   0.357   3.306   3.368  0.6785  0.2995  0.3761
 5799SOL     OW28858   1.056   2.981  15.359  0.0218  0.2700 -0.1979
 5799SOL    HW128859   1.139   3.021  15.386  0.0732  1.1787 -1.6537
 5799SOL    HW228860   1.033   2.925  15.433 -0.5023  1.9138  0.9021
 5800SOL     OW28861   3.651   3.841   7.743 -0.1204 -0.1840 -0.6766
 5800SOL    HW128862   3.625   3.933   7.731 -1.2162 -0.3580  0.2970
 5800SOL    HW228863   3.575   3.792   7.775 -0.0467 -0.2931 -0.6709
 5801SOL     OW28864   3.137   0.501   1.126 -0.1063 -0.7884  0.1125
 5801SOL    HW128865   3.199   0.509   1.053 -0.5117 -0.0501 -0.1459
 5801SOL    HW228866   3.072   0.557   1.083  0.1200  0.9543  2.0161
 5802SOL     OW28867   0.866   4.514   4.776  0.0815 -0.3736 -0.6281
 5802SOL    HW128868   0.813   4.498   4.698 -0.7209  2.2974 -0.6388
 5802SOL    HW228869   0.810   4.582   4.813  1.1557  1.0149 -1.5791
 5803SOL     OW28870   0.157   3.389   7.866 -0.0181  0.1907  0.0670
 5803SOL    HW128871   0.202   3.471   7.887 -0.4679  0.2633  0.7343
 5803SOL    HW228872   0.089   3.395   7.933  2.3510  1.1694  2.3932
 5804SOL     OW28873   0.897   2.744  11.612 -0.0770  0.0527 -0.6372
 5804SOL    HW128874   0.869   2.660  11.575  2.2107 -0.3692 -1.4234
 5804SOL    HW228875   0.984   2.727  11.648 -0.4236  2.8475  1.4540
 5805SOL     OW28876   2.268   3.219   7.523  0.6809  0.4004  0.1091
 5805SOL    HW128877   2.227   3.270   7.593 -2.8684 -1.9659 -0.2229
 5805SOL    HW228878   2.267   3.131   7.560 -0.5071  1.0262  1.5886
 5806SOL     OW28879   2.107   3.395   3.097  0.3315 -0.3462 -0.6024
 5806SOL    HW128880   2.130   3.484   3.121 -1.6879 -0.5560  2.0588
 5806SOL    HW228881   2.142   3.344   3.170  2.4351  0.8013 -0.8230
 5807SOL     OW28882   2.190   0.937   6.330 -1.2072 -0.1362  0.3671
 5807SOL    HW128883   2.166   0.960   6.419  0.8794 -0.0421  0.8977
 5807SOL    HW228884   2.168   0.843   6.326 -0.1202 -0.3931  0.5442
 5808SOL     OW28885   4.641   2.998   0.567  0.4877  0.7359  0.0863
 5808SOL    HW128886   4.707   2.929   0.557  0.8445  0.9520  0.9468
 5808SOL    HW228887   4.596   2.979   0.649 -0.0189  0.0955 -0.3364
 5809SOL     OW28888   3.256   4.527   3.843 -0.6009 -0.4279  0.1143
 5809SOL    HW128889   3.174   4.554   3.884 -0.8346  0.9938 -1.2989
 5809SOL    HW228890   3.246   4.581   3.765  1.1602  1.2840  1.0740
 5810SOL     OW28891   0.546   3.870   3.481  0.4467 -0.0410 -0.1212
 5810SOL    HW128892   0.545   3.790   3.428 -1.4724 -0.5542  0.6642
 5810SOL    HW228893   0.570   3.827   3.563  2.8120  0.1375 -0.7294
 5811SOL     OW28894   0.932   4.710   5.502 -0.5542 -0.3504  0.0779
 5811SOL    HW128895   0.882   0.066   5.517 -2.8429 -1.4946 -1.5173
 5811SOL    HW228896   1.017   0.029   5.511 -0.4905 -0.6412  0.8187
 5812SOL     OW28897   2.368   0.440  16.688 -0.0692 -0.1025  0.4858
 5812SOL    HW128898   2.446   0.391  16.715 -0.3346 -0.7089  0.1646
 5812SOL    HW228899   2.411   0.523  16.672  1.1579 -0.9974 -0.8303
 5813SOL     OW28900   1.971   3.605  16.027  0.5269 -0.3680  0.0315
 5813SOL    HW128901   1.930   3.639  15.947  0.9142 -0.3372 -0.1528
 5813SOL    HW228902   1.927   3.520  16.024  3.4007 -1.8092 -0.9580
 5814SOL     OW28903   3.953   1.069   5.461  0.3669 -0.4136 -0.5189
 5814SOL    HW128904   3.880   1.033   5.409 -0.3903 -0.7905  0.8050
 5814SOL    HW228905   3.901   1.143   5.492 -0.3410 -0.9153 -0.5053
 5815SOL     OW28906   3.421   0.720   2.974  0.5863 -0.1964 -0.5624
 5815SOL    HW128907   3.356   0.690   3.038  0.5431  0.3544 -0.3505
 5815SOL    HW228908   3.397   0.654   2.908 -0.7540  1.3657 -1.6547
 5816SOL     OW28909   2.293   3.917   4.763  0.1880  0.0777 -0.0817
 5816SOL    HW128910   2.211   3.964   4.745  0.6353  1.6882  2.0698
 5816SOL    HW228911   2.352   3.952   4.696  0.8514  0.6631  0.8143
 5817SOL     OW28912   2.767   4.508  16.284  0.8030 -0.1921  0.0635
 5817SOL    HW128913   2.731   4.592  16.256  0.9268 -0.1196  0.1185
 5817SOL    HW228914   2.835   4.547  16.340  0.6148 -1.0230  0.8682
 5818SOL     OW28915   2.138   1.254   9.379  0.1472  0.3493  0.6333
 5818SOL    HW128916   2.166   1.291   9.295 -2.0026 -0.0712 -0.2797
 5818SOL    HW228917   2.043   1.264   9.373  0.4662  1.6070 -2.2457
 5819SOL     OW28918   0.106   3.399   1.151  0.0013  0.5968 -0.1630
 5819SOL    HW128919   0.059   3.348   1.217 -0.4207 -0.0108 -0.9318
 5819SOL    HW228920   0.027   3.439   1.114 -2.3547 -2.4496  1.5276
 5820SOL     OW28921   3.984   3.120   4.570  0.0719  0.0285 -0.1775
 5820SOL    HW128922   3.954   3.211   4.575  1.0271  0.3664 -0.6859
 5820SOL    HW228923   4.059   3.130   4.512  0.1664 -1.5385 -0.3001
 5821SOL     OW28924   1.146   3.685   2.738 -0.0040 -0.3586 -0.0016
 5821SOL    HW128925   1.096   3.733   2.673  0.5828 -0.2037 -0.3429
 5821SOL    HW228926   1.226   3.689   2.685 -0.8808 -1.3758 -1.3877
 5822SOL     OW28927   2.798   2.389   1.205  0.2454  0.5069 -0.0361
 5822SOL    HW128928   2.798   2.337   1.286  1.4544  2.0305  0.9251
 5822SOL    HW228929   2.711   2.429   1.202 -1.0625 -2.0529  3.1586
 5823SOL     OW28930   0.180   1.780  12.023 -0.0830  0.1219  0.0204
 5823SOL    HW128931   0.127   1.753  12.098  1.7884  0.1724  1.3648
 5823SOL    HW228932   0.270   1.748  12.034 -0.8119 -1.6527  0.9050
 5824SOL     OW28933   1.769   2.881  15.302 -0.2716  0.1406  0.3277
 5824SOL    HW128934   1.782   2.875  15.397  1.1508  3.0589  0.3158
 5824SOL    HW228935   1.790   2.795  15.267 -0.3973 -0.3270  1.3955
 5825SOL     OW28936   1.232   3.334   8.228  0.4086 -0.4002  0.0233
 5825SOL    HW128937   1.256   3.335   8.135  0.5548 -0.3819  0.0610
 5825SOL    HW228938   1.187   3.417   8.245  1.1388 -0.0131  0.0972
 5826SOL     OW28939   0.959   0.431  15.682  0.2099  0.7537  0.0526
 5826SOL    HW128940   0.990   0.398  15.598  1.5926  0.5652  0.6345
 5826SOL    HW228941   0.914   0.356  15.722 -0.1444  1.0428  0.1990
 5827SOL     OW28942   4.150   4.690   3.167 -0.3838 -0.0002  0.0133
 5827SOL    HW128943   4.146   4.644   3.251 -1.4822 -1.5032 -0.8728
 5827SOL    HW228944   4.225   4.641   3.132  0.2593 -0.6757  2.3242
 5828SOL     OW28945   1.808   4.654   3.116 -0.4378 -0.7751 -0.3927
 5828SOL    HW128946   1.766   4.684   3.035 -1.7084 -2.3428 -0.3069
 5828SOL    HW228947   1.848   0.013   3.143  0.0314 -1.0650 -0.2000
 5829SOL     OW28948   1.299   2.641   6.565 -0.6655  0.0562  0.6272
 5829SOL    HW128949   1.382   2.684   6.584  0.3620 -2.0313  0.9090
 5829SOL    HW228950   1.240   2.701   6.611 -2.8095 -1.7128  0.1665
 5830SOL     OW28951   2.726   4.497  13.137  0.6823  0.3966  0.5626
 5830SOL    HW128952   2.759   4.575  13.181 -0.6512  2.0850 -1.4447
 5830SOL    HW228953   2.633   4.520  13.135  0.8075  0.6617 -3.1614
 5831SOL     OW28954   1.058   1.462   8.154  0.1723 -0.1928  0.3374
 5831SOL    HW128955   1.106   1.402   8.210 -2.7138 -1.6453  1.2736
 5831SOL    HW228956   1.109   1.543   8.164 -2.7267  2.3394 -5.3072
 5832SOL     OW28957   2.659   4.499   5.305 -0.1746  0.2055  0.1802
 5832SOL    HW128958   2.576   4.490   5.256 -0.1901 -0.9658  0.4209
 5832SOL    HW228959   2.710   4.419   5.297  1.5873  1.2653  0.8021
 5833SOL     OW28960   0.271   4.464  16.455  0.2313  0.1092 -0.4796
 5833SOL    HW128961   0.190   4.490  16.498 -0.8980 -0.7633 -2.0996
 5833SOL    HW228962   0.243   4.431  16.369 -0.6511 -1.5820  0.4566
 5834SOL     OW28963   3.062   1.033   1.297  0.6387 -0.3076  0.0802
 5834SOL    HW128964   3.070   1.022   1.202  0.9413 -0.9781  0.1758
 5834SOL    HW228965   3.082   0.943   1.323 -0.0461 -0.0020  1.6723
 5835SOL     OW28966   3.667   4.620   4.989 -0.2988 -0.2368 -0.4916
 5835SOL    HW128967   3.606   4.572   5.045 -0.4830  2.1394  1.3678
 5835SOL    HW228968   3.687   4.696   5.043 -1.0234 -0.7449  0.4856
 5836SOL     OW28969   2.881   3.406   5.700  0.1711  0.3194 -0.0096
 5836SOL    HW128970   2.910   3.455   5.777 -0.9582  1.8535 -0.5514
 5836SOL    HW228971   2.793   3.444   5.699  0.6050  1.3587  1.7606
 5837SOL     OW28972   4.583   0.101   7.692 -0.1120  0.0859  0.0433
 5837SOL    HW128973   4.508   0.101   7.751 -0.5540  3.2809 -0.5010
 5837SOL    HW228974   4.577   0.013   7.654  2.7505 -1.0956  2.3139
 5838SOL     OW28975   3.118   2.647   2.992 -0.1280  0.3132 -0.5917
 5838SOL    HW128976   3.164   2.584   2.936  1.1352 -1.1719  2.1006
 5838SOL    HW228977   3.028   2.629   2.965 -0.9004 -0.3782  2.4290
 5839SOL     OW28978   0.753   4.543   8.636 -0.3544 -0.1073 -0.5534
 5839SOL    HW128979   0.664   4.514   8.617 -0.2356 -1.2544  0.5993
 5839SOL    HW228980   0.741   4.633   8.604 -0.2864 -0.2789 -1.0566
 5840SOL     OW28981   3.416   4.331  11.549 -0.6959 -0.5429  0.3779
 5840SOL    HW128982   3.352   4.299  11.485 -0.1888 -0.4824 -0.1594
 5840SOL    HW228983   3.443   4.242  11.570 -1.8003 -0.6174  1.4766
 5841SOL     OW28984   2.225   2.880   2.878  0.2055  0.1096  0.1444
 5841SOL    HW128985   2.197   2.965   2.914  1.9734  0.0043  1.7743
 5841SOL    HW228986   2.272   2.852   2.956  1.1417  0.5882 -0.2354
 5842SOL     OW28987   2.081   4.112   5.580  0.4668 -0.3909  0.4185
 5842SOL    HW128988   2.075   4.192   5.526  2.5167 -0.3041  0.2934
 5842SOL    HW228989   2.004   4.120   5.636  1.0715  1.2419  1.0202
 5843SOL     OW28990   2.407   1.599  15.870 -0.4251  0.0122  0.1992
 5843SOL    HW128991   2.353   1.602  15.949 -0.9013 -0.6958 -0.1021
 5843SOL    HW228992   2.499   1.583  15.894 -1.0192 -1.8694  1.2474
 5844SOL     OW28993   2.826   3.965   1.033  0.0396 -0.1781 -0.2059
 5844SOL    HW128994   2.737   3.954   1.065  0.9303 -1.6357  1.7672
 5844SOL    HW228995   2.812   3.970   0.939 -0.4963  0.9944 -0.0547
 5845SOL     OW28996   2.333   2.232   7.988  0.3700  0.2540 -0.4778
 5845SOL    HW128997   2.329   2.309   8.044 -4.3211 -1.3584  1.4709
 5845SOL    HW228998   2.361   2.166   8.052  2.0813  0.1386 -1.3562
 5846SOL     OW28999   1.404   3.771   6.351 -0.2234  0.3927 -0.1720
 5846SOL    HW129000   1.333   3.832   6.331 -0.3029  0.0505 -0.8995
 5846SOL    HW229001   1.373   3.718   6.425  1.4434  1.0289  0.9811
 5847SOL     OW29002   3.328   0.167   4.043 -0.3579  0.0595 -0.8940
 5847SOL    HW129003   3.250   0.115   4.024 -0.9192  0.8192 -0.6825
 5847SOL    HW229004   3.382   0.103   4.089 -0.7533 -1.5173 -2.6336
 5848SOL     OW29005   2.785   3.306   6.046 -0.3590 -0.8930  0.2706
 5848SOL    HW129006   2.820   3.382   5.999 -0.3732 -1.8179 -1.2160
 5848SOL    HW229007   2.694   3.325   6.023 -0.4374 -1.1169  0.3981
 5849SOL     OW29008   0.258   4.392  15.001  0.4606  0.7050 -0.0504
 5849SOL    HW129009   0.207   4.401  14.921  0.3080 -2.9973 -0.3831
 5849SOL    HW229010   0.341   4.373  14.959  0.2312  1.6201 -0.9235
 5850SOL     OW29011   2.651   2.323   6.884  0.1183 -0.0608 -0.0352
 5850SOL    HW129012   2.643   2.333   6.979 -1.8706 -0.8471 -0.1178
 5850SOL    HW229013   2.615   2.410   6.868 -0.9036 -0.6006 -0.6230
 5851SOL     OW29014   3.120   0.734  16.929 -0.0107  0.1361 -0.0055
 5851SOL    HW129015   3.074   0.686  16.861  1.9022  0.1665 -1.3336
 5851SOL    HW229016   3.115   0.825  16.901 -0.2472  0.0702 -0.1766
 5852SOL     OW29017   3.243   2.683   3.854  0.1171 -0.4738 -0.1188
 5852SOL    HW129018   3.174   2.729   3.901 -0.0989 -1.1304  0.2046
 5852SOL    HW229019   3.296   2.649   3.927  0.1659 -2.0322 -0.8856
 5853SOL     OW29020   2.172   4.675   2.442 -0.1374 -0.6195 -0.4098
 5853SOL    HW129021   2.246   4.675   2.503 -0.4860  1.1292  0.0176
 5853SOL    HW229022   2.105   4.677   2.511  0.3052  1.1517 -0.0196
 5854SOL     OW29023   0.563   2.545   7.485  0.5755 -0.3465  0.5252
 5854SOL    HW129024   0.650   2.585   7.486 -0.3361  1.6097  0.2589
 5854SOL    HW229025   0.544   2.506   7.570  2.5780 -0.1827  1.0553
 5855SOL     OW29026   2.736   4.056   9.031 -0.1222  0.1176 -0.7889
 5855SOL    HW129027   2.693   4.131   9.072 -2.2305  0.0538 -2.8845
 5855SOL    HW229028   2.828   4.083   9.038  0.1847 -1.1344  0.1935
 5856SOL     OW29029   3.430   3.000  16.938 -0.3882  0.0447 -0.4287
 5856SOL    HW129030   3.361   3.049  16.982  1.3680  0.4820  1.8264
 5856SOL    HW229031   3.455   3.065  16.872 -0.7315  0.7303  0.1202
 5857SOL     OW29032   2.724   4.519   6.188  0.1751 -0.0808  0.2021
 5857SOL    HW129033   2.659   4.473   6.136 -1.2615  4.0505 -1.6980
 5857SOL    HW229034   2.684   4.606   6.192 -0.3258 -0.3842  1.4294
 5858SOL     OW29035   2.248   0.077  17.033  0.0828  0.2238  0.6043
 5858SOL    HW129036   2.235   0.160  16.987 -0.3524 -0.5349 -0.6524
 5858SOL    HW229037   2.216   0.016  16.966  1.9311  0.0460 -0.1164
 5859SOL     OW29038   1.409   4.150   3.615  0.4029  0.3151  0.2436
 5859SOL    HW129039   1.421   4.095   3.693 -0.5174  0.9415  0.8263
 5859SOL    HW229040   1.438   4.232   3.655 -0.3740  1.3164 -1.2474
 5860SOL     OW29041   1.376   0.869   8.880  0.4340 -0.0072  0.1272
 5860SOL    HW129042   1.347   0.950   8.922  2.3846  1.3160 -1.1112
 5860SOL    HW229043   1.449   0.846   8.938 -1.4891 -0.2351  2.4845
 5861SOL     OW29044   0.807   3.428   1.786  0.1587 -0.8045 -0.1558
 5861SOL    HW129045   0.813   3.350   1.731 -1.0286 -0.6751 -0.4631
 5861SOL    HW229046   0.744   3.391   1.848  0.2049  2.6235  1.9426
 5862SOL     OW29047   1.681   1.502   2.782 -0.4120 -0.0385  0.4190
 5862SOL    HW129048   1.674   1.579   2.725 -0.4130 -1.5210 -1.5895
 5862SOL    HW229049   1.678   1.549   2.866 -2.0574  0.8077 -0.1122
 5863SOL     OW29050   0.966   0.614   2.640  0.1528 -0.2765  0.0606
 5863SOL    HW129051   0.933   0.696   2.676 -0.0470 -0.5975  0.6037
 5863SOL    HW229052   0.883   0.570   2.621  0.1372  0.0530 -0.6176
 5864SOL     OW29053   0.343   2.811  15.310  0.1798 -0.1488 -0.4560
 5864SOL    HW129054   0.267   2.795  15.366  1.2032 -1.8001  0.4703
 5864SOL    HW229055   0.315   2.786  15.222 -1.4858 -0.1703  0.0757
 5865SOL     OW29056   0.066   0.172  16.642  0.0683  0.1940  0.1704
 5865SOL    HW129057   0.070   0.090  16.692 -3.0689  2.8940  4.8425
 5865SOL    HW229058   0.010   0.146  16.568 -0.0948  1.0224  0.0061
 5866SOL     OW29059   2.974   3.443   9.728  0.2596  0.1224 -0.3784
 5866SOL    HW129060   2.904   3.424   9.665  1.4867 -1.6985 -1.1915
 5866SOL    HW229061   2.940   3.420   9.814  0.2097  1.3807 -0.0597
 5867SOL     OW29062   0.584   0.542   8.801  0.5566 -0.3614 -0.1951
 5867SOL    HW129063   0.574   0.628   8.842 -3.2578 -0.9698  0.1208
 5867SOL    HW229064   0.508   0.540   8.743  0.5045  0.1335 -0.1483
 5868SOL     OW29065   2.099   2.132   6.503  0.1933  0.6075  0.1931
 5868SOL    HW129066   2.123   2.097   6.588  2.0534  1.5805  0.0527
 5868SOL    HW229067   2.151   2.088   6.436 -0.6925 -2.6658  1.6620
 5869SOL     OW29068   4.388   2.630   6.610 -0.2415  0.8281  0.0073
 5869SOL    HW129069   4.296   2.657   6.604  0.8806  4.5258 -0.6120
 5869SOL    HW229070   4.409   2.628   6.516 -1.9866 -1.3972 -0.3383
 5870SOL     OW29071   1.440   0.091  13.600  0.6112  0.1535  0.5470
 5870SOL    HW129072   1.347   0.068  13.597  0.5919  0.2595  0.2605
 5870SOL    HW229073   1.480   0.014  13.560  0.2809 -0.1215  0.7413
 5871SOL     OW29074   4.629   2.427   6.687 -0.2431 -0.0065 -0.8653
 5871SOL    HW129075   4.573   2.394   6.616  1.7044 -1.0241 -1.9434
 5871SOL    HW229076   4.589   2.510   6.710  0.0800  0.1299 -0.7942
 5872SOL     OW29077   0.031   3.968   1.843 -0.5511  0.1087  0.4047
 5872SOL    HW129078   0.056   3.875   1.842  1.6002  0.7012 -1.7638
 5872SOL    HW229079   0.111   4.014   1.869 -1.8154  0.3291  3.8687
 5873SOL     OW29080   3.132   4.292   7.560  0.5729  0.3204  0.1323
 5873SOL    HW129081   3.170   4.206   7.579 -1.7324  0.0470  3.5547
 5873SOL    HW229082   3.178   4.315   7.479 -0.5079 -0.9267 -0.8247
 5874SOL     OW29083   0.641   1.091   2.809 -0.4260  0.3721 -0.4164
 5874SOL    HW129084   0.577   1.072   2.740  0.1215  1.0253 -1.0953
 5874SOL    HW229085   0.579   1.094   2.882 -0.0916  0.7065 -0.1520
 5875SOL     OW29086   2.070   3.715   8.272  0.5490  0.5785  0.3208
 5875SOL    HW129087   2.097   3.681   8.358  1.3510 -1.0014 -0.5688
 5875SOL    HW229088   1.979   3.733   8.295 -0.4229 -1.6313 -1.7526
 5876SOL     OW29089   1.143   4.477   5.384 -0.6811  0.7552 -0.0188
 5876SOL    HW129090   1.194   4.451   5.307  0.0218  0.7151  0.4624
 5876SOL    HW229091   1.211   4.492   5.448  0.1433 -0.1272 -0.6829
 5877SOL     OW29092   4.172   1.610  17.445 -0.0767  0.3873  0.3543
 5877SOL    HW129093   4.208   1.584  17.360  0.0098  1.0735  0.1821
 5877SOL    HW229094   4.205   1.542  17.504  0.0926 -0.0876 -0.3031
 5878SOL     OW29095   0.190   4.209   4.969 -0.3752  0.3529  0.2133
 5878SOL    HW129096   0.109   4.257   4.954 -0.5353 -0.0415 -0.1885
 5878SOL    HW229097   0.202   4.225   5.062  1.8670  2.5809 -0.4571
 5879SOL     OW29098   3.376   2.694  17.032 -0.0347 -0.3482  0.4182
 5879SOL    HW129099   3.373   2.787  17.010  0.7367 -0.6014 -0.7424
 5879SOL    HW229100   3.285   2.672  17.054 -0.3157 -1.8147 -2.2427
 5880SOL     OW29101   0.683   2.859   8.124 -0.3070 -0.4236 -0.3467
 5880SOL    HW129102   0.625   2.932   8.102 -1.0917 -0.5744  1.2116
 5880SOL    HW229103   0.768   2.899   8.109 -0.2179  0.4633  2.5135
 5881SOL     OW29104   0.747   4.016   6.930  0.1161 -0.1688  0.0337
 5881SOL    HW129105   0.816   4.064   6.975  0.2358 -0.5160  0.2219
 5881SOL    HW229106   0.747   4.054   6.842  2.0521 -0.7806 -0.2331
 5882SOL     OW29107   2.074   3.260   7.974  0.0608 -0.0892 -0.1732
 5882SOL    HW129108   1.982   3.233   7.979  0.1557 -0.4745 -0.5238
 5882SOL    HW229109   2.091   3.304   8.057 -1.6516 -0.4689  0.3815
 5883SOL     OW29110   0.628   2.131   2.120 -0.2049 -0.0102  0.5216
 5883SOL    HW129111   0.643   2.206   2.178 -0.8351 -0.2952  1.0466
 5883SOL    HW229112   0.546   2.154   2.077  1.4568 -0.6772 -3.0207
 5884SOL     OW29113   2.046   2.788   6.752 -0.0749  0.0375  0.2927
 5884SOL    HW129114   2.109   2.847   6.709 -0.0789  0.3651  0.7313
 5884SOL    HW229115   2.103   2.744   6.815 -0.1294 -0.3213  0.0917
 5885SOL     OW29116   4.611   2.876   4.413  0.1352 -0.6998  0.1785
 5885SOL    HW129117   4.584   2.917   4.330  1.4279  2.6436  1.4233
 5885SOL    HW229118   4.589   2.945   4.475  2.0013  0.1601 -0.1131
 5886SOL     OW29119   4.085   0.754   7.150 -0.4243 -0.1947 -0.5998
 5886SOL    HW129120   4.064   0.841   7.183  0.9286  0.3771 -1.2340
 5886SOL    HW229121   4.008   0.738   7.096 -0.8263 -3.1810  0.8530
 5887SOL     OW29122   0.965   3.611   1.586 -0.0775  0.5723  0.4560
 5887SOL    HW129123   0.999   3.571   1.505 -3.5527 -0.0554 -0.7008
 5887SOL    HW229124   0.917   3.541   1.630  1.0828 -1.0402 -0.8550
 5888SOL     OW29125   0.715   3.311   8.594  0.0480 -0.1441 -0.2929
 5888SOL    HW129126   0.767   3.360   8.530 -1.2502  1.8616  0.1941
 5888SOL    HW229127   0.711   3.230   8.543 -0.4819  0.4931 -1.2779
 5889SOL     OW29128   0.069   3.789  11.583  0.0598 -0.7265  0.2068
 5889SOL    HW129129   0.157   3.760  11.559  1.7645  1.9913  3.1872
 5889SOL    HW229130   0.058   3.870  11.534  0.9062 -0.1964  0.9053
 5890SOL     OW29131   2.027   0.322  17.237  0.0917 -0.1239  0.5896
 5890SOL    HW129132   2.075   0.362  17.165  0.3767 -0.9691  0.3045
 5890SOL    HW229133   2.058   0.376  17.309 -0.0032 -0.1126  0.6224
 5891SOL     OW29134   3.311   0.701   7.745  0.1077  0.3171 -0.1693
 5891SOL    HW129135   3.257   0.769   7.785 -0.7821 -0.8539  0.6090
 5891SOL    HW229136   3.241   0.654   7.700  0.7367 -1.4432  0.6990
 5892SOL     OW29137   0.739   0.862   9.412  0.3161  0.2097 -0.7629
 5892SOL    HW129138   0.822   0.858   9.459 -0.7370  2.6876  1.3296
 5892SOL    HW229139   0.711   0.953   9.426  0.6982 -0.0033  1.3693
 5893SOL     OW29140   3.717   4.417   4.373 -0.0765  0.2204  0.1455
 5893SOL    HW129141   3.628   4.430   4.405 -0.9596 -1.6944 -1.5502
 5893SOL    HW229142   3.766   4.397   4.453  1.5927  1.4233 -0.5694
 5894SOL     OW29143   0.806   1.973   5.043  0.7952  0.5507  0.8349
 5894SOL    HW129144   0.818   2.065   5.018 -1.6189  0.5009 -0.5369
 5894SOL    HW229145   0.720   1.972   5.000  1.2882  1.0988 -0.1529
 5895SOL     OW29146   4.520   1.939   1.709  0.1121  0.2478 -0.2603
 5895SOL    HW129147   4.428   1.939   1.682 -0.0845 -0.2040  0.4250
 5895SOL    HW229148   4.550   2.029   1.696  1.0490  0.1531  1.2358
 5896SOL     OW29149   0.487   3.409   4.810  0.5672 -0.3336  0.1955
 5896SOL    HW129150   0.432   3.358   4.869 -1.0628 -0.1697 -1.1686
 5896SOL    HW229151   0.427   3.466   4.761 -0.0574  0.7414  2.2325
 5897SOL     OW29152   4.377   0.075   2.860  0.2000 -0.0661 -0.6716
 5897SOL    HW129153   4.362   4.705   2.868 -0.4687  0.0564 -0.4577
 5897SOL    HW229154   4.431   0.083   2.939 -1.3440  0.6127  0.3402
 5898SOL     OW29155   2.794   0.676   1.836  0.5120  0.0658 -0.0695
 5898SOL    HW129156   2.861   0.613   1.863  0.1979 -0.0536  0.4196
 5898SOL    HW229157   2.819   0.753   1.886  0.4111  0.5470 -0.7593
 5899SOL     OW29158   2.858   2.515   2.069 -0.0372 -0.0521 -0.4994
 5899SOL    HW129159   2.860   2.423   2.040  2.5962 -0.4910  1.0382
 5899SOL    HW229160   2.851   2.509   2.164  0.7454  1.5148 -0.3461
 5900SOL     OW29161   4.097   4.382   6.017  0.2743 -0.4448  1.2240
 5900SOL    HW129162   4.121   4.327   6.091 -0.3614 -0.2152  1.5989
 5900SOL    HW229163   4.026   4.330   5.979  1.4455 -0.0061 -1.5770
 5901SOL     OW29164   0.230   1.577   3.964  0.4570  0.3376 -0.3145
 5901SOL    HW129165   0.242   1.657   4.015  0.8577 -0.1890  0.4106
 5901SOL    HW229166   0.200   1.518   4.033 -2.1183  0.6665 -1.1221
 5902SOL     OW29167   0.526   3.086   8.078  0.2686  0.3496 -0.3880
 5902SOL    HW129168   0.534   3.181   8.087 -3.3204  0.6951 -0.9658
 5902SOL    HW229169   0.441   3.081   8.035 -2.1670  0.0980  4.4759
 5903SOL     OW29170   2.424   1.019   3.703 -0.1594 -0.1759  0.3038
 5903SOL    HW129171   2.471   0.985   3.779 -2.3024 -1.1783  1.1891
 5903SOL    HW229172   2.480   1.084   3.660 -0.9879  2.2366  2.8580
 5904SOL     OW29173   1.161   2.879   8.481  0.3559 -0.6669 -0.2462
 5904SOL    HW129174   1.234   2.926   8.440 -0.8525  2.4248  1.1308
 5904SOL    HW229175   1.190   2.883   8.573 -0.1690 -0.6962 -0.0794
 5905SOL     OW29176   0.603   2.211  11.708 -0.3188  0.2875 -0.0543
 5905SOL    HW129177   0.637   2.126  11.736 -0.2212  0.9110  1.7341
 5905SOL    HW229178   0.590   2.201  11.614  1.1876  0.3546 -0.2725
 5906SOL     OW29179   4.645   2.413   7.769  0.3506  0.9448  0.3087
 5906SOL    HW129180   0.005   2.392   7.810  0.1032  1.4007  1.0471
 5906SOL    HW229181   4.586   2.362   7.824  1.1576  0.2796  0.5659
 5907SOL     OW29182   4.115   1.723   4.434 -0.0265  0.3914 -0.1828
 5907SOL    HW129183   4.110   1.653   4.369 -2.3375  0.2512  0.1475
 5907SOL    HW229184   4.191   1.694   4.484  0.3515  1.5193 -0.1053
 5908SOL     OW29185   2.546   0.711  14.480 -0.4332  0.1923 -0.1203
 5908SOL    HW129186   2.624   0.725  14.534  0.0401 -0.0358 -0.7394
 5908SOL    HW229187   2.477   0.769  14.514  0.9770  2.4301 -1.0394
 5909SOL     OW29188   3.618   0.732   6.560 -0.2998  0.7199 -0.1799
 5909SOL    HW129189   3.617   0.824   6.587  0.0878  0.8763 -0.7170
 5909SOL    HW229190   3.651   0.741   6.471 -3.0415 -0.2948 -1.2975
 5910SOL     OW29191   0.480   4.300   0.401 -0.1246 -0.0020  0.7284
 5910SOL    HW129192   0.445   4.240   0.467  1.2291 -2.7022 -0.9868
 5910SOL    HW229193   0.543   4.340   0.461 -1.8346  1.1686  1.7255
 5911SOL     OW29194   1.231   4.046   4.506  0.3939  0.1838  0.0819
 5911SOL    HW129195   1.252   4.138   4.489 -0.2034 -0.0954 -2.2014
 5911SOL    HW229196   1.258   4.005   4.424 -1.0353 -2.9308  1.1723
 5912SOL     OW29197   3.332   0.126   8.325 -0.4212 -0.3392  0.2088
 5912SOL    HW129198   3.293   0.055   8.376 -1.8469 -0.9615 -1.7456
 5912SOL    HW229199   3.298   0.101   8.239  0.2108  0.8482 -0.3878
 5913SOL     OW29200   0.636   1.116   2.227 -0.7571  0.7023 -0.0834
 5913SOL    HW129201   0.679   1.200   2.208 -1.5757  0.8597 -1.1744
 5913SOL    HW229202   0.631   1.078   2.140  0.4444  1.5793 -0.5374
 5914SOL     OW29203   0.188   2.233   9.136 -0.1366 -0.1563 -0.3942
 5914SOL    HW129204   0.192   2.324   9.164 -1.3075  0.0314 -0.8510
 5914SOL    HW229205   0.233   2.191   9.210  0.6022 -2.0577 -1.9065
 5915SOL     OW29206   0.446   2.011   7.105  0.1196 -0.4071  0.2127
 5915SOL    HW129207   0.512   2.017   7.173  0.5336 -0.1675 -0.2094
 5915SOL    HW229208   0.489   1.977   7.026 -1.0682  2.1774 -1.5454
 5916SOL     OW29209   2.527   1.176   7.821  0.1404 -0.0243  1.0998
 5916SOL    HW129210   2.534   1.218   7.907  3.1579  1.6897 -0.0087
 5916SOL    HW229211   2.578   1.240   7.772  1.1388 -0.5638  1.4435
 5917SOL     OW29212   3.124   1.262   9.057  0.2115 -0.3301  0.0680
 5917SOL    HW129213   3.106   1.220   9.141  1.4742  1.3687  1.1856
 5917SOL    HW229214   3.052   1.324   9.050  0.0309 -0.6965 -1.3355
 5918SOL     OW29215   1.132   3.070  11.768 -0.3491 -0.7126  0.2704
 5918SOL    HW129216   1.173   2.984  11.776 -0.7571 -0.8905  0.4934
 5918SOL    HW229217   1.202   3.125  11.733  0.1169 -2.7025 -1.8923
 5919SOL     OW29218   1.074   0.799   9.836 -0.3587  0.1568  1.0970
 5919SOL    HW129219   1.143   0.762   9.891 -1.3052 -3.0872  0.1127
 5919SOL    HW229220   1.031   0.867   9.889 -2.4695 -0.4863  0.2164
 5920SOL     OW29221   0.569   3.923   5.736  0.3660  0.4159  0.0678
 5920SOL    HW129222   0.476   3.926   5.713  0.2158 -0.1281  0.6105
 5920SOL    HW229223   0.605   3.953   5.653  0.3326  2.5592  0.8138
 5921SOL     OW29224   2.962   4.135   4.170  0.0635  0.0308  0.1031
 5921SOL    HW129225   2.899   4.130   4.098  1.4033  0.5081 -1.1164
 5921SOL    HW229226   2.936   4.057   4.220 -1.4606  0.2765 -0.3142
 5922SOL     OW29227   2.600   3.715   0.313  0.0921 -0.3517 -0.6286
 5922SOL    HW129228   2.521   3.664   0.331 -1.5445  1.6757 -1.9504
 5922SOL    HW229229   2.569   3.805   0.320  0.6235 -0.2473  0.3932
 5923SOL     OW29230   1.108   2.839   6.638  0.1254  0.5968 -0.3592
 5923SOL    HW129231   1.068   2.883   6.713  0.3699  0.7576 -0.3225
 5923SOL    HW229232   1.050   2.764   6.622  0.4596  0.0747  0.9013
 5924SOL     OW29233   3.621   2.538  12.914 -0.8011 -0.4604  0.2630
 5924SOL    HW129234   3.655   2.533  13.003 -0.5210  2.4821  0.3158
 5924SOL    HW229235   3.607   2.632  12.906 -0.3850 -0.4867 -0.8091
 5925SOL     OW29236   1.987   2.945   3.093  0.5756  0.5735 -0.2996
 5925SOL    HW129237   1.909   3.000   3.092 -1.5685 -2.3824  1.2612
 5925SOL    HW229238   2.061   2.994   3.127  1.0384 -0.9630  0.8984
 5926SOL     OW29239   3.642   3.394   5.810  0.1698  0.2433  0.6894
 5926SOL    HW129240   3.636   3.443   5.892 -1.3970  0.1925  0.5942
 5926SOL    HW229241   3.608   3.461   5.751 -0.9336 -1.2589 -0.3665
 5927SOL     OW29242   2.506   2.950  11.902  0.2525  0.5788 -0.7724
 5927SOL    HW129243   2.561   2.892  11.956 -2.4097  0.2472  1.5911
 5927SOL    HW229244   2.521   2.902  11.821  0.7460 -0.0137 -0.3299
 5928SOL     OW29245   3.893   3.509   2.082  0.5763  0.3523  0.0637
 5928SOL    HW129246   3.824   3.449   2.054 -0.7401  1.8255  0.1404
 5928SOL    HW229247   3.949   3.441   2.118 -1.0318  0.2816  2.4670
 5929SOL     OW29248   2.538   1.672   3.665  0.2973 -0.1434 -0.2048
 5929SOL    HW129249   2.614   1.686   3.610  1.3263  0.5816  1.3810
 5929SOL    HW229250   2.578   1.687   3.751 -0.0309 -1.1463  0.1136
 5930SOL     OW29251   0.177   2.729  10.603 -0.0512  0.0120 -0.0340
 5930SOL    HW129252   0.124   2.649  10.601 -0.6335  0.3866  0.5838
 5930SOL    HW229253   0.261   2.689  10.578  0.6633  0.7887  1.1373
 5931SOL     OW29254   1.719   4.263  10.186 -0.2027  0.1150 -0.1481
 5931SOL    HW129255   1.758   4.348  10.164  1.6708 -0.7719 -0.2602
 5931SOL    HW229256   1.777   4.236  10.257 -2.1959 -0.3189  1.3266
 5932SOL     OW29257   3.125   1.887   3.876 -0.1140  0.1935  0.0092
 5932SOL    HW129258   3.166   1.939   3.945 -0.8186 -1.4876  1.7046
 5932SOL    HW229259   3.084   1.815   3.924  2.3844  0.3019  2.2959
 5933SOL     OW29260   3.518   2.298   7.647  0.4087  0.2531  0.2335
 5933SOL    HW129261   3.538   2.206   7.664 -1.3888  0.1697  1.9321
 5933SOL    HW229262   3.581   2.345   7.701  0.6524 -1.2501  1.2425
 5934SOL     OW29263   1.552   1.931   3.103 -0.3581 -0.1760 -0.1829
 5934SOL    HW129264   1.487   1.989   3.142 -0.7577 -0.8038  0.0933
 5934SOL    HW229265   1.627   1.944   3.162 -0.9212  0.4834  0.3841
 5935SOL     OW29266   4.553   0.652   7.891  0.2291 -0.2984  0.4973
 5935SOL    HW129267   4.532   0.559   7.901  0.8796 -0.4935  0.0343
 5935SOL    HW229268   4.512   0.695   7.966  3.0291  3.1302  0.0769
 5936SOL     OW29269   3.103   1.766  11.614 -0.3559 -0.0124 -0.0161
 5936SOL    HW129270   3.170   1.731  11.673  0.3923  0.5054 -0.5697
 5936SOL    HW229271   3.156   1.786  11.537  0.8812 -0.5694  0.6816
 5937SOL     OW29272   1.035   0.071   2.720 -0.3690  0.0651 -0.0772
 5937SOL    HW129273   0.979   0.123   2.663  1.6740  0.0635 -2.0856
 5937SOL    HW229274   1.119   0.118   2.720  0.8080 -2.0506  0.0576
 5938SOL     OW29275   3.655   4.013   3.519 -0.4844 -0.1701 -0.6250
 5938SOL    HW129276   3.731   4.071   3.515  0.9887 -2.0875 -0.2731
 5938SOL    HW229277   3.579   4.070   3.505  0.9548  2.4183  2.1057
 5939SOL     OW29278   2.228   1.237   3.650 -0.5221  0.2121  0.1651
 5939SOL    HW129279   2.263   1.190   3.725 -1.4900 -3.3205 -1.6218
 5939SOL    HW229280   2.297   1.303   3.654  1.2908 -1.5852 -1.4295
 5940SOL     OW29281   3.549   3.525   1.963  0.4025 -0.0435 -0.1221
 5940SOL    HW129282   3.533   3.440   1.924 -2.0973  0.3275  0.0610
 5940SOL    HW229283   3.600   3.574   1.899  0.8351  0.9781  0.9811
 5941SOL     OW29284   1.070   1.231   5.298 -0.2463 -0.0473  0.1217
 5941SOL    HW129285   1.008   1.227   5.225 -1.5027  0.9536  1.1222
 5941SOL    HW229286   1.060   1.138   5.319 -0.4818 -0.1361 -0.3880
 5942SOL     OW29287   0.077   3.309  16.213 -0.0141 -0.5599  0.3128
 5942SOL    HW129288   0.103   3.393  16.250  1.2603 -0.4273 -0.8479
 5942SOL    HW229289   0.081   3.339  16.122  0.2867 -1.2127  0.1047
 5943SOL     OW29290   1.761   0.127   8.536 -0.5672  0.6875  0.3504
 5943SOL    HW129291   1.740   0.164   8.450  3.1488 -3.3321 -2.2719
 5943SOL    HW229292   1.673   0.089   8.544  0.0961 -1.3331 -1.8876
 5944SOL     OW29293   2.017   4.435   5.200  1.2436 -0.0904 -0.0275
 5944SOL    HW129294   1.991   4.526   5.213  2.1657  0.4591 -1.9896
 5944SOL    HW229295   2.086   4.426   5.135  1.0366 -1.5682 -0.0448
 5945SOL     OW29296   1.579   2.040   3.964  0.1352  0.3669  0.2222
 5945SOL    HW129297   1.508   2.080   3.915  0.6663  1.8562  0.6444
 5945SOL    HW229298   1.580   1.948   3.938 -0.6665  0.6804 -0.9073
 5946SOL     OW29299   0.094   2.373   2.232 -0.0045  0.3590  0.0240
 5946SOL    HW129300   0.025   2.423   2.276  1.3062  2.2397 -0.0616
 5946SOL    HW229301   0.040   2.348   2.156 -0.4035 -4.4851  1.9685
 5947SOL     OW29302   1.809   3.396   5.258 -0.0651  0.0465  0.7142
 5947SOL    HW129303   1.894   3.380   5.216  0.4028  0.2173  1.5857
 5947SOL    HW229304   1.763   3.458   5.202 -0.5796 -0.3859  0.6534
 5948SOL     OW29305   2.956   0.989  16.464 -0.6695  0.8350  0.6309
 5948SOL    HW129306   2.909   0.912  16.499  1.6810  0.2681  2.5190
 5948SOL    HW229307   3.035   0.951  16.427  0.3067  0.7010  2.8385
 5949SOL     OW29308   1.103   3.612  11.183  0.0267 -0.0094  0.2028
 5949SOL    HW129309   1.050   3.691  11.171 -1.1994 -0.8679 -0.0242
 5949SOL    HW229310   1.178   3.637  11.128 -1.1481  0.9890 -0.9505
 5950SOL     OW29311   0.373   0.314  16.606 -0.4059 -0.4445 -0.0605
 5950SOL    HW129312   0.305   0.358  16.555 -0.0970 -0.9363 -0.8895
 5950SOL    HW229313   0.384   0.235  16.553  1.0282 -0.8565  0.8445
 5951SOL     OW29314   2.620   3.643   6.984  0.7695  0.0780  0.2807
 5951SOL    HW129315   2.679   3.600   6.922  0.9661 -0.0782  0.5784
 5951SOL    HW229316   2.542   3.614   6.936  1.5767  0.2240 -1.1095
 5952SOL     OW29317   0.068   2.808   4.689  0.5762  0.0664  0.6818
 5952SOL    HW129318   0.039   2.742   4.626 -1.4693  0.2719  1.4067
 5952SOL    HW229319   0.153   2.841   4.658  0.4710 -0.8400 -0.5898
 5953SOL     OW29320   3.339   1.363   6.964 -0.2958  0.4137  0.3172
 5953SOL    HW129321   3.364   1.421   6.892  1.9639  1.0776  1.6543
 5953SOL    HW229322   3.384   1.396   7.041 -0.2578  1.1341 -0.0099
 5954SOL     OW29323   2.373   0.768  14.207  0.1902  0.2348 -0.1832
 5954SOL    HW129324   2.364   0.850  14.256  0.9070 -1.2189  2.4227
 5954SOL    HW229325   2.298   0.721  14.245  2.4446 -2.3975  1.0111
 5955SOL     OW29326   0.109   4.559   4.009 -0.1842  0.0392 -0.4765
 5955SOL    HW129327   0.062   4.642   4.002  0.1090  0.2552  0.1072
 5955SOL    HW229328   0.165   4.576   3.933 -0.3240 -0.6030 -0.7185
 5956SOL     OW29329   3.079   2.492   6.050  0.1979 -0.2897 -0.5869
 5956SOL    HW129330   3.024   2.414   6.058 -0.8043  0.4406 -0.4105
 5956SOL    HW229331   3.105   2.485   5.959  1.4473  2.6514 -0.4600
 5957SOL     OW29332   1.875   0.347   0.769  0.1476 -0.6584  0.1374
 5957SOL    HW129333   1.819   0.385   0.701  1.3774  2.0868  0.6378
 5957SOL    HW229334   1.946   0.411   0.775 -1.1889  0.6192  2.2173
 5958SOL     OW29335   4.718   0.783   3.872 -0.1920  0.1626 -0.2840
 5958SOL    HW129336   0.023   0.815   3.957 -2.0205 -1.6150  1.0352
 5958SOL    HW229337   4.682   0.865   3.838 -0.6162 -0.7222 -2.0008
 5959SOL     OW29338   3.938   3.370   3.745  0.2538  0.0002 -0.3990
 5959SOL    HW129339   3.873   3.338   3.682 -0.5242 -0.2857  0.5499
 5959SOL    HW229340   3.942   3.464   3.727  1.6997 -0.0911 -0.5206
 5960SOL     OW29341   0.936   4.398   1.142 -0.1318  0.2645  0.5741
 5960SOL    HW129342   0.947   4.344   1.064 -0.3177  0.8918  0.1079
 5960SOL    HW229343   0.841   4.413   1.142 -0.1190  0.3233  1.2272
 5961SOL     OW29344   0.765   0.462  15.069 -0.1040  0.4825 -0.1498
 5961SOL    HW129345   0.828   0.489  15.002  0.9389  1.9055  1.4124
 5961SOL    HW229346   0.821   0.425  15.138  2.1623  1.7806 -1.2848
 5962SOL     OW29347   2.072   0.140  12.143 -0.0486 -0.2374  0.5365
 5962SOL    HW129348   2.168   0.136  12.141 -0.0987 -0.3394 -2.7260
 5962SOL    HW229349   2.051   0.047  12.145  0.5569 -0.3863  0.1133
 5963SOL     OW29350   1.197   2.763   5.553  0.3108  0.2990 -1.0097
 5963SOL    HW129351   1.207   2.669   5.568 -2.7606  0.1783  0.3409
 5963SOL    HW229352   1.195   2.755   5.458  1.1009  0.3923 -1.0294
 5964SOL     OW29353   2.758   4.676  15.110 -0.1549 -0.2627  0.0256
 5964SOL    HW129354   2.792   0.008  15.180  1.4067 -0.3874 -0.6375
 5964SOL    HW229355   2.771   0.001  15.028 -1.8422 -0.6191 -0.4486
 5965SOL     OW29356   1.395   1.163   7.053 -0.3140 -0.6488 -0.0796
 5965SOL    HW129357   1.380   1.170   7.148  0.1846 -1.7646  0.0761
 5965SOL    HW229358   1.352   1.080   7.035 -2.4731  0.4047  0.2791
 5966SOL     OW29359   0.703   2.134  14.246  0.1720 -0.8774 -0.4554
 5966SOL    HW129360   0.678   2.044  14.228 -1.4376 -1.0610  2.5635
 5966SOL    HW229361   0.798   2.142  14.233  0.2717  1.4420  1.4934
 5967SOL     OW29362   2.090   2.924   4.912  0.5097  0.1281  0.2828
 5967SOL    HW129363   2.152   2.879   4.968 -1.2086 -1.5064  0.8498
 5967SOL    HW229364   2.021   2.949   4.973 -0.7430  0.5650 -1.2928
 5968SOL     OW29365   1.110   0.611   6.687  0.2839 -0.5549  0.1605
 5968SOL    HW129366   1.052   0.687   6.692  0.9621 -0.0287 -0.0302
 5968SOL    HW229367   1.042   0.549   6.714 -2.2571  1.4735 -1.6082
 5969SOL     OW29368   0.794   1.912   9.007 -0.4185 -0.2485 -0.0810
 5969SOL    HW129369   0.844   1.991   8.987  0.3804 -0.4946  0.9536
 5969SOL    HW229370   0.709   1.930   8.967 -0.2384  1.4799  0.3379
 5970SOL     OW29371   2.624   2.106   2.738  0.3585 -0.4347  0.1212
 5970SOL    HW129372   2.615   2.026   2.686  0.6780  1.2686 -2.5233
 5970SOL    HW229373   2.558   2.084   2.804  1.9511  0.3355  1.9403
 5971SOL     OW29374   0.885   3.219  12.777  0.2359  0.5474  0.0068
 5971SOL    HW129375   0.853   3.228  12.687 -0.9862 -0.0066  0.3825
 5971SOL    HW229376   0.958   3.160  12.761  1.2747  2.8871 -3.9353
 5972SOL     OW29377   0.462   4.075  12.456  0.4124  0.3176 -0.2920
 5972SOL    HW129378   0.420   4.139  12.398  1.2470  0.0762 -1.1707
 5972SOL    HW229379   0.385   4.018  12.463  2.0359 -1.9284 -0.7650
 5973SOL     OW29380   4.620   4.227   5.856 -0.2249  0.0161 -0.1134
 5973SOL    HW129381   4.558   4.281   5.807  0.4824  1.0351  0.1176
 5973SOL    HW229382   4.659   4.184   5.781 -2.1803 -0.3028 -0.9546
 5974SOL     OW29383   3.997   2.785   2.835  0.2624 -0.1686 -0.4699
 5974SOL    HW129384   4.049   2.747   2.764  0.2081  0.0673 -0.6357
 5974SOL    HW229385   3.921   2.729   2.825  0.4494 -0.6446  0.7141
 5975SOL     OW29386   3.503   2.268   3.893 -0.1711 -0.0544 -0.2586
 5975SOL    HW129387   3.473   2.206   3.826 -0.8305 -0.7065  0.6551
 5975SOL    HW229388   3.433   2.333   3.895 -0.6993 -0.6506  0.4561
 5976SOL     OW29389   0.259   0.076   8.276  0.0401  0.1672  0.2244
 5976SOL    HW129390   0.350   0.052   8.294 -0.9099 -3.2277  0.4709
 5976SOL    HW229391   0.218   0.059   8.361  0.0521 -0.4849  0.0996
 5977SOL     OW29392   1.199   3.461   7.403 -0.1481  0.0693 -0.3039
 5977SOL    HW129393   1.236   3.549   7.392  2.0005 -0.7028  0.6408
 5977SOL    HW229394   1.120   3.479   7.352 -1.8618 -0.4026  2.2146
 5978SOL     OW29395   4.064   1.436   8.952 -0.4171  0.2248 -0.1160
 5978SOL    HW129396   4.005   1.425   9.028 -1.8340  2.1213 -0.9362
 5978SOL    HW229397   4.114   1.508   8.990 -0.1201 -1.0682  1.9402
 5979SOL     OW29398   1.715   2.944   1.239  0.2311  0.3021 -0.0962
 5979SOL    HW129399   1.645   2.944   1.174  0.1302  0.4954  0.0110
 5979SOL    HW229400   1.659   2.916   1.312  2.0845 -0.8574  0.8581
 5980SOL     OW29401   1.808   3.299   9.522  0.5167 -0.5263 -0.1776
 5980SOL    HW129402   1.817   3.234   9.591  1.7143 -1.5228 -1.2753
 5980SOL    HW229403   1.897   3.330   9.539  0.4957 -0.5941  0.0546
 5981SOL     OW29404   2.140   0.469  10.589  0.5971 -0.5122 -0.4915
 5981SOL    HW129405   2.095   0.385  10.601  3.7814 -2.1086  0.1580
 5981SOL    HW229406   2.141   0.514  10.674  1.2215  0.8000 -1.2041
 5982SOL     OW29407   0.368   3.773  15.895  0.0160  0.4207  0.5597
 5982SOL    HW129408   0.383   3.848  15.836 -3.0237 -1.3630 -2.4583
 5982SOL    HW229409   0.400   3.819  15.973  0.6182  1.6928 -0.4238
 5983SOL     OW29410   1.118   3.813  10.507 -0.1170 -0.1392  0.3141
 5983SOL    HW129411   1.036   3.773  10.537  0.1696 -0.3070  0.8586
 5983SOL    HW229412   1.124   3.787  10.415 -2.0094  0.1452  0.1072
 5984SOL     OW29413   3.435   2.011   5.429 -0.5443  0.1425  0.4647
 5984SOL    HW129414   3.447   2.007   5.334 -3.8536  0.1545  0.0588
 5984SOL    HW229415   3.525   1.993   5.456 -0.5025 -0.7287 -0.2760
 5985SOL     OW29416   3.479   4.210   3.520  0.3014  0.1268  0.6571
 5985SOL    HW129417   3.530   4.286   3.549  1.8886 -1.2955  1.6265
 5985SOL    HW229418   3.415   4.268   3.479  0.7418 -1.6916 -2.5778
 5986SOL     OW29419   0.481   0.304  15.777  0.1778  0.0664  0.1255
 5986SOL    HW129420   0.401   0.289  15.726  0.0780  1.4991 -0.1544
 5986SOL    HW229421   0.519   0.217  15.767 -2.1918 -1.0963  1.2326
 5987SOL     OW29422   3.484   3.658  13.800  0.3006  0.4109  0.0595
 5987SOL    HW129423   3.575   3.682  13.780  1.3778 -2.8413  0.9024
 5987SOL    HW229424   3.420   3.725  13.775 -0.0490  0.3781  0.8693
 5988SOL     OW29425   1.983   0.668   7.407 -0.0422  1.1191 -0.2515
 5988SOL    HW129426   1.971   0.578   7.376  0.6357  0.2713  1.8784
 5988SOL    HW229427   2.078   0.668   7.413  0.0032 -0.9908 -0.8100
 5989SOL     OW29428   4.578   3.976   2.856 -0.0874 -0.2189 -0.4737
 5989SOL    HW129429   4.528   3.934   2.786 -0.7775  0.7121 -0.5343
 5989SOL    HW229430   4.629   4.037   2.803 -0.7974 -0.0188 -0.9294
 5990SOL     OW29431   4.067   3.246  17.112 -0.2238  0.5911  0.0092
 5990SOL    HW129432   4.063   3.339  17.088  2.2923  0.3621 -1.3903
 5990SOL    HW229433   4.100   3.205  17.032  1.2938 -1.9279  1.9289
 5991SOL     OW29434   2.576   2.629   2.867  0.1216  0.0011 -0.3264
 5991SOL    HW129435   2.493   2.582   2.875  1.0000 -1.5157 -0.1568
 5991SOL    HW229436   2.578   2.662   2.777 -0.4796  0.4849 -0.1611
 5992SOL     OW29437   2.156   0.589   7.045  0.6614 -0.3593 -0.6842
 5992SOL    HW129438   2.199   0.514   7.005  0.6077  0.9245 -3.1473
 5992SOL    HW229439   2.068   0.556   7.061  0.6048 -0.7083 -1.7514
 5993SOL     OW29440   4.135   2.404   2.079  0.8073  0.3938  0.3732
 5993SOL    HW129441   4.079   2.401   2.156  0.7194 -3.0215  0.1401
 5993SOL    HW229442   4.105   2.490   2.051  1.4363  1.0507  1.6877
 5994SOL     OW29443   2.186   0.316   9.609 -0.3375 -0.3948  0.0290
 5994SOL    HW129444   2.214   0.369   9.683 -0.9146  1.1927 -0.8871
 5994SOL    HW229445   2.093   0.339   9.619 -0.2602  0.2768 -0.7979
 5995SOL     OW29446   1.422   2.270   9.303  0.3441  0.3413 -0.1395
 5995SOL    HW129447   1.452   2.250   9.391  1.3733  1.6104 -0.2050
 5995SOL    HW229448   1.506   2.306   9.275 -0.3741  1.5531 -0.7025
 5996SOL     OW29449   3.543   2.893   7.694 -0.1807 -0.0067 -0.5275
 5996SOL    HW129450   3.467   2.941   7.725  1.3867  0.9495  1.8665
 5996SOL    HW229451   3.562   2.842   7.773  1.1895 -0.0337 -0.8664
 5997SOL     OW29452   3.792   3.442   2.718  0.4860 -0.2294  0.4428
 5997SOL    HW129453   3.810   3.372   2.656  0.1970  0.8465 -0.8710
 5997SOL    HW229454   3.851   3.512   2.688 -1.7401  1.3305 -0.3147
 5998SOL     OW29455   0.446   2.917  16.292  0.7249 -0.0971 -0.1554
 5998SOL    HW129456   0.538   2.936  16.272  1.2741 -0.2252  2.1856
 5998SOL    HW229457   0.443   2.887  16.383 -2.1692 -1.1299 -0.6086
 5999SOL     OW29458   1.284   0.388  14.166 -0.6750  0.1252 -0.0233
 5999SOL    HW129459   1.251   0.429  14.086 -3.2769 -1.3723  0.2992
 5999SOL    HW229460   1.359   0.444  14.186 -0.3949  0.1371 -1.0896
 6000SOL     OW29461   2.406   0.982   4.901 -0.4329 -0.5664  0.7294
 6000SOL    HW129462   2.454   0.971   4.983  1.5772 -0.7238 -0.4843
 6000SOL    HW229463   2.463   0.940   4.836 -1.0521 -2.2857  1.2929
 6001SOL     OW29464   0.016   1.311   3.230  0.2869 -0.0575 -0.8398
 6001SOL    HW129465   4.710   1.393   3.192  2.5748  1.4239  0.6041
 6001SOL    HW229466   0.047   1.275   3.147 -1.3788 -0.0460 -1.4587
 6002SOL     OW29467   1.452   2.780   6.922 -0.5597 -0.0169  0.1174
 6002SOL    HW129468   1.449   2.787   6.827  0.2350  2.8687  0.3220
 6002SOL    HW229469   1.385   2.847   6.935  2.0026  2.0578  2.4695
 6003SOL     OW29470   3.444   2.307   1.922  0.1181  0.6845  0.4516
 6003SOL    HW129471   3.471   2.398   1.905 -1.1667  0.9487 -0.1695
 6003SOL    HW229472   3.381   2.325   1.991 -2.7727 -2.0159 -1.5228
 6004SOL     OW29473   0.695   1.957   4.673  0.0832  0.0334 -0.3217
 6004SOL    HW129474   0.694   1.863   4.692 -0.0250  0.1758  0.3618
 6004SOL    HW229475   0.770   1.962   4.615  1.1333 -1.5386  0.9054
 6005SOL     OW29476   0.174   0.708   2.258 -0.0949  0.6847 -0.0057
 6005SOL    HW129477   0.099   0.699   2.199 -0.8876 -1.1173  1.2841
 6005SOL    HW229478   0.183   0.617   2.284 -0.2737  0.5544 -0.4134
 6006SOL     OW29479   2.230   1.779  16.404  0.3884  0.0909 -0.4426
 6006SOL    HW129480   2.185   1.785  16.320 -2.1994  1.8596  1.0226
 6006SOL    HW229481   2.247   1.686  16.398  0.1717  0.0435 -0.3301
 6007SOL     OW29482   1.488   4.376   8.246  0.0438 -0.0854  0.2253
 6007SOL    HW129483   1.577   4.351   8.270 -0.9096 -2.0562  1.6735
 6007SOL    HW229484   1.503   4.469   8.265 -1.1502  0.3683 -1.0680
 6008SOL     OW29485   2.784   4.199  17.165 -0.0678  0.0520  0.0264
 6008SOL    HW129486   2.859   4.149  17.133 -1.7562 -2.7195  0.4202
 6008SOL    HW229487   2.806   4.285  17.130 -0.1857 -1.3304 -3.4762
 6009SOL     OW29488   4.547   0.557  15.271  0.0899 -0.0221  0.5651
 6009SOL    HW129489   4.627   0.506  15.283 -0.0216 -0.4051 -0.3152
 6009SOL    HW229490   4.524   0.535  15.181  1.8304  1.7471 -0.3053
 6010SOL     OW29491   0.461   1.896  12.728  0.1559  0.0422  0.1221
 6010SOL    HW129492   0.515   1.974  12.715  1.5848 -1.2257 -1.5511
 6010SOL    HW229493   0.438   1.878  12.637 -1.2195  0.5179  0.3777
 6011SOL     OW29494   3.782   3.843   8.802 -0.0632  0.1777 -0.0758
 6011SOL    HW129495   3.717   3.864   8.870 -1.0038 -0.7274 -0.7009
 6011SOL    HW229496   3.829   3.770   8.842 -2.0070 -1.1449 -0.1855
 6012SOL     OW29497   4.294   0.550   6.024 -0.2836 -0.1330  0.1691
 6012SOL    HW129498   4.303   0.512   6.112 -0.4892  1.1747  0.7535
 6012SOL    HW229499   4.250   0.632   6.045  1.9278  0.7538  1.3660
 6013SOL     OW29500   2.615   1.466   6.373 -0.0981  0.0427 -0.1347
 6013SOL    HW129501   2.576   1.380   6.354 -0.5332 -0.0810  1.3456
 6013SOL    HW229502   2.664   1.454   6.454  1.0964 -0.3448 -0.9216
 6014SOL     OW29503   4.595   0.379   7.943 -0.0616 -0.4481 -0.1037
 6014SOL    HW129504   4.524   0.321   7.917  0.0336 -0.3119 -0.6837
 6014SOL    HW229505   4.655   0.321   7.990 -0.3529 -2.0906 -1.7652
 6015SOL     OW29506   1.206   1.727   6.796 -0.5091  0.3323  0.5336
 6015SOL    HW129507   1.261   1.655   6.764 -0.4594 -0.0673  1.5097
 6015SOL    HW229508   1.172   1.769   6.717 -1.5017 -2.1238 -0.3593
 6016SOL     OW29509   0.082   2.056   9.520 -0.2882  0.1446  0.3138
 6016SOL    HW129510   0.052   1.969   9.547  0.8438 -0.4429 -0.3314
 6016SOL    HW229511   0.010   2.101   9.565 -1.1926 -1.3979  0.4360
 6017SOL     OW29512   2.168   1.148   2.501 -0.3199 -0.3128  0.2194
 6017SOL    HW129513   2.138   1.067   2.460 -1.4841 -0.9120  2.2531
 6017SOL    HW229514   2.087   1.199   2.491  0.3069  1.3030  3.4225
 6018SOL     OW29515   2.324   2.515   2.996  0.0216  0.0646 -0.5123
 6018SOL    HW129516   2.274   2.436   2.978 -2.1362  1.9429 -2.6046
 6018SOL    HW229517   2.257   2.561   3.046 -0.6602  0.0377 -1.4141
 6019SOL     OW29518   2.619   0.411   1.175  0.1452 -0.2812  0.4117
 6019SOL    HW129519   2.589   0.437   1.088 -2.3360  0.9858  1.6332
 6019SOL    HW229520   2.539   0.426   1.226  0.3183  0.4427  0.4786
 6020SOL     OW29521   0.815   1.089   8.394 -0.2514  0.2720  0.2112
 6020SOL    HW129522   0.814   1.181   8.367  0.2168  0.2764  0.2003
 6020SOL    HW229523   0.792   1.044   8.313 -0.6753  1.9121 -0.5721
 6021SOL     OW29524   1.185   3.022   8.104 -0.5438  0.3508 -0.5470
 6021SOL    HW129525   1.165   3.116   8.107 -0.2218  0.4170 -0.4686
 6021SOL    HW229526   1.247   3.021   8.177  0.0412 -2.4842 -1.0920
 6022SOL     OW29527   1.299   4.094   6.555  0.1748 -0.0444  0.2991
 6022SOL    HW129528   1.258   4.007   6.553 -0.1444  0.1845 -2.9194
 6022SOL    HW229529   1.221   4.150   6.551  0.0975 -0.2207 -0.6633
 6023SOL     OW29530   1.060   1.236   2.189  0.2603  0.2480  0.3409
 6023SOL    HW129531   1.090   1.146   2.171  0.0293  0.2080  0.1666
 6023SOL    HW229532   1.084   1.254   2.280 -2.1507  2.2502  0.5736
 6024SOL     OW29533   1.334   2.315   8.229 -0.9102  0.1009  0.2946
 6024SOL    HW129534   1.260   2.308   8.289 -1.7653 -0.0621 -0.7918
 6024SOL    HW229535   1.406   2.284   8.284 -0.4778 -0.0348 -0.3522
 6025SOL     OW29536   2.303   1.802  11.959 -0.1184  0.0286 -0.1661
 6025SOL    HW129537   2.215   1.814  11.922 -1.5615 -0.0158  3.2625
 6025SOL    HW229538   2.288   1.826  12.050  2.2124 -1.1728  0.5335
 6026SOL     OW29539   1.079   2.318   7.384 -0.3016  0.0458 -0.2671
 6026SOL    HW129540   1.012   2.323   7.316 -0.5490 -1.9464 -0.1551
 6026SOL    HW229541   1.030   2.284   7.458 -1.0513 -0.5366 -1.0368
 6027SOL     OW29542   2.840   0.589   1.198  0.3194 -0.1207  0.1429
 6027SOL    HW129543   2.874   0.564   1.112  2.7093  0.2460  0.9929
 6027SOL    HW229544   2.762   0.533   1.197 -1.8173  2.9131 -1.1823
 6028SOL     OW29545   2.374   4.155   4.105 -0.4229 -0.1460 -0.1619
 6028SOL    HW129546   2.360   4.060   4.105 -0.5231 -0.1320 -0.0731
 6028SOL    HW229547   2.467   4.172   4.095  0.0634 -2.0997  1.0168
 6029SOL     OW29548   3.849   3.821   4.076  0.5348 -0.3392  0.3859
 6029SOL    HW129549   3.817   3.784   3.993  1.1449  3.2107 -1.4308
 6029SOL    HW229550   3.917   3.876   4.039 -1.0254  1.7691  0.6212
 6030SOL     OW29551   0.626   2.896   4.874 -0.2315  0.3472  0.5341
 6030SOL    HW129552   0.559   2.908   4.941  3.9509 -0.4314  4.8602
 6030SOL    HW229553   0.631   2.988   4.848  1.3515 -0.4459 -2.0012
 6031SOL     OW29554   3.269   0.049   6.430 -0.5881 -0.2341  0.6054
 6031SOL    HW129555   3.245   0.007   6.347  1.2639  0.0343 -0.0679
 6031SOL    HW229556   3.185   0.059   6.474 -1.3829 -0.6287 -0.8022
 6032SOL     OW29557   1.030   3.469   6.753  0.3052 -0.1421  0.0925
 6032SOL    HW129558   0.997   3.547   6.708  1.6174 -0.5519 -1.6026
 6032SOL    HW229559   1.117   3.501   6.776  0.7658  1.7260 -4.3981
 6033SOL     OW29560   1.979   3.535   5.978 -0.5695  0.2944 -0.5835
 6033SOL    HW129561   1.998   3.628   5.988 -3.1295  0.8084 -0.7676
 6033SOL    HW229562   1.886   3.536   5.960 -0.1706  2.0084 -2.5414
 6034SOL     OW29563   3.422   0.944   8.943  0.7273 -0.0445 -0.1881
 6034SOL    HW129564   3.368   1.017   8.913 -0.5024  0.5438  3.4511
 6034SOL    HW229565   3.469   1.003   9.003  0.4556 -1.2185  1.1821
 6035SOL     OW29566   1.021   2.183   8.145 -0.6452 -0.3385  0.0193
 6035SOL    HW129567   1.024   2.116   8.213 -0.6339  1.3884  1.7196
 6035SOL    HW229568   0.953   2.243   8.174  0.4222  0.7153  0.3172
 6036SOL     OW29569   2.773   2.143   8.870 -0.3852  0.0938  0.5790
 6036SOL    HW129570   2.788   2.050   8.849 -1.6852 -0.1891  0.9047
 6036SOL    HW229571   2.773   2.138   8.965  0.9387 -0.3534  0.5502
 6037SOL     OW29572   2.060   4.646   4.166  0.2533  0.7656 -0.3633
 6037SOL    HW129573   2.141   4.607   4.200 -1.2420 -1.7515  0.3089
 6037SOL    HW229574   2.094   4.672   4.080  0.4433  0.0340 -0.5134
 6038SOL     OW29575   3.325   1.590   3.714 -0.2659  0.0634  0.0874
 6038SOL    HW129576   3.343   1.543   3.796 -2.1940 -0.8758 -0.0255
 6038SOL    HW229577   3.335   1.522   3.648  1.9648  0.9470 -0.4741
 6039SOL     OW29578   1.377   0.402  11.270 -0.2989 -0.2665 -0.0173
 6039SOL    HW129579   1.362   0.308  11.281  1.2098 -0.3620  1.3104
 6039SOL    HW229580   1.309   0.446  11.320 -0.2189  2.5263 -2.3575
 6040SOL     OW29581   3.275   2.688  12.768 -0.4192  0.1391  0.2131
 6040SOL    HW129582   3.366   2.660  12.779 -0.1723 -0.1458 -2.7785
 6040SOL    HW229583   3.269   2.711  12.676 -0.5671 -3.2601 -0.5955
 6041SOL     OW29584   4.682   0.886   4.685 -0.2595 -0.1152  0.4754
 6041SOL    HW129585   4.632   0.833   4.623  1.2222  0.6859 -1.3972
 6041SOL    HW229586   0.004   0.816   4.730  0.7978  0.2074 -0.1008
 6042SOL     OW29587   1.199   2.169   1.507  0.2274 -0.3014  0.1096
 6042SOL    HW129588   1.251   2.237   1.465 -1.7057  0.9832 -0.1938
 6042SOL    HW229589   1.114   2.192   1.471  0.6199  1.8867  0.5952
 6043SOL     OW29590   2.236   2.153  10.651 -0.8970 -0.0999 -0.2169
 6043SOL    HW129591   2.173   2.082  10.647 -2.1223  1.0663 -1.5574
 6043SOL    HW229592   2.233   2.178  10.743 -3.1882 -0.2374 -0.2623
 6044SOL     OW29593   2.143   4.701   6.080  0.5054  0.0113  0.6660
 6044SOL    HW129594   2.086   0.053   6.090 -0.4859 -0.5846 -0.4899
 6044SOL    HW229595   2.227   0.021   6.076  1.5028 -2.1487 -1.7978
 6045SOL     OW29596   1.699   4.629   5.038 -0.2997  0.0010  0.4400
 6045SOL    HW129597   1.630   4.628   4.971 -0.8398  1.0227  0.9691
 6045SOL    HW229598   1.719   4.539   5.061 -1.9338 -0.4975 -0.0605
 6046SOL     OW29599   1.764   2.707   4.684 -0.1288 -0.0200  0.3852
 6046SOL    HW129600   1.732   2.628   4.727  2.6250 -1.9920 -1.2548
 6046SOL    HW229601   1.706   2.723   4.610 -0.8453 -1.9681  0.5334
 6047SOL     OW29602   2.054   1.724   6.268 -0.1876  0.1847 -0.0225
 6047SOL    HW129603   1.973   1.774   6.257 -0.0780 -0.0961 -2.2196
 6047SOL    HW229604   2.076   1.755   6.356  0.2026 -1.1660  0.3574
 6048SOL     OW29605   4.512   4.553   8.138  0.2934 -0.0414  0.3834
 6048SOL    HW129606   4.600   4.535   8.105 -0.0888 -0.8020 -0.2376
 6048SOL    HW229607   4.519   4.648   8.142 -1.1777 -0.0824  3.9418
 6049SOL     OW29608   3.559   0.219   2.394 -0.1272 -0.4048  0.8682
 6049SOL    HW129609   3.560   0.204   2.489 -3.0861  4.0966  1.5897
 6049SOL    HW229610   3.512   0.302   2.387 -0.0105 -0.3418  0.8390
 6050SOL     OW29611   3.279   2.415   3.792 -0.3094  0.5502 -0.2300
 6050SOL    HW129612   3.269   2.508   3.809  1.7324  0.6309  0.5711
 6050SOL    HW229613   3.254   2.409   3.700 -0.5871  3.3466 -0.3255
 6051SOL     OW29614   3.032   2.803   2.595 -0.3101  0.1413  0.4103
 6051SOL    HW129615   3.116   2.779   2.635 -1.7033 -1.8364  2.1550
 6051SOL    HW229616   2.993   2.848   2.669  1.1939  1.8420  0.1586
 6052SOL     OW29617   0.946   0.137   7.821  0.3432  0.8598 -0.0013
 6052SOL    HW129618   0.856   0.167   7.805  0.2052  1.8222  2.6296
 6052SOL    HW229619   0.953   0.046   7.792 -1.8123  0.7582 -0.2188
 6053SOL     OW29620   3.540   0.300   6.358 -0.3250 -0.2259 -0.1968
 6053SOL    HW129621   3.613   0.308   6.419 -0.3681  0.9587 -0.3161
 6053SOL    HW229622   3.475   0.336   6.419 -0.8616  1.1160 -1.5653
 6054SOL     OW29623   2.826   0.056   1.676 -0.2409 -0.0262 -0.2405
 6054SOL    HW129624   2.755   0.120   1.677  0.0594  0.3259 -1.5305
 6054SOL    HW229625   2.898   0.097   1.724 -0.8239  1.3244 -0.5384
 6055SOL     OW29626   3.141   3.277  12.379 -0.3697  0.5096  0.0581
 6055SOL    HW129627   3.103   3.360  12.406 -0.4770  0.6633 -0.5706
 6055SOL    HW229628   3.117   3.216  12.450  1.3558  0.2931  0.4462
 6056SOL     OW29629   2.605   3.640   0.047  0.1039  0.0270  0.3843
 6056SOL    HW129630   2.636   3.659   0.136  0.5624  3.5128 -0.5143
 6056SOL    HW229631   2.520   3.598   0.061 -0.2980 -0.3110 -3.0877
 6057SOL     OW29632   2.810   0.629   3.431 -0.2606  0.2790 -0.1792
 6057SOL    HW129633   2.770   0.547   3.460  0.2030 -0.6289 -2.1168
 6057SOL    HW229634   2.898   0.611   3.464 -0.6014 -1.1709 -0.0622
 6058SOL     OW29635   4.625   4.043   5.171  0.1292 -0.4470  0.0278
 6058SOL    HW129636   4.571   4.121   5.174  0.0915 -0.5094  0.9134
 6058SOL    HW229637   4.611   4.012   5.082 -0.0358  0.8102 -0.3749
 6059SOL     OW29638   4.150   1.726   2.177 -0.4876  0.2341 -0.2659
 6059SOL    HW129639   4.167   1.661   2.246 -1.2436  1.6527  1.2477
 6059SOL    HW229640   4.122   1.804   2.223 -1.2385 -0.0599 -0.2280
 6060SOL     OW29641   2.560   0.426   6.221 -0.2333 -0.2069  0.3898
 6060SOL    HW129642   2.643   0.419   6.267 -1.2582  0.7723  2.3736
 6060SOL    HW229643   2.505   0.476   6.281  0.0367  0.8291 -0.2122
 6061SOL     OW29644   1.486   4.601   1.984  0.2812 -0.2864 -0.7070
 6061SOL    HW129645   1.558   4.540   1.968  1.5217  1.4836 -1.8676
 6061SOL    HW229646   1.496   4.665   1.914  2.6678  0.3090  0.1790
 6062SOL     OW29647   0.949   1.898   7.383  0.0272 -0.2267 -0.1523
 6062SOL    HW129648   1.022   1.895   7.444 -0.2731  0.0749  0.2189
 6062SOL    HW229649   0.917   1.980   7.420 -1.1193 -0.0229 -1.5905
 6063SOL     OW29650   1.579   3.282   3.344  0.1563 -0.0367 -0.2386
 6063SOL    HW129651   1.607   3.307   3.256  1.8753  1.1943  0.6621
 6063SOL    HW229652   1.622   3.197   3.353  1.7183  0.9959  2.0931
 6064SOL     OW29653   2.652   1.214   8.269 -0.0317  0.1702  0.3907
 6064SOL    HW129654   2.587   1.259   8.215  1.0007  0.0796 -0.9184
 6064SOL    HW229655   2.693   1.280   8.326 -1.7505 -0.1418  2.0046
 6065SOL     OW29656   2.913   3.728   0.091 -0.0303  1.0697 -0.3057
 6065SOL    HW129657   2.898   3.817   0.059  1.7030  1.6122  0.3794
 6065SOL    HW229658   2.990   3.691   0.048 -0.4562 -0.8678  0.6227
 6066SOL     OW29659   1.864   4.097   6.461 -0.4486 -0.7139 -0.1574
 6066SOL    HW129660   1.881   4.172   6.517 -1.4649 -0.0569 -0.7241
 6066SOL    HW229661   1.776   4.123   6.432 -0.5458  1.1036  1.7956
 6067SOL     OW29662   0.737   0.880   3.151 -0.1331  0.5976  0.1548
 6067SOL    HW129663   0.740   0.824   3.229 -1.1281  1.0408  0.5110
 6067SOL    HW229664   0.670   0.830   3.104 -0.6356  0.4158  1.0681
 6068SOL     OW29665   1.540   2.034   1.958 -0.0104 -0.2060  0.2562
 6068SOL    HW129666   1.475   2.099   1.931  1.5723  2.4543  2.8435
 6068SOL    HW229667   1.489   1.954   1.947  0.6285 -0.6695  0.6455
 6069SOL     OW29668   4.161   1.023   0.247  0.0759  0.0360 -0.2985
 6069SOL    HW129669   4.130   0.961   0.181 -0.0942 -2.1253  1.8331
 6069SOL    HW229670   4.095   1.092   0.245  0.8517  0.8620  1.8971
 6070SOL     OW29671   4.557   1.099   5.001  0.9578  0.4158 -0.1497
 6070SOL    HW129672   4.583   1.105   4.909 -0.3960 -0.1675 -0.5704
 6070SOL    HW229673   4.644   1.077   5.033 -0.0538 -1.1616  1.4726
 6071SOL     OW29674   2.337   2.654   1.348 -0.3399  0.0026 -0.0486
 6071SOL    HW129675   2.305   2.710   1.420  1.8525  2.0017 -0.6430
 6071SOL    HW229676   2.302   2.693   1.268 -2.0666 -0.4055  0.4999
 6072SOL     OW29677   0.386   3.891   2.852 -0.1034  0.2298  0.4251
 6072SOL    HW129678   0.350   3.970   2.892 -1.1095 -0.8049  1.5744
 6072SOL    HW229679   0.303   3.844   2.841 -0.0919  0.2193  0.3810
 6073SOL     OW29680   2.806   1.498  14.460  0.5296 -0.2156 -0.5258
 6073SOL    HW129681   2.741   1.512  14.529 -0.2882 -4.7715 -0.3690
 6073SOL    HW229682   2.778   1.410  14.433 -1.1577  0.0828  0.2121
 6074SOL     OW29683   3.675   2.927   3.459 -0.0244  0.2832  0.0388
 6074SOL    HW129684   3.719   2.960   3.537 -0.2055  0.0628  0.2340
 6074SOL    HW229685   3.730   2.854   3.430  1.3752  1.8962 -1.3293
 6075SOL     OW29686   4.047   0.115   5.276 -0.0036 -0.4358  0.2472
 6075SOL    HW129687   3.986   0.057   5.322  0.2917 -0.2794  0.8310
 6075SOL    HW229688   4.133   0.090   5.308  0.8314  1.0234 -0.8850
 6076SOL     OW29689   0.475   1.835  13.215  0.2792  0.1683 -0.1976
 6076SOL    HW129690   0.515   1.848  13.129 -0.2648 -1.2175 -0.6617
 6076SOL    HW229691   0.457   1.927  13.234  0.4091 -0.1052  1.2185
 6077SOL     OW29692   3.873   2.815  13.601 -0.6240  0.2294  0.2243
 6077SOL    HW129693   3.803   2.878  13.588 -1.8302 -0.9366  0.9954
 6077SOL    HW229694   3.902   2.816  13.510 -1.3516 -1.0477 -0.0214
 6078SOL     OW29695   3.502   0.342   5.205  1.1709  0.1562 -0.0409
 6078SOL    HW129696   3.434   0.357   5.271  1.1919 -0.1993  0.0612
 6078SOL    HW229697   3.576   0.386   5.246  0.7274 -0.9483  1.9719
 6079SOL     OW29698   1.572   2.993   3.970 -1.0675  0.2536  0.4665
 6079SOL    HW129699   1.490   2.979   4.018 -1.1803  1.1358  0.5345
 6079SOL    HW229700   1.641   2.973   4.034  0.3268 -0.0780 -1.1562
 6080SOL     OW29701   1.337   0.603  17.306  0.0226  0.6089 -0.0560
 6080SOL    HW129702   1.281   0.665  17.353  2.0750  2.2165  0.2688
 6080SOL    HW229703   1.299   0.591  17.219 -0.4572  0.5577  0.1614
 6081SOL     OW29704   1.812   2.292   1.905 -0.6172 -0.2866  0.1580
 6081SOL    HW129705   1.901   2.270   1.931 -0.2863  1.8039  0.8180
 6081SOL    HW229706   1.766   2.238   1.969  0.5294 -0.2865  0.9828
 6082SOL     OW29707   1.423   2.126   5.305  0.2282 -0.1509  0.3829
 6082SOL    HW129708   1.398   2.047   5.353  1.7571 -0.8298  0.0576
 6082SOL    HW229709   1.508   2.109   5.265 -0.5195 -2.3754 -0.2911
 6083SOL     OW29710   3.909   4.716  15.084 -0.7692 -0.2128 -0.4306
 6083SOL    HW129711   3.864   0.047  15.018 -1.3828 -1.4516 -1.0466
 6083SOL    HW229712   3.987   0.045  15.100  0.6762 -1.1079 -4.3920
 6084SOL     OW29713   4.179   3.820  11.422  0.2234 -0.4066  0.3491
 6084SOL    HW129714   4.202   3.772  11.502 -0.2079  0.2055  0.8384
 6084SOL    HW229715   4.151   3.742  11.374 -3.3203  0.2798  1.2566
 6085SOL     OW29716   2.326   0.465   7.787 -0.2087  0.1263 -0.0600
 6085SOL    HW129717   2.301   0.409   7.860 -1.5737  0.8665  0.0456
 6085SOL    HW229718   2.294   0.416   7.711  1.8701 -1.1257 -0.1282
 6086SOL     OW29719   0.123   0.501   7.882  0.1854 -0.2520 -0.3527
 6086SOL    HW129720   0.034   0.473   7.904  0.0741  0.3764 -0.0051
 6086SOL    HW229721   0.174   0.423   7.902 -0.2853 -0.3228  0.5787
 6087SOL     OW29722   3.915   3.368   4.535 -0.2000  0.2004  0.5004
 6087SOL    HW129723   3.983   3.427   4.500 -0.0534  0.5411  1.3621
 6087SOL    HW229724   3.861   3.359   4.456  0.5563  0.3439 -0.0375
 6088SOL     OW29725   2.035   3.980   5.058 -0.2334 -0.7260 -0.1817
 6088SOL    HW129726   2.102   3.920   5.026  1.5871  0.2301  1.8820
 6088SOL    HW229727   2.050   3.987   5.152  0.6570  0.3426 -0.4135
 6089SOL     OW29728   2.237   4.226  14.660  0.6038 -0.2074  0.1000
 6089SOL    HW129729   2.315   4.281  14.650  0.1981  0.0211 -1.8472
 6089SOL    HW229730   2.182   4.278  14.719 -1.7740 -0.2605 -2.0470
 6090SOL     OW29731   0.302   1.709   6.555 -0.0988  0.9391  0.3167
 6090SOL    HW129732   0.310   1.804   6.551 -0.9077  0.8770 -2.4395
 6090SOL    HW229733   0.208   1.691   6.549  0.5516 -3.0338  2.4610
 6091SOL     OW29734   2.848   0.239   2.601 -0.0878 -0.3167  0.1214
 6091SOL    HW129735   2.864   0.147   2.581  2.4008  0.3252 -0.8434
 6091SOL    HW229736   2.754   0.243   2.586 -0.1854  1.2434  1.0946
 6092SOL     OW29737   4.578   3.685   4.703  0.3303 -0.5821  0.3942
 6092SOL    HW129738   4.584   3.590   4.700 -0.2748 -0.6039 -0.0001
 6092SOL    HW229739   4.499   3.684   4.757 -0.8712 -1.4675 -1.3877
 6093SOL     OW29740   2.407   0.979   9.590 -0.0516  0.0116 -0.4947
 6093SOL    HW129741   2.371   0.946   9.672 -1.6427  2.0035 -0.3812
 6093SOL    HW229742   2.414   1.071   9.616 -2.6793  0.2622 -0.6035
 6094SOL     OW29743   3.716   0.035   1.567  0.3857 -0.0734  0.3526
 6094SOL    HW129744   3.765   4.719   1.639  0.9177  0.2717  0.1743
 6094SOL    HW229745   3.641   0.080   1.607 -0.6372 -0.7706 -0.7685
 6095SOL     OW29746   4.390   2.505  13.638 -0.1994  0.0699  0.2366
 6095SOL    HW129747   4.313   2.558  13.615 -0.1518  0.2276  0.4423
 6095SOL    HW229748   4.365   2.422  13.596  0.3404  1.1134 -2.1533
 6096SOL     OW29749   1.648   1.981   8.028  0.0917  0.3772  0.4723
 6096SOL    HW129750   1.692   2.066   8.040  0.5431 -0.0327  1.7642
 6096SOL    HW229751   1.568   1.998   8.078  1.0317  0.2241  2.0175
 6097SOL     OW29752   0.135   2.679   6.435  1.4736  0.6446  0.1147
 6097SOL    HW129753   0.114   2.597   6.481  1.5396 -0.2339 -1.3934
 6097SOL    HW229754   0.160   2.627   6.358 -0.7631 -2.6839  1.6199
 6098SOL     OW29755   3.704   1.004   6.634 -0.6594  0.1623 -0.4080
 6098SOL    HW129756   3.694   0.975   6.725  1.9761 -0.8178 -0.4231
 6098SOL    HW229757   3.717   1.098   6.646  0.0813 -0.0329  0.3520
 6099SOL     OW29758   0.525   3.981   6.616 -0.2189 -0.9129 -0.7157
 6099SOL    HW129759   0.462   3.926   6.662  1.5269 -3.1584 -1.0443
 6099SOL    HW229760   0.509   3.952   6.526 -0.1798  2.2528 -1.7530
 6100SOL     OW29761   3.741   2.052  12.752  0.0287  0.9234 -0.5203
 6100SOL    HW129762   3.734   2.099  12.835  2.1598  0.1865  0.0654
 6100SOL    HW229763   3.699   2.120  12.700  1.2982  1.9004 -0.2424
 6101SOL     OW29764   0.144   3.862   4.068 -0.4994 -0.5974  0.0681
 6101SOL    HW129765   0.120   3.906   4.150  0.4826  1.3014 -0.6616
 6101SOL    HW229766   0.078   3.794   4.056  0.3773 -1.7813  1.9477
 6102SOL     OW29767   4.082   3.966   4.376 -0.3771  0.1501 -0.1051
 6102SOL    HW129768   4.056   3.910   4.303  0.7929 -1.3590  0.6483
 6102SOL    HW229769   4.041   3.920   4.449  1.4871  2.2321  2.2450
 6103SOL     OW29770   1.243   4.018  11.078  0.3261 -0.1667  0.0524
 6103SOL    HW129771   1.282   3.937  11.046 -0.0561 -0.6417  0.7876
 6103SOL    HW229772   1.284   4.087  11.025  0.1898  2.3842  3.2545
 6104SOL     OW29773   4.372   2.120   2.602  0.4523  0.7129  0.2010
 6104SOL    HW129774   4.281   2.093   2.596  0.5886  0.8018 -2.6347
 6104SOL    HW229775   4.404   2.042   2.647 -0.0255  0.1103 -0.4954
 6105SOL     OW29776   4.348   4.057   1.576 -0.2107 -0.4675 -0.0703
 6105SOL    HW129777   4.438   4.086   1.588 -1.3248  2.5193  1.3036
 6105SOL    HW229778   4.363   3.963   1.570  0.6255 -0.3059 -0.5346
 6106SOL     OW29779   2.195   2.989   4.304  0.0864  0.4951 -0.0643
 6106SOL    HW129780   2.234   3.063   4.258 -1.2988  0.3056 -1.5197
 6106SOL    HW229781   2.186   3.027   4.391  1.0322 -2.0388  1.1487
 6107SOL     OW29782   4.482   0.670   3.617  0.0825 -0.4515 -0.2268
 6107SOL    HW129783   4.515   0.720   3.692  0.8163  0.4225 -1.1286
 6107SOL    HW229784   4.398   0.713   3.605 -0.6365 -1.8126  0.0116
 6108SOL     OW29785   2.983   2.834   5.434 -0.3325  0.2628 -0.0511
 6108SOL    HW129786   2.985   2.929   5.423 -0.3747  0.2976  0.2290
 6108SOL    HW229787   2.947   2.816   5.521 -0.0359  0.0437  0.0226
 6109SOL     OW29788   4.640   0.435   5.269  0.3254 -0.5717 -0.1925
 6109SOL    HW129789   0.007   0.405   5.258 -0.3206 -2.5020 -0.2589
 6109SOL    HW229790   4.616   0.393   5.352  0.0711 -0.6718 -0.3161
 6110SOL     OW29791   3.377   3.680   0.670  0.7671  0.4143  0.4613
 6110SOL    HW129792   3.464   3.673   0.630 -0.9272  1.7391 -3.5519
 6110SOL    HW229793   3.337   3.742   0.609  1.8740  1.8419  1.1973
 6111SOL     OW29794   3.231   1.983  15.234 -0.0354 -0.0446 -0.1990
 6111SOL    HW129795   3.211   1.981  15.140 -0.1351  1.0634 -0.1990
 6111SOL    HW229796   3.144   2.015  15.257 -0.2770 -1.0396  0.2771
 6112SOL     OW29797   1.682   1.979   2.329 -0.0749  0.6173  0.6488
 6112SOL    HW129798   1.705   1.892   2.295 -0.8785 -0.1346  1.9986
 6112SOL    HW229799   1.680   2.029   2.248  1.1910  0.8295  0.7432
 6113SOL     OW29800   1.778   0.683  11.214  0.5459  0.9300 -0.2886
 6113SOL    HW129801   1.860   0.672  11.166  0.6651 -0.5973  0.2694
 6113SOL    HW229802   1.809   0.751  11.274 -2.1170 -0.0651  2.1857
 6114SOL     OW29803   4.200   0.985   4.964 -0.2655 -0.1962 -0.1136
 6114SOL    HW129804   4.154   0.957   5.043 -0.8416  0.5512 -0.1759
 6114SOL    HW229805   4.287   0.952   4.983 -0.0511 -0.2102 -1.1574
 6115SOL     OW29806   4.644   1.519   9.553 -0.2392  0.1665 -0.3268
 6115SOL    HW129807   4.633   1.582   9.482  1.0591  1.6303  0.7651
 6115SOL    HW229808   4.664   1.439   9.504  1.7928 -0.3359  1.2972
 6116SOL     OW29809   0.087   3.606   3.106 -0.0483  0.1995  0.2963
 6116SOL    HW129810   0.104   3.654   3.024  1.9313 -0.7712  0.1290
 6116SOL    HW229811   0.129   3.670   3.164  0.1560  1.0667 -0.7954
 6117SOL     OW29812   2.379   4.247  10.365 -0.2285 -0.1288  0.3815
 6117SOL    HW129813   2.360   4.223  10.455 -0.0353 -0.0606  0.4409
 6117SOL    HW229814   2.313   4.311  10.340  1.9180  2.2268  0.7732
 6118SOL     OW29815   3.115   4.463   5.996 -0.4888 -0.4231  0.5751
 6118SOL    HW129816   3.073   4.425   6.073 -0.0456  2.8445  2.4200
 6118SOL    HW229817   3.067   4.419   5.925  0.1826 -0.7283  0.3112
 6119SOL     OW29818   2.443   4.397  14.664  0.1802 -0.2323  0.3933
 6119SOL    HW129819   2.474   4.487  14.678 -1.7580  0.3630  0.8115
 6119SOL    HW229820   2.459   4.356  14.750  2.8670 -0.3940 -0.1647
 6120SOL     OW29821   1.937   1.160  14.614  0.1794  0.6170 -0.2605
 6120SOL    HW129822   1.987   1.182  14.535 -0.1700 -0.9352 -0.9238
 6120SOL    HW229823   1.926   1.066  14.600  0.7592  0.1174  2.7499
 6121SOL     OW29824   2.666   3.373   3.496 -0.0928  0.1934  0.3151
 6121SOL    HW129825   2.732   3.306   3.475 -1.6935 -1.2728 -0.0688
 6121SOL    HW229826   2.717   3.450   3.520  2.3988 -1.3266 -0.0467
 6122SOL     OW29827   0.883   3.806   7.489 -0.1542 -0.4484 -0.0050
 6122SOL    HW129828   0.961   3.755   7.511  1.0343  1.2677 -0.1747
 6122SOL    HW229829   0.910   3.852   7.409 -2.0153  0.5992 -0.0260
 6123SOL     OW29830   3.374   2.139   6.940  0.2002  0.0557 -0.0885
 6123SOL    HW129831   3.391   2.080   6.867 -1.4211  0.6184 -0.9091
 6123SOL    HW229832   3.460   2.131   6.982 -0.1015  0.9365  0.7130
 6124SOL     OW29833   1.800   0.496  13.132 -0.6113  0.3022  0.7695
 6124SOL    HW129834   1.847   0.478  13.051 -0.4385 -0.5255  1.0637
 6124SOL    HW229835   1.759   0.582  13.117 -0.4213  0.1438 -0.6425
 6125SOL     OW29836   1.325   1.478   7.118 -0.4491  0.6721  0.3697
 6125SOL    HW129837   1.250   1.534   7.095 -1.1575 -0.3403  0.2329
 6125SOL    HW229838   1.402   1.528   7.091  1.9924 -0.8318  4.6773
 6126SOL     OW29839   0.025   2.620   9.840 -0.3853 -0.2288 -0.3948
 6126SOL    HW129840   0.003   2.713   9.842  0.9667  0.0611  2.3663
 6126SOL    HW229841   0.086   2.603   9.912 -0.7496  0.0855 -0.0045
 6127SOL     OW29842   3.543   0.278   4.940  0.0823  0.1099  0.1983
 6127SOL    HW129843   3.499   0.330   5.006  0.1700 -1.2932  1.3619
 6127SOL    HW229844   3.482   0.211   4.910 -1.4073  1.4119  0.3598
 6128SOL     OW29845   0.614   1.106   4.418  0.2169 -0.5242  0.0846
 6128SOL    HW129846   0.520   1.120   4.428  0.1108 -0.6169 -0.7145
 6128SOL    HW229847   0.602   1.045   4.345  2.5022  1.3417 -1.8574
 6129SOL     OW29848   2.963   1.453   6.293 -0.0284 -0.0097 -0.7512
 6129SOL    HW129849   2.870   1.458   6.268 -0.2422 -0.0113  0.0469
 6129SOL    HW229850   3.007   1.484   6.214  0.6455 -1.6603 -1.0030
 6130SOL     OW29851   3.430   1.303   9.764 -0.0920  0.1925  0.3399
 6130SOL    HW129852   3.490   1.356   9.817 -0.3561  0.7255  0.1070
 6130SOL    HW229853   3.390   1.248   9.831  1.9030 -2.0543 -0.3206
 6131SOL     OW29854   0.923   2.854   1.273 -0.3384  0.0753  0.6045
 6131SOL    HW129855   0.864   2.801   1.219  2.5619 -1.4197 -1.1036
 6131SOL    HW229856   1.002   2.801   1.274 -0.9180 -0.8032 -0.4935
 6132SOL     OW29857   1.214   1.701   4.916  0.3511  0.5451  0.0724
 6132SOL    HW129858   1.122   1.710   4.941 -0.4003 -1.4934 -1.9027
 6132SOL    HW229859   1.213   1.605   4.913 -1.9935  0.5959 -0.6828
 6133SOL     OW29860   0.472   4.647   7.725  0.1980  0.5861 -0.1044
 6133SOL    HW129861   0.439   4.673   7.639  1.9305 -1.1250 -1.2828
 6133SOL    HW229862   0.534   4.579   7.700  1.0281  0.9435  1.0070
 6134SOL     OW29863   1.262   3.907   8.095 -0.5537 -0.2096 -0.0929
 6134SOL    HW129864   1.284   3.890   8.003 -0.2556 -1.4579  0.2039
 6134SOL    HW229865   1.347   3.879   8.129 -0.9343 -2.6890 -1.1635
 6135SOL     OW29866   3.268   4.341   3.097 -0.0692  0.4926  0.2824
 6135SOL    HW129867   3.261   4.372   3.007 -0.7794  1.9045  0.8287
 6135SOL    HW229868   3.330   4.268   3.085 -0.4322  0.5382 -1.8053
 6136SOL     OW29869   4.697   1.404   6.023  0.4114 -0.1586 -0.4148
 6136SOL    HW129870   4.717   1.483   5.972  2.4443 -1.0909 -1.0465
 6136SOL    HW229871   0.035   1.428   6.092 -0.6880  0.0260  0.4934
 6137SOL     OW29872   0.926   2.004   7.908  0.2311  0.4938 -0.1911
 6137SOL    HW129873   0.953   2.094   7.896  1.1932  0.0528 -1.2684
 6137SOL    HW229874   0.883   2.012   7.993 -0.8698 -0.3339 -0.6605
 6138SOL     OW29875   1.177   0.214   1.971  0.0117 -0.2081 -0.0755
 6138SOL    HW129876   1.171   0.301   2.008  0.5576  0.4506 -1.5446
 6138SOL    HW229877   1.260   0.192   2.013  0.1427 -0.8687 -0.6648
 6139SOL     OW29878   0.886   4.178   7.894  0.1922  0.3537  0.1458
 6139SOL    HW129879   0.879   4.218   7.807 -1.3353 -0.2565 -0.0197
 6139SOL    HW229880   0.981   4.183   7.904  0.3172 -1.5760 -0.0106
 6140SOL     OW29881   2.257   0.601  17.151  0.1591  0.2616  0.1762
 6140SOL    HW129882   2.200   0.624  17.225 -0.8412  1.1832 -0.8671
 6140SOL    HW229883   2.344   0.616  17.188  2.6066 -2.7732 -4.3683
 6141SOL     OW29884   0.121   3.301   7.587 -0.1794 -0.0713  0.2233
 6141SOL    HW129885   0.142   3.327   7.677 -1.7028 -0.8964  0.8192
 6141SOL    HW229886   0.087   3.212   7.589  3.5806 -1.4523  0.7909
 6142SOL     OW29887   1.041   0.347  17.076  0.0964 -0.0775  0.0655
 6142SOL    HW129888   0.961   0.309  17.041 -0.1250  0.9182 -0.5062
 6142SOL    HW229889   1.027   0.321  17.167 -0.7881  1.5255  0.3853
 6143SOL     OW29890   0.696   1.539  16.416  0.1354 -0.0267  0.2522
 6143SOL    HW129891   0.605   1.510  16.413 -0.3145  1.2771  1.2972
 6143SOL    HW229892   0.729   1.466  16.364  0.5756 -0.8087  1.5973
 6144SOL     OW29893   0.368   0.980   3.621  0.5894  0.2933 -0.0606
 6144SOL    HW129894   0.431   1.012   3.558  1.2757  0.9843  0.9681
 6144SOL    HW229895   0.324   0.913   3.570  1.9623  0.6475 -1.6845
 6145SOL     OW29896   3.139   1.492   7.995 -0.6201  0.5283  0.0867
 6145SOL    HW129897   3.077   1.463   8.062 -1.5741  0.3767 -0.8481
 6145SOL    HW229898   3.075   1.533   7.936 -1.5864 -1.0067  0.0599
 6146SOL     OW29899   2.864   2.819   6.253 -0.6097 -0.3410  0.1074
 6146SOL    HW129900   2.865   2.799   6.346 -0.5498  0.1242  0.2090
 6146SOL    HW229901   2.959   2.814   6.241 -0.4810  1.3067  0.4784
 6147SOL     OW29902   3.547   0.386   7.617 -0.0948 -0.6016 -0.1466
 6147SOL    HW129903   3.555   0.440   7.696 -1.4344 -0.2197 -0.2803
 6147SOL    HW229904   3.616   0.321   7.630 -1.0753 -1.6082  0.0249
 6148SOL     OW29905   2.311   4.648   1.908 -0.0459 -0.2270  0.4150
 6148SOL    HW129906   2.348   4.689   1.986  1.0851  0.6436 -0.5757
 6148SOL    HW229907   2.248   4.594   1.956 -0.5341  1.6719  1.8966
 6149SOL     OW29908   1.633   3.699  11.852 -0.5008 -0.3498 -0.0995
 6149SOL    HW129909   1.699   3.676  11.787  1.2978 -2.6629  2.5114
 6149SOL    HW229910   1.548   3.690  11.810 -0.3010 -0.5088 -0.4696
 6150SOL     OW29911   3.042   3.087  17.139  0.1998 -0.6194  0.4050
 6150SOL    HW129912   3.111   3.133  17.090 -2.2406  0.6599 -1.8129
 6150SOL    HW229913   2.978   3.158  17.141  2.2560  1.2407  0.0765
 6151SOL     OW29914   4.580   3.647  11.828 -0.8411  0.2851 -0.4049
 6151SOL    HW129915   4.531   3.706  11.884 -0.6247  1.6319 -1.6320
 6151SOL    HW229916   4.624   3.588  11.890 -0.2882  0.2568 -0.8238
 6152SOL     OW29917   3.271   1.667   8.963  0.5601 -0.6031  0.1158
 6152SOL    HW129918   3.242   1.634   8.878 -0.4948 -0.7348  0.5232
 6152SOL    HW229919   3.191   1.670   9.016 -1.6270 -1.1533 -3.1686
 6153SOL     OW29920   2.183   0.306   7.602  0.5129  0.5809  0.3786
 6153SOL    HW129921   2.166   0.215   7.625 -1.3740  1.2081  1.4715
 6153SOL    HW229922   2.099   0.351   7.611  1.5356  2.7876 -0.9666
 6154SOL     OW29923   4.665   0.147   7.209 -0.4977 -0.6724 -0.0171
 6154SOL    HW129924   4.644   0.088   7.282 -1.8884 -1.4795 -1.0617
 6154SOL    HW229925   4.594   0.211   7.215  2.6312  2.6818  0.8691
 6155SOL     OW29926   2.340   1.216  15.328  0.5083 -0.2565 -0.0509
 6155SOL    HW129927   2.410   1.171  15.375 -0.3672 -0.5563  0.9472
 6155SOL    HW229928   2.329   1.293  15.383 -0.9913 -0.1485 -0.5114
 6156SOL     OW29929   1.323   3.897   4.290 -0.1649 -0.2431  0.0295
 6156SOL    HW129930   1.322   3.803   4.276  0.5299 -0.2430 -0.0050
 6156SOL    HW229931   1.416   3.918   4.297  0.3795 -2.4328 -0.7004
 6157SOL     OW29932   2.391   0.740   1.143  0.2798  0.9683 -0.2648
 6157SOL    HW129933   2.379   0.761   1.236  0.5597 -0.4228  0.0738
 6157SOL    HW229934   2.481   0.772   1.137  1.0401 -0.7964  1.8275
 6158SOL     OW29935   1.680   2.032   8.641  0.9141 -0.0736  0.2541
 6158SOL    HW129936   1.602   2.088   8.646  0.3310 -0.9641  0.9800
 6158SOL    HW229937   1.726   2.089   8.702 -1.5891  2.6224 -0.3942
 6159SOL     OW29938   2.726   3.190   9.148  0.2075  0.1048  0.5674
 6159SOL    HW129939   2.672   3.161   9.222 -1.6877 -1.5253 -1.4501
 6159SOL    HW229940   2.655   3.233   9.099  0.8697 -0.8345 -1.2169
 6160SOL     OW29941   4.679   2.873  10.181  0.4565  0.7185 -0.4130
 6160SOL    HW129942   0.019   2.885  10.251  0.0258  0.1181  0.0846
 6160SOL    HW229943   4.655   2.781  10.193  1.5699  0.3191 -1.2826
 6161SOL     OW29944   2.336   0.123  16.264  0.1033  0.0554 -0.1642
 6161SOL    HW129945   2.317   0.179  16.340 -0.3598 -1.1786  0.6325
 6161SOL    HW229946   2.426   0.100  16.289 -0.1940 -1.0199 -0.0802
 6162SOL     OW29947   1.268   4.164   0.533  0.2567  0.0183  0.2558
 6162SOL    HW129948   1.313   4.191   0.453 -2.0380  1.0986 -0.6881
 6162SOL    HW229949   1.259   4.073   0.506  0.1871 -0.5418  2.1516
 6163SOL     OW29950   3.206   0.684   4.654 -0.2198  0.4281 -0.0997
 6163SOL    HW129951   3.224   0.756   4.593  0.8562 -0.2227 -0.5600
 6163SOL    HW229952   3.199   0.619   4.584  0.3938  0.3840 -0.1213
 6164SOL     OW29953   0.050   1.232   6.779 -0.7271 -0.4701 -0.2683
 6164SOL    HW129954   0.062   1.192   6.865  1.0047 -1.5288 -1.0182
 6164SOL    HW229955   0.107   1.309   6.773 -0.4354 -0.6990 -0.4097
 6165SOL     OW29956   2.640   4.706  15.469 -0.3554 -0.5647  0.4743
 6165SOL    HW129957   2.688   0.060  15.438 -0.9166 -0.5735 -0.4127
 6165SOL    HW229958   2.575   0.020  15.528 -1.1004 -0.0278 -0.6965
 6166SOL     OW29959   2.574   2.339  13.784 -0.5489  0.3559 -0.6638
 6166SOL    HW129960   2.548   2.247  13.795  0.1265 -0.0529 -2.5399
 6166SOL    HW229961   2.645   2.336  13.847 -0.1766  0.5024 -1.0804
 6167SOL     OW29962   4.073   1.965   0.872 -0.3995  0.6546  0.6612
 6167SOL    HW129963   4.069   2.032   0.940 -1.2539  0.0316  1.2028
 6167SOL    HW229964   4.014   1.898   0.905  1.1860  0.3123  2.8054
 6168SOL     OW29965   3.302   3.197   5.245  0.6405  0.7536  0.2828
 6168SOL    HW129966   3.286   3.262   5.176 -1.2178 -0.2875 -0.2552
 6168SOL    HW229967   3.212   3.184   5.274  0.0650  1.5255 -1.1273
 6169SOL     OW29968   2.911   4.689   2.569  0.1792  0.5166  0.3649
 6169SOL    HW129969   2.835   4.674   2.514 -0.1337  1.1038  0.6325
 6169SOL    HW229970   2.989   4.645   2.534  0.4735 -1.2071  3.1340
 6170SOL     OW29971   2.789   0.849   0.579  0.0150 -0.4510  0.3693
 6170SOL    HW129972   2.720   0.893   0.529 -0.5740 -2.0717 -0.2551
 6170SOL    HW229973   2.813   0.782   0.514 -1.7930 -1.0773  0.3238
 6171SOL     OW29974   1.860   3.548   9.946 -0.1679 -0.1269  0.3291
 6171SOL    HW129975   1.871   3.617   9.881  2.0293 -2.5818 -1.8810
 6171SOL    HW229976   1.910   3.582  10.020  1.7995  0.9530 -1.5382
 6172SOL     OW29977   3.798   1.248   6.771 -0.4135 -0.3275  0.8933
 6172SOL    HW129978   3.812   1.244   6.866 -1.4102 -1.2906  1.0077
 6172SOL    HW229979   3.892   1.250   6.751 -0.1753 -2.0546  1.8279
 6173SOL     OW29980   0.632   1.736   9.110 -0.6433 -0.2306 -0.7320
 6173SOL    HW129981   0.678   1.671   9.057 -0.1578  0.3673 -1.0432
 6173SOL    HW229982   0.696   1.807   9.104  2.2126 -2.6529  0.5748
 6174SOL     OW29983   2.439   3.642   9.038  0.2361  0.0888 -0.1458
 6174SOL    HW129984   2.518   3.695   9.028  1.4352 -1.5642  0.5122
 6174SOL    HW229985   2.372   3.709   9.056 -0.2367 -0.0934 -1.2264
 6175SOL     OW29986   0.060   3.848   8.886 -0.3465 -0.1522  0.0022
 6175SOL    HW129987   0.151   3.821   8.897 -0.4506 -1.8510 -3.2041
 6175SOL    HW229988   0.059   3.935   8.846 -0.2865  0.2501  0.8678
 6176SOL     OW29989   2.164   2.035   5.888  0.4703 -0.5190  0.5871
 6176SOL    HW129990   2.096   2.001   5.946 -0.6955  2.3402  0.8997
 6176SOL    HW229991   2.138   2.125   5.869  0.4813 -0.1258  2.4483
 6177SOL     OW29992   3.046   0.405   2.699  0.0415 -0.2532 -0.0859
 6177SOL    HW129993   2.971   0.361   2.659  0.4629 -1.4250  0.4334
 6177SOL    HW229994   3.118   0.343   2.688  0.7618  0.4567  0.5628
 6178SOL     OW29995   3.673   4.264   7.671 -0.0616  0.0188  0.1366
 6178SOL    HW129996   3.625   4.236   7.749 -0.3572 -1.4328 -0.5738
 6178SOL    HW229997   3.741   4.319   7.711  1.4458 -1.6758 -0.0985
 6179SOL     OW29998   1.316   3.390  16.562 -0.5056  0.5576 -0.0084
 6179SOL    HW129999   1.365   3.423  16.487  0.3843 -0.9465 -0.0806
 6179SOL    HW230000   1.372   3.317  16.588 -0.9547 -0.1821 -1.1355
 6180SOL     OW30001   3.802   2.352  14.054  0.5631 -0.0604  0.6965
 6180SOL    HW130002   3.893   2.328  14.037  0.1505 -0.8829 -0.3563
 6180SOL    HW230003   3.777   2.307  13.973 -0.9081 -0.9853  1.6635
 6181SOL     OW30004   1.550   3.341  10.870 -1.0595  0.1809  0.8374
 6181SOL    HW130005   1.581   3.394  10.796 -0.7804 -1.7158 -0.3871
 6181SOL    HW230006   1.621   3.371  10.928  0.6398 -1.7912 -0.2267
 6182SOL     OW30007   1.992   0.251   8.184  0.3548  0.1101 -0.1940
 6182SOL    HW130008   2.033   0.175   8.226 -1.3978 -1.5376 -1.4892
 6182SOL    HW230009   1.935   0.215   8.116 -0.3293  0.4061  0.2230
 6183SOL     OW30010   0.769   2.966   4.454  0.2304  0.3907  0.7116
 6183SOL    HW130011   0.779   3.059   4.432  2.1664  0.2069  0.7920
 6183SOL    HW230012   0.676   2.945   4.444  0.3902 -1.6926  3.6990
 6184SOL     OW30013   0.843   0.353  15.976 -0.7730  0.1400 -0.2687
 6184SOL    HW130014   0.789   0.408  16.032 -0.8392 -0.9511  0.7292
 6184SOL    HW230015   0.876   0.281  16.030 -0.0729  1.0434  0.5075
 6185SOL     OW30016   3.995   4.114  11.954  0.3414 -0.2135 -0.1839
 6185SOL    HW130017   3.926   4.142  11.894  1.6698  2.7150 -0.3196
 6185SOL    HW230018   3.956   4.122  12.040  3.9035  0.5815  1.3567
 6186SOL     OW30019   0.338   2.318   1.283 -0.3366 -0.0472  0.7010
 6186SOL    HW130020   0.380   2.392   1.240  0.1626  0.0950  1.4432
 6186SOL    HW230021   0.292   2.360   1.356  0.7882  2.9892 -0.3411
 6187SOL     OW30022   0.582   2.494  14.861  0.2024  0.7290 -0.9862
 6187SOL    HW130023   0.567   2.588  14.871  0.3745  0.5168  1.3184
 6187SOL    HW230024   0.513   2.475  14.798  0.7680 -0.6318 -1.1798
 6188SOL     OW30025   4.476   1.627   4.319 -0.5582  0.6307  0.4211
 6188SOL    HW130026   4.498   1.600   4.408  0.8773 -1.2406 -0.5255
 6188SOL    HW230027   4.442   1.715   4.337 -0.0777  0.6850  1.0728
 6189SOL     OW30028   1.506   2.517   4.659  0.7691  0.6560  0.0962
 6189SOL    HW130029   1.500   2.611   4.647  3.9001  1.1209  2.0999
 6189SOL    HW230030   1.518   2.509   4.754 -0.2557 -1.2867  0.0597
 6190SOL     OW30031   1.817   1.820   6.258  0.2508  0.2852 -0.5463
 6190SOL    HW130032   1.743   1.775   6.218 -1.0055  1.2637  0.6853
 6190SOL    HW230033   1.779   1.832   6.345  1.6929 -0.8739  0.2371
 6191SOL     OW30034   2.620   3.304  10.403 -0.4642 -0.1668  0.0520
 6191SOL    HW130035   2.592   3.352  10.481 -2.8915 -1.0626 -0.2829
 6191SOL    HW230036   2.711   3.283  10.426 -0.5772 -0.2851  0.3924
 6192SOL     OW30037   3.211   4.702   5.697  0.2445  0.2354  0.0795
 6192SOL    HW130038   3.178   4.622   5.656  0.3153  0.8299 -1.1565
 6192SOL    HW230039   3.186   4.686   5.788 -2.1861  0.3668 -0.5526
 6193SOL     OW30040   1.032   4.374   8.674 -0.1757  0.1186  0.0397
 6193SOL    HW130041   0.950   4.419   8.652 -0.2860 -0.4710 -0.7440
 6193SOL    HW230042   1.095   4.446   8.669  1.1787 -1.1119 -0.4301
 6194SOL     OW30043   3.715   2.133   5.089  0.0224 -0.2276 -0.3239
 6194SOL    HW130044   3.776   2.197   5.125 -0.5100  0.1869 -0.1586
 6194SOL    HW230045   3.779   2.078   5.044  1.2462  0.5405  0.4582
 6195SOL     OW30046   2.732   3.803  15.037 -0.2792  0.5119  0.2143
 6195SOL    HW130047   2.695   3.778  15.121  4.3369  0.6889  2.2711
 6195SOL    HW230048   2.769   3.722  15.001  0.2700  2.2805 -3.2106
 6196SOL     OW30049   2.139   2.485   1.747 -0.3771  0.0391  0.0963
 6196SOL    HW130050   2.071   2.528   1.799  2.6235  0.7637  3.4039
 6196SOL    HW230051   2.094   2.491   1.662  0.3341  1.0277 -0.2012
 6197SOL     OW30052   1.539   4.133   6.742  0.5155 -0.3654  0.5851
 6197SOL    HW130053   1.566   4.063   6.683  0.4218 -1.5846  1.9762
 6197SOL    HW230054   1.473   4.180   6.691 -0.2242 -2.2845 -0.2534
 6198SOL     OW30055   4.077   3.452   0.508 -0.0615  0.3116  0.2663
 6198SOL    HW130056   4.071   3.372   0.455  2.6052 -0.1626  0.6810
 6198SOL    HW230057   4.121   3.421   0.587 -0.4127  1.0216  0.7387
 6199SOL     OW30058   0.764   1.349   2.177  0.1460  0.1717 -0.6265
 6199SOL    HW130059   0.709   1.418   2.214 -2.1773  0.2644 -4.2486
 6199SOL    HW230060   0.819   1.340   2.255 -0.8054  0.4309  0.0820
 6200SOL     OW30061   1.708   4.667   5.363 -0.4554 -0.1090 -0.1408
 6200SOL    HW130062   1.673   4.715   5.288  0.5010  3.8362  1.9150
 6200SOL    HW230063   1.786   4.718   5.386 -1.7101  0.4049  2.9809
 6201SOL     OW30064   2.477   3.269   3.318 -0.4450  0.4902  0.0480
 6201SOL    HW130065   2.516   3.342   3.366 -0.2878 -0.1126  0.8443
 6201SOL    HW230066   2.546   3.204   3.331 -0.5938  0.3991  0.3987
 6202SOL     OW30067   2.855   1.404   2.793 -0.1924 -0.0998 -0.0650
 6202SOL    HW130068   2.803   1.378   2.717  1.3907  0.3707 -1.3157
 6202SOL    HW230069   2.934   1.358   2.762 -0.2673  0.6374 -1.3454
 6203SOL     OW30070   4.144   1.546   3.055 -0.1347  0.3262  0.3739
 6203SOL    HW130071   4.084   1.474   3.075 -0.4364  0.0081 -1.7398
 6203SOL    HW230072   4.157   1.577   3.145 -1.4552  1.1597  0.2695
 6204SOL     OW30073   4.579   2.705   6.779  0.4895  0.4278 -0.0714
 6204SOL    HW130074   4.547   2.669   6.862  1.9633 -0.9472 -0.1051
 6204SOL    HW230075   4.498   2.692   6.731 -0.0156  1.3592  0.5198
 6205SOL     OW30076   3.643   0.850   2.284 -0.1506  0.2043 -0.1371
 6205SOL    HW130077   3.617   0.902   2.207 -2.1089 -0.0629  0.3445
 6205SOL    HW230078   3.726   0.894   2.300 -1.0150  1.1717  1.6390
 6206SOL     OW30079   3.996   3.474  13.139  0.1639 -0.4523 -0.2609
 6206SOL    HW130080   4.018   3.486  13.232 -1.3241  1.6649 -0.1542
 6206SOL    HW230081   4.033   3.554  13.101  0.3411 -1.5123 -2.2825
 6207SOL     OW30082   0.265   4.399   2.504  0.2832  0.2385  0.2995
 6207SOL    HW130083   0.171   4.386   2.512 -0.2584  3.5835 -0.7371
 6207SOL    HW230084   0.276   4.486   2.543  2.8643  0.1829 -0.2612
 6208SOL     OW30085   2.081   0.067   2.206  0.6859  0.1068  0.4036
 6208SOL    HW130086   2.140   0.042   2.278 -0.3425 -1.0241  0.8658
 6208SOL    HW230087   2.000   0.090   2.252  0.3151 -1.4968  0.5456
 6209SOL     OW30088   2.686   3.159   2.760 -0.0619 -0.3315  0.3103
 6209SOL    HW130089   2.690   3.254   2.766 -0.7322 -0.3086  0.3530
 6209SOL    HW230090   2.608   3.151   2.815 -0.2069 -0.5716  0.0694
 6210SOL     OW30091   2.800   2.424  13.392  0.0581 -0.3209 -0.3092
 6210SOL    HW130092   2.776   2.478  13.467  0.1529  0.5173 -0.8923
 6210SOL    HW230093   2.820   2.500  13.339  2.0717 -1.5797 -1.3564
 6211SOL     OW30094   4.261   4.132   6.936  0.1292 -0.1789 -0.2576
 6211SOL    HW130095   4.254   4.087   7.020  3.4884 -1.8049 -0.8594
 6211SOL    HW230096   4.196   4.082   6.886  0.6207  1.3575 -2.4503
 6212SOL     OW30097   2.507   2.781   9.500 -0.1808 -0.1936  0.2924
 6212SOL    HW130098   2.591   2.796   9.457 -1.6208  2.8767 -1.3820
 6212SOL    HW230099   2.522   2.701   9.552  0.0041  0.4851  1.2756
 6213SOL     OW30100   0.956   1.079   9.600 -0.1974  0.4173 -0.6676
 6213SOL    HW130101   0.983   1.155   9.652 -0.9879 -1.2187  2.1315
 6213SOL    HW230102   1.041   1.049   9.570 -0.5848 -0.8236 -0.5220
 6214SOL     OW30103   0.066   4.512   4.426  0.5287  0.0020 -0.0168
 6214SOL    HW130104   4.704   4.521   4.467  0.0894 -2.2173 -0.4024
 6214SOL    HW230105   0.067   4.583   4.363 -1.1130  0.3328  0.3371
 6215SOL     OW30106   4.661   0.689   2.099 -0.0038  0.4796  0.1667
 6215SOL    HW130107   4.619   0.658   2.019 -0.0714 -0.8023  0.6986
 6215SOL    HW230108   4.603   0.657   2.167 -1.9546  1.5459 -1.0001
 6216SOL     OW30109   3.926   2.682   7.678 -0.2119  0.2418 -0.1170
 6216SOL    HW130110   3.837   2.679   7.714 -0.6333  3.2107 -0.9610
 6216SOL    HW230111   3.979   2.626   7.735  0.4892  1.3954  0.3517
 6217SOL     OW30112   2.601   2.239   9.457  0.3254  0.3416 -0.3474
 6217SOL    HW130113   2.645   2.170   9.507 -2.7684 -0.8585  0.6805
 6217SOL    HW230114   2.524   2.200   9.416  0.8299 -1.6450  0.6225
 6218SOL     OW30115   4.077   2.126   1.104  0.4897 -0.1720  0.0597
 6218SOL    HW130116   4.088   2.218   1.128 -1.9724 -0.4421  2.3239
 6218SOL    HW230117   4.067   2.089   1.192  0.4464 -2.2496 -0.8241
 6219SOL     OW30118   1.062   1.994   7.022  0.2008 -0.6123  0.5340
 6219SOL    HW130119   1.014   2.061   6.973 -0.1691  0.8132  2.8215
 6219SOL    HW230120   1.070   2.045   7.103 -0.3818  0.7794 -0.2772
 6220SOL     OW30121   1.687   3.687   0.965  0.1496  0.8041  0.2060
 6220SOL    HW130122   1.595   3.710   0.976  0.6397  1.7669  2.2892
 6220SOL    HW230123   1.709   3.741   0.889 -0.1276 -0.6188 -0.8713
 6221SOL     OW30124   1.894   3.062   5.046 -0.5556 -0.2392  0.2434
 6221SOL    HW130125   1.805   3.048   5.011  0.4996 -4.3849 -0.8293
 6221SOL    HW230126   1.877   3.122   5.118  0.3655 -0.4786  0.6541
 6222SOL     OW30127   1.609   2.202  17.234  0.1513 -0.1601 -0.2300
 6222SOL    HW130128   1.668   2.271  17.264 -0.5506  0.6000 -0.6008
 6222SOL    HW230129   1.637   2.124  17.281  0.0170  0.0889  0.2595
 6223SOL     OW30130   2.890   0.607   5.302  0.5163 -0.3169 -0.6388
 6223SOL    HW130131   2.861   0.649   5.221  1.4759 -0.5067 -1.0749
 6223SOL    HW230132   2.807   0.607   5.350  0.3055 -1.3424 -1.0052
 6224SOL     OW30133   1.419   1.360   9.390 -0.2287 -0.2580 -0.2563
 6224SOL    HW130134   1.485   1.425   9.368 -0.7016  0.0808 -0.6880
 6224SOL    HW230135   1.455   1.312   9.464 -0.8772 -2.3825 -1.3176
 6225SOL     OW30136   3.666   3.942   7.190 -0.9520  0.9760  0.5537
 6225SOL    HW130137   3.703   3.910   7.108  2.5522  1.7422  1.8218
 6225SOL    HW230138   3.701   3.880   7.254 -0.7517  0.1364 -0.3676
 6226SOL     OW30139   3.512   1.359   5.606  0.2228  0.9080  0.3196
 6226SOL    HW130140   3.460   1.334   5.530 -2.6934 -0.7668  2.8419
 6226SOL    HW230141   3.442   1.358   5.671 -1.2608 -0.6214 -1.3388
 6227SOL     OW30142   3.596   3.358   2.879  0.3352 -0.4643  0.5690
 6227SOL    HW130143   3.671   3.381   2.824  0.2398 -0.7131  0.3328
 6227SOL    HW230144   3.521   3.378   2.822 -1.3335 -1.0971  2.5551
 6228SOL     OW30145   2.609   4.355   8.099  0.6331  0.1292  0.3397
 6228SOL    HW130146   2.602   4.431   8.157  0.5355  1.1697 -1.0433
 6228SOL    HW230147   2.549   4.385   8.032  0.0227 -0.3017  0.6872
 6229SOL     OW30148   0.481   2.996   5.088 -0.1629  0.3688 -0.3906
 6229SOL    HW130149   0.389   3.008   5.064 -0.8917  0.5129  2.4290
 6229SOL    HW230150   0.466   2.994   5.183 -0.1003  3.4921 -0.3379
 6230SOL     OW30151   2.914   0.395   0.731  0.4616  0.2994  0.0814
 6230SOL    HW130152   2.992   0.397   0.675 -0.0226  1.3729 -0.5404
 6230SOL    HW230153   2.846   0.388   0.665  1.9233  0.9685 -1.4912
 6231SOL     OW30154   0.391   1.890   6.323  0.3709 -0.1152 -0.4573
 6231SOL    HW130155   0.482   1.861   6.322  0.2251 -0.6637  1.7858
 6231SOL    HW230156   0.403   1.962   6.384  0.4223  0.2162 -0.8555
 6232SOL     OW30157   0.537   2.845   5.984  0.7469  0.2989 -0.2071
 6232SOL    HW130158   0.625   2.852   5.949  0.7120  1.3637 -0.0840
 6232SOL    HW230159   0.489   2.914   5.938  2.9929  1.4645 -0.7837
 6233SOL     OW30160   1.446   4.055   4.958 -0.0732 -0.2041 -0.3995
 6233SOL    HW130161   1.379   4.124   4.956  0.6628  0.4808 -1.6138
 6233SOL    HW230162   1.488   4.062   4.872 -0.3005 -0.3296 -0.5210
 6234SOL     OW30163   3.194   4.165  17.298  0.0280  0.1520 -0.3063
 6234SOL    HW130164   3.167   4.073  17.306  0.2427  0.3400  2.7291
 6234SOL    HW230165   3.114   4.207  17.330 -1.3541  0.1220 -3.6867
 6235SOL     OW30166   1.943   0.122  17.020 -0.9620 -0.2166  0.1580
 6235SOL    HW130167   1.948   0.190  16.952  1.4244 -2.5087 -1.9592
 6235SOL    HW230168   1.978   0.170  17.095  1.0490 -0.5364 -0.5854
 6236SOL     OW30169   1.685   3.803   3.802  0.0743  0.3942 -0.0993
 6236SOL    HW130170   1.630   3.874   3.836 -1.2504 -1.6404  2.0342
 6236SOL    HW230171   1.641   3.726   3.838  1.7202 -0.8262 -0.7474
 6237SOL     OW30172   1.093   3.951   2.888 -0.2324  0.2882  0.3988
 6237SOL    HW130173   1.020   3.897   2.858 -0.5620  1.5039 -0.9737
 6237SOL    HW230174   1.073   3.946   2.981  0.6229  0.0959  0.5765
 6238SOL     OW30175   3.306   2.049   7.941  0.3388 -0.3683  0.0325
 6238SOL    HW130176   3.269   1.999   7.869  1.9876  2.1936 -2.5620
 6238SOL    HW230177   3.277   1.994   8.015 -3.7529  0.2257 -1.1357
 6239SOL     OW30178   2.040   4.457   8.666  0.2608 -0.3525  0.1562
 6239SOL    HW130179   2.023   4.499   8.751 -1.3767  1.7327 -1.1867
 6239SOL    HW230180   2.133   4.452   8.686  0.3221  0.5102  0.0638
 6240SOL     OW30181   2.504   2.482   8.665 -0.0794 -0.3439 -0.0503
 6240SOL    HW130182   2.512   2.392   8.696 -0.0596  0.5409  2.5369
 6240SOL    HW230183   2.506   2.534   8.745  1.5188 -0.3221 -0.1073
 6241SOL     OW30184   1.409   0.987   5.842  0.3730  0.3424 -0.2022
 6241SOL    HW130185   1.502   0.962   5.843 -0.4354 -2.5674  0.6959
 6241SOL    HW230186   1.389   1.001   5.935 -2.9300  4.4589 -1.5411
 6242SOL     OW30187   2.695   0.768  12.945  0.1311  0.0478  0.1943
 6242SOL    HW130188   2.716   0.710  12.872  2.6558  1.5930 -0.3269
 6242SOL    HW230189   2.777   0.815  12.960 -0.1241  0.5106  0.1453
 6243SOL     OW30190   0.912   2.492   4.611 -0.2741  0.0550 -0.8749
 6243SOL    HW130191   0.856   2.547   4.554 -1.9412  0.2846  0.9902
 6243SOL    HW230192   0.983   2.551   4.634  0.0130 -0.9695  0.8205
 6244SOL     OW30193   2.834   3.150   7.136  0.1694 -0.4625 -0.0013
 6244SOL    HW130194   2.869   3.180   7.220 -3.4931  1.2915  0.8855
 6244SOL    HW230195   2.859   3.221   7.078  0.9663  0.6240  1.6486
 6245SOL     OW30196   0.530   3.610  16.097 -0.2157  0.1754  0.0499
 6245SOL    HW130197   0.512   3.600  16.003  1.6537 -1.4498 -0.1312
 6245SOL    HW230198   0.618   3.644  16.111 -0.7688  0.1348  3.4136
 6246SOL     OW30199   1.857   3.597   6.866 -0.0648  0.4920 -0.4356
 6246SOL    HW130200   1.916   3.673   6.870  0.2319  0.2494 -0.1558
 6246SOL    HW230201   1.829   3.610   6.776 -1.0137 -0.1378 -0.2270
 6247SOL     OW30202   3.500   1.027   2.915  0.4587  0.0257 -0.1872
 6247SOL    HW130203   3.586   1.012   2.877  0.5006  0.3956 -0.2366
 6247SOL    HW230204   3.478   0.954   2.974 -0.7444  2.8637  2.8496
 6248SOL     OW30205   2.414   0.857   8.657 -0.4202  0.2206 -0.3350
 6248SOL    HW130206   2.445   0.773   8.623 -1.4063  0.4280 -1.7658
 6248SOL    HW230207   2.339   0.826   8.707  2.0363 -3.0735  1.3300
 6249SOL     OW30208   2.333   4.433  17.426 -0.8280  0.4587 -0.4992
 6249SOL    HW130209   2.425   4.457  17.419 -0.6439 -0.3203 -0.6845
 6249SOL    HW230210   2.324   4.380  17.505  0.7075  1.6800  0.4907
 6250SOL     OW30211   0.692   3.267   6.334 -0.3610 -0.2728  0.3076
 6250SOL    HW130212   0.623   3.205   6.313  1.7233 -2.7436  0.7356
 6250SOL    HW230213   0.698   3.300   6.244 -1.9205  0.7333  0.5662
 6251SOL     OW30214   2.440   0.117   8.194  0.2526  0.5651 -0.1548
 6251SOL    HW130215   2.519   0.165   8.222  1.0224 -1.5226  1.2663
 6251SOL    HW230216   2.384   0.165   8.255  0.3086  0.9481 -0.4083
 6252SOL     OW30217   1.772   3.933  12.501  0.0516  0.1921  0.0148
 6252SOL    HW130218   1.768   4.008  12.441  1.5031 -0.3028 -0.6885
 6252SOL    HW230219   1.711   3.870  12.463  0.8124 -0.1563 -0.6416
 6253SOL     OW30220   4.514   2.082   7.087  0.4593  0.3822  0.0670
 6253SOL    HW130221   4.429   2.061   7.049  0.8362 -0.5169 -0.2582
 6253SOL    HW230222   4.547   2.150   7.029  0.3080  0.3051 -0.1070
 6254SOL     OW30223   1.777   2.482   4.498  0.1179 -0.0980 -0.2451
 6254SOL    HW130224   1.849   2.472   4.561  0.1984 -2.8500 -0.7855
 6254SOL    HW230225   1.702   2.480   4.558  1.1935 -1.6334  1.0535
 6255SOL     OW30226   0.122   1.663  17.683 -0.0208  0.8358  0.0081
 6255SOL    HW130227   0.077   1.632   0.065 -0.3797 -1.1684 -0.9990
 6255SOL    HW230228   0.207   1.620  17.681 -0.5700 -0.1821 -0.9366
 6256SOL     OW30229   2.783   0.265   5.958  0.0216  0.6104  0.3159
 6256SOL    HW130230   2.841   0.340   5.970 -0.4835  0.8735  1.1572
 6256SOL    HW230231   2.703   0.316   5.944 -0.2358  0.6310  1.8521
 6257SOL     OW30232   4.616   3.531   0.305 -0.2370  0.2650  0.0916
 6257SOL    HW130233   4.583   3.496   0.222  0.2455 -0.1185  0.0596
 6257SOL    HW230234   4.583   3.463   0.363  1.8440 -1.9255 -1.2721
 6258SOL     OW30235   2.463   0.057   7.427  0.3863  0.4809  0.1152
 6258SOL    HW130236   2.496   0.112   7.498 -0.0735 -0.6927  1.2340
 6258SOL    HW230237   2.384   0.028   7.472  0.9659  0.5847  1.2083
 6259SOL     OW30238   2.739   0.811   3.261 -0.2126 -0.0240  0.2139
 6259SOL    HW130239   2.663   0.753   3.259  0.1993 -0.5892  1.0223
 6259SOL    HW230240   2.785   0.758   3.326 -0.4511 -1.0050 -0.4268
 6260SOL     OW30241   3.971   2.556   1.742  0.2678 -0.4674 -0.2743
 6260SOL    HW130242   3.965   2.524   1.832 -0.1332  2.4663  0.7402
 6260SOL    HW230243   3.956   2.650   1.752 -2.2709 -1.1160  2.0125
 6261SOL     OW30244   4.407   3.296   6.557 -0.1661  0.4017 -0.8141
 6261SOL    HW130245   4.432   3.244   6.633  0.0243  0.7353 -0.6472
 6261SOL    HW230246   4.422   3.383   6.594  4.5390 -0.9765  0.4750
 6262SOL     OW30247   1.938   3.587   2.531 -0.3655 -0.1765  0.0019
 6262SOL    HW130248   1.852   3.623   2.508 -0.0984  0.5374  0.1144
 6262SOL    HW230249   1.932   3.497   2.564 -0.0822 -0.4151 -0.5908
 6263SOL     OW30250   1.364   2.726   1.571  0.5839 -0.0175 -0.1545
 6263SOL    HW130251   1.283   2.775   1.585  0.3164 -0.7711  0.9850
 6263SOL    HW230252   1.428   2.796   1.567 -0.4134  0.8934 -0.2982
 6264SOL     OW30253   0.638   2.757   3.998 -0.3346 -0.0434 -0.0469
 6264SOL    HW130254   0.707   2.808   4.040 -0.4062  1.0065 -1.1845
 6264SOL    HW230255   0.651   2.677   4.048  0.1947  0.2251  0.2432
 6265SOL     OW30256   1.248   2.761   7.356  0.2445  0.0130 -0.3543
 6265SOL    HW130257   1.331   2.714   7.361 -1.1948 -2.3293  1.0942
 6265SOL    HW230258   1.188   2.687   7.361 -1.9998  1.9146  0.9062
 6266SOL     OW30259   1.820   1.238  14.853  0.0377  0.1767  0.0670
 6266SOL    HW130260   1.876   1.277  14.920 -0.2378 -1.9719  1.5320
 6266SOL    HW230261   1.886   1.214  14.788 -1.0965 -1.9176 -0.3161
 6267SOL     OW30262   0.635   0.497   1.582  0.7742 -0.2957  0.4668
 6267SOL    HW130263   0.572   0.439   1.538  2.4843  1.2012 -3.9758
 6267SOL    HW230264   0.714   0.443   1.573  1.6085  0.8429  1.0143
 6268SOL     OW30265   3.829   3.461   3.056  0.3769  0.3557 -0.6237
 6268SOL    HW130266   3.889   3.390   3.033  1.1042  0.8349 -0.2230
 6268SOL    HW230267   3.805   3.498   2.971 -0.4794  0.7998 -0.1802
 6269SOL     OW30268   2.975   2.703   6.530  0.5276 -0.0736  0.5748
 6269SOL    HW130269   3.014   2.631   6.481  0.1660  0.8047 -1.0247
 6269SOL    HW230270   3.055   2.746   6.559  0.7482  0.1511 -0.3738
 6270SOL     OW30271   2.107   3.630   5.424 -0.1189  0.0273 -0.4228
 6270SOL    HW130272   2.066   3.610   5.340 -3.5468  0.0263  1.2823
 6270SOL    HW230273   2.037   3.603   5.483  0.5145  0.8825  0.7167
 6271SOL     OW30274   2.452   1.364   6.739  0.8688 -0.2645  0.1835
 6271SOL    HW130275   2.375   1.421   6.735  0.6223 -0.7435 -1.8655
 6271SOL    HW230276   2.494   1.395   6.819 -1.1977  1.9985  0.3947
 6272SOL     OW30277   0.333   3.988   8.888  0.3513 -0.3797  0.3107
 6272SOL    HW130278   0.411   4.042   8.881 -0.0218  0.3068  1.4444
 6272SOL    HW230279   0.268   4.058   8.892  1.1833  0.2569  2.5594
 6273SOL     OW30280   4.270   3.933   9.323 -0.1549  0.1165  0.0657
 6273SOL    HW130281   4.334   3.862   9.318  1.7696  1.8395  0.1490
 6273SOL    HW230282   4.252   3.956   9.231 -1.9445  2.2079  0.9335
 6274SOL     OW30283   3.583   2.707   7.077  0.1107 -0.3017 -0.5346
 6274SOL    HW130284   3.643   2.644   7.037 -1.1156 -1.3797 -0.6980
 6274SOL    HW230285   3.519   2.726   7.008  0.5908  1.4130 -0.5073
 6275SOL     OW30286   3.432   1.283  17.372 -0.0147 -0.4605  0.6017
 6275SOL    HW130287   3.358   1.276  17.311 -0.0747  1.6663  0.4051
 6275SOL    HW230288   3.511   1.274  17.319 -1.8913  0.8794 -2.4261
 6276SOL     OW30289   0.790   1.136   7.722  0.1104 -0.6768 -0.5288
 6276SOL    HW130290   0.863   1.074   7.715  0.4288 -0.4776  1.1538
 6276SOL    HW230291   0.735   1.088   7.784 -1.1233 -1.1937 -2.0197
 6277SOL     OW30292   1.390   0.986   7.980  0.2880 -0.2511 -0.0019
 6277SOL    HW130293   1.486   0.987   7.985  0.3210 -1.3059 -0.3422
 6277SOL    HW230294   1.369   1.078   7.970  0.6009 -0.1620  0.1506
 6278SOL     OW30295   4.348   1.321   0.647  0.9315  0.1155  0.6486
 6278SOL    HW130296   4.378   1.408   0.621  0.9249  0.2607  1.1334
 6278SOL    HW230297   4.422   1.304   0.705  2.7629  2.2073 -1.0794
 6279SOL     OW30298   3.926   2.163   2.263  0.5720  0.3408  0.0019
 6279SOL    HW130299   3.963   2.239   2.307  1.3778  0.0764 -0.2263
 6279SOL    HW230300   3.878   2.211   2.196  0.0420  0.4866  0.4879
 6280SOL     OW30301   4.629   3.910   3.852  0.6753 -0.1257 -0.7255
 6280SOL    HW130302   4.712   3.866   3.836  0.5732 -1.0583  1.3212
 6280SOL    HW230303   4.636   3.990   3.800  0.4450  0.2445 -0.1802
 6281SOL     OW30304   0.829   1.632   8.917 -0.6411  0.1911 -0.2897
 6281SOL    HW130305   0.816   1.615   8.823 -0.2478 -0.3562 -0.2406
 6281SOL    HW230306   0.873   1.717   8.914  0.1987 -0.2485 -0.6629
 6282SOL     OW30307   2.751   2.018  11.571 -0.1922  0.5665  0.0685
 6282SOL    HW130308   2.724   1.992  11.483  1.9112  0.3261 -0.4925
 6282SOL    HW230309   2.841   2.041  11.546 -0.1637 -0.7992 -1.0943
 6283SOL     OW30310   3.716   3.289   2.021  0.2127 -0.5735  0.1792
 6283SOL    HW130311   3.645   3.290   1.957  1.9934  1.6212 -1.7656
 6283SOL    HW230312   3.695   3.205   2.060 -1.1933  0.4191  1.5718
 6284SOL     OW30313   3.102   2.665   6.237  0.0761  0.1492  0.1570
 6284SOL    HW130314   3.105   2.587   6.182 -0.2427 -1.3084  2.2203
 6284SOL    HW230315   3.188   2.669   6.279 -0.5353  3.6881  1.0527
 6285SOL     OW30316   3.490   0.325  15.798 -0.7546  0.6936  0.6481
 6285SOL    HW130317   3.471   0.387  15.868  0.6136  2.3867 -0.4932
 6285SOL    HW230318   3.583   0.311  15.814 -0.6154 -0.8679 -1.4520
 6286SOL     OW30319   0.776   2.421  15.829  0.2136 -0.5323  0.5085
 6286SOL    HW130320   0.682   2.438  15.838 -0.1259 -0.5186 -3.2540
 6286SOL    HW230321   0.809   2.418  15.919 -0.0135 -1.1013  0.5757
 6287SOL     OW30322   4.318   3.143  17.211  0.5067 -0.1887  0.1713
 6287SOL    HW130323   4.260   3.070  17.192  1.6420 -1.1875  0.5067
 6287SOL    HW230324   4.396   3.109  17.165  2.0592  0.6726  2.1726
 6288SOL     OW30325   0.127   4.109  11.156 -0.2780 -0.0270 -0.1715
 6288SOL    HW130326   0.096   4.172  11.091  0.4817 -0.3152 -0.8063
 6288SOL    HW230327   0.168   4.045  11.099  1.3991  1.7869 -1.0139
 6289SOL     OW30328   4.164   2.816   7.873 -0.6008  0.6117  0.7096
 6289SOL    HW130329   4.168   2.721   7.866  0.7453  0.7611 -0.5361
 6289SOL    HW230330   4.108   2.837   7.798  1.5083  0.4015 -0.9035
 6290SOL     OW30331   2.958   2.420  14.836 -0.1440  0.0664  0.1807
 6290SOL    HW130332   3.028   2.465  14.788  0.8323 -0.4602  1.1034
 6290SOL    HW230333   3.013   2.364  14.891 -0.2974  0.7404  1.0044
 6291SOL     OW30334   3.626   0.202   8.362 -0.4770  0.0654 -0.2600
 6291SOL    HW130335   3.537   0.177   8.339 -0.3999  0.8827 -1.4196
 6291SOL    HW230336   3.637   0.273   8.300 -2.2276 -0.0417 -0.7004
 6292SOL     OW30337   0.409   0.882   2.777  0.2062  0.2312  0.1002
 6292SOL    HW130338   0.422   0.920   2.864 -1.2952  1.8691 -0.3931
 6292SOL    HW230339   0.314   0.891   2.774  0.3837  2.7243  2.1497
 6293SOL     OW30340   1.311   4.151   2.445 -0.0929  0.1991  0.2396
 6293SOL    HW130341   1.377   4.170   2.512 -0.2723 -0.3287  0.5674
 6293SOL    HW230342   1.298   4.243   2.422  1.9619  0.7157  1.1613
 6294SOL     OW30343   3.361   4.061   5.544 -0.2761  0.0688 -0.2745
 6294SOL    HW130344   3.332   4.109   5.622 -0.5728  2.5257 -1.9085
 6294SOL    HW230345   3.447   4.097   5.523  0.1366  0.2060  1.6369
 6295SOL     OW30346   3.652   0.939   9.479 -0.1660  0.3621 -0.5140
 6295SOL    HW130347   3.597   1.017   9.485  0.6332  0.7547  1.6053
 6295SOL    HW230348   3.641   0.919   9.385  1.9308  1.3234 -0.9556
 6296SOL     OW30349   0.360   2.430   8.396 -0.1244  0.5632  0.0637
 6296SOL    HW130350   0.420   2.387   8.456  0.5125  0.2034 -0.8208
 6296SOL    HW230351   0.411   2.503   8.362  1.5187 -1.1647 -1.2091
 6297SOL     OW30352   3.476   4.019  12.143 -0.1029  0.1425 -0.2992
 6297SOL    HW130353   3.433   4.041  12.225  0.7132 -1.5302  0.5724
 6297SOL    HW230354   3.545   4.083  12.128 -1.0352  1.2939  0.3622
 6298SOL     OW30355   4.595   0.411  13.029  0.1324 -0.1126 -0.8078
 6298SOL    HW130356   4.665   0.431  13.091 -0.3087  0.8591 -0.6182
 6298SOL    HW230357   4.586   0.319  13.055  1.1842 -0.2906 -1.0826
 6299SOL     OW30358   3.421   2.282  12.833 -0.2958  1.0455 -0.7032
 6299SOL    HW130359   3.421   2.190  12.860  0.4501  1.6795  1.4928
 6299SOL    HW230360   3.475   2.287  12.755  2.2329 -1.3705  0.9006
 6300SOL     OW30361   2.903   3.906   4.295 -0.1951 -0.3069 -0.1597
 6300SOL    HW130362   2.852   3.828   4.274 -1.1612  0.0737  0.7676
 6300SOL    HW230363   2.990   3.875   4.270 -0.6513 -0.6187 -1.3620
 6301SOL     OW30364   4.653   1.807   5.814 -0.0968 -0.0116  0.1383
 6301SOL    HW130365   4.611   1.846   5.890  0.0102 -0.2210  0.3025
 6301SOL    HW230366   4.652   1.877   5.748  0.3924 -0.5261 -0.4160
 6302SOL     OW30367   3.724   1.557   2.409  0.5013 -0.7580 -0.6091
 6302SOL    HW130368   3.669   1.539   2.485 -1.7210 -2.3342 -2.5707
 6302SOL    HW230369   3.710   1.652   2.404  2.9207 -0.3758 -0.0243
 6303SOL     OW30370   2.332   4.464   6.346 -0.4566  0.4462 -0.2389
 6303SOL    HW130371   2.347   4.552   6.382 -2.3025  0.2802  0.8888
 6303SOL    HW230372   2.371   4.468   6.259 -1.1828 -1.1895 -0.6204
 6304SOL     OW30373   2.332   0.431  10.166  0.1621 -0.2958 -0.7775
 6304SOL    HW130374   2.318   0.506  10.109  0.3762  0.0222 -0.4150
 6304SOL    HW230375   2.270   0.442  10.239  0.2014  1.8228 -1.0764
 6305SOL     OW30376   3.352   1.016   6.906 -0.1578  0.1683 -0.0275
 6305SOL    HW130377   3.328   0.966   6.984  1.0925 -1.7836 -0.8896
 6305SOL    HW230378   3.331   1.107   6.929 -3.2950 -0.1524 -1.5218
 6306SOL     OW30379   4.035   3.892  17.149  0.0230 -0.2457  0.0494
 6306SOL    HW130380   3.989   3.881  17.066  1.2263  2.5403 -0.9988
 6306SOL    HW230381   4.123   3.859  17.128  1.1157  3.4918 -1.3934
 6307SOL     OW30382   4.163   1.888   6.352 -0.2090  0.4628  0.7961
 6307SOL    HW130383   4.077   1.918   6.321  0.2943  0.2610 -0.8191
 6307SOL    HW230384   4.161   1.804   6.306  0.0933  0.6255  0.4853
 6308SOL     OW30385   3.531   1.819  15.512 -0.1229 -0.1321  0.3094
 6308SOL    HW130386   3.488   1.747  15.466  0.1962 -0.6320  0.8056
 6308SOL    HW230387   3.516   1.889  15.448  1.5004 -0.3562 -0.2980
 6309SOL     OW30388   2.007   4.186  11.586 -0.1982  0.1022  0.1960
 6309SOL    HW130389   1.955   4.260  11.555 -0.9412 -0.0722  1.0544
 6309SOL    HW230390   2.091   4.229  11.605 -0.0619  0.2325 -0.6968
 6310SOL     OW30391   0.151   1.703   0.367  0.0928 -0.2993 -0.3077
 6310SOL    HW130392   0.112   1.641   0.306 -0.9960 -1.9969  2.0973
 6310SOL    HW230393   0.218   1.653   0.414 -0.4428 -0.0154  0.7627
 6311SOL     OW30394   4.035   0.895   4.403 -0.1947 -0.2308 -0.1903
 6311SOL    HW130395   4.024   0.929   4.314 -1.2620 -2.0189 -0.7488
 6311SOL    HW230396   3.954   0.846   4.419  0.3771 -1.5255 -1.1888
 6312SOL     OW30397   1.386   2.188  12.517  0.1976 -0.2783 -0.1924
 6312SOL    HW130398   1.406   2.272  12.557 -2.1488  0.1671  0.0337
 6312SOL    HW230399   1.300   2.171  12.554 -1.0294  2.3636 -1.8437
 6313SOL     OW30400   1.732   1.871   6.521  0.7288 -0.5185 -0.5890
 6313SOL    HW130401   1.662   1.855   6.585  2.0983 -3.2529  0.2181
 6313SOL    HW230402   1.751   1.960   6.553 -0.4585 -0.2519 -0.6254
 6314SOL     OW30403   3.505   0.080  11.421  0.3134 -0.5753 -0.1602
 6314SOL    HW130404   3.482   4.711  11.430  2.9154 -0.9887  2.0975
 6314SOL    HW230405   3.423   0.113  11.457 -0.2205  0.7183 -2.5221
 6315SOL     OW30406   0.480   2.685   8.221  0.1207 -0.2893  0.0924
 6315SOL    HW130407   0.536   2.736   8.163 -1.4476  1.0270 -0.2581
 6315SOL    HW230408   0.405   2.743   8.229  0.5650  0.0418  1.8058
 6316SOL     OW30409   1.917   3.875   6.800  0.1995 -0.0684  0.1080
 6316SOL    HW130410   1.834   3.921   6.793  1.9389  2.9881 -0.5266
 6316SOL    HW230411   1.940   3.870   6.707  1.5991  2.7434  0.2937
 6317SOL     OW30412   1.186   0.654   9.620  0.5033 -0.3249  0.0915
 6317SOL    HW130413   1.247   0.609   9.680  0.5077  2.4157  2.1472
 6317SOL    HW230414   1.141   0.718   9.675 -1.8082 -0.0446 -2.1759
 6318SOL     OW30415   4.349   3.751  13.417 -0.0495  0.3669 -0.1799
 6318SOL    HW130416   4.398   3.719  13.493 -0.5655  2.1545  0.9288
 6318SOL    HW230417   4.261   3.744  13.454  0.3640 -0.4037  0.6612
 6319SOL     OW30418   2.382   3.783  15.422  0.3216 -0.6166  0.1705
 6319SOL    HW130419   2.381   3.834  15.503 -0.4672  2.5813 -1.8594
 6319SOL    HW230420   2.292   3.754  15.409  0.7693 -2.1758  0.6146
 6320SOL     OW30421   3.181   3.848   0.226  0.3868 -0.0433 -0.1687
 6320SOL    HW130422   3.094   3.840   0.263  0.0852  3.0701 -0.2034
 6320SOL    HW230423   3.240   3.794   0.280  0.1222 -0.7669 -0.5967
 6321SOL     OW30424   4.036   2.928   3.064 -0.1258 -0.1883  0.6620
 6321SOL    HW130425   3.950   2.888   3.079  0.3313 -1.1730  0.6299
 6321SOL    HW230426   4.051   2.906   2.972 -1.7067 -1.1696  0.6283
 6322SOL     OW30427   4.719   4.276   7.880  0.4666  0.3624 -0.1943
 6322SOL    HW130428   0.069   4.328   7.848 -0.4924  0.2781 -2.5567
 6322SOL    HW230429   4.711   4.288   7.975  0.0411 -0.2336 -0.1555
 6323SOL     OW30430   3.842   2.863  10.281  0.1108 -1.1827  0.3138
 6323SOL    HW130431   3.887   2.802  10.223  1.3864 -0.6937  0.7688
 6323SOL    HW230432   3.863   2.825  10.366  0.3732 -1.2478  0.2207
 6324SOL     OW30433   2.299   4.368   0.887  0.2709 -0.9995 -0.1295
 6324SOL    HW130434   2.252   4.302   0.938 -1.0494 -1.4364 -1.8728
 6324SOL    HW230435   2.366   4.401   0.946  1.5296 -0.9148 -1.5939
 6325SOL     OW30436   1.510   3.152   9.295 -0.2822 -0.7366  0.4425
 6325SOL    HW130437   1.434   3.208   9.309 -0.6919 -1.2090  0.1206
 6325SOL    HW230438   1.520   3.165   9.201 -1.4547  1.5719  0.6487
 6326SOL     OW30439   3.417   1.340   5.356 -0.0984  0.3179  0.0179
 6326SOL    HW130440   3.509   1.313   5.347 -0.1148  0.6305 -1.0669
 6326SOL    HW230441   3.375   1.254   5.356  1.0041 -0.2300 -1.5019
 6327SOL     OW30442   2.442   0.465   2.022 -0.2081 -0.3868  0.0224
 6327SOL    HW130443   2.461   0.528   1.952 -0.8178  0.4547  0.6306
 6327SOL    HW230444   2.347   0.476   2.024 -0.2462 -1.0966  2.4848
 6328SOL     OW30445   1.840   2.655   8.265  0.3564  0.1077 -0.0704
 6328SOL    HW130446   1.776   2.593   8.299  0.1299  0.9730  1.0692
 6328SOL    HW230447   1.921   2.607   8.286  0.8749  1.0474  0.0517
 6329SOL     OW30448   0.570   3.773   5.164  0.3554  0.4945  0.3563
 6329SOL    HW130449   0.579   3.824   5.084  0.0960  0.6742  0.4397
 6329SOL    HW230450   0.607   3.690   5.133 -1.8125 -0.1186 -0.6024
 6330SOL     OW30451   2.884   3.397   5.099 -0.1244  0.2459 -0.0988
 6330SOL    HW130452   2.894   3.488   5.127 -1.4428  0.0448  0.9992
 6330SOL    HW230453   2.913   3.396   5.008 -2.8292  0.5043 -0.9894
 6331SOL     OW30454   1.611   0.985  12.137 -0.7597  0.9470 -0.1025
 6331SOL    HW130455   1.651   0.916  12.086 -0.3391  1.7902 -0.9179
 6331SOL    HW230456   1.691   1.034  12.158  0.0787 -0.0819 -0.8991
 6332SOL     OW30457   0.900   0.059   8.224  0.1276 -0.0118 -0.2357
 6332SOL    HW130458   0.915   0.002   8.300  0.8692 -1.6752 -1.6289
 6332SOL    HW230459   0.849   4.722   8.170 -0.5651  2.2437 -2.0998
 6333SOL     OW30460   0.165   1.849   6.185  0.1148  0.5941 -0.0745
 6333SOL    HW130461   0.239   1.865   6.244 -1.1556  1.8864  1.1770
 6333SOL    HW230462   0.131   1.938   6.173 -0.9905 -0.0974 -1.9961
 6334SOL     OW30463   3.898   0.923   7.573  0.1651 -0.1512  0.2061
 6334SOL    HW130464   3.978   0.975   7.584 -0.7148  1.2965 -0.3202
 6334SOL    HW230465   3.841   0.976   7.518  1.6456  1.5199  0.2802
 6335SOL     OW30466   1.710   2.348  13.172 -0.3716 -0.6806 -0.1142
 6335SOL    HW130467   1.719   2.388  13.085 -0.9488 -1.3318 -0.4707
 6335SOL    HW230468   1.746   2.262  13.151 -0.2626 -0.3084 -1.4837
 6336SOL     OW30469   2.550   3.560  15.004  0.0990  0.2433 -0.6435
 6336SOL    HW130470   2.583   3.601  14.925 -1.5499 -0.1870 -1.5613
 6336SOL    HW230471   2.503   3.483  14.972 -0.5830  1.0782 -1.6240
 6337SOL     OW30472   2.918   0.937   2.493 -0.0054  0.0031  0.9364
 6337SOL    HW130473   3.011   0.917   2.484 -0.0145 -1.6290  4.4110
 6337SOL    HW230474   2.912   1.023   2.535 -1.2859 -0.5324  1.8455
 6338SOL     OW30475   0.006   2.643  10.927 -0.2746  0.1718  0.1908
 6338SOL    HW130476   4.667   2.688  10.984  0.3143 -0.2167  1.1467
 6338SOL    HW230477   0.022   2.706  10.856  0.7667 -1.8889 -1.3982
 6339SOL     OW30478   3.682   2.827  12.012  0.5377  0.6075 -0.1116
 6339SOL    HW130479   3.675   2.733  11.997 -0.5377  0.7379 -0.4381
 6339SOL    HW230480   3.612   2.860  11.956 -0.3895 -2.4176 -0.7240
 6340SOL     OW30481   0.247   1.396   2.599 -0.6035  0.3315 -0.0189
 6340SOL    HW130482   0.230   1.306   2.573  2.6888  0.0075 -0.9959
 6340SOL    HW230483   0.300   1.417   2.522  2.1519  1.1080  2.1156
 6341SOL     OW30484   4.560   0.255   3.769  1.4520 -0.5990 -0.1058
 6341SOL    HW130485   4.526   0.312   3.700  1.6473  0.0854  0.3701
 6341SOL    HW230486   4.655   0.264   3.766  1.0210  3.0208 -2.4464
 6342SOL     OW30487   4.445   0.763   3.055  0.0689 -0.2342 -0.6285
 6342SOL    HW130488   4.357   0.738   3.082 -0.2347  1.2471 -0.2142
 6342SOL    HW230489   4.465   0.834   3.117 -1.7128 -0.6563  0.4254
 6343SOL     OW30490   1.348   3.030   7.653 -0.2356  0.2871  0.0139
 6343SOL    HW130491   1.354   3.055   7.561  0.5034  3.3269  0.8827
 6343SOL    HW230492   1.437   3.006   7.678  0.4313  1.4582 -1.2581
 6344SOL     OW30493   3.092   4.393  11.169 -0.7067 -0.0371 -0.2541
 6344SOL    HW130494   3.119   4.302  11.152 -0.3358 -0.2939  1.7436
 6344SOL    HW230495   3.177   4.434  11.186 -0.8011  1.6115 -3.7848
 6345SOL     OW30496   1.685   4.383   6.146 -0.4621  0.4123  0.1995
 6345SOL    HW130497   1.658   4.452   6.086  0.5463  0.0906 -0.6339
 6345SOL    HW230498   1.675   4.434   6.226  0.7337  0.1495  0.5290
 6346SOL     OW30499   4.248   0.224  11.041 -0.1251  0.0306  0.1898
 6346SOL    HW130500   4.227   0.215  10.948  0.7519  1.1811 -0.1209
 6346SOL    HW230501   4.247   0.133  11.071 -5.4215  1.3364  3.9781
 6347SOL     OW30502   2.221   0.639   3.917 -0.7216 -0.2877  0.3558
 6347SOL    HW130503   2.197   0.616   3.827  0.8568 -0.7324  0.0567
 6347SOL    HW230504   2.179   0.725   3.928 -0.2136  0.3041 -2.4524
 6348SOL     OW30505   0.966   2.046   2.323 -0.4258  0.1749 -0.5158
 6348SOL    HW130506   0.935   2.134   2.302 -1.5595 -0.1268 -0.1135
 6348SOL    HW230507   0.885   1.996   2.315  0.8379 -1.6306 -2.0398
 6349SOL     OW30508   3.253   1.107   4.778  0.0468  0.9051 -0.8418
 6349SOL    HW130509   3.305   1.171   4.828 -0.7586  1.2380 -0.4335
 6349SOL    HW230510   3.232   1.161   4.702 -1.5064  0.3433 -0.8039
 6350SOL     OW30511   0.149   1.885  13.400  0.6144 -0.1313 -0.0986
 6350SOL    HW130512   0.070   1.869  13.451  0.4222  2.0629  0.2945
 6350SOL    HW230513   0.111   1.886  13.312  0.6629 -2.0791 -0.1340
 6351SOL     OW30514   0.067   3.423   3.383  0.6331  0.1036 -0.5683
 6351SOL    HW130515   0.046   3.496   3.326 -1.7491  0.8317  1.2675
 6351SOL    HW230516   0.148   3.384   3.349 -0.4243 -1.3760 -1.3805
 6352SOL     OW30517   4.720   2.905  13.775  0.8809 -0.3449 -0.3641
 6352SOL    HW130518   4.722   2.914  13.870  1.5092  1.1017 -0.5138
 6352SOL    HW230519   4.629   2.914  13.747  0.6482  0.5926  0.7148
 6353SOL     OW30520   3.167   3.243   2.547 -0.0647 -0.3193 -0.1007
 6353SOL    HW130521   3.203   3.288   2.624  0.9077 -1.9899  0.4193
 6353SOL    HW230522   3.185   3.151   2.564 -0.4895  0.0186  2.2327
 6354SOL     OW30523   4.467   0.529   2.678  0.7517  0.3031 -0.2715
 6354SOL    HW130524   4.458   0.437   2.653  0.0522  0.2064  0.3717
 6354SOL    HW230525   4.379   0.551   2.649 -0.1303 -0.9343  1.4994
 6355SOL     OW30526   4.091   4.082   4.830 -0.2647 -0.1862  0.5294
 6355SOL    HW130527   4.159   4.018   4.851  0.4913  0.3190 -0.3639
 6355SOL    HW230528   4.151   4.157   4.830 -0.2017 -0.2421  1.8481
 6356SOL     OW30529   0.657   2.148   1.077 -0.0324 -0.3926  0.3449
 6356SOL    HW130530   0.654   2.068   1.024 -0.5090 -0.3912  0.3654
 6356SOL    HW230531   0.721   2.197   1.026 -1.4673  0.6126 -0.4893
 6357SOL     OW30532   3.602   2.994   4.902 -0.4164  0.4800  0.2186
 6357SOL    HW130533   3.691   3.012   4.874  0.0846 -0.7276  1.0433
 6357SOL    HW230534   3.582   3.081   4.937 -0.5935 -0.3780  2.2349
 6358SOL     OW30535   2.913   0.636   0.096 -0.1124 -0.3453  0.6694
 6358SOL    HW130536   3.004   0.624   0.069 -0.2535  0.2708 -0.0818
 6358SOL    HW230537   2.906   0.731   0.090 -2.0390 -0.5089  0.2572
 6359SOL     OW30538   2.781   0.862   6.990 -0.3041 -0.2612  0.1472
 6359SOL    HW130539   2.705   0.804   6.983 -0.4737  0.3586 -3.2252
 6359SOL    HW230540   2.775   0.894   7.080  1.2609  0.8608 -0.1377
 6360SOL     OW30541   2.040   3.068  13.116 -0.4348  0.4893 -0.5039
 6360SOL    HW130542   2.097   3.041  13.188  0.4356  0.4659 -1.2014
 6360SOL    HW230543   2.070   3.013  13.043 -2.5405  2.4422 -2.8458
 6361SOL     OW30544   1.805   0.310   1.357  0.7195 -0.0893  0.0095
 6361SOL    HW130545   1.791   0.404   1.344 -0.0418 -0.2982 -0.6543
 6361SOL    HW230546   1.800   0.280   1.266  1.6309 -1.3680  0.3817
 6362SOL     OW30547   4.021   3.014  15.076 -0.3151 -0.0398 -0.3953
 6362SOL    HW130548   4.058   3.034  15.162 -0.6521  1.7212 -0.6555
 6362SOL    HW230549   4.096   3.031  15.018  0.6442 -1.5652  0.4029
 6363SOL     OW30550   1.091   2.942  14.356 -0.1448 -0.1206  0.2224
 6363SOL    HW130551   1.020   2.962  14.294 -1.1842 -1.9012  0.8428
 6363SOL    HW230552   1.040   2.888  14.416  0.4772  0.2401  1.0676
 6364SOL     OW30553   0.272   2.446   5.079 -0.2255 -0.0709 -0.1557
 6364SOL    HW130554   0.194   2.469   5.130 -0.6923 -1.8320 -0.0491
 6364SOL    HW230555   0.232   2.424   4.995  0.3934  0.5966 -0.6184
 6365SOL     OW30556   2.861   2.456   2.329  0.5330  0.6657  0.2655
 6365SOL    HW130557   2.894   2.367   2.334 -0.1682  0.3161 -1.1917
 6365SOL    HW230558   2.811   2.467   2.410  0.9336 -2.1007  0.8891
 6366SOL     OW30559   1.237   0.031   8.388 -0.5010  0.0975  0.0019
 6366SOL    HW130560   1.282   0.075   8.317 -0.3461 -0.5166 -0.2798
 6366SOL    HW230561   1.204   4.679   8.339 -1.2788 -1.1996  2.5095
 6367SOL     OW30562   3.594   1.028   7.768  0.0808 -0.1616  0.1765
 6367SOL    HW130563   3.655   1.100   7.758  0.4850 -0.5809 -0.3722
 6367SOL    HW230564   3.593   0.985   7.683 -0.6599  2.1303 -0.9657
 6368SOL     OW30565   3.665   2.817   4.675 -0.2669 -0.7493 -0.0579
 6368SOL    HW130566   3.702   2.883   4.733  0.5407 -0.5117 -0.8546
 6368SOL    HW230567   3.577   2.813   4.712  0.1657 -1.3946  0.9067
 6369SOL     OW30568   2.230   1.988   6.291 -0.0463 -0.2663 -0.0887
 6369SOL    HW130569   2.304   1.970   6.348  0.6429  1.1283 -0.5388
 6369SOL    HW230570   2.276   2.052   6.236 -0.6005 -1.6642 -2.1735
 6370SOL     OW30571   2.624   2.784  10.182 -0.2032 -0.0995  0.3729
 6370SOL    HW130572   2.570   2.765  10.105  1.9211  3.3625 -1.9995
 6370SOL    HW230573   2.714   2.783  10.149 -0.0838  1.0081  0.6571
 6371SOL     OW30574   2.539   4.066   8.572  0.1680  0.2911 -0.5298
 6371SOL    HW130575   2.559   4.102   8.658 -0.8371 -1.2173  0.3398
 6371SOL    HW230576   2.593   3.991   8.596  1.1398  0.6193 -1.7095
 6372SOL     OW30577   3.527   0.728  13.512  0.1562  0.3508  0.6831
 6372SOL    HW130578   3.485   0.714  13.427  1.0305  1.2885  0.0852
 6372SOL    HW230579   3.510   0.821  13.527 -1.3040  0.2374 -0.2111
 6373SOL     OW30580   1.077   3.608   4.575 -0.3598  0.0620  0.6902
 6373SOL    HW130581   1.021   3.680   4.605  0.4609  0.5897  0.9551
 6373SOL    HW230582   1.076   3.621   4.480 -4.0124  0.8675  0.8245
 6374SOL     OW30583   0.231   2.686  16.226 -0.0625  0.1140  0.1566
 6374SOL    HW130584   0.290   2.761  16.228 -1.6105  1.2765  3.3178
 6374SOL    HW230585   0.179   2.706  16.304  0.9277  0.4266  0.7332
 6375SOL     OW30586   4.007   1.553   6.574  0.0034  0.3650  0.6621
 6375SOL    HW130587   3.960   1.618   6.627 -1.8830 -0.7119  0.3210
 6375SOL    HW230588   4.096   1.576   6.601  1.2845 -1.6209 -1.9013
 6376SOL     OW30589   1.806   1.682   1.742 -0.0974 -0.0711  0.2675
 6376SOL    HW130590   1.855   1.600   1.750  0.8036  0.6043  1.8525
 6376SOL    HW230591   1.715   1.656   1.760 -0.8072 -0.0851 -3.5068
 6377SOL     OW30592   4.691   4.636   2.773  0.2230  0.1733  0.4627
 6377SOL    HW130593   4.626   4.630   2.703 -1.8557 -0.4199  2.4229
 6377SOL    HW230594   4.681   0.001   2.809 -2.8289 -0.0478  0.1894
 6378SOL     OW30595   1.576   4.532   6.943 -0.0486 -0.2531 -0.0855
 6378SOL    HW130596   1.628   4.451   6.947 -1.9618 -1.4857 -0.4922
 6378SOL    HW230597   1.497   4.497   6.984 -1.7981 -0.0372 -3.2679
 6379SOL     OW30598   0.762   2.392   5.215  0.2598 -0.2084 -0.4831
 6379SOL    HW130599   0.689   2.402   5.154 -0.0750  0.0206 -0.0457
 6379SOL    HW230600   0.819   2.319   5.190 -0.7455 -1.2245  0.1719
 6380SOL     OW30601   3.102   4.392   0.446  0.2217 -0.1890 -0.3614
 6380SOL    HW130602   3.050   4.391   0.527  0.4167  2.3776 -0.2306
 6380SOL    HW230603   3.122   4.484   0.433  0.3937 -0.2307 -0.3868
 6381SOL     OW30604   0.569   1.732   8.440 -0.1504 -0.6436  0.0562
 6381SOL    HW130605   0.522   1.701   8.517 -0.6822 -0.1307 -0.0546
 6381SOL    HW230606   0.648   1.772   8.477 -1.0814 -0.5642  1.9543
 6382SOL     OW30607   4.582   4.523   5.629 -0.3942  0.6890  0.1765
 6382SOL    HW130608   4.670   4.498   5.657  0.9210  2.5321 -2.3112
 6382SOL    HW230609   4.526   4.474   5.689  1.1789  1.0364  1.9204
 6383SOL     OW30610   4.325   0.323   4.837  0.4002 -0.2010 -0.2508
 6383SOL    HW130611   4.265   0.366   4.775 -0.1279 -1.4651 -0.6162
 6383SOL    HW230612   4.362   0.388   4.896 -0.5171 -0.9511  1.1545
 6384SOL     OW30613   1.187   3.630   5.631  0.0451  0.2250 -0.3990
 6384SOL    HW130614   1.219   3.719   5.644 -1.4750  1.1931 -3.3403
 6384SOL    HW230615   1.182   3.594   5.720 -0.6091  2.6101  0.5222
 6385SOL     OW30616   1.784   1.096   9.025  0.1996 -0.3694  0.3113
 6385SOL    HW130617   1.833   1.174   9.048 -2.6531  1.8067 -0.9963
 6385SOL    HW230618   1.811   1.069   8.937 -2.6650 -1.8287 -0.1312
 6386SOL     OW30619   3.175   1.147   6.342  0.0742  0.4285  0.0950
 6386SOL    HW130620   3.153   1.097   6.264 -2.5936  0.2132  1.0058
 6386SOL    HW230621   3.112   1.113   6.406  1.3538 -2.1973 -0.0300
 6387SOL     OW30622   0.856   3.255  10.272  0.2121 -0.2029  0.2630
 6387SOL    HW130623   0.887   3.173  10.312  0.7046  0.4213  1.1746
 6387SOL    HW230624   0.840   3.221  10.184 -0.1127 -2.9266  1.3590
 6388SOL     OW30625   0.629   3.090   3.486 -0.4854  0.3251 -0.3744
 6388SOL    HW130626   0.628   3.182   3.512 -0.7951 -0.1119  1.1754
 6388SOL    HW230627   0.664   3.101   3.398  1.6083  1.0404  0.5549
 6389SOL     OW30628   1.204   3.365   9.131  0.5378  0.7262  0.1930
 6389SOL    HW130629   1.201   3.458   9.151  0.2435  0.9460 -0.8911
 6389SOL    HW230630   1.122   3.348   9.084  1.3887 -3.1216  0.0881
 6390SOL     OW30631   3.622   1.303  16.235  0.1571 -0.3871 -0.0864
 6390SOL    HW130632   3.679   1.293  16.311  0.4089 -2.1835 -0.5203
 6390SOL    HW230633   3.584   1.218  16.217 -0.1306 -0.0085 -1.2660
 6391SOL     OW30634   2.358   2.545   6.696 -0.0722 -0.4575 -0.1545
 6391SOL    HW130635   2.434   2.516   6.746 -0.1319  1.0232  0.7866
 6391SOL    HW230636   2.336   2.634   6.724  1.7227 -1.2897  3.7689
 6392SOL     OW30637   3.092   3.768   5.348  0.3124  0.2129 -0.1535
 6392SOL    HW130638   3.107   3.810   5.433  0.0601 -1.0607  0.5135
 6392SOL    HW230639   3.111   3.680   5.379  0.5204  1.2452  2.7189
 6393SOL     OW30640   0.293   1.980   4.773  0.3441 -0.2003 -0.3460
 6393SOL    HW130641   0.276   2.057   4.720  1.0700  0.1006 -0.1367
 6393SOL    HW230642   0.206   1.944   4.792 -0.0861  0.0115 -1.9409
 6394SOL     OW30643   2.756   2.659  12.243 -0.3873  0.0803 -0.5931
 6394SOL    HW130644   2.822   2.603  12.200 -0.0930  0.3253 -0.4547
 6394SOL    HW230645   2.698   2.595  12.283  0.6504 -0.0158  0.7473
 6395SOL     OW30646   1.250   3.822  12.836 -0.1475  0.0932 -0.1470
 6395SOL    HW130647   1.278   3.741  12.879 -0.5632  0.6722  1.2270
 6395SOL    HW230648   1.162   3.795  12.809  0.3751 -2.0941  0.3780
 6396SOL     OW30649   0.759   4.542   1.858  0.0592 -0.1393 -0.3164
 6396SOL    HW130650   0.807   4.624   1.869  0.9481 -0.5336 -1.2687
 6396SOL    HW230651   0.714   4.539   1.943  2.1738 -0.0257  0.8078
 6397SOL     OW30652   1.369   4.443  17.108 -0.3111  0.1217  0.1603
 6397SOL    HW130653   1.355   4.458  17.201  0.0425  0.4495  0.1613
 6397SOL    HW230654   1.463   4.427  17.103 -0.4582  0.6710 -4.2398
 6398SOL     OW30655   4.669   3.412   8.542  0.0624 -0.7898 -0.2122
 6398SOL    HW130656   4.700   3.475   8.607 -1.6104  1.8318 -1.9630
 6398SOL    HW230657   4.721   3.445   8.469  1.7366  0.0390  1.3480
 6399SOL     OW30658   1.819   0.712   2.531 -0.0523 -0.1258  0.5248
 6399SOL    HW130659   1.793   0.790   2.483  1.9941  0.4395  0.3418
 6399SOL    HW230660   1.906   0.695   2.494 -0.1068  0.0890  0.3000
 6400SOL     OW30661   1.305   0.987   4.735 -0.3623  0.1536 -0.1190
 6400SOL    HW130662   1.228   0.930   4.734 -0.5866  0.4289  1.4193
 6400SOL    HW230663   1.305   1.015   4.826 -0.8017 -0.5905  0.1062
 6401SOL     OW30664   0.720   1.501   7.330  0.6393 -0.6889 -0.0336
 6401SOL    HW130665   0.716   1.424   7.386 -0.9113 -0.5893 -0.0008
 6401SOL    HW230666   0.735   1.581   7.380 -1.9800 -0.1013 -0.1996
 6402SOL     OW30667   2.996   1.935   8.157 -0.0406  0.1598 -0.3785
 6402SOL    HW130668   3.035   2.006   8.107  1.3827 -1.0022 -0.9193
 6402SOL    HW230669   3.024   1.966   8.243 -1.1443 -2.1558  0.8109
 6403SOL     OW30670   1.670   4.272   6.953 -0.2314  0.5042  0.1669
 6403SOL    HW130671   1.657   4.247   6.861 -2.2560  0.8739  0.3581
 6403SOL    HW230672   1.713   4.193   6.986 -1.0875  0.0549  0.2086
 6404SOL     OW30673   2.647   2.215   7.369  0.1221  0.0437  0.1857
 6404SOL    HW130674   2.646   2.297   7.418  0.3093 -0.3062  0.7769
 6404SOL    HW230675   2.732   2.218   7.327  0.6056  1.4440  1.2541
 6405SOL     OW30676   2.760   2.389   8.952 -0.3813  0.2153  0.4920
 6405SOL    HW130677   2.757   2.376   9.046 -1.2599  2.8105  0.8124
 6405SOL    HW230678   2.752   2.305   8.906 -0.2821  0.6731 -0.3752
 6406SOL     OW30679   3.047   1.742   0.954  0.2254 -0.6615 -0.1426
 6406SOL    HW130680   3.140   1.723   0.952  0.2224 -0.5542 -1.4125
 6406SOL    HW230681   3.040   1.817   0.895 -2.0926 -0.7912 -0.0336
 6407SOL     OW30682   3.839   0.404  13.889  0.2046  0.3458 -0.3613
 6407SOL    HW130683   3.804   0.399  13.800 -1.6098  0.1678  0.3601
 6407SOL    HW230684   3.925   0.441  13.869  0.4165  0.4351  0.6956
 6408SOL     OW30685   0.940   3.108   2.021  0.6899 -0.2962 -0.7755
 6408SOL    HW130686   0.902   3.191   1.994  0.6038  0.0988  0.5874
 6408SOL    HW230687   0.867   3.048   2.004 -0.5433  0.9592  0.0988
 6409SOL     OW30688   1.082   1.093   3.232  0.5644  0.0241  0.3063
 6409SOL    HW130689   1.085   1.172   3.180 -0.9362  0.8657  1.5032
 6409SOL    HW230690   1.144   1.111   3.302 -1.0273  1.0293  1.4584
 6410SOL     OW30691   0.079   1.073   5.106 -0.5345  0.2097 -0.2653
 6410SOL    HW130692   0.129   1.006   5.154 -0.0263  0.4851 -0.4142
 6410SOL    HW230693   0.131   1.149   5.131 -1.3411  1.4320 -2.3429
 6411SOL     OW30694   1.675   1.914  17.678  0.6774  0.9758 -0.4080
 6411SOL    HW130695   1.600   1.869  17.640 -1.3219  0.7699  3.7234
 6411SOL    HW230696   1.672   1.886   0.073  1.0490  0.2814 -0.6059
 6412SOL     OW30697   2.905   0.081  17.383 -0.5376  0.1428 -0.5011
 6412SOL    HW130698   2.959   0.025  17.327  2.1864 -1.3898  3.6689
 6412SOL    HW230699   2.832   0.024  17.408 -0.2794  0.3868  0.8127
 6413SOL     OW30700   1.203   3.505   8.444 -0.7264 -0.6064  0.1296
 6413SOL    HW130701   1.257   3.427   8.436 -1.1893 -1.3479  4.2319
 6413SOL    HW230702   1.125   3.479   8.492 -0.7828 -0.7948 -0.0635
 6414SOL     OW30703   1.610   0.709   3.926 -0.2500  0.2194 -0.2167
 6414SOL    HW130704   1.563   0.634   3.962 -2.4071  1.7719  0.1936
 6414SOL    HW230705   1.696   0.682   3.896 -0.0636 -0.7153  1.1398
 6415SOL     OW30706   2.948   3.722   8.852 -0.4388 -0.6533 -0.5887
 6415SOL    HW130707   2.968   3.667   8.927  1.1014  1.3453  0.4728
 6415SOL    HW230708   2.962   3.808   8.891 -0.2259 -1.2698  0.6673
 6416SOL     OW30709   2.274   3.319  10.373  0.0406 -0.0238 -0.1124
 6416SOL    HW130710   2.232   3.400  10.345  1.1322  0.1966 -1.1020
 6416SOL    HW230711   2.206   3.280  10.429  0.1390 -0.2542 -0.1510
 6417SOL     OW30712   2.197   4.054   9.693  0.4307  0.1354  0.1890
 6417SOL    HW130713   2.202   4.030   9.786  0.6726 -1.0603 -0.1366
 6417SOL    HW230714   2.225   3.965   9.669 -0.5683 -0.0148 -0.4075
 6418SOL     OW30715   4.176   4.479   3.662 -0.3148 -0.4708  0.7261
 6418SOL    HW130716   4.189   4.542   3.734 -0.1576  0.0110  0.2745
 6418SOL    HW230717   4.085   4.463   3.687 -0.1633 -0.0193  1.5988
 6419SOL     OW30718   2.135   4.011   0.342 -0.3342 -0.4537 -0.8112
 6419SOL    HW130719   2.137   3.951   0.417  0.1601  0.7018  0.0863
 6419SOL    HW230720   2.165   4.095   0.376 -1.5358 -0.0420 -0.7566
 6420SOL     OW30721   3.208   2.003   6.530  0.6103 -0.0101 -0.0540
 6420SOL    HW130722   3.116   2.027   6.538  0.3190 -1.4414  0.8257
 6420SOL    HW230723   3.205   1.946   6.453  0.0354 -0.2558  0.1489
 6421SOL     OW30724   1.543   0.426  15.443 -0.0607  0.3928  0.1377
 6421SOL    HW130725   1.625   0.444  15.487  0.5916 -2.5787  0.1428
 6421SOL    HW230726   1.538   0.506  15.391 -0.3449  1.7667  2.2644
 6422SOL     OW30727   4.530   4.578   6.147  0.3802  0.3266  0.1714
 6422SOL    HW130728   4.531   4.618   6.060  0.6792  0.9104  0.4392
 6422SOL    HW230729   4.455   4.521   6.131  0.8315  0.0237 -0.9350
 6423SOL     OW30730   2.253   1.093   7.870  0.8855  0.1033  0.6216
 6423SOL    HW130731   2.336   1.132   7.844  0.9902  0.3379  1.2986
 6423SOL    HW230732   2.189   1.148   7.825  1.6653  2.8542  2.8294
 6424SOL     OW30733   0.822   2.819  10.110  0.1872  0.3341 -0.4501
 6424SOL    HW130734   0.758   2.822  10.039  0.6398 -1.4117 -0.9344
 6424SOL    HW230735   0.816   2.725  10.125 -0.7121  0.5456  0.4755
 6425SOL     OW30736   2.388   4.550   5.517  0.1918 -0.2071 -0.1806
 6425SOL    HW130737   2.337   4.483   5.563  0.3742 -1.0677 -1.2298
 6425SOL    HW230738   2.414   4.508   5.435  1.6552  0.5999 -0.1368
 6426SOL     OW30739   1.725   4.418   1.690  0.3915 -0.0107  0.4864
 6426SOL    HW130740   1.728   4.342   1.632 -0.2746  0.8231 -0.6432
 6426SOL    HW230741   1.637   4.448   1.667  0.0987 -1.1418  0.1311
 6427SOL     OW30742   3.097   1.905  13.205 -0.0007 -0.1637  0.4726
 6427SOL    HW130743   3.188   1.894  13.179  0.2713  0.3467  1.2000
 6427SOL    HW230744   3.095   1.995  13.239 -1.9665  0.0245 -0.1411
 6428SOL     OW30745   2.296   2.850  16.269  0.0964  0.1652 -0.3030
 6428SOL    HW130746   2.215   2.857  16.219  0.3743  1.9609 -0.4713
 6428SOL    HW230747   2.368   2.853  16.205  1.5572 -2.0592  1.2227
 6429SOL     OW30748   2.938   4.662   3.208 -0.0596  0.5516 -0.1029
 6429SOL    HW130749   3.031   4.661   3.188  0.6295  2.8818  3.0758
 6429SOL    HW230750   2.905   4.688   3.122 -1.0886 -0.3569  0.0080
 6430SOL     OW30751   1.142   1.352   7.711  0.1367  0.5861  0.2214
 6430SOL    HW130752   1.109   1.302   7.785  2.6707 -0.8908  0.3442
 6430SOL    HW230753   1.163   1.428   7.765  2.9183  2.3378 -3.2928
 6431SOL     OW30754   2.522   3.203   7.290  0.0599 -0.1191 -0.0890
 6431SOL    HW130755   2.459   3.254   7.341 -0.7099 -1.8566  0.7037
 6431SOL    HW230756   2.587   3.260   7.251  1.5369  0.2321  2.9287
 6432SOL     OW30757   3.461   2.500  10.454 -0.0384 -0.0900 -0.1289
 6432SOL    HW130758   3.454   2.405  10.450 -2.6633  0.0633  1.2282
 6432SOL    HW230759   3.436   2.512  10.545  1.0584  0.9882  0.0304
 6433SOL     OW30760   2.878   0.154   9.961  0.5862  0.0962 -0.1820
 6433SOL    HW130761   2.844   0.153   9.871  1.5907 -0.9396 -0.5405
 6433SOL    HW230762   2.938   0.229   9.962 -0.3997  0.8551  1.3826
 6434SOL     OW30763   2.804   2.777   8.418 -0.0370  0.1637  0.6047
 6434SOL    HW130764   2.846   2.761   8.333 -0.4281  1.8789  0.0751
 6434SOL    HW230765   2.835   2.703   8.470  0.1661 -1.2313 -1.5032
 6435SOL     OW30766   2.087   1.742   1.964 -0.0558 -0.3487  0.0932
 6435SOL    HW130767   2.063   1.661   2.009  0.7658 -0.3140  0.6020
 6435SOL    HW230768   2.131   1.702   1.889  1.5390 -0.0364  0.8707
 6436SOL     OW30769   0.413   2.247   6.250 -0.4094  0.0138 -0.5414
 6436SOL    HW130770   0.494   2.204   6.224 -0.1928  0.5178 -0.6911
 6436SOL    HW230771   0.383   2.305   6.179  1.6213  1.5993 -0.0838
 6437SOL     OW30772   4.088   2.238   5.564 -0.3223  0.1814  0.4943
 6437SOL    HW130773   4.172   2.193   5.575  0.5551  1.8609  0.7128
 6437SOL    HW230774   4.050   2.246   5.652  1.5071 -0.4425  1.3512
 6438SOL     OW30775   3.445   3.450   8.513  0.4028  0.4389  0.2774
 6438SOL    HW130776   3.382   3.521   8.524 -1.3704 -1.1067 -0.0077
 6438SOL    HW230777   3.475   3.441   8.603 -1.2968 -0.8152  0.7200
 6439SOL     OW30778   1.292   0.983   6.095  0.3254 -1.1075  0.0015
 6439SOL    HW130779   1.346   0.993   6.173 -0.4418 -0.8081  0.4961
 6439SOL    HW230780   1.275   0.889   6.103 -0.2620 -1.2250 -2.4472
 6440SOL     OW30781   4.236   2.334   5.891  1.0287 -0.0962  0.3977
 6440SOL    HW130782   4.232   2.260   5.952 -1.3804  0.7002  1.2019
 6440SOL    HW230783   4.236   2.409   5.951 -1.3092  0.6968 -0.5885
 6441SOL     OW30784   0.208   2.685   5.947  0.0831 -0.1894  0.2701
 6441SOL    HW130785   0.260   2.698   5.867  0.5655  3.1668  1.1384
 6441SOL    HW230786   0.124   2.728   5.936  0.0858  0.0004  1.0072
 6442SOL     OW30787   4.351   3.675   4.434 -0.0815 -0.1647  0.3164
 6442SOL    HW130788   4.360   3.717   4.348  0.2275 -1.3510 -0.2346
 6442SOL    HW230789   4.411   3.726   4.487 -0.0264 -0.3439  0.4266
 6443SOL     OW30790   2.422   3.142   6.076  0.0472  0.0429 -0.0231
 6443SOL    HW130791   2.450   3.175   5.990 -2.5712 -2.2623 -1.7657
 6443SOL    HW230792   2.484   3.069   6.079  1.8389  1.6596  1.9342
 6444SOL     OW30793   1.550   1.203   7.936  0.3927  0.5365  0.3825
 6444SOL    HW130794   1.550   1.282   7.991  0.7591  0.0500  1.0780
 6444SOL    HW230795   1.620   1.145   7.966  0.6204  1.3061  1.3714
 6445SOL     OW30796   2.942   1.143   2.092 -0.2706  0.1006  0.2651
 6445SOL    HW130797   2.855   1.136   2.133  0.1157 -1.2529  0.8384
 6445SOL    HW230798   2.948   1.063   2.040  0.2852 -0.8257  1.7431
 6446SOL     OW30799   4.474   2.971  13.690 -0.0358  0.1246  0.3525
 6446SOL    HW130800   4.455   3.005  13.603  0.5536  0.1568  0.2372
 6446SOL    HW230801   4.390   2.990  13.732  0.8473 -2.0770  3.1671
 6447SOL     OW30802   2.700   2.329   9.200  0.2045 -0.3355 -0.5227
 6447SOL    HW130803   2.711   2.325   9.295  1.1659  1.2231 -0.5702
 6447SOL    HW230804   2.607   2.310   9.193  0.5582 -1.7418 -1.5726
 6448SOL     OW30805   2.264   1.242  17.675 -0.6839  0.0436  0.0012
 6448SOL    HW130806   2.336   1.183  17.651 -0.1372  0.0255  1.6744
 6448SOL    HW230807   2.307   1.319   0.014  2.1961 -1.3691 -0.4055
 6449SOL     OW30808   0.658   4.204   1.223  0.4817  0.0823 -0.0996
 6449SOL    HW130809   0.693   4.129   1.271 -0.8340 -0.7578 -0.4582
 6449SOL    HW230810   0.672   4.276   1.284  1.8952  0.0432 -0.3899
 6450SOL     OW30811   4.468   2.377  15.608 -0.6998 -0.0036  0.8620
 6450SOL    HW130812   4.500   2.450  15.659  0.3192 -0.3388  0.7045
 6450SOL    HW230813   4.464   2.320  15.685  2.3979  0.6048  1.4444
 6451SOL     OW30814   2.966   1.743  12.575 -0.5884 -0.5634 -0.1451
 6451SOL    HW130815   3.051   1.732  12.532  0.5045  1.5296  1.4759
 6451SOL    HW230816   2.921   1.659  12.583 -1.3448 -0.2169 -0.9198
 6452SOL     OW30817   0.628   2.004   7.315  0.7358  0.5608 -0.1517
 6452SOL    HW130818   0.649   2.088   7.356  1.4438  0.3931 -0.1732
 6452SOL    HW230819   0.570   1.965   7.381  0.9972  0.0689 -0.2152
 6453SOL     OW30820   0.350   0.536  12.340  0.3030 -0.1802  0.4707
 6453SOL    HW130821   0.293   0.612  12.326  0.1986 -0.6224 -1.5069
 6453SOL    HW230822   0.435   0.571  12.314  1.2731 -2.1147  0.9938
 6454SOL     OW30823   3.027   4.654   4.804 -0.3070 -0.7256 -0.6548
 6454SOL    HW130824   2.985   4.697   4.878  2.0337 -1.9712  1.3776
 6454SOL    HW230825   3.119   4.663   4.829 -1.2048 -1.3574  2.7448
 6455SOL     OW30826   0.352   2.133  16.890  0.7429 -0.3438  0.3296
 6455SOL    HW130827   0.301   2.095  16.961  0.9288 -1.4816 -0.1367
 6455SOL    HW230828   0.426   2.178  16.929 -0.9036 -0.2357  3.3520
 6456SOL     OW30829   1.679   2.288   3.980  0.0353 -0.4222 -0.1696
 6456SOL    HW130830   1.748   2.271   3.916  0.1755 -1.7363  0.3229
 6456SOL    HW230831   1.681   2.207   4.032  0.4023 -2.6993 -3.7726
 6457SOL     OW30832   2.437   2.128   1.712 -0.0013 -0.1201 -0.4130
 6457SOL    HW130833   2.397   2.205   1.751 -1.2528 -0.7977 -0.3642
 6457SOL    HW230834   2.528   2.139   1.741 -0.7006 -2.1966  2.4942
 6458SOL     OW30835   2.514   0.771  14.940 -0.3622 -0.6677  0.2696
 6458SOL    HW130836   2.591   0.744  14.889  0.7798  1.0870  1.0436
 6458SOL    HW230837   2.557   0.839  14.992  1.2387 -0.4377 -1.3491
 6459SOL     OW30838   1.655   0.893   4.155  0.1869 -0.5568 -0.2616
 6459SOL    HW130839   1.605   0.878   4.075 -0.8020  1.0953  0.0414
 6459SOL    HW230840   1.605   0.970   4.182  3.2444  1.7013 -1.0057
 6460SOL     OW30841   3.051   1.507  14.316  0.3803 -0.1497 -0.0071
 6460SOL    HW130842   3.047   1.595  14.281 -0.2331 -0.6277 -1.1433
 6460SOL    HW230843   2.982   1.510  14.383  0.0373 -0.8805 -0.3224
 6461SOL     OW30844   4.110   0.144   9.157 -0.2974  0.0402 -0.2858
 6461SOL    HW130845   4.061   0.064   9.139  1.2393 -0.6466 -1.4191
 6461SOL    HW230846   4.046   0.211   9.133 -2.0503 -1.5601 -0.1040
 6462SOL     OW30847   4.406   1.050   7.567 -0.2647  0.3164  0.3944
 6462SOL    HW130848   4.444   0.980   7.513  2.4173  1.3381  1.0011
 6462SOL    HW230849   4.489   1.095   7.579  0.4474 -0.5715 -1.1889
 6463SOL     OW30850   2.606   3.512   5.684 -0.4274  0.3332 -0.5480
 6463SOL    HW130851   2.574   3.597   5.715  0.6324  1.0136 -1.3021
 6463SOL    HW230852   2.523   3.466   5.671 -0.3558 -0.5921  2.2184
 6464SOL     OW30853   0.161   0.628   5.500  0.2952  0.2164 -0.1649
 6464SOL    HW130854   0.237   0.631   5.559 -0.8220 -1.0533  1.3065
 6464SOL    HW230855   0.206   0.603   5.420  2.0720  0.0657  0.8749
 6465SOL     OW30856   4.188   0.327   1.974  0.2080 -0.3446  0.2591
 6465SOL    HW130857   4.278   0.322   2.007 -0.6424  1.2605  2.8231
 6465SOL    HW230858   4.160   0.398   2.030  1.6025  0.9990 -0.7419
 6466SOL     OW30859   2.174   0.229   6.414  0.3394  0.4309  0.3104
 6466SOL    HW130860   2.251   0.175   6.397 -1.0253 -1.6353  0.6012
 6466SOL    HW230861   2.218   0.314   6.421  1.0375  0.0573  0.4251
 6467SOL     OW30862   3.801   0.918  16.885 -0.2325 -0.5907  0.2375
 6467SOL    HW130863   3.791   0.877  16.971  0.4028  3.3978  2.2599
 6467SOL    HW230864   3.714   0.949  16.859  0.3897  0.4761 -0.5788
 6468SOL     OW30865   2.422   1.589   8.242 -0.0306  0.4112  0.4843
 6468SOL    HW130866   2.433   1.503   8.203  1.3340  0.1122  1.5378
 6468SOL    HW230867   2.356   1.629   8.185  0.2484 -0.4980 -0.4642
 6469SOL     OW30868   3.549   2.014   4.054 -0.0757 -0.1457 -0.0482
 6469SOL    HW130869   3.557   2.095   4.003 -1.5678 -0.3716 -0.6288
 6469SOL    HW230870   3.592   1.953   3.995 -1.4548 -0.6198 -0.5641
 6470SOL     OW30871   3.716   1.326   9.315 -0.3845  0.2288  0.2957
 6470SOL    HW130872   3.705   1.347   9.408  0.4031  0.0643  0.4342
 6470SOL    HW230873   3.660   1.249   9.310  1.8131 -1.2763 -1.2369
 6471SOL     OW30874   1.657   1.181   2.070 -0.2916  0.0279 -0.1179
 6471SOL    HW130875   1.664   1.130   2.151  3.0312 -0.3920 -0.6586
 6471SOL    HW230876   1.562   1.181   2.062 -0.2570 -0.4543 -0.5419
 6472SOL     OW30877   4.546   0.260   5.698 -0.2096  0.1140 -0.0763
 6472SOL    HW130878   4.495   0.337   5.674 -2.1925 -1.3090 -0.4657
 6472SOL    HW230879   4.504   0.236   5.781 -1.2892  0.1470 -0.6174
 6473SOL     OW30880   0.750   0.003   7.091  0.6081  0.4830 -0.9314
 6473SOL    HW130881   0.797   0.062   7.150  1.0821  0.2303 -1.0644
 6473SOL    HW230882   0.744   4.648   7.144  2.6779  0.5830 -0.5730
 6474SOL     OW30883   3.197   3.506   0.813  0.0508 -0.3298 -0.1625
 6474SOL    HW130884   3.251   3.553   0.750  1.1511 -0.5787  0.6094
 6474SOL    HW230885   3.257   3.484   0.884 -3.8923 -0.9563  3.0017
 6475SOL     OW30886   0.616   0.885   8.669  0.7128  0.3118  0.8154
 6475SOL    HW130887   0.560   0.860   8.743  1.5974 -0.5065  1.2152
 6475SOL    HW230888   0.705   0.860   8.694  1.3721  2.6585  0.7706
 6476SOL     OW30889   0.259   3.562  15.840  0.3302  0.0621 -0.2473
 6476SOL    HW130890   0.294   3.650  15.854 -2.2058  0.5904  2.8039
 6476SOL    HW230891   0.335   3.507  15.823 -0.6359 -1.9691  2.0598
 6477SOL     OW30892   4.557   2.291   8.950  0.0931  0.0916 -0.1524
 6477SOL    HW130893   4.599   2.207   8.968  0.1259  0.5774  2.0424
 6477SOL    HW230894   4.636   2.333   8.917  0.0747  0.6588  0.5314
 6478SOL     OW30895   2.403   2.634   5.729 -0.4081  0.4516 -0.0480
 6478SOL    HW130896   2.388   2.555   5.678 -3.3465  0.8718  0.1813
 6478SOL    HW230897   2.464   2.619   5.801 -0.0305 -1.4693 -0.7746
 6479SOL     OW30898   4.427   0.383   2.087  0.3715 -0.0551  0.1757
 6479SOL    HW130899   4.496   0.321   2.064 -0.4443 -1.9452  2.7112
 6479SOL    HW230900   4.454   0.406   2.175  1.4370 -2.2447  0.4312
 6480SOL     OW30901   2.938   1.974   4.489 -0.0163 -0.0389  0.1960
 6480SOL    HW130902   3.026   1.991   4.522  0.3575 -1.9840  0.1883
 6480SOL    HW230903   2.968   1.993   4.400 -0.6531 -0.6581 -0.1538
 6481SOL     OW30904   4.200   4.708   5.629 -0.3211 -0.2913 -0.1337
 6481SOL    HW130905   4.161   4.621   5.638  1.0828 -0.9631 -0.3857
 6481SOL    HW230906   4.199   0.015   5.719  0.4536 -1.9181  0.4471
 6482SOL     OW30907   0.853   0.551   5.259 -0.3470 -0.2341  0.2516
 6482SOL    HW130908   0.818   0.465   5.236 -2.5610 -0.0028  2.8103
 6482SOL    HW230909   0.786   0.583   5.320 -2.5416  0.1032 -2.3339
 6483SOL     OW30910   2.070   0.248  10.945 -0.9075  0.4014  0.6124
 6483SOL    HW130911   2.040   0.210  11.028 -0.6387 -1.3491 -0.1185
 6483SOL    HW230912   2.152   0.201  10.929 -1.1961 -0.1750  0.8506
 6484SOL     OW30913   3.110   1.612   9.253 -0.5610 -0.0885  0.1474
 6484SOL    HW130914   3.204   1.597   9.264 -0.8849 -1.0041  1.6046
 6484SOL    HW230915   3.080   1.652   9.334 -0.0216 -0.0992  0.3559
 6485SOL     OW30916   2.823   0.291  13.399 -0.2343  0.0712 -0.5972
 6485SOL    HW130917   2.904   0.267  13.445 -0.3796 -1.3026 -1.0585
 6485SOL    HW230918   2.764   0.301  13.474 -0.3129  1.6616 -0.8738
 6486SOL     OW30919   1.040   3.533  16.625  0.5272 -0.0798 -0.6150
 6486SOL    HW130920   1.054   3.560  16.534  0.0313  0.7682 -0.4399
 6486SOL    HW230921   1.119   3.480  16.635  0.4099  0.0219  0.7838
 6487SOL     OW30922   1.121   3.572   6.105 -0.2066 -0.2465 -0.1833
 6487SOL    HW130923   1.135   3.548   6.197  1.0593 -1.2992 -0.6496
 6487SOL    HW230924   1.048   3.634   6.114 -0.9213 -0.6174 -3.5109
 6488SOL     OW30925   0.997   1.572   5.131  0.1400 -0.2524  0.7624
 6488SOL    HW130926   1.078   1.587   5.179  0.2951  1.3320 -0.0073
 6488SOL    HW230927   1.030   1.518   5.060 -0.4474  1.1336 -0.5657
 6489SOL     OW30928   3.184   3.185  11.542  0.3987  0.0331  0.0812
 6489SOL    HW130929   3.171   3.095  11.570  0.8645 -0.6037 -1.7594
 6489SOL    HW230930   3.212   3.223  11.625 -0.0684 -1.7028  1.0299
 6490SOL     OW30931   3.025   0.508  16.725 -0.1994  0.4787  0.8470
 6490SOL    HW130932   3.089   0.549  16.668 -0.7236 -3.4415 -2.5585
 6490SOL    HW230933   3.089   0.463  16.780  0.5607 -0.4286 -0.7787
 6491SOL     OW30934   0.037   2.765  12.632 -0.0188 -0.0610 -0.5891
 6491SOL    HW130935   0.108   2.771  12.567  1.2831 -1.0630  0.7269
 6491SOL    HW230936   4.689   2.796  12.577  0.6157  0.4646 -1.1236
 6492SOL     OW30937   4.153   2.341   8.565  0.4797  0.1827 -0.1947
 6492SOL    HW130938   4.134   2.319   8.657  0.5233 -2.0335 -0.7125
 6492SOL    HW230939   4.080   2.399   8.543 -1.4498 -2.5424 -1.0047
 6493SOL     OW30940   0.862   0.539  16.781  0.4554 -0.3590 -0.3852
 6493SOL    HW130941   0.785   0.573  16.825 -0.1777 -2.4250  0.1196
 6493SOL    HW230942   0.836   0.447  16.778 -2.2707  0.3950  0.7034
 6494SOL     OW30943   2.778   0.695   2.503 -0.3656  0.0994  0.6017
 6494SOL    HW130944   2.821   0.659   2.581  2.1395 -2.1964 -1.8199
 6494SOL    HW230945   2.823   0.779   2.492  1.4029 -0.8886  0.2492
 6495SOL     OW30946   0.453   0.681   7.177 -0.2992  0.1177  0.3568
 6495SOL    HW130947   0.451   0.608   7.115  0.0175  0.0360  0.4462
 6495SOL    HW230948   0.359   0.686   7.197 -0.2334 -1.5096  1.0235
 6496SOL     OW30949   1.004   0.890   0.365 -0.5941 -0.2761 -0.0062
 6496SOL    HW130950   1.026   0.942   0.288  0.8893 -1.0821 -0.1285
 6496SOL    HW230951   0.946   0.823   0.328 -1.8618  0.6604  0.2952
 6497SOL     OW30952   2.333   1.822   2.286  0.5092  0.2323  0.0226
 6497SOL    HW130953   2.336   1.726   2.289  0.1453  0.1921 -1.1567
 6497SOL    HW230954   2.390   1.844   2.213 -0.1572  3.2582  0.4431
 6498SOL     OW30955   3.466   2.576   7.698 -0.2318  0.4141 -0.2148
 6498SOL    HW130956   3.492   2.631   7.624  0.4564  0.2798 -0.0711
 6498SOL    HW230957   3.515   2.498   7.671 -0.5011  0.3177 -0.4267
 6499SOL     OW30958   4.439   3.587   8.611  0.0621  0.8717 -0.3273
 6499SOL    HW130959   4.523   3.554   8.577 -0.2211  0.4739 -0.6317
 6499SOL    HW230960   4.376   3.528   8.570  2.5757 -2.3066  0.3904
 6500SOL     OW30961   1.950   2.738   9.957 -0.1947 -0.0387 -0.0371
 6500SOL    HW130962   1.992   2.752  10.042 -1.0555 -0.0439  0.3858
 6500SOL    HW230963   1.952   2.828   9.925  0.9992  0.3520  1.1240
 6501SOL     OW30964   3.887   1.746   7.146 -0.0639 -0.1665 -0.0953
 6501SOL    HW130965   3.958   1.697   7.105  0.8865  1.5048 -0.4057
 6501SOL    HW230966   3.896   1.832   7.106 -1.5159  0.8739  1.8290
 6502SOL     OW30967   4.671   4.329  15.007  0.2462 -0.2854  0.4500
 6502SOL    HW130968   4.694   4.364  15.093  1.0534  1.3992 -0.4309
 6502SOL    HW230969   4.628   4.249  15.036  0.7775 -0.6780  0.1661
 6503SOL     OW30970   2.043   0.431   5.269 -0.0232  0.2179  0.3566
 6503SOL    HW130971   2.100   0.494   5.226 -0.7664  0.1662 -0.7103
 6503SOL    HW230972   2.092   0.350   5.263 -0.4001  0.0143 -0.0406
 6504SOL     OW30973   4.197   1.165   3.189 -0.0253 -0.6186  0.4377
 6504SOL    HW130974   4.182   1.081   3.146 -0.7847 -0.9527  1.3322
 6504SOL    HW230975   4.226   1.126   3.272  0.9686 -1.0530 -0.1173
 6505SOL     OW30976   4.010   3.646  16.745 -0.2202  0.1344  0.1642
 6505SOL    HW130977   4.103   3.656  16.764 -0.5857  1.5647  1.1964
 6505SOL    HW230978   3.976   3.734  16.763 -0.4726  0.2601 -0.9237
 6506SOL     OW30979   3.226   2.011  17.345  0.3102 -0.4831  0.7621
 6506SOL    HW130980   3.305   1.975  17.304 -0.3103  0.5737 -1.3495
 6506SOL    HW230981   3.150   1.979  17.297 -0.5559  1.1456  1.0739
 6507SOL     OW30982   1.947   1.928   7.798  0.0030  0.1931  0.2136
 6507SOL    HW130983   1.876   1.863   7.802  0.8165 -0.5330  3.1366
 6507SOL    HW230984   1.932   1.963   7.711  0.6246 -1.0790 -0.4123
 6508SOL     OW30985   0.217   2.349   3.346 -0.3371  0.8629  0.0790
 6508SOL    HW130986   0.197   2.264   3.306  3.0107 -0.0437  0.3191
 6508SOL    HW230987   0.254   2.397   3.272 -1.9038  1.6409 -0.1918
 6509SOL     OW30988   4.047   1.793   5.297 -0.2604 -0.1913 -0.2603
 6509SOL    HW130989   3.997   1.792   5.215 -0.8484  1.3369  0.0642
 6509SOL    HW230990   4.019   1.877   5.335 -0.1193  0.4880 -1.6753
 6510SOL     OW30991   2.370   1.193  10.604 -0.4519 -0.4349 -0.3614
 6510SOL    HW130992   2.456   1.152  10.619  1.5576  4.5295  1.5269
 6510SOL    HW230993   2.373   1.265  10.667 -1.6842  0.3688 -1.2382
 6511SOL     OW30994   1.925   1.488   3.307  0.0216 -0.0256  0.0461
 6511SOL    HW130995   1.966   1.428   3.245 -1.3521 -0.0494 -0.8387
 6511SOL    HW230996   1.971   1.461   3.387 -0.5862  3.3050  1.5101
 6512SOL     OW30997   1.580   3.149  13.440  0.5017 -0.1082  0.2840
 6512SOL    HW130998   1.519   3.094  13.490 -0.9006  1.2214  0.0492
 6512SOL    HW230999   1.631   3.196  13.507  1.5312  0.5163 -0.9305
 6513SOL     OW31000   1.804   4.336  11.945  0.1520  0.3610 -0.2927
 6513SOL    HW131001   1.786   4.390  11.869 -0.0526  0.4752 -0.1650
 6513SOL    HW231002   1.867   4.385  11.998  0.6047 -0.1527 -0.3508
 6514SOL     OW31003   2.387   2.181   3.058 -0.1321 -0.3158  0.2739
 6514SOL    HW131004   2.392   2.095   3.017 -1.9951  0.1085 -0.8382
 6514SOL    HW231005   2.316   2.222   3.010 -0.2036  0.6123  1.1660
 6515SOL     OW31006   0.915   2.525   6.343  0.6256 -0.4097 -0.0495
 6515SOL    HW131007   0.902   2.483   6.428 -0.0357  0.8559  0.4674
 6515SOL    HW231008   1.009   2.539   6.352  0.4026  0.4160  0.9527
 6516SOL     OW31009   4.066   2.435  13.427 -0.2511  0.0367  0.0500
 6516SOL    HW131010   4.149   2.426  13.381 -1.3360  0.4090 -2.0023
 6516SOL    HW231011   4.040   2.344  13.437  2.4075 -0.5780  1.1606
 6517SOL     OW31012   3.961   0.022   1.765  0.2603  0.2731  0.1653
 6517SOL    HW131013   3.974   4.656   1.796 -0.5401  0.7463  1.8286
 6517SOL    HW231014   3.928   0.053   1.849 -0.7017 -1.0722  0.2754
 6518SOL     OW31015   0.267   4.590   6.466  0.4388  0.1517 -0.1235
 6518SOL    HW131016   0.307   4.608   6.381  2.3419  0.7623  0.9008
 6518SOL    HW231017   0.349   4.585   6.515 -0.5354 -0.6043  1.4311
 6519SOL     OW31018   3.929   2.749   0.635  0.7668 -0.2356  0.4655
 6519SOL    HW131019   3.921   2.668   0.586 -4.0482 -0.4890  1.6831
 6519SOL    HW231020   3.989   2.721   0.705 -0.1874  0.5702  1.6146
 6520SOL     OW31021   1.323   1.893   6.472  0.4204 -0.7405 -0.1921
 6520SOL    HW131022   1.359   1.958   6.412  0.0691  0.2543  0.6657
 6520SOL    HW231023   1.366   1.921   6.553 -1.3854 -0.8287  0.8102
 6521SOL     OW31024   0.653   1.216   9.028 -1.0146 -0.8232  0.3698
 6521SOL    HW131025   0.721   1.223   8.961 -2.4861  3.7367 -0.6816
 6521SOL    HW231026   0.595   1.289   9.005 -1.0893 -0.1934  2.5172
 6522SOL     OW31027   4.606   4.644  14.975  0.5730  0.5242 -0.3001
 6522SOL    HW131028   4.610   0.013  14.951  0.0014  0.3842 -0.9277
 6522SOL    HW231029   4.655   4.643  15.057  1.8106 -2.7260 -1.0634
 6523SOL     OW31030   4.616   0.570   2.912  0.5837 -0.3036 -0.2017
 6523SOL    HW131031   4.564   0.582   2.833  0.5271 -1.0394 -0.2789
 6523SOL    HW231032   4.582   0.637   2.972  1.8847 -0.8552  1.1582
 6524SOL     OW31033   4.635   1.714   6.835  0.3125  0.7492 -0.0576
 6524SOL    HW131034   4.570   1.694   6.902 -0.3994  0.8563 -0.7129
 6524SOL    HW231035   4.675   1.793   6.871 -0.4774  0.6118  1.1265
 6525SOL     OW31036   4.567   2.581   6.090  0.1098 -0.3498 -0.5215
 6525SOL    HW131037   4.483   2.626   6.078  0.6646  0.9169  0.3176
 6525SOL    HW231038   4.623   2.659   6.095 -0.2480 -0.0332 -1.4573
 6526SOL     OW31039   1.887   0.781   5.437  0.1778 -0.3050 -0.3048
 6526SOL    HW131040   1.830   0.787   5.513 -1.2151 -1.5494 -1.2590
 6526SOL    HW231041   1.839   0.738   5.366  0.2780 -0.2559 -0.4045
 6527SOL     OW31042   1.726   3.413   9.134  0.2184 -0.3945  0.2157
 6527SOL    HW131043   1.774   3.369   9.204 -0.6936 -2.0509 -0.2086
 6527SOL    HW231044   1.647   3.448   9.174 -1.1735 -2.7557 -0.4484
 6528SOL     OW31045   1.471   0.023   4.884 -0.5358  0.4887  0.2771
 6528SOL    HW131046   1.387   0.010   4.928 -0.5670  1.0165  0.3737
 6528SOL    HW231047   1.503   0.094   4.939  0.5347 -0.1479  0.4861
 6529SOL     OW31048   0.857   4.056  16.078  0.0316 -0.1051 -0.5575
 6529SOL    HW131049   0.903   3.984  16.121  0.1771 -0.7924 -1.8643
 6529SOL    HW231050   0.906   4.057  15.996 -2.9926  0.8797 -2.3636
 6530SOL     OW31051   1.261   0.229   6.493  0.6932  0.0629  0.2361
 6530SOL    HW131052   1.324   0.299   6.510 -2.6104  2.7359  1.3650
 6530SOL    HW231053   1.297   0.199   6.409  0.2192 -2.8681  1.0822
 6531SOL     OW31054   4.344   4.381   7.583 -0.6590 -0.0273 -0.2581
 6531SOL    HW131055   4.267   4.324   7.577 -0.3166 -0.1991 -3.1966
 6531SOL    HW231056   4.411   4.321   7.549 -0.5650 -0.1149  0.0809
 6532SOL     OW31057   0.086   1.321   7.104  0.1217 -0.6442 -0.0645
 6532SOL    HW131058   0.023   1.321   7.176 -1.4101  0.4189 -1.4188
 6532SOL    HW231059   0.104   1.412   7.080 -1.1089 -0.1492  0.9365
 6533SOL     OW31060   0.500   0.814   9.742 -0.1767  0.7373 -0.4913
 6533SOL    HW131061   0.591   0.839   9.725  0.9523 -2.2295  1.0970
 6533SOL    HW231062   0.486   0.737   9.688  2.7367 -0.1792  0.0342
 6534SOL     OW31063   4.724   4.328   2.455  0.7442  0.3786  0.1470
 6534SOL    HW131064   4.669   4.252   2.435  0.2025  0.5496  0.9465
 6534SOL    HW231065   4.680   4.401   2.411 -0.4238 -0.4165 -0.0223
 6535SOL     OW31066   1.319   0.499  13.859 -0.2489 -0.1721  0.1929
 6535SOL    HW131067   1.384   0.546  13.807 -1.2794  0.5970 -0.3858
 6535SOL    HW231068   1.383   0.440  13.898 -0.5699  0.5972  1.8877
 6536SOL     OW31069   3.438   0.384   6.054  0.1787 -0.4224  0.6129
 6536SOL    HW131070   3.430   0.458   5.994  4.0362  0.6077  1.3741
 6536SOL    HW231071   3.350   0.346   6.051  0.2652 -0.5268 -0.7783
 6537SOL     OW31072   1.338   2.285   5.805  0.1478 -0.0967 -0.2362
 6537SOL    HW131073   1.329   2.206   5.751 -0.7324  0.7689 -1.3640
 6537SOL    HW231074   1.421   2.272   5.851 -0.5948 -0.5366  0.9701
 6538SOL     OW31075   4.521   1.056   6.785  0.2273 -0.2600  0.1151
 6538SOL    HW131076   4.531   1.007   6.703  0.2626  1.1085 -0.6977
 6538SOL    HW231077   4.615   1.071   6.794  0.2721 -0.6796  0.3449
 6539SOL     OW31078   0.696   0.709   5.782 -0.3304 -0.1422 -0.2288
 6539SOL    HW131079   0.657   0.658   5.853  0.8471 -1.8447 -0.8124
 6539SOL    HW231080   0.790   0.696   5.793 -0.6962 -0.9909  1.9496
 6540SOL     OW31081   3.550   0.188   1.922  0.1596  0.0561  0.3400
 6540SOL    HW131082   3.503   0.109   1.951 -1.0648  0.9376  0.7582
 6540SOL    HW231083   3.527   0.187   1.830  0.2714  1.7933  0.3088
 6541SOL     OW31084   1.204   3.828   5.265  0.0168 -0.4668  0.4007
 6541SOL    HW131085   1.174   3.745   5.302  2.2756 -1.5424 -0.2195
 6541SOL    HW231086   1.267   3.856   5.331  0.8246 -0.8150 -0.2124
 6542SOL     OW31087   0.492   1.455   0.848 -0.2196  0.2830  0.1601
 6542SOL    HW131088   0.576   1.409   0.838 -0.8000 -1.1902  2.0613
 6542SOL    HW231089   0.423   1.389   0.841 -0.3448  0.3870  0.4539
 6543SOL     OW31090   1.712   3.627  15.125 -0.0836 -0.1821  0.0729
 6543SOL    HW131091   1.624   3.652  15.098  0.7009  2.1609 -0.3692
 6543SOL    HW231092   1.754   3.637  15.040 -1.9689  0.2302 -0.8102
 6544SOL     OW31093   1.427   0.589  12.268 -0.0619  0.4452  0.2483
 6544SOL    HW131094   1.334   0.573  12.256  0.0436 -0.0519  0.1152
 6544SOL    HW231095   1.452   0.551  12.352  0.7330  1.0666  0.2983
 6545SOL     OW31096   2.262   0.657   7.355 -0.2757  0.0739 -0.1013
 6545SOL    HW131097   2.306   0.580   7.393  0.0662  0.7451  0.8500
 6545SOL    HW231098   2.276   0.634   7.263  2.9582  2.1418 -0.1412
 6546SOL     OW31099   0.153   4.700   4.245  0.1108 -0.1519 -0.8975
 6546SOL    HW131100   0.248   4.701   4.261  0.1538  2.9157 -1.1641
 6546SOL    HW231101   0.145   4.639   4.172 -0.3925 -1.3462  0.1568
 6547SOL     OW31102   1.635   4.200  10.668 -0.0452  0.3148  0.1866
 6547SOL    HW131103   1.628   4.178  10.576 -1.4577  0.4119  0.2780
 6547SOL    HW231104   1.581   4.139  10.718 -1.2396  1.1887 -0.0546
 6548SOL     OW31105   1.721   1.912   3.334  0.4204 -0.1689 -0.1680
 6548SOL    HW131106   1.656   1.952   3.393  2.3011  0.5462  1.4058
 6548SOL    HW231107   1.797   1.965   3.355 -0.5561  0.9268  0.6422
 6549SOL     OW31108   3.673   2.577   4.597  0.0042 -0.4888  0.3627
 6549SOL    HW131109   3.578   2.565   4.597 -0.1797  0.7886 -1.6942
 6549SOL    HW231110   3.677   2.669   4.625 -2.5374  0.0100 -0.8075
 6550SOL     OW31111   2.441   2.685   3.645 -0.1405  0.4801  0.0723
 6550SOL    HW131112   2.530   2.665   3.617 -0.4464 -2.3424  1.1688
 6550SOL    HW231113   2.458   2.752   3.712  1.1307  1.7702 -1.5357
 6551SOL     OW31114   1.609   0.088   6.115  0.7032 -0.1126 -0.0337
 6551SOL    HW131115   1.646   0.032   6.183  1.5017 -1.8333 -1.8938
 6551SOL    HW231116   1.611   0.168   6.169  1.5919 -2.2399  3.1041
 6552SOL     OW31117   1.973   1.674  16.579  0.0738  0.2964  0.3576
 6552SOL    HW131118   2.004   1.584  16.567 -1.3359  0.0048 -0.9297
 6552SOL    HW231119   2.019   1.716  16.507  1.2207  2.9782  2.6353
 6553SOL     OW31120   1.058   3.258  16.706  0.2280  0.0712  0.0033
 6553SOL    HW131121   1.104   3.288  16.785 -0.6002  3.5769 -0.8549
 6553SOL    HW231122   1.131   3.208  16.670 -0.8408 -1.9973  0.6808
 6554SOL     OW31123   4.685   4.079   8.739 -0.1720  0.6060  0.0142
 6554SOL    HW131124   4.636   3.998   8.753 -0.9236  1.0396 -0.0396
 6554SOL    HW231125   4.662   4.098   8.648  0.9499  0.3240 -0.3245
 6555SOL     OW31126   2.394   0.984   1.434  0.2346  0.3509  0.4689
 6555SOL    HW131127   2.463   1.040   1.398 -1.5856  1.0199 -1.9878
 6555SOL    HW231128   2.312   1.034   1.428 -0.3094 -0.8106 -1.4095
 6556SOL     OW31129   0.625   3.584  15.148 -0.0165  0.4975 -0.2388
 6556SOL    HW131130   0.652   3.670  15.116  0.6396  0.6138  0.6238
 6556SOL    HW231131   0.537   3.567  15.115 -0.4113  1.5462  0.2734
 6557SOL     OW31132   0.648   1.605   2.776 -0.2724  0.2528 -0.3422
 6557SOL    HW131133   0.649   1.618   2.682  0.3071  1.1517 -0.2054
 6557SOL    HW231134   0.563   1.560   2.784  0.6474 -1.4307  0.0603
 6558SOL     OW31135   1.125   3.084   6.208 -0.4924  0.4531 -0.5896
 6558SOL    HW131136   1.155   3.002   6.168  1.9170  0.6839  0.7758
 6558SOL    HW231137   1.182   3.092   6.285 -2.4143  0.9720  0.7754
 6559SOL     OW31138   0.497   3.515   6.691  0.0648  0.7610  0.6639
 6559SOL    HW131139   0.444   3.473   6.759 -1.2300  2.1284  0.4756
 6559SOL    HW231140   0.483   3.606   6.715 -1.7532  0.8237 -0.6324
 6560SOL     OW31141   1.138   2.414   2.338 -0.4534  0.0077 -0.2050
 6560SOL    HW131142   1.187   2.365   2.404  3.3621  2.4552 -1.2483
 6560SOL    HW231143   1.054   2.367   2.341 -0.0767 -0.6335  0.3566
 6561SOL     OW31144   4.168   2.384   5.304  0.8279 -0.0413 -0.1245
 6561SOL    HW131145   4.128   2.308   5.347 -0.0854  1.0954  1.0371
 6561SOL    HW231146   4.101   2.400   5.238 -0.4465  0.4497  1.2891
 6562SOL     OW31147   2.918   3.936   6.574  0.2273 -0.5979 -0.6412
 6562SOL    HW131148   2.851   4.005   6.579 -0.5162 -1.3514 -0.3124
 6562SOL    HW231149   2.982   3.978   6.631 -0.4853  0.9700 -0.9917
 6563SOL     OW31150   3.208   2.452   5.516 -0.3737  0.2810 -0.8211
 6563SOL    HW131151   3.274   2.386   5.493 -0.1621  0.0446  0.4781
 6563SOL    HW231152   3.236   2.538   5.484  0.3285  0.4239  0.1784
 6564SOL     OW31153   4.076   0.919   6.851 -0.4594  0.2063  0.1241
 6564SOL    HW131154   4.155   0.870   6.827 -0.4996  0.5336 -0.6941
 6564SOL    HW231155   4.107   0.984   6.913  0.4821 -0.5970  0.4882
 6565SOL     OW31156   2.379   3.355  11.334  0.2219  0.1251 -0.5219
 6565SOL    HW131157   2.381   3.340  11.240  3.7882  0.5198 -0.5058
 6565SOL    HW231158   2.399   3.449  11.342 -1.5583  0.5814 -1.3667
 6566SOL     OW31159   3.453   3.442   7.941  0.1292  0.1203 -0.1983
 6566SOL    HW131160   3.365   3.459   7.974  0.7428  2.7296  0.1110
 6566SOL    HW231161   3.502   3.465   8.020  0.0705  0.8709 -0.3784
 6567SOL     OW31162   1.284   4.101   1.063 -0.2957 -0.2390  0.0556
 6567SOL    HW131163   1.192   4.124   1.072 -1.1027 -1.8306 -3.8059
 6567SOL    HW231164   1.297   4.109   0.968 -0.5295  0.5204  0.0872
 6568SOL     OW31165   3.690   3.386   5.260 -0.4311 -0.9294  0.6642
 6568SOL    HW131166   3.668   3.327   5.332  2.7017 -0.9228  1.6398
 6568SOL    HW231167   3.785   3.391   5.264 -0.4268  1.5589 -2.9280
 6569SOL     OW31168   4.581   4.058  15.084 -0.5050 -0.3625 -0.0277
 6569SOL    HW131169   4.514   4.085  15.020 -0.7516  1.3735  0.9592
 6569SOL    HW231170   4.538   3.983  15.124 -1.8524  0.1539 -0.4951
 6570SOL     OW31171   2.425   1.433   3.709  0.2551 -0.2512 -0.0966
 6570SOL    HW131172   2.503   1.404   3.756  0.4806  2.0611  0.9128
 6570SOL    HW231173   2.450   1.523   3.688  1.4576 -0.6963 -0.5728
 6571SOL     OW31174   4.441   1.457   6.214  0.1723  0.1679  0.0589
 6571SOL    HW131175   4.504   1.476   6.144 -1.2419  0.0252 -1.2689
 6571SOL    HW231176   4.354   1.446   6.176 -0.2534 -0.1964  1.1317
 6572SOL     OW31177   1.619   3.074   7.830 -0.1230 -0.4137 -0.3289
 6572SOL    HW131178   1.612   3.150   7.773 -0.0180  1.1688  1.7615
 6572SOL    HW231179   1.685   3.098   7.895 -0.3137 -0.7158 -0.0239
 6573SOL     OW31180   0.864   1.668   5.678 -0.1056  0.7108 -0.2720
 6573SOL    HW131181   0.843   1.665   5.771 -1.0696  0.0307 -0.5049
 6573SOL    HW231182   0.897   1.758   5.677  0.4353  0.5110  0.5110
 6574SOL     OW31183   3.107   3.677   6.479  0.0272  0.4263  0.3273
 6574SOL    HW131184   3.012   3.688   6.492 -0.3197 -1.8144 -0.4768
 6574SOL    HW231185   3.099   3.595   6.431 -0.1570  0.4799  0.2636
 6575SOL     OW31186   2.497   2.998  10.343  0.1626 -0.1926  0.3822
 6575SOL    HW131187   2.525   2.941  10.271 -0.3962 -1.3114  1.0627
 6575SOL    HW231188   2.481   3.083  10.302 -0.4739 -0.5962 -0.2018
 6576SOL     OW31189   1.467   2.467   3.964  0.3763 -0.3320  0.3125
 6576SOL    HW131190   1.535   2.399   3.969 -1.7092 -2.5665 -1.9718
 6576SOL    HW231191   1.515   2.541   3.927  0.6812 -1.0715 -0.7531
 6577SOL     OW31192   2.694   3.400   3.015 -0.3474  0.5899  0.5708
 6577SOL    HW131193   2.745   3.348   3.077  1.2536  1.3650 -0.0684
 6577SOL    HW231194   2.618   3.425   3.067 -1.4012 -0.0985 -0.6502
 6578SOL     OW31195   1.850   1.380  17.653 -0.0899 -0.6993 -0.2835
 6578SOL    HW131196   1.807   1.439  17.591 -0.4208 -0.7588 -0.1089
 6578SOL    HW231197   1.874   1.434   0.031 -2.2107 -1.7890  1.1865
 6579SOL     OW31198   3.431   0.767  10.404 -0.3863 -0.6579 -0.4865
 6579SOL    HW131199   3.390   0.741  10.321 -0.1277 -1.6798 -0.2915
 6579SOL    HW231200   3.465   0.686  10.441 -1.2510 -0.3426  1.0002
 6580SOL     OW31201   2.505   2.178   2.040  0.2858 -0.2430  0.0216
 6580SOL    HW131202   2.570   2.188   1.971  1.0612  1.7850  1.0400
 6580SOL    HW231203   2.431   2.202   1.985 -0.1585  0.5256  0.9519
 6581SOL     OW31204   3.619   1.889   8.198  0.0844  0.1834 -0.2704
 6581SOL    HW131205   3.652   1.820   8.255 -2.0870  0.0984  0.8789
 6581SOL    HW231206   3.680   1.958   8.224 -0.5435  0.3816  0.6814
 6582SOL     OW31207   2.223   2.006   9.079  0.2273 -0.0951  0.4858
 6582SOL    HW131208   2.137   1.972   9.056 -0.6127  2.4274 -0.0358
 6582SOL    HW231209   2.206   2.052   9.161 -1.6851 -2.7092  1.5443
 6583SOL     OW31210   1.276   0.812   6.304 -0.2392 -0.2637  0.3294
 6583SOL    HW131211   1.251   0.730   6.348 -1.0212  0.1138  0.5990
 6583SOL    HW231212   1.197   0.867   6.309  1.0785  1.6519 -0.0784
 6584SOL     OW31213   0.614   0.909   5.089  0.1806 -0.1280  0.2983
 6584SOL    HW131214   0.674   0.921   5.163  0.7694  0.6283 -0.2958
 6584SOL    HW231215   0.622   1.000   5.061  1.0911 -0.7105 -1.3219
 6585SOL     OW31216   0.154   2.096   6.861  0.2668 -0.5836 -0.3628
 6585SOL    HW131217   0.180   2.019   6.912  1.3500 -0.3160 -0.5125
 6585SOL    HW231218   0.065   2.067   6.841 -0.8519  0.0153  3.7521
 6586SOL     OW31219   0.574   4.684   3.501  0.3490 -0.3277  0.1001
 6586SOL    HW131220   0.513   4.610   3.498  0.1383 -0.2045  1.3858
 6586SOL    HW231221   0.557   4.716   3.589 -1.1843 -1.4543  0.2238
 6587SOL     OW31222   0.531   2.961   3.719  0.6479  0.1292 -0.1230
 6587SOL    HW131223   0.575   2.999   3.643  0.5854  0.4693  0.0099
 6587SOL    HW231224   0.484   2.883   3.690 -0.9499  1.3096 -0.6999
 6588SOL     OW31225   3.791   2.145   7.583 -0.0382  0.4045  0.0830
 6588SOL    HW131226   3.713   2.108   7.624 -0.6222 -0.3337 -1.7133
 6588SOL    HW231227   3.832   2.191   7.656  1.1118  0.7534 -0.7821
 6589SOL     OW31228   1.020   4.416  10.173 -0.2404 -0.1227  0.0469
 6589SOL    HW131229   1.070   4.441  10.251 -3.1666  0.3977  1.7571
 6589SOL    HW231230   1.084   4.437  10.105 -0.3308  1.0126  0.3073
 6590SOL     OW31231   1.433   4.067  10.791  0.0620 -0.7324 -0.1070
 6590SOL    HW131232   1.363   4.117  10.834 -0.9971 -1.5696 -0.8655
 6590SOL    HW231233   1.390   4.030  10.714 -2.7089  2.3130 -0.0262
 6591SOL     OW31234   0.239   2.101   7.230 -0.0393 -0.7230  0.3038
 6591SOL    HW131235   0.289   2.178   7.204  0.5190 -0.7362  1.3371
 6591SOL    HW231236   0.285   2.026   7.191  0.3430  0.8553 -2.2633
 6592SOL     OW31237   1.582   1.611   7.087 -0.2571 -0.4412  0.1892
 6592SOL    HW131238   1.590   1.701   7.056 -0.4397 -0.6390 -0.4314
 6592SOL    HW231239   1.584   1.629   7.181  0.2017 -0.0293  0.1006
 6593SOL     OW31240   4.075   3.066   3.875 -0.2778 -0.2674 -0.4005
 6593SOL    HW131241   4.113   2.986   3.912 -1.2589  0.3410  1.9646
 6593SOL    HW231242   4.041   3.030   3.794 -0.2382 -1.4187  0.0896
 6594SOL     OW31243   2.061   3.326   5.454 -0.6691  0.3465  0.4715
 6594SOL    HW131244   2.089   3.331   5.362  0.0671  1.3867  0.7449
 6594SOL    HW231245   2.047   3.232   5.455 -1.6624  0.4684 -0.8825
 6595SOL     OW31246   0.614   2.138   1.621 -0.0501 -0.2140  0.5741
 6595SOL    HW131247   0.602   2.167   1.530 -0.6429 -0.5073  0.5552
 6595SOL    HW231248   0.527   2.156   1.658 -0.2285 -0.7564  0.4143
 6596SOL     OW31249   0.295   1.050   0.464 -0.5753 -0.7350  0.5156
 6596SOL    HW131250   0.219   1.007   0.425 -1.8093  2.0050 -0.0927
 6596SOL    HW231251   0.328   1.114   0.401  0.9084  0.0756  2.1252
 6597SOL     OW31252   2.114   4.023  10.959  0.3633  0.7714  0.1830
 6597SOL    HW131253   2.043   3.960  10.952  0.8799  0.5603 -2.9158
 6597SOL    HW231254   2.123   4.061  10.872 -0.2621 -0.7483 -0.5269
 6598SOL     OW31255   1.698   3.882   7.288  0.0590  0.3726  0.6086
 6598SOL    HW131256   1.786   3.913   7.309 -0.0573 -0.6159  2.6539
 6598SOL    HW231257   1.707   3.789   7.307  4.0508  0.3644 -1.4888
 6599SOL     OW31258   1.404   2.681   4.187  0.0896  0.0349  0.0912
 6599SOL    HW131259   1.374   2.611   4.130  1.3473 -0.2399 -0.2161
 6599SOL    HW231260   1.446   2.635   4.259 -0.8554 -0.7913  0.1139
 6600SOL     OW31261   0.911   3.371  16.359  0.5650  0.1524  0.1827
 6600SOL    HW131262   0.830   3.358  16.310  1.1739 -0.6031 -0.6462
 6600SOL    HW231263   0.924   3.277  16.374  1.0940  0.5172  1.9918
 6601SOL     OW31264   0.602   0.661  12.868 -0.2441 -0.0469  0.2272
 6601SOL    HW131265   0.626   0.748  12.836 -3.2583  1.4159  1.9502
 6601SOL    HW231266   0.515   0.684  12.901 -0.6008 -1.1922  0.0901
 6602SOL     OW31267   4.652   1.479   3.047 -0.2271 -0.7743 -0.3183
 6602SOL    HW131268   4.686   1.476   2.958  1.0992  0.0350  0.1621
 6602SOL    HW231269   4.566   1.440   3.032  0.2518 -1.1488 -2.1215
 6603SOL     OW31270   4.430   1.231   8.972 -0.6012  0.3296 -0.0420
 6603SOL    HW131271   4.464   1.311   9.012 -0.3887 -0.3259  1.0751
 6603SOL    HW231272   4.399   1.180   9.047 -1.9094 -0.5716 -1.1994
 6604SOL     OW31273   3.296   0.341   6.747  0.1649  0.2819 -0.1621
 6604SOL    HW131274   3.368   0.325   6.808 -0.7922  0.6456  1.0718
 6604SOL    HW231275   3.240   0.263   6.743 -0.4540  0.7248 -0.0055
 6605SOL     OW31276   2.160   4.131   9.366  0.0208  0.1717  0.1695
 6605SOL    HW131277   2.227   4.064   9.380 -0.9182 -0.8204 -0.0820
 6605SOL    HW231278   2.183   4.195   9.433 -1.8309  0.0834  0.8836
 6606SOL     OW31279   0.875   2.022  11.196  0.4856  0.2008 -0.2109
 6606SOL    HW131280   0.812   2.010  11.267  1.2799 -0.8639  0.3066
 6606SOL    HW231281   0.930   2.087  11.239  0.4810  0.8456 -1.1818
 6607SOL     OW31282   1.165   1.873   7.969  0.1674  0.4557  0.1330
 6607SOL    HW131283   1.234   1.939   7.962  0.8807 -0.6515 -3.1129
 6607SOL    HW231284   1.092   1.932   7.950 -0.9187 -1.2845 -1.0826
 6608SOL     OW31285   2.767   1.836   3.274  0.1210  0.0894  0.4796
 6608SOL    HW131286   2.713   1.866   3.201  0.2304 -0.2346  0.2686
 6608SOL    HW231287   2.851   1.814   3.232 -0.4746 -0.3255 -0.4854
 6609SOL     OW31288   0.009   2.691  17.623  0.0983  0.6605  0.0843
 6609SOL    HW131289   0.046   2.651  17.544  0.2356  0.6304  0.1638
 6609SOL    HW231290   0.087   2.685  17.678 -0.2273 -1.7525  0.3069
 6610SOL     OW31291   2.936   1.461   6.861  0.0041 -1.1012  0.3606
 6610SOL    HW131292   2.981   1.386   6.901  1.3042 -1.2847 -1.4193
 6610SOL    HW231293   3.008   1.524   6.871 -0.4705 -0.5912  0.5466
 6611SOL     OW31294   4.621   3.808  15.351 -0.5244 -0.2356 -0.0455
 6611SOL    HW131295   4.566   3.850  15.417 -0.8550 -0.4539 -0.1816
 6611SOL    HW231296   4.575   3.830  15.270 -0.3690  0.1665 -0.0266
 6612SOL     OW31297   4.376   2.920   5.730 -0.4367  0.5200  0.0203
 6612SOL    HW131298   4.434   2.971   5.787  1.2490 -0.4514 -0.8113
 6612SOL    HW231299   4.300   2.977   5.729 -0.2282  0.7783 -1.1376
 6613SOL     OW31300   1.248   0.990   8.251  0.4630  0.0038  0.0498
 6613SOL    HW131301   1.334   1.022   8.278 -1.0123  2.2838  2.0235
 6613SOL    HW231302   1.277   0.930   8.182  0.1436 -1.3771  1.1315
 6614SOL     OW31303   2.228   4.307   7.244 -0.6837  0.4283  0.5513
 6614SOL    HW131304   2.229   4.220   7.284 -1.7298 -0.2058 -0.8293
 6614SOL    HW231305   2.270   4.287   7.161 -1.2440  1.9966 -0.1206
 6615SOL     OW31306   4.682   1.383   2.300 -0.2277 -1.0179 -0.6938
 6615SOL    HW131307   4.617   1.352   2.237 -1.9688 -0.3794  0.7909
 6615SOL    HW231308   0.003   1.451   2.250 -1.8732  0.4061 -0.2381
 6616SOL     OW31309   3.125   2.766  16.489 -0.2035  0.1808  0.2285
 6616SOL    HW131310   3.101   2.821  16.564 -1.3701  2.5080 -1.8317
 6616SOL    HW231311   3.162   2.836  16.434 -0.3368 -0.0050 -0.0975
 6617SOL     OW31312   3.210   3.520   6.689 -0.4465  0.1498 -0.0982
 6617SOL    HW131313   3.275   3.482   6.630 -1.3824  0.4542 -1.3246
 6617SOL    HW231314   3.159   3.574   6.628 -0.1935  2.1525  1.4666
 6618SOL     OW31315   2.331   1.403  12.491 -0.0977 -0.2325  0.4404
 6618SOL    HW131316   2.338   1.472  12.557 -3.6248  0.0375  0.5246
 6618SOL    HW231317   2.412   1.355  12.507  0.3479  0.4909  0.3451
 6619SOL     OW31318   3.978   0.297  14.140 -0.1776  0.1117 -0.7665
 6619SOL    HW131319   3.885   0.279  14.123 -0.5677  2.0878 -0.8185
 6619SOL    HW231320   4.005   0.293  14.048  1.2906 -0.5268 -0.2976
 6620SOL     OW31321   4.250   0.485   7.827 -0.2164  0.9767 -0.3250
 6620SOL    HW131322   4.163   0.451   7.803  0.9661 -1.2812 -1.4254
 6620SOL    HW231323   4.246   0.577   7.802 -0.7745  0.4410 -2.2599
 6621SOL     OW31324   2.581   2.376   3.136  0.7115  0.1439  0.1130
 6621SOL    HW131325   2.644   2.331   3.081 -0.0013  0.9696 -1.3800
 6621SOL    HW231326   2.500   2.346   3.094  0.8585  1.7851 -1.3432
 6622SOL     OW31327   2.062   3.022   7.820  0.2288  0.7370 -0.1027
 6622SOL    HW131328   2.142   3.033   7.873 -0.5948  1.1272  1.0655
 6622SOL    HW231329   2.014   2.950   7.861 -0.2985  0.9312 -0.3793
 6623SOL     OW31330   2.086   4.198  13.917 -0.2021  0.5485  0.3017
 6623SOL    HW131331   2.003   4.172  13.957 -0.4371  0.4335 -0.2734
 6623SOL    HW231332   2.091   4.139  13.842  1.9533  0.2056  0.7090
 6624SOL     OW31333   0.176   3.055   3.305  0.1601 -0.4405  0.2195
 6624SOL    HW131334   0.253   3.047   3.361 -0.6574 -3.2308  0.9606
 6624SOL    HW231335   0.161   2.961   3.292 -1.8841  0.0802 -1.2328
 6625SOL     OW31336   0.057   2.644   4.446 -0.1683 -0.4172 -0.4569
 6625SOL    HW131337   0.123   2.659   4.378 -1.1977  0.0330 -1.3614
 6625SOL    HW231338   4.715   2.705   4.411 -1.0050 -0.5499  0.8945
 6626SOL     OW31339   2.124   1.682  14.279  0.1133 -0.3823  0.2357
 6626SOL    HW131340   2.157   1.763  14.240  1.6413  0.0975  2.4963
 6626SOL    HW231341   2.058   1.665  14.213 -2.2752  1.2417  2.2231
 6627SOL     OW31342   3.118   0.952   8.144  0.8349  0.0661  0.3107
 6627SOL    HW131343   3.067   0.946   8.225  0.3696  1.3588  0.1114
 6627SOL    HW231344   3.145   1.043   8.146 -0.1614  0.4359 -3.8778
 6628SOL     OW31345   1.087   4.403   5.060  0.3085  0.0875 -0.3513
 6628SOL    HW131346   1.177   4.404   5.027  1.3911  0.0738  2.6481
 6628SOL    HW231347   1.087   4.492   5.096  0.3789 -0.1139  0.1472
 6629SOL     OW31348   4.381   3.794   3.866  0.3208 -0.1214 -0.2957
 6629SOL    HW131349   4.395   3.703   3.839  0.8498  0.6160 -2.5009
 6629SOL    HW231350   4.468   3.830   3.848  0.0211  1.4463  1.3476
 6630SOL     OW31351   3.557   3.544   8.180 -0.5055 -0.5139  0.2429
 6630SOL    HW131352   3.500   3.603   8.230 -1.3953 -1.6732  0.5883
 6630SOL    HW231353   3.617   3.510   8.246 -0.3033 -1.4455 -0.4281
 6631SOL     OW31354   0.905   4.517   2.182  0.0669 -0.1817  0.2591
 6631SOL    HW131355   0.965   4.563   2.123  1.6333 -1.4773  0.8033
 6631SOL    HW231356   0.946   4.536   2.266  0.1514 -0.7001  0.3368
 6632SOL     OW31357   2.791   4.597  14.813 -0.1596 -0.2645 -0.5723
 6632SOL    HW131358   2.764   4.532  14.878  0.2858 -3.4613 -3.5877
 6632SOL    HW231359   2.880   4.619  14.839 -0.1106 -1.1457 -0.0095
 6633SOL     OW31360   2.094   3.512   4.905  0.3894 -0.1003  0.2338
 6633SOL    HW131361   2.006   3.546   4.894  0.6115 -0.4274 -2.4482
 6633SOL    HW231362   2.091   3.437   4.846  1.8791  0.6359 -0.7947
 6634SOL     OW31363   3.696   1.390   4.321 -0.3552  0.0782 -0.8906
 6634SOL    HW131364   3.710   1.309   4.370 -1.4728  0.3022 -0.1756
 6634SOL    HW231365   3.643   1.446   4.379  0.0016 -0.5810  0.0624
 6635SOL     OW31366   3.800   1.871   2.089  0.0003 -0.6810 -0.1259
 6635SOL    HW131367   3.809   1.914   2.174  2.8175 -1.5715  0.0273
 6635SOL    HW231368   3.706   1.854   2.087  0.0989 -1.3716  1.2216
 6636SOL     OW31369   2.176   4.091   2.689  0.3991 -0.0368  0.2294
 6636SOL    HW131370   2.164   4.065   2.598  0.0569 -0.4482  0.3898
 6636SOL    HW231371   2.170   4.186   2.684  1.8224  0.0259 -0.0876
 6637SOL     OW31372   2.797   1.727   6.649  0.1463 -0.1230 -0.0049
 6637SOL    HW131373   2.817   1.750   6.558  1.4841 -2.6097 -0.3357
 6637SOL    HW231374   2.869   1.774   6.692  0.0112 -0.8972  1.0656
 6638SOL     OW31375   3.753   2.155  16.684 -0.3743  0.3593  0.1600
 6638SOL    HW131376   3.769   2.065  16.714  0.5509  0.2377 -0.7025
 6638SOL    HW231377   3.694   2.192  16.750  0.1150 -0.3942  1.0200
 6639SOL     OW31378   3.646   2.816   2.331  0.1568 -0.0129  0.9369
 6639SOL    HW131379   3.715   2.840   2.392  0.3333 -2.4662  1.6966
 6639SOL    HW231380   3.691   2.757   2.272  0.1310 -0.4217  1.3291
 6640SOL     OW31381   2.621   0.271   5.144 -0.3837 -0.3857  0.1923
 6640SOL    HW131382   2.575   0.310   5.218 -1.5315  2.3958 -1.9654
 6640SOL    HW231383   2.664   0.197   5.187 -0.5708 -1.4592 -1.4356
 6641SOL     OW31384   3.436   0.623  13.258  0.0061 -0.7341 -0.2258
 6641SOL    HW131385   3.466   0.534  13.274 -0.4291 -0.7537  0.5182
 6641SOL    HW231386   3.349   0.613  13.219 -0.8492  2.0720  0.9747
 6642SOL     OW31387   3.729   3.160   0.662  0.4099 -0.3753 -0.7330
 6642SOL    HW131388   3.674   3.209   0.601 -0.5088 -1.9938 -1.2146
 6642SOL    HW231389   3.670   3.165   0.737  3.0850 -0.6231  1.3655
 6643SOL     OW31390   3.244   2.095   4.010  0.4368 -0.6791  0.8909
 6643SOL    HW131391   3.330   2.054   4.008  1.6347  1.9519 -0.7738
 6643SOL    HW231392   3.260   2.187   4.031 -0.7480  0.0669 -1.5428
 6644SOL     OW31393   3.064   1.040   7.051 -0.4780  0.4832  0.1928
 6644SOL    HW131394   3.046   1.041   6.957  1.4637  2.5728 -0.1741
 6644SOL    HW231395   3.091   0.948   7.051 -0.6499  0.4331  0.6946
 6645SOL     OW31396   4.573   3.884   6.938 -0.2437  0.2578  0.0821
 6645SOL    HW131397   4.655   3.859   6.895 -1.4873 -2.7431 -0.5522
 6645SOL    HW231398   4.513   3.873   6.864 -0.9841  0.0859  0.7048
 6646SOL     OW31399   0.835   2.771   5.043 -0.3584  0.5295 -0.2652
 6646SOL    HW131400   0.766   2.788   4.978 -0.0605  1.6156 -0.2831
 6646SOL    HW231401   0.785   2.754   5.123  1.7147 -3.1845  0.2275
 6647SOL     OW31402   2.544   3.260   5.845 -0.3897 -0.2303  0.0297
 6647SOL    HW131403   2.592   3.204   5.784  0.3863  1.2363 -0.7161
 6647SOL    HW231404   2.506   3.321   5.782  1.1053  1.9955  1.2818
 6648SOL     OW31405   4.342   3.156   7.100  0.1005 -0.3516  0.0198
 6648SOL    HW131406   4.354   3.216   7.026  4.6903 -2.3782 -0.8697
 6648SOL    HW231407   4.392   3.079   7.073  0.4349  0.1458 -0.8008
 6649SOL     OW31408   1.301   2.478   1.681  0.2447  0.3143 -0.3024
 6649SOL    HW131409   1.321   2.551   1.622  0.4257 -1.9185 -3.0168
 6649SOL    HW231410   1.345   2.402   1.643  0.2579  0.4948 -0.6533
 6650SOL     OW31411   2.966   1.143  13.102  0.1784 -0.5525 -0.5413
 6650SOL    HW131412   3.041   1.154  13.044  0.8843 -0.1802  0.4523
 6650SOL    HW231413   2.966   1.049  13.082 -2.7489 -0.3768 -1.3351
 6651SOL     OW31414   1.794   2.916   8.735 -0.2690 -0.0387 -0.3226
 6651SOL    HW131415   1.776   2.873   8.652 -1.1612  1.7091 -1.0471
 6651SOL    HW231416   1.888   2.899   8.743 -0.1360  1.0356  0.4738
 6652SOL     OW31417   1.947   1.030   3.135 -0.4212  0.5695  0.1185
 6652SOL    HW131418   1.975   1.121   3.144  2.1232 -0.3685  1.7369
 6652SOL    HW231419   2.026   0.980   3.155 -1.1400 -0.4348  0.4211
 6653SOL     OW31420   3.369   2.586   4.090  0.5297  0.5046  0.3687
 6653SOL    HW131421   3.455   2.548   4.073  0.3444 -0.3909  1.5097
 6653SOL    HW231422   3.385   2.680   4.081 -1.9795  0.9192  0.0802
 6654SOL     OW31423   3.015   1.984  16.847  0.2171 -0.1512 -0.7481
 6654SOL    HW131424   2.937   2.010  16.799 -0.0396 -0.5267 -0.5367
 6654SOL    HW231425   3.012   2.041  16.924 -0.4333  1.5002 -2.0040
 6655SOL     OW31426   1.076   2.540   1.838  0.2440  0.4130  0.2872
 6655SOL    HW131427   1.062   2.629   1.804  1.7967 -0.4789 -2.7156
 6655SOL    HW231428   1.155   2.509   1.793 -0.1462 -1.0342  0.6029
 6656SOL     OW31429   4.671   1.569   4.106 -0.9118 -0.5340  0.6136
 6656SOL    HW131430   4.606   1.566   4.176 -0.0469 -0.7437  1.4182
 6656SOL    HW231431   4.689   1.663   4.108  0.4053 -0.7251 -1.5464
 6657SOL     OW31432   3.400   3.174   6.256  0.0798 -0.5541 -0.6188
 6657SOL    HW131433   3.309   3.158   6.280  0.2558 -2.9690 -1.5314
 6657SOL    HW231434   3.416   3.265   6.282 -0.0041 -0.9089  0.6840
 6658SOL     OW31435   2.109   4.149   4.174 -0.4802  0.0995 -0.8048
 6658SOL    HW131436   2.056   4.136   4.096 -0.3232 -0.2983 -0.8451
 6658SOL    HW231437   2.191   4.174   4.130 -0.0669  0.0030 -0.0913
 6659SOL     OW31438   3.254   1.646   4.123 -0.0854 -0.2428 -0.0907
 6659SOL    HW131439   3.224   1.645   4.214  1.0986 -0.8283  0.2917
 6659SOL    HW231440   3.348   1.629   4.119  0.5563  3.0906  1.0942
 6660SOL     OW31441   0.374   4.331   6.088  0.4350  0.3699  0.5542
 6660SOL    HW131442   0.354   4.286   6.005 -1.2298  0.8983  0.6741
 6660SOL    HW231443   0.469   4.318   6.084  0.5454  1.3281 -0.0316
 6661SOL     OW31444   3.246   3.288  13.038 -0.0175 -0.0387 -0.1655
 6661SOL    HW131445   3.340   3.273  13.052  0.2582  0.4447 -1.5317
 6661SOL    HW231446   3.243   3.374  12.996  2.4778  0.9000  1.5895
 6662SOL     OW31447   0.580   3.890  10.842  0.0843 -0.5601  0.9790
 6662SOL    HW131448   0.542   3.812  10.803  0.4989  0.3646 -1.2484
 6662SOL    HW231449   0.673   3.873  10.824 -0.5854  0.2467 -3.1932
 6663SOL     OW31450   0.639   2.539  11.913  0.5004  0.2848 -0.4427
 6663SOL    HW131451   0.707   2.483  11.875  1.6445  1.4496 -0.0878
 6663SOL    HW231452   0.657   2.622  11.870 -0.2241 -0.5748 -2.3925
 6664SOL     OW31453   1.583   4.393   5.355 -0.5869 -0.6689 -0.7305
 6664SOL    HW131454   1.629   4.475   5.372  1.4717 -1.2029 -3.7263
 6664SOL    HW231455   1.638   4.366   5.282  0.2886  2.7329 -1.3111
 6665SOL     OW31456   1.313   0.600  16.813 -0.4437 -0.7284 -0.3120
 6665SOL    HW131457   1.282   0.586  16.903 -1.6660  3.2534 -0.1154
 6665SOL    HW231458   1.408   0.588  16.821 -0.3545  0.3829  0.3594
 6666SOL     OW31459   2.788   1.990  11.290  0.1281 -0.6386  0.1209
 6666SOL    HW131460   2.759   1.907  11.252 -0.4010 -0.1726 -0.4758
 6666SOL    HW231461   2.853   2.023  11.228 -1.0979  0.1627 -0.7226
 6667SOL     OW31462   4.229   0.741   7.747  0.6789  0.3295 -0.2400
 6667SOL    HW131463   4.205   0.722   7.657 -1.8174 -1.0937  0.7187
 6667SOL    HW231464   4.202   0.833   7.749  1.2652  0.5097 -0.4611
 6668SOL     OW31465   4.570   4.657   5.391  0.3022  0.3369 -0.1314
 6668SOL    HW131466   4.564   4.633   5.483 -0.4652 -0.7864 -0.4755
 6668SOL    HW231467   4.606   4.577   5.354  2.9503  1.6746 -0.4723
 6669SOL     OW31468   0.694   1.939   7.747  0.0906 -0.3414 -0.4418
 6669SOL    HW131469   0.656   1.983   7.823 -1.6352 -2.1693 -0.2776
 6669SOL    HW231470   0.655   1.853   7.755 -0.5466  0.0369  0.5178
 6670SOL     OW31471   4.428   0.176   3.171  1.0394 -0.0313  0.1605
 6670SOL    HW131472   4.343   0.133   3.175  1.5156 -1.0891 -0.8518
 6670SOL    HW231473   4.414   0.239   3.100 -1.1255  0.3074  0.9036
 6671SOL     OW31474   1.946   3.928   0.177  0.2668  0.3757 -0.5470
 6671SOL    HW131475   1.941   3.842   0.218  1.0417  1.8287  2.6047
 6671SOL    HW231476   2.010   3.973   0.232 -0.8292 -0.9509  1.8244
 6672SOL     OW31477   1.237   3.109   1.513  0.5269  0.2132  0.2426
 6672SOL    HW131478   1.267   3.033   1.562  0.7458  0.2236  0.1263
 6672SOL    HW231479   1.167   3.130   1.575  1.3936 -0.2747  1.3664
 6673SOL     OW31480   3.563   3.825   2.333 -0.0648  0.2313 -0.1974
 6673SOL    HW131481   3.527   3.746   2.292 -1.2285 -0.3714  1.9807
 6673SOL    HW231482   3.488   3.882   2.316  1.0514  2.3450  1.8687
 6674SOL     OW31483   1.923   4.467   6.817  0.1410  0.3645  0.3087
 6674SOL    HW131484   1.986   4.427   6.877 -0.6665  1.0840  1.6345
 6674SOL    HW231485   1.888   4.534   6.875 -3.4349 -0.5228 -0.8118
 6675SOL     OW31486   4.163   2.795  12.435 -0.4269  0.3662  0.0466
 6675SOL    HW131487   4.168   2.887  12.411 -1.6186  0.8378  1.6826
 6675SOL    HW231488   4.251   2.770  12.464  0.3982  2.1677 -0.9366
 6676SOL     OW31489   1.574   3.659   4.128  0.1297 -0.2219 -0.0966
 6676SOL    HW131490   1.619   3.620   4.203 -2.4178 -0.8129  1.1384
 6676SOL    HW231491   1.483   3.664   4.158 -0.3237  2.5663 -1.8219
 6677SOL     OW31492   2.523   0.835   8.289 -0.4256  0.3000  0.1026
 6677SOL    HW131493   2.609   0.840   8.248  0.3873  1.0502  1.9078
 6677SOL    HW231494   2.478   0.799   8.212 -0.1065 -0.7129  0.4021
 6678SOL     OW31495   2.078   3.308   1.307 -0.8110 -0.1072 -0.1182
 6678SOL    HW131496   2.059   3.374   1.374 -0.1941  1.1002 -1.1405
 6678SOL    HW231497   2.057   3.221   1.340  1.4713 -0.2507  0.9144
 6679SOL     OW31498   4.118   1.233   4.289 -0.3842 -0.3246 -0.0846
 6679SOL    HW131499   4.103   1.160   4.228  0.3714 -1.1641  0.7436
 6679SOL    HW231500   4.147   1.187   4.367  0.2137  1.7740  0.9401
 6680SOL     OW31501   2.914   1.164   3.049 -0.3362  0.1825  0.0135
 6680SOL    HW131502   2.919   1.173   3.144 -0.1460 -1.4878  0.1650
 6680SOL    HW231503   2.892   1.071   3.036  0.5966  0.3299 -2.7004
 6681SOL     OW31504   0.172   2.340   9.528 -0.4082 -0.1634 -0.3699
 6681SOL    HW131505   0.169   2.347   9.624 -1.1496 -2.5381 -0.2176
 6681SOL    HW231506   0.149   2.250   9.504  0.0158 -1.3033  3.4577
 6682SOL     OW31507   0.346   0.453   7.569  0.7094 -0.5248  0.1278
 6682SOL    HW131508   0.398   0.491   7.499 -0.9845 -0.6375 -1.1704
 6682SOL    HW231509   0.267   0.430   7.520 -0.1084  2.5975  0.0246
 6683SOL     OW31510   1.146   1.990   2.535 -0.3829 -0.0112 -0.7147
 6683SOL    HW131511   1.083   1.987   2.464 -0.9928 -0.6481 -0.1432
 6683SOL    HW231512   1.226   2.007   2.486 -0.9083 -0.2111 -1.6252
 6684SOL     OW31513   1.196   0.401  10.245 -0.4324 -0.0371  0.0653
 6684SOL    HW131514   1.156   0.317  10.268 -0.6677 -0.4736 -1.9381
 6684SOL    HW231515   1.223   0.397  10.154  1.3170 -0.9593  0.6217
 6685SOL     OW31516   3.095   0.763   6.642  0.1800  0.6037  0.5483
 6685SOL    HW131517   3.089   0.676   6.602 -0.2546  0.1415  1.6284
 6685SOL    HW231518   3.068   0.743   6.732 -0.6145 -0.4368  0.0883
 6686SOL     OW31519   2.659   4.274  11.649 -0.2688  0.1466 -0.6448
 6686SOL    HW131520   2.714   4.198  11.632 -0.5155  0.2800 -2.0432
 6686SOL    HW231521   2.614   4.244  11.728  1.5414  0.2030  0.4205
 6687SOL     OW31522   2.341   0.261   1.075 -0.1980 -0.4682  0.1985
 6687SOL    HW131523   2.422   0.289   1.032  0.3284 -1.7517  0.3368
 6687SOL    HW231524   2.339   0.309   1.157 -1.1644  0.4489 -0.3624
 6688SOL     OW31525   2.419   4.569   2.588  0.7915 -0.3866 -0.3341
 6688SOL    HW131526   2.397   4.502   2.523  0.0826  2.1409 -2.7154
 6688SOL    HW231527   2.368   4.542   2.665  0.1803  0.9492 -0.2729
 6689SOL     OW31528   1.051   2.830   9.215  0.6064  0.2629 -0.4793
 6689SOL    HW131529   1.063   2.735   9.217 -1.3017 -0.0006 -1.2034
 6689SOL    HW231530   0.956   2.845   9.216  0.6291  0.3247  1.6931
 6690SOL     OW31531   3.137   1.147  12.850 -0.8190  0.3786 -0.4858
 6690SOL    HW131532   3.202   1.188  12.908  0.0313 -2.1642  0.3946
 6690SOL    HW231533   3.151   1.191  12.767 -3.5724 -1.1098 -1.7238
 6691SOL     OW31534   2.823   0.054   3.409  0.1450  0.0949  0.1881
 6691SOL    HW131535   2.887   0.053   3.480  1.2761  2.3938 -0.8041
 6691SOL    HW231536   2.865   0.009   3.335 -0.8967 -0.5350 -0.0273
 6692SOL     OW31537   0.127   2.774   6.687 -0.2054  0.0550 -0.3585
 6692SOL    HW131538   0.126   2.761   6.592  1.4395 -0.8435 -0.2607
 6692SOL    HW231539   0.037   2.751   6.709  0.1144 -1.5117 -0.6468
 6693SOL     OW31540   1.489   3.596   7.246 -0.1273 -0.2059  0.2570
 6693SOL    HW131541   1.543   3.595   7.167  1.0865  3.0599  1.0256
 6693SOL    HW231542   1.552   3.578   7.315 -1.2320 -1.3427  0.9637
 6694SOL     OW31543   0.542   1.756  12.936  0.3204  0.5040 -0.2067
 6694SOL    HW131544   0.580   1.692  12.875  0.8756 -0.2793  0.9611
 6694SOL    HW231545   0.506   1.819  12.875 -0.6194  0.1366 -0.0260
 6695SOL     OW31546   3.031   3.091   7.571 -0.4881 -0.2502  0.1501
 6695SOL    HW131547   3.088   3.042   7.512 -1.4026 -0.0651 -0.8935
 6695SOL    HW231548   3.011   3.022   7.635  2.4170 -0.3052  0.9921
 6696SOL     OW31549   0.758   3.076   5.137  0.2841 -0.2297  0.0583
 6696SOL    HW131550   0.673   3.058   5.096  0.2845 -1.3783  0.5709
 6696SOL    HW231551   0.802   2.991   5.132 -0.6937 -0.7026 -0.4063
 6697SOL     OW31552   2.820   3.943   2.528  0.0045  0.7561  0.5068
 6697SOL    HW131553   2.859   3.932   2.615 -0.9261  3.3837  1.2609
 6697SOL    HW231554   2.816   3.852   2.500 -0.4514  0.3386  1.8879
 6698SOL     OW31555   0.046   4.647  12.685  0.4815 -0.2313  0.1108
 6698SOL    HW131556   0.085   4.568  12.724  0.2114  0.6617  2.1822
 6698SOL    HW231557   0.128   4.695  12.672  0.1328  0.7874  1.6312
 6699SOL     OW31558   1.666   2.698   8.539  0.6265  0.0366  0.3496
 6699SOL    HW131559   1.737   2.647   8.499 -1.0906 -1.1474 -1.2037
 6699SOL    HW231560   1.630   2.626   8.590  0.3652  0.0075  0.1270
 6700SOL     OW31561   2.798   2.632   8.802  0.3143 -0.2403 -0.0781
 6700SOL    HW131562   2.872   2.656   8.857 -2.6767  0.5322  3.5955
 6700SOL    HW231563   2.765   2.556   8.851  2.1941 -0.0822  1.4291
 6701SOL     OW31564   3.527   4.317  17.564  0.1985 -0.3564  0.1919
 6701SOL    HW131565   3.572   4.351  17.642  0.8433 -1.8262  0.4643
 6701SOL    HW231566   3.584   4.330  17.489 -1.3212 -0.1886 -0.9281
 6702SOL     OW31567   1.445   1.241   5.338 -0.6985  0.4586 -0.4722
 6702SOL    HW131568   1.423   1.207   5.425  0.4206 -1.3665 -0.8994
 6702SOL    HW231569   1.537   1.264   5.349  0.3210 -4.0601  0.5183
 6703SOL     OW31570   4.461   1.744   2.332  0.3056 -0.2637  0.1167
 6703SOL    HW131571   4.424   1.822   2.290 -0.3529 -0.2619  0.7011
 6703SOL    HW231572   4.385   1.711   2.379  0.1701  1.1937  0.9386
 6704SOL     OW31573   3.239   0.784  15.200 -0.0975  0.3528  0.1745
 6704SOL    HW131574   3.246   0.752  15.290 -0.1742  2.2154  0.8401
 6704SOL    HW231575   3.302   0.725  15.158 -3.2237 -1.5615 -1.8138
 6705SOL     OW31576   0.324   2.470   3.133 -0.3776 -0.1614 -0.1537
 6705SOL    HW131577   0.373   2.493   3.054  0.8456  2.4280  1.3214
 6705SOL    HW231578   0.279   2.553   3.149 -2.6471 -1.6662  1.2517
 6706SOL     OW31579   0.944   0.763   8.462 -0.7052  0.0349  0.5521
 6706SOL    HW131580   0.899   0.770   8.546  1.5531 -0.0057  1.7546
 6706SOL    HW231581   1.036   0.782   8.480  0.4306 -2.9193 -2.1839
 6707SOL     OW31582   0.364   2.261   1.664 -0.2826 -0.5180 -0.1348
 6707SOL    HW131583   0.287   2.257   1.721 -0.7002 -0.1614 -0.6697
 6707SOL    HW231584   0.333   2.308   1.587  0.8337 -1.7522 -1.3500
 6708SOL     OW31585   1.565   3.715   2.029 -0.5852  0.4078  0.1227
 6708SOL    HW131586   1.552   3.768   2.107  1.6061 -1.0847  1.5121
 6708SOL    HW231587   1.483   3.740   1.986 -0.3672 -1.0410 -1.1478
 6709SOL     OW31588   0.602   3.736   9.078 -0.2419 -0.3162 -0.0349
 6709SOL    HW131589   0.604   3.653   9.029 -1.4709 -0.1236 -0.4301
 6709SOL    HW231590   0.538   3.707   9.143  0.1882  0.7459  0.8491
 6710SOL     OW31591   3.508   2.511   3.433  0.3404  0.5177  0.3094
 6710SOL    HW131592   3.527   2.566   3.509  0.6402 -1.7511  1.8818
 6710SOL    HW231593   3.452   2.443   3.470  0.1347  0.9211  0.7482
 6711SOL     OW31594   3.994   1.335   3.127  0.0805  0.0758 -0.1107
 6711SOL    HW131595   3.925   1.309   3.188  1.1738  2.4219  2.1320
 6711SOL    HW231596   4.053   1.260   3.136  0.0354  0.1140  0.5161
 6712SOL     OW31597   0.440   0.159  16.390  0.2921 -0.3183 -0.0512
 6712SOL    HW131598   0.484   0.243  16.375 -1.2254  0.7184  1.3390
 6712SOL    HW231599   0.493   0.089  16.352 -0.3375 -0.5712 -0.4590
 6713SOL     OW31600   3.958   2.289  16.568 -0.0946  0.0376  0.3284
 6713SOL    HW131601   3.941   2.222  16.502  0.9041  1.5100 -1.4228
 6713SOL    HW231602   3.883   2.268  16.623 -0.0269  0.3048  0.5237
 6714SOL     OW31603   1.105   0.791  10.521  0.3421  0.0221  0.0032
 6714SOL    HW131604   1.053   0.713  10.505  1.6552 -0.8255 -0.1574
 6714SOL    HW231605   1.179   0.768  10.465 -0.3791 -1.2118 -0.4252
 6715SOL     OW31606   0.437   2.501   1.801 -0.0011 -0.0089 -0.1569
 6715SOL    HW131607   0.526   2.473   1.823  0.2451  0.5008 -0.5123
 6715SOL    HW231608   0.420   2.424   1.746  0.2119 -1.1082  1.3036
 6716SOL     OW31609   2.197   4.605  11.887  0.4698 -0.0725  0.8852
 6716SOL    HW131610   2.230   4.637  11.971  1.5956 -2.7152  1.4666
 6716SOL    HW231611   2.211   4.511  11.901 -0.2515 -0.1582  1.0261
 6717SOL     OW31612   1.892   0.144   1.153  0.0050  0.2354  0.2259
 6717SOL    HW131613   1.968   0.118   1.204  1.4504 -1.1223 -2.6067
 6717SOL    HW231614   1.830   0.080   1.187 -0.9568  1.0725  0.0281
 6718SOL     OW31615   1.996   3.157  10.241  0.1590 -0.4446 -0.1388
 6718SOL    HW131616   1.921   3.105  10.271 -0.3867 -0.1784 -1.0493
 6718SOL    HW231617   2.028   3.171  10.330 -0.9921 -2.2128  0.5383
 6719SOL     OW31618   0.461   3.343   7.225  0.5049 -0.3917  0.2093
 6719SOL    HW131619   0.409   3.421   7.245  2.0438  0.7041 -0.1429
 6719SOL    HW231620   0.529   3.346   7.291  1.3863  2.0990 -0.8413
 6720SOL     OW31621   0.740   3.610  11.248 -0.1011  0.0630 -0.2329
 6720SOL    HW131622   0.760   3.530  11.200  1.1317  0.6149 -0.6267
 6720SOL    HW231623   0.776   3.670  11.183 -1.3317 -0.7408 -1.6524
 6721SOL     OW31624   2.375   0.425   7.438 -0.1658  0.0014  0.0650
 6721SOL    HW131625   2.462   0.401   7.470 -1.1263 -1.8030  1.3454
 6721SOL    HW231626   2.309   0.385   7.495 -0.6740  0.3392 -0.2816
 6722SOL     OW31627   2.117   1.080   8.282  0.3552  0.3613 -0.4135
 6722SOL    HW131628   2.104   1.009   8.219  2.4690 -0.6880  0.3094
 6722SOL    HW231629   2.195   1.049   8.329 -0.3156 -0.3839  0.1973
 6723SOL     OW31630   1.358   1.734   2.383  0.2046 -0.1610 -0.1649
 6723SOL    HW131631   1.450   1.714   2.401 -0.8611 -2.5996  2.3978
 6723SOL    HW231632   1.365   1.827   2.404 -0.5240 -0.7156  2.4285
 6724SOL     OW31633   4.203   4.262  10.851 -0.6227 -0.2196 -0.3786
 6724SOL    HW131634   4.240   4.343  10.887 -0.8361 -1.6249  3.0752
 6724SOL    HW231635   4.260   4.234  10.780 -0.6203  0.4224 -0.6331
 6725SOL     OW31636   4.592   4.219   3.804  0.4851 -0.3387  0.2875
 6725SOL    HW131637   4.508   4.220   3.851  0.0198 -0.1799 -0.5558
 6725SOL    HW231638   4.657   4.209   3.874  0.9268 -1.7173 -0.3100
 6726SOL     OW31639   1.952   2.407   4.715  0.3992  0.0396  0.7168
 6726SOL    HW131640   1.907   2.326   4.739 -0.3281 -0.3894 -2.0249
 6726SOL    HW231641   1.968   2.444   4.802  1.2706  1.6768 -0.1452
 6727SOL     OW31642   1.343   1.285   5.099 -0.3930 -0.3653  0.1225
 6727SOL    HW131643   1.409   1.354   5.100 -0.1011 -0.6269 -0.7089
 6727SOL    HW231644   1.352   1.259   5.190  1.2331 -2.2295 -0.5803
 6728SOL     OW31645   2.436   0.564  17.453  0.4308  0.5580 -0.1694
 6728SOL    HW131646   2.493   0.579  17.377  2.0430  0.7405  1.0640
 6728SOL    HW231647   2.487   0.615  17.516 -0.1089  1.3979 -0.4098
 6729SOL     OW31648   3.463   3.427   3.555  0.0394 -0.5928 -0.6058
 6729SOL    HW131649   3.435   3.399   3.467 -0.8430 -0.8149 -0.2537
 6729SOL    HW231650   3.467   3.522   3.545  1.9779 -0.5218  0.7965
 6730SOL     OW31651   1.164   0.434   1.071  1.1014 -0.1688 -0.0841
 6730SOL    HW131652   1.096   0.425   1.004 -1.3475  1.1096  2.2188
 6730SOL    HW231653   1.107   0.440   1.147 -1.5791  4.7525 -2.4647
 6731SOL     OW31654   4.708   4.113   5.636 -0.2621 -0.3593 -0.3626
 6731SOL    HW131655   0.051   4.161   5.587 -0.8366  1.1461  0.3274
 6731SOL    HW231656   4.665   4.065   5.565 -0.7220 -0.0735 -0.2845
 6732SOL     OW31657   2.289   2.053   6.688  0.0330  0.3104 -0.2632
 6732SOL    HW131658   2.348   2.106   6.742  0.3490  0.5180 -0.8075
 6732SOL    HW231659   2.346   2.015   6.621  0.1538 -1.1694  0.6910
 6733SOL     OW31660   3.785   3.929   9.941 -0.4583  0.6276  0.3238
 6733SOL    HW131661   3.736   3.877   9.878  1.2573 -1.1156  0.4509
 6733SOL    HW231662   3.845   3.985   9.891  0.8554 -0.8751  0.2345
 6734SOL     OW31663   0.714   0.394  15.506  0.5859 -0.2391 -0.0751
 6734SOL    HW131664   0.749   0.454  15.572  0.9288 -1.7341  1.1068
 6734SOL    HW231665   0.632   0.362  15.544  0.1078 -1.6278 -2.2943
 6735SOL     OW31666   4.435   0.498   7.563  0.2768 -0.5541 -0.4979
 6735SOL    HW131667   4.507   0.554   7.591 -0.8947  0.7459 -0.0988
 6735SOL    HW231668   4.378   0.502   7.640 -0.4303 -1.2506 -0.9865
 6736SOL     OW31669   4.665   3.150   4.645 -0.2763 -0.2831  0.0410
 6736SOL    HW131670   4.638   3.083   4.708  2.1283  0.1717  1.5261
 6736SOL    HW231671   0.024   3.118   4.611 -0.9555 -0.0001 -1.8682
 6737SOL     OW31672   3.482   0.760   1.980  0.0352  0.2133  0.6195
 6737SOL    HW131673   3.531   0.838   2.006  3.0127 -1.0570 -1.1683
 6737SOL    HW231674   3.411   0.749   2.043 -0.9871  2.1842 -0.2041
 6738SOL     OW31675   2.130   4.135   4.729  0.4157 -0.2186  0.1465
 6738SOL    HW131676   2.116   4.225   4.761 -0.6502 -0.4406  0.3024
 6738SOL    HW231677   2.095   4.150   4.642  0.6146 -1.0901 -0.0806
 6739SOL     OW31678   4.151   1.866   7.678 -0.5458  0.0443 -0.4403
 6739SOL    HW131679   4.164   1.785   7.728  0.2580  0.6354  0.3209
 6739SOL    HW231680   4.065   1.891   7.710 -0.8084  0.6646 -1.6542
 6740SOL     OW31681   1.722   4.160   2.200  0.3532 -0.3054 -0.4017
 6740SOL    HW131682   1.633   4.130   2.181  0.5599 -0.6754 -0.8005
 6740SOL    HW231683   1.770   4.128   2.123 -1.5439 -1.8115 -0.9596
 6741SOL     OW31684   2.559   2.538  13.238 -0.0229  0.2602 -0.3147
 6741SOL    HW131685   2.573   2.522  13.145 -2.1793 -0.4595 -0.5131
 6741SOL    HW231686   2.565   2.445  13.262  0.3318  0.4689  0.4317
 6742SOL     OW31687   2.303   1.921   7.043  0.1200  0.3427  0.5731
 6742SOL    HW131688   2.253   1.975   7.105 -1.3403 -2.1800  1.6348
 6742SOL    HW231689   2.367   1.981   7.006 -0.0510 -0.5659 -1.1800
 6743SOL     OW31690   0.787   1.490   4.064  0.1142 -0.1667 -0.1374
 6743SOL    HW131691   0.873   1.491   4.105  0.5128  0.3318 -0.9933
 6743SOL    HW231692   0.740   1.435   4.127  2.0348 -2.0405 -0.3576
 6744SOL     OW31693   4.611   2.572  12.419  1.0968  0.0693  0.1587
 6744SOL    HW131694   4.597   2.666  12.435  0.9274  0.0704  0.0095
 6744SOL    HW231695   4.628   2.547  12.509 -2.8322 -0.5693  0.7025
 6745SOL     OW31696   2.752   3.012   8.122  0.1529  0.1598  0.6436
 6745SOL    HW131697   2.789   3.041   8.205 -1.0174 -0.2186  1.3047
 6745SOL    HW231698   2.757   2.917   8.135 -0.5097 -0.3926 -3.1708
 6746SOL     OW31699   1.627   2.445   1.705  0.2534 -0.3276 -0.1819
 6746SOL    HW131700   1.664   2.377   1.762 -1.4947  0.9649  2.5301
 6746SOL    HW231701   1.565   2.385   1.663  0.5425 -2.5382  2.5229
 6747SOL     OW31702   0.514   4.301  10.504  0.0483  0.1660 -0.2720
 6747SOL    HW131703   0.586   4.290  10.443 -1.0774  0.9939 -1.7682
 6747SOL    HW231704   0.517   4.225  10.561 -1.2178  0.9404  0.8427
 6748SOL     OW31705   2.481   1.864   2.071  0.1095 -0.5638 -0.3417
 6748SOL    HW131706   2.404   1.917   2.049 -0.3511 -0.7371  0.8918
 6748SOL    HW231707   2.507   1.862   1.978  1.2636 -0.0289 -0.0385
 6749SOL     OW31708   2.676   3.064   8.778  0.2874 -0.0398 -0.0829
 6749SOL    HW131709   2.770   3.057   8.794 -0.0495 -0.6671  1.5376
 6749SOL    HW231710   2.646   2.998   8.840 -0.9993  1.3094  0.7433
 6750SOL     OW31711   2.241   0.794  15.541 -0.2775 -0.7662  0.0782
 6750SOL    HW131712   2.147   0.786  15.525 -0.8171  2.3455  1.8288
 6750SOL    HW231713   2.275   0.810  15.453  0.0097  0.7169  0.4684
 6751SOL     OW31714   4.510   3.324  14.513  0.2077  0.4246  0.4456
 6751SOL    HW131715   4.573   3.348  14.581  1.1736 -1.3753  0.1888
 6751SOL    HW231716   4.489   3.405  14.467  2.0443  0.4689 -0.3258
 6752SOL     OW31717   2.607   1.910   5.871 -0.2574  0.3095  0.1263
 6752SOL    HW131718   2.616   1.834   5.814  2.4806  0.5104  0.2951
 6752SOL    HW231719   2.692   1.904   5.914  0.8762  0.6134 -2.1086
 6753SOL     OW31720   4.629   1.554   8.701  0.8327  0.4451  0.0010
 6753SOL    HW131721   4.550   1.586   8.657  2.1463 -0.6868 -3.1592
 6753SOL    HW231722   4.610   1.460   8.704  1.2245  0.2858 -2.4464
 6754SOL     OW31723   0.389   1.610   7.002 -0.2789 -0.6905  0.2026
 6754SOL    HW131724   0.374   1.620   7.096  0.7079  0.1914  0.2541
 6754SOL    HW231725   0.485   1.605   7.002 -0.2886 -0.9298 -1.6038
 6755SOL     OW31726   3.119   2.189   5.438 -0.8027  0.1132 -0.0408
 6755SOL    HW131727   3.084   2.195   5.349 -0.1836 -1.5458 -0.3948
 6755SOL    HW231728   3.130   2.282   5.458  0.7925  0.2053 -1.4368
 6756SOL     OW31729   3.585   2.820  12.860 -0.0341  0.1578  0.6068
 6756SOL    HW131730   3.535   2.878  12.918 -0.9090  0.5892 -0.5737
 6756SOL    HW231731   3.657   2.878  12.834  1.3264 -0.9107  2.0409
 6757SOL     OW31732   2.091   2.892  10.474 -0.1284  0.4197 -0.6608
 6757SOL    HW131733   2.183   2.883  10.499 -0.4980  1.0717  0.9270
 6757SOL    HW231734   2.082   2.987  10.481 -2.2443 -0.0236  2.3581
 6758SOL     OW31735   2.795   3.191   8.378 -0.2288  0.3309 -0.7012
 6758SOL    HW131736   2.795   3.280   8.415 -2.6784 -0.5521  1.4420
 6758SOL    HW231737   2.716   3.168   8.428  1.0775 -0.0370  1.2299
 6759SOL     OW31738   1.291   3.219   3.998  0.6326 -0.0285  0.7075
 6759SOL    HW131739   1.206   3.220   3.955  0.7297  0.7323  0.5270
 6759SOL    HW231740   1.290   3.126   4.018  2.6528 -0.1026  0.4387
 6760SOL     OW31741   2.775   1.100   4.013  0.0342 -0.0901 -0.0328
 6760SOL    HW131742   2.752   1.009   4.032  0.8545 -0.0894  0.9789
 6760SOL    HW231743   2.829   1.084   3.936 -3.6357  0.7462 -2.8155
 6761SOL     OW31744   0.727   1.064  11.026 -0.1833  0.2217 -0.0736
 6761SOL    HW131745   0.755   1.141  10.977 -0.0400  1.2249  1.5964
 6761SOL    HW231746   0.748   0.995  10.963 -2.2646  0.4663 -1.0506
 6762SOL     OW31747   3.155   0.490   9.354  0.2789  0.0910 -0.3648
 6762SOL    HW131748   3.181   0.403   9.322 -0.6570 -0.0253 -0.7905
 6762SOL    HW231749   3.216   0.508   9.426  0.8776  0.7317 -1.0269
 6763SOL     OW31750   0.696   0.040  16.752  0.2656 -0.1729  0.0683
 6763SOL    HW131751   0.600   0.034  16.748  0.2684  1.0030 -1.5863
 6763SOL    HW231752   0.703   4.705  16.827  1.0221 -1.1972 -0.8265
 6764SOL     OW31753   3.801   0.678   4.154  0.2300 -0.2323  0.4410
 6764SOL    HW131754   3.878   0.666   4.099 -0.1860 -2.2403  0.2952
 6764SOL    HW231755   3.844   0.672   4.239 -0.0451  0.4266  0.6281
 6765SOL     OW31756   1.816   3.703   3.578  0.4554  0.0666 -0.7855
 6765SOL    HW131757   1.807   3.722   3.671 -0.8168  1.2546 -1.1549
 6765SOL    HW231758   1.912   3.701   3.576  0.5327  2.4310  0.1532
 6766SOL     OW31759   3.903   1.458   5.646 -0.1584  0.5105 -0.7618
 6766SOL    HW131760   3.821   1.489   5.683 -1.2674 -3.4094 -0.0302
 6766SOL    HW231761   3.884   1.373   5.608 -0.9948  1.1776 -1.8331
 6767SOL     OW31762   2.718   4.507   3.271 -0.2907 -0.3313  0.4072
 6767SOL    HW131763   2.736   4.472   3.184 -4.5786  1.6003 -1.2414
 6767SOL    HW231764   2.795   4.563   3.273 -0.6652  0.2851 -2.7041
 6768SOL     OW31765   1.229   0.278   2.693  0.0387 -0.6288 -0.0985
 6768SOL    HW131766   1.206   0.347   2.756  0.8724 -1.4314  1.0827
 6768SOL    HW231767   1.178   0.303   2.616 -0.8558 -1.1186  0.3374
 6769SOL     OW31768   1.770   0.501   4.142 -0.6107  0.6429  0.1457
 6769SOL    HW131769   1.796   0.460   4.059 -0.3964 -0.7705  0.9075
 6769SOL    HW231770   1.830   0.574   4.156  2.3973 -1.4646 -1.5786
 6770SOL     OW31771   0.275   3.695   8.511  0.2217 -0.6440 -0.3977
 6770SOL    HW131772   0.268   3.790   8.511  0.7334 -0.6031  0.1686
 6770SOL    HW231773   0.218   3.671   8.584  0.9802  0.6785  0.6271
 6771SOL     OW31774   1.557   2.804   7.787  0.5105 -0.3615 -0.2843
 6771SOL    HW131775   1.507   2.803   7.869  2.0227  0.6087  0.6399
 6771SOL    HW231776   1.602   2.887   7.797  1.9939 -0.9089 -2.5217
 6772SOL     OW31777   4.039   3.143   8.079  0.6076  0.0068 -0.2648
 6772SOL    HW131778   4.003   3.222   8.121 -0.4646 -2.5277  3.5747
 6772SOL    HW231779   3.979   3.141   8.004 -0.0794 -1.0528  0.3240
 6773SOL     OW31780   4.174   0.806   6.024  0.2569  0.2961  0.2770
 6773SOL    HW131781   4.231   0.867   6.071  0.2381  0.8317 -0.3943
 6773SOL    HW231782   4.086   0.832   6.052 -0.4545 -0.6275 -1.0938
 6774SOL     OW31783   0.347   0.059   7.519 -0.7579  0.4992 -0.1218
 6774SOL    HW131784   0.290   4.708   7.499 -0.7676 -0.1264  2.3275
 6774SOL    HW231785   0.291   0.117   7.569  0.5662 -0.0675  2.0236
 6775SOL     OW31786   3.576   3.591  12.161  0.0477 -0.7535  0.8329
 6775SOL    HW131787   3.605   3.646  12.234  0.6621 -0.7836  0.6103
 6775SOL    HW231788   3.493   3.637  12.150 -0.1722 -0.6240  2.9201
 6776SOL     OW31789   1.054   2.735  11.248  0.8459  0.8255  0.2281
 6776SOL    HW131790   1.065   2.671  11.318 -0.5344  0.0303 -0.2931
 6776SOL    HW231791   1.075   2.820  11.289  1.3032  0.6610  0.3311
 6777SOL     OW31792   3.364   3.541   6.083 -0.2258 -0.4157 -0.3606
 6777SOL    HW131793   3.287   3.486   6.098 -0.0136 -1.0427 -1.5660
 6777SOL    HW231794   3.355   3.609   6.149 -0.3991  1.1711 -2.0259
 6778SOL     OW31795   3.934   2.430  13.763 -0.4128  0.2041 -0.1837
 6778SOL    HW131796   3.892   2.514  13.780  1.6534  1.5867 -1.8925
 6778SOL    HW231797   3.859   2.375  13.787 -0.0815 -1.1042 -2.1199
 6779SOL     OW31798   1.473   0.567   5.106  0.0105  0.2193  0.1156
 6779SOL    HW131799   1.495   0.660   5.116 -1.8434  0.6387  0.3371
 6779SOL    HW231800   1.563   0.537   5.092 -0.1804  0.3611 -1.3955
 6780SOL     OW31801   4.528   3.423   4.698  0.5044  0.3895 -0.5289
 6780SOL    HW131802   4.566   3.340   4.725  0.6540  1.2935  2.0468
 6780SOL    HW231803   4.441   3.397   4.667  0.4311  1.6275 -1.3626
 6781SOL     OW31804   3.696   0.309  14.680  0.0399 -0.2420  0.7251
 6781SOL    HW131805   3.660   0.267  14.601  0.2338  1.8823 -0.4895
 6781SOL    HW231806   3.625   0.361  14.715 -2.2025 -1.2112 -2.4040
 6782SOL     OW31807   1.072   3.375   6.318 -0.2586 -0.4904  0.2602
 6782SOL    HW131808   1.076   3.326   6.236 -1.8421 -1.2013  0.6040
 6782SOL    HW231809   1.007   3.442   6.296  0.0165 -0.2967  0.0378
 6783SOL     OW31810   0.645   1.741  10.604  0.3150  0.2679 -0.0307
 6783SOL    HW131811   0.586   1.813  10.583  2.6530  1.3958 -2.7455
 6783SOL    HW231812   0.675   1.727  10.514  0.7347  1.9669 -0.1430
 6784SOL     OW31813   3.868   3.603   8.911 -0.2723 -0.0873 -0.1149
 6784SOL    HW131814   3.793   3.569   8.862  0.4529 -0.0871 -1.2241
 6784SOL    HW231815   3.851   3.566   8.997 -1.1036 -1.5078 -0.8933
 6785SOL     OW31816   2.310   2.786   2.630  0.2179 -0.2257  0.2992
 6785SOL    HW131817   2.271   2.827   2.707 -0.7548  0.0793 -0.3480
 6785SOL    HW231818   2.263   2.706   2.651 -2.4948  0.8939 -1.3837
 6786SOL     OW31819   0.476   4.512   8.572  0.2292 -0.5721 -0.5191
 6786SOL    HW131820   0.410   4.562   8.524  1.5901 -0.9576 -2.8180
 6786SOL    HW231821   0.433   4.495   8.656  0.9091  1.4270  0.2563
 6787SOL     OW31822   1.567   3.425  13.055 -0.0262  0.8247  0.0458
 6787SOL    HW131823   1.575   3.520  13.065  0.5397  1.0544 -2.5981
 6787SOL    HW231824   1.660   3.408  13.045 -0.2104 -0.6572  0.9183
 6788SOL     OW31825   3.238   3.914   9.972 -0.4430 -0.0901  0.3162
 6788SOL    HW131826   3.174   3.843   9.974  0.5144 -0.9287  1.1664
 6788SOL    HW231827   3.182   3.991   9.961 -2.1241 -1.3262  0.2779
 6789SOL     OW31828   3.590   3.083   4.024 -0.4140 -0.1073  0.1243
 6789SOL    HW131829   3.541   3.139   3.964 -4.3253 -1.9386  1.6237
 6789SOL    HW231830   3.596   3.141   4.099  1.0024 -0.4586  0.2753
 6790SOL     OW31831   2.337   4.113  13.993  0.0062 -0.5861  0.2576
 6790SOL    HW131832   2.334   4.124  14.088  0.6311 -1.5205  0.3944
 6790SOL    HW231833   2.253   4.140  13.957 -0.5343 -1.3400  0.9437
 6791SOL     OW31834   3.881   1.945   6.406 -0.1457 -0.0890 -0.0459
 6791SOL    HW131835   3.786   1.938   6.410 -0.3606  2.0687 -1.5082
 6791SOL    HW231836   3.905   1.963   6.497  0.6833  0.9571 -0.4615
 6792SOL     OW31837   0.416   1.097   6.503 -0.1128  0.6604 -0.1297
 6792SOL    HW131838   0.430   1.079   6.596  1.0092  0.2957 -0.3714
 6792SOL    HW231839   0.379   1.185   6.499  2.4376  1.7248 -0.1837
 6793SOL     OW31840   0.816   2.327   4.825 -0.0392 -0.2296 -0.2424
 6793SOL    HW131841   0.822   2.419   4.852  0.2054 -0.2109 -0.3572
 6793SOL    HW231842   0.867   2.328   4.744 -1.9720  2.2029 -1.4372
 6794SOL     OW31843   4.571   4.014   4.106  0.3404 -0.3948  0.6207
 6794SOL    HW131844   4.533   4.082   4.050  3.2923 -0.5664 -1.5996
 6794SOL    HW231845   4.599   3.960   4.032  1.6096  1.3175 -0.1512
 6795SOL     OW31846   1.585   2.917   7.231 -0.0685  0.5521 -0.1305
 6795SOL    HW131847   1.556   3.007   7.245 -1.8483  0.0495 -0.5669
 6795SOL    HW231848   1.564   2.887   7.319  1.3650 -2.1113 -0.6895
 6796SOL     OW31849   1.699   3.299   6.665 -0.2981 -0.4748 -0.0189
 6796SOL    HW131850   1.709   3.205   6.648  0.2367 -0.2268 -1.1278
 6796SOL    HW231851   1.641   3.294   6.740  0.1576  0.4230  0.3917
 6797SOL     OW31852   1.820   0.880   6.471  0.4942 -0.1287 -0.3320
 6797SOL    HW131853   1.857   0.965   6.447  0.1061  0.6523  1.9132
 6797SOL    HW231854   1.784   0.899   6.557 -1.4801  0.6767 -1.3359
 6798SOL     OW31855   2.795   3.510   7.747 -0.1153  0.5829  0.2463
 6798SOL    HW131856   2.883   3.546   7.733 -0.1954  0.6902  0.0044
 6798SOL    HW231857   2.812   3.470   7.832 -2.5836 -0.3874  0.3034
 6799SOL     OW31858   1.233   3.790  10.802 -0.2923 -1.0090 -0.0105
 6799SOL    HW131859   1.284   3.789  10.721  0.5407  1.1041  0.4699
 6799SOL    HW231860   1.172   3.719  10.787 -2.1357  0.8597 -1.3399
 6800SOL     OW31861   2.016   2.334  13.651 -0.4023  0.3041  0.5625
 6800SOL    HW131862   2.020   2.428  13.665  2.9259  0.2885 -0.3054
 6800SOL    HW231863   1.952   2.335  13.579  1.7459  0.4091 -1.3505
 6801SOL     OW31864   1.023   2.397  12.550 -0.5895  0.6637 -0.1848
 6801SOL    HW131865   1.038   2.305  12.570  1.9676  1.3042  0.8131
 6801SOL    HW231866   0.961   2.395  12.477  0.3898 -0.0212 -1.0021
 6802SOL     OW31867   4.177   1.700   5.539 -0.7105 -0.4837 -0.3387
 6802SOL    HW131868   4.250   1.758   5.561 -0.0066 -1.6265  0.3406
 6802SOL    HW231869   4.115   1.754   5.490 -0.6328  0.0892  0.1788
 6803SOL     OW31870   1.959   1.164   6.732  0.6344 -0.6551 -0.0856
 6803SOL    HW131871   2.050   1.171   6.761 -0.1253  0.2279  2.1103
 6803SOL    HW231872   1.977   1.098   6.665 -0.1073 -1.4734  0.5033
 6804SOL     OW31873   2.466   0.898   9.963 -0.6491  0.0871  0.2397
 6804SOL    HW131874   2.544   0.895   9.907 -1.1012 -0.4590 -0.3586
 6804SOL    HW231875   2.507   0.970  10.011 -0.0568 -0.4701  0.5698
 6805SOL     OW31876   2.413   4.168  16.574 -0.3854 -0.3418 -0.5390
 6805SOL    HW131877   2.486   4.168  16.512 -0.2713  0.3219 -0.3986
 6805SOL    HW231878   2.443   4.098  16.631  1.1622  0.7519 -0.0155
 6806SOL     OW31879   4.373   0.870   6.905  0.2076  0.0005 -0.1058
 6806SOL    HW131880   4.438   0.929   6.866 -0.1663  0.4385 -0.0671
 6806SOL    HW231881   4.340   0.928   6.974 -1.9628 -3.2137  1.5485
 6807SOL     OW31882   0.722   2.528   6.152  0.2639 -0.2982  0.0932
 6807SOL    HW131883   0.647   2.575   6.188  0.1417 -0.6264  0.2705
 6807SOL    HW231884   0.790   2.537   6.219 -0.8284  0.7109  1.0820
 6808SOL     OW31885   3.019   0.690   9.512  0.6743 -0.3468  0.2662
 6808SOL    HW131886   3.063   0.656   9.434 -1.8477  1.0203 -1.7549
 6808SOL    HW231887   2.949   0.626   9.521  0.5247  0.0375  1.8602
 6809SOL     OW31888   1.666   4.485  12.836 -0.5315 -0.2841 -0.0742
 6809SOL    HW131889   1.731   4.534  12.887  0.4996  0.0051 -1.6544
 6809SOL    HW231890   1.616   4.555  12.793  1.9098  0.9764 -0.8594
 6810SOL     OW31891   2.613   4.458  17.286 -0.4704  0.4573 -0.3431
 6810SOL    HW131892   2.632   4.365  17.280 -2.3181  0.1757 -1.7411
 6810SOL    HW231893   2.648   4.493  17.205 -2.2685 -1.0925 -1.7848
 6811SOL     OW31894   2.417   1.165   5.644 -0.3920  0.5829 -0.5384
 6811SOL    HW131895   2.364   1.098   5.686  1.3366 -1.5746 -1.8479
 6811SOL    HW231896   2.365   1.182   5.566 -0.8215 -2.3424 -0.8838
 6812SOL     OW31897   4.076   4.004   2.652  0.2899 -0.1857 -0.1339
 6812SOL    HW131898   4.027   3.924   2.673  0.8128 -0.2686  0.7298
 6812SOL    HW231899   4.013   4.056   2.602  0.3698  0.4892  0.4723
 6813SOL     OW31900   2.486   3.394   3.705  0.4053  0.2729 -0.2531
 6813SOL    HW131901   2.455   3.484   3.712  1.6425  0.7003 -0.3583
 6813SOL    HW231902   2.528   3.402   3.620  3.3960 -0.8177  1.0964
 6814SOL     OW31903   1.796   4.339   7.553 -0.8439 -0.2645 -0.9496
 6814SOL    HW131904   1.854   4.352   7.478  0.8643  2.7449  0.9278
 6814SOL    HW231905   1.837   4.255   7.573  1.2079  0.9483 -0.1004
 6815SOL     OW31906   2.683   2.044   4.953  0.3281 -0.4868  0.1843
 6815SOL    HW131907   2.690   2.110   4.884  0.6247  2.8428  3.4060
 6815SOL    HW231908   2.621   2.088   5.011 -2.9843 -1.3048 -2.7242
 6816SOL     OW31909   3.457   0.803   8.724  0.3812 -0.1409 -0.3360
 6816SOL    HW131910   3.390   0.736   8.711  0.4451 -0.2044 -0.3335
 6816SOL    HW231911   3.410   0.858   8.788  1.1898  2.2567 -1.8031
 6817SOL     OW31912   3.620   4.595  15.447 -0.8127  0.2162  0.4612
 6817SOL    HW131913   3.595   4.526  15.508  0.5246 -2.3569 -1.9445
 6817SOL    HW231914   3.713   4.588  15.429 -0.8846 -0.4466  0.3564
 6818SOL     OW31915   1.940   3.479   7.729 -0.3683 -0.1604 -0.3022
 6818SOL    HW131916   1.847   3.479   7.755 -0.3706 -0.1882 -0.3104
 6818SOL    HW231917   1.963   3.571   7.736 -0.7578 -0.0774 -0.0851
 6819SOL     OW31918   0.822   2.556  10.200 -0.1035 -0.1478  0.1129
 6819SOL    HW131919   0.916   2.536  10.198 -0.5451 -2.2212 -0.4475
 6819SOL    HW231920   0.790   2.466  10.208 -2.2139  0.4367 -1.9085
 6820SOL     OW31921   2.554   2.881   1.594 -0.0177  0.2682  0.2254
 6820SOL    HW131922   2.480   2.821   1.590 -2.1301  3.0533 -2.0335
 6820SOL    HW231923   2.557   2.898   1.500  0.4895  0.7399  0.3257
 6821SOL     OW31924   1.956   2.788   1.876 -0.4678  0.2626 -0.7947
 6821SOL    HW131925   1.947   2.786   1.781  0.4977 -1.0053 -0.8574
 6821SOL    HW231926   1.871   2.815   1.910 -0.9816  0.3755 -2.1781
 6822SOL     OW31927   1.691   3.417   4.972  0.3653 -0.2036  0.0086
 6822SOL    HW131928   1.721   3.345   5.027 -2.8692 -1.4206  0.1754
 6822SOL    HW231929   1.604   3.421   5.010  0.6166  0.3357  0.5258
 6823SOL     OW31930   4.447   3.217   6.828  0.1800  0.7148  0.0797
 6823SOL    HW131931   4.526   3.264   6.856  1.5233 -2.0666  0.9377
 6823SOL    HW231932   4.478   3.127   6.832 -2.1316 -0.0529  0.4949
 6824SOL     OW31933   0.721   3.311   3.736  0.1052  0.2108 -0.1774
 6824SOL    HW131934   0.721   3.229   3.786  1.7983  0.4160  0.1479
 6824SOL    HW231935   0.786   3.369   3.774  0.0071 -0.0416  0.3719
 6825SOL     OW31936   3.593   0.863   4.144 -0.3659  0.8161 -0.1776
 6825SOL    HW131937   3.660   0.800   4.120 -0.8050  0.1158  0.4229
 6825SOL    HW231938   3.516   0.812   4.171  0.5267  0.5556  1.9018
 6826SOL     OW31939   2.996   4.561   7.368 -0.4815  0.0503 -0.1056
 6826SOL    HW131940   2.968   4.511   7.444  1.5385 -0.0716  0.5656
 6826SOL    HW231941   3.058   4.497   7.333  0.2345  0.1951  0.8715
 6827SOL     OW31942   1.892   1.318   2.080 -0.2198  0.2697 -0.0154
 6827SOL    HW131943   1.938   1.243   2.045  1.6894  1.3509  0.1833
 6827SOL    HW231944   1.801   1.288   2.077 -0.3334  0.3375  2.9985
 6828SOL     OW31945   3.767   3.631   7.591  0.1681  0.0575  0.0237
 6828SOL    HW131946   3.738   3.704   7.646 -0.2581 -0.5863  0.6481
 6828SOL    HW231947   3.716   3.561   7.630  1.5648  0.1458  1.9962
 6829SOL     OW31948   1.633   1.692   8.891  0.4591 -0.1657 -0.0940
 6829SOL    HW131949   1.700   1.723   8.952  0.2769 -0.8698  0.4566
 6829SOL    HW231950   1.577   1.769   8.882  0.5178 -0.1132 -0.0168
 6830SOL     OW31951   1.670   0.961   8.049 -0.3790 -0.7976 -0.2754
 6830SOL    HW131952   1.687   0.974   8.143 -0.3745  0.4912 -0.4546
 6830SOL    HW231953   1.751   0.990   8.007 -0.9983  0.4324 -0.5925
 6831SOL     OW31954   3.814   0.341  15.065 -0.2978 -0.3153 -0.0876
 6831SOL    HW131955   3.822   0.287  15.144 -2.0654 -2.1168 -1.1360
 6831SOL    HW231956   3.850   0.428  15.082  0.3229 -0.6927  0.5252
 6832SOL     OW31957   0.510   1.621   7.968  0.3976 -0.1415  0.0381
 6832SOL    HW131958   0.487   1.712   7.984 -0.4612 -0.0773 -1.5984
 6832SOL    HW231959   0.560   1.620   7.887 -0.3917  2.1153 -0.4567
 6833SOL     OW31960   1.544   4.406   4.213  0.6850  0.9595  0.4316
 6833SOL    HW131961   1.578   4.464   4.281  1.6574  0.2345  0.5679
 6833SOL    HW231962   1.498   4.468   4.156 -0.4465 -0.5116 -0.2394
 6834SOL     OW31963   3.874   1.518   4.047  0.9869 -0.6471  0.1345
 6834SOL    HW131964   3.780   1.519   4.063  0.9161  1.3631 -0.3034
 6834SOL    HW231965   3.869   1.560   3.961 -1.7836 -1.2458  0.0247
 6835SOL     OW31966   2.905   1.426   7.194 -0.1590  0.3845  0.1236
 6835SOL    HW131967   2.985   1.403   7.147 -0.1475 -0.0544  0.3643
 6835SOL    HW231968   2.948   1.439   7.279 -2.5194  0.9054  1.2506
 6836SOL     OW31969   1.960   4.194  11.195 -0.3804 -0.2740  0.1041
 6836SOL    HW131970   1.986   4.130  11.127  0.0376  0.6817 -0.6355
 6836SOL    HW231971   1.867   4.203  11.175 -0.0395  1.0727 -0.8459
 6837SOL     OW31972   0.913   1.540   7.866  0.4607 -0.5879 -0.2784
 6837SOL    HW131973   0.890   1.499   7.783 -0.4719 -1.1861  0.2772
 6837SOL    HW231974   0.942   1.621   7.824  0.3941 -0.4901 -0.1363
 6838SOL     OW31975   3.154   0.145   2.087  0.0242  0.4965  0.1667
 6838SOL    HW131976   3.103   0.065   2.101 -2.5546  2.1358  0.1571
 6838SOL    HW231977   3.236   0.131   2.135  0.7491 -0.5149 -1.3706
 6839SOL     OW31978   2.425   3.365  14.850 -0.3600 -0.0533 -0.1040
 6839SOL    HW131979   2.375   3.303  14.902 -0.9962  0.0711 -0.5651
 6839SOL    HW231980   2.429   3.318  14.767  0.6938  0.4482 -0.3400
 6840SOL     OW31981   2.152   4.376   8.952 -0.4253  0.1406  0.3559
 6840SOL    HW131982   2.224   4.405   8.896 -0.4346 -1.1349 -0.3190
 6840SOL    HW231983   2.085   4.442   8.937 -0.9113 -0.3991  0.1588
 6841SOL     OW31984   0.466   2.978   5.732  0.8451 -0.4244 -0.1522
 6841SOL    HW131985   0.494   3.062   5.697  0.5994  0.1320  0.9839
 6841SOL    HW231986   0.487   2.904   5.674  1.4629 -1.1581  0.9969
 6842SOL     OW31987   0.555   0.391   3.558  0.0621  0.0825 -0.0209
 6842SOL    HW131988   0.612   0.337   3.503 -0.1207 -0.1631  0.0310
 6842SOL    HW231989   0.614   0.446   3.610  0.3477 -0.7796  0.5689
 6843SOL     OW31990   2.347   1.068  15.063  0.3618  0.9062 -0.6226
 6843SOL    HW131991   2.349   1.157  15.099  1.1668 -0.0765  1.7168
 6843SOL    HW231992   2.419   1.036  15.118 -1.4630 -2.1640 -0.0225
 6844SOL     OW31993   1.238   4.492   9.982 -0.0608  0.0122  0.2511
 6844SOL    HW131994   1.211   4.474   9.892  2.1559  4.2996 -1.2448
 6844SOL    HW231995   1.328   4.459   9.985 -0.0344 -0.0758 -1.3200
 6845SOL     OW31996   3.901   1.904  17.034  0.3471 -0.4083  0.1739
 6845SOL    HW131997   3.916   1.846  17.109  2.5274 -2.1627 -1.6441
 6845SOL    HW231998   3.978   1.959  17.019 -0.0360  0.8554  2.7546
 6846SOL     OW31999   4.275   1.488  11.588 -0.0222  0.5119 -0.4540
 6846SOL    HW132000   4.293   1.520  11.499  0.6114  0.2757 -0.4081
 6846SOL    HW232001   4.353   1.433  11.595  1.5437  2.7157 -0.7364
 6847SOL     OW32002   0.439   4.161  13.683 -0.4054 -0.0102  0.3300
 6847SOL    HW132003   0.424   4.220  13.756 -0.2903  2.5277 -1.6925
 6847SOL    HW232004   0.452   4.079  13.731  1.4396  0.7855  1.1620
 6848SOL     OW32005   3.361   4.375   4.841  0.3144  0.5167 -0.1350
 6848SOL    HW132006   3.280   4.399   4.797  0.7275  1.7228 -0.2580
 6848SOL    HW232007   3.330   4.349   4.927  1.7576  0.4120  0.3623
 6849SOL     OW32008   0.581   3.666   6.178 -0.3305 -0.1535  0.0454
 6849SOL    HW132009   0.649   3.727   6.205  1.9267 -1.1078 -3.3610
 6849SOL    HW232010   0.512   3.674   6.243 -0.6765 -0.3825 -0.2968
 6850SOL     OW32011   0.104   1.902  15.293 -0.2109 -0.7283 -0.2471
 6850SOL    HW132012   0.141   1.832  15.347 -0.7955 -0.8886 -0.0522
 6850SOL    HW232013   0.012   1.880  15.309  0.1473 -1.6459  0.5478
 6851SOL     OW32014   0.638   3.032  11.721 -0.3238 -0.2881  0.1957
 6851SOL    HW132015   0.723   3.062  11.690 -0.2440  0.3922  1.0693
 6851SOL    HW232016   0.666   2.963  11.781 -0.7819 -1.4716 -0.9618
 6852SOL     OW32017   3.870   4.170   3.496  0.7602  0.1635  0.4591
 6852SOL    HW132018   3.865   4.191   3.403 -0.7725 -0.9790  0.2723
 6852SOL    HW232019   3.964   4.168   3.509  0.8332 -1.9713 -0.3948
 6853SOL     OW32020   1.007   2.974   2.428  0.0725 -0.3949 -0.1613
 6853SOL    HW132021   0.918   2.971   2.465 -0.3502 -0.4354 -1.1745
 6853SOL    HW232022   1.015   2.882   2.403 -1.2575 -0.9150  1.2942
 6854SOL     OW32023   4.700   2.429   5.124  0.6809  0.0353  0.0659
 6854SOL    HW132024   4.688   2.496   5.056 -2.0686 -0.6315 -0.1147
 6854SOL    HW232025   4.629   2.443   5.186  0.7461  0.1458  0.1151
 6855SOL     OW32026   3.159   0.482   3.824 -0.1186  0.0610  0.0600
 6855SOL    HW132027   3.104   0.411   3.791 -0.4796  1.0047 -1.3556
 6855SOL    HW232028   3.200   0.507   3.741  1.5399  0.0954  0.8981
 6856SOL     OW32029   1.201   4.148   7.263  0.4203 -0.5415 -0.0434
 6856SOL    HW132030   1.287   4.107   7.254  1.4803  1.6505  0.1380
 6856SOL    HW232031   1.183   4.147   7.169 -0.2132  0.2636  0.0697
 6857SOL     OW32032   3.973   1.355  13.636 -0.0408 -0.7194  0.2939
 6857SOL    HW132033   4.063   1.372  13.664 -0.5401  0.4745  1.1553
 6857SOL    HW232034   3.927   1.427  13.678  1.0296 -0.4119  0.9487
 6858SOL     OW32035   4.015   3.604   7.476 -0.5095 -0.2374  0.0801
 6858SOL    HW132036   3.931   3.641   7.500 -0.8629 -0.8016 -0.2914
 6858SOL    HW232037   4.017   3.521   7.524 -2.8896  0.5272  1.5085
 6859SOL     OW32038   4.041   1.494  14.075  0.3189 -0.4559 -0.2454
 6859SOL    HW132039   3.957   1.517  14.034  1.0992  2.3656 -0.2576
 6859SOL    HW232040   4.083   1.580  14.086 -1.8381  0.4551  0.9509
 6860SOL     OW32041   0.897   1.090   5.114 -0.1118 -0.0455  0.2787
 6860SOL    HW132042   0.984   1.081   5.073  0.5078  1.6064  1.2022
 6860SOL    HW232043   0.847   1.134   5.046 -0.3851  1.7148  1.6198
 6861SOL     OW32044   0.238   4.393  11.480  0.1176 -0.1212 -0.1627
 6861SOL    HW132045   0.182   4.397  11.558 -0.5581  0.3436 -0.6714
 6861SOL    HW232046   0.208   4.472  11.435  0.8585  0.4666  0.3754
 6862SOL     OW32047   3.805   4.584   5.992 -0.4924 -0.0369 -0.2102
 6862SOL    HW132048   3.862   4.647   5.947  0.6199 -0.2888  0.8752
 6862SOL    HW232049   3.835   4.593   6.082  1.0528  0.3411 -0.7560
 6863SOL     OW32050   2.159   0.234   7.138  0.2375  0.1833  0.4275
 6863SOL    HW132051   2.086   0.172   7.131 -0.3605  1.1910 -2.3455
 6863SOL    HW232052   2.127   0.266   7.222  2.0853  1.0290  0.8070
 6864SOL     OW32053   4.085   0.027   7.163  0.3145  0.3520  0.2751
 6864SOL    HW132054   4.136   0.098   7.203  4.0110 -1.6288 -0.9852
 6864SOL    HW232055   4.104   0.042   7.070 -2.7500  0.5943 -0.2984
 6865SOL     OW32056   0.141   3.428   7.123 -0.5622 -0.3597  0.1684
 6865SOL    HW132057   0.198   3.416   7.046  2.4322 -0.4036  2.4042
 6865SOL    HW232058   0.197   3.482   7.178  0.3850 -0.2146 -0.9428
 6866SOL     OW32059   4.513   0.020  11.118  0.1402  0.0871 -0.2834
 6866SOL    HW132060   4.418   0.025  11.106  0.5756  0.3433 -3.3919
 6866SOL    HW232061   4.526   4.658  11.079 -0.2386 -0.1161  0.0326
 6867SOL     OW32062   4.327   0.297   5.140 -0.0728  0.1971  0.2600
 6867SOL    HW132063   4.240   0.332   5.158  0.0569  1.3924 -1.4474
 6867SOL    HW232064   4.378   0.377   5.126  2.0751 -1.0751  0.7724
 6868SOL     OW32065   2.077   3.323   5.180 -0.4116  0.0361  0.1142
 6868SOL    HW132066   2.104   3.256   5.118  0.6271  0.1880  0.4024
 6868SOL    HW232067   2.141   3.393   5.162 -0.4804  0.0167 -0.2149
 6869SOL     OW32068   1.917   0.646  16.817  0.0849 -0.4089 -0.3384
 6869SOL    HW132069   2.012   0.654  16.832 -0.1898 -1.0984  1.7425
 6869SOL    HW232070   1.886   0.664  16.905 -0.3815 -1.7053 -0.2403
 6870SOL     OW32071   4.388   1.022   7.164 -0.3027  0.0697 -0.0309
 6870SOL    HW132072   4.400   0.930   7.188 -0.0556 -0.3072 -1.6166
 6870SOL    HW232073   4.469   1.064   7.195  0.5411 -0.4504 -1.5091
 6871SOL     OW32074   2.069   3.177   1.934 -0.5786 -0.1077  0.3027
 6871SOL    HW132075   2.011   3.169   1.858 -1.1944  1.2587  0.6304
 6871SOL    HW232076   2.021   3.234   1.994 -0.8213  0.2421 -0.2262
 6872SOL     OW32077   0.192   3.955   5.330 -0.0652  0.3652  0.3959
 6872SOL    HW132078   0.205   3.908   5.248  0.9294 -0.0375  0.7940
 6872SOL    HW232079   0.283   3.971   5.355 -0.2778  1.4154  0.5157
 6873SOL     OW32080   0.239   2.349   4.813  0.6360  0.0740  0.6798
 6873SOL    HW132081   0.239   2.429   4.760  0.8761 -1.0352 -1.0049
 6873SOL    HW232082   0.220   2.279   4.749  2.2629 -1.1775  1.5786
 6874SOL     OW32083   1.315   1.895  10.630  0.0954 -0.2938 -0.4101
 6874SOL    HW132084   1.274   1.833  10.691  0.5918  1.4575  1.6997
 6874SOL    HW232085   1.296   1.860  10.543  0.1020  1.5650 -1.1434
 6875SOL     OW32086   3.210   1.608   5.168 -0.1225  0.5195  0.4174
 6875SOL    HW132087   3.189   1.701   5.166 -0.4295  0.4569  0.5538
 6875SOL    HW232088   3.229   1.590   5.260 -0.7256 -0.4437  0.3599
 6876SOL     OW32089   2.278   1.141   2.212 -0.5957 -0.6663  0.3275
 6876SOL    HW132090   2.213   1.086   2.257 -0.4631 -0.7377  0.4302
 6876SOL    HW232091   2.284   1.098   2.127  0.4286  0.0036  0.0712
 6877SOL     OW32092   1.998   1.321   7.503 -0.1969 -0.0129 -0.3636
 6877SOL    HW132093   2.041   1.313   7.418 -1.5442  2.2145 -1.2500
 6877SOL    HW232094   1.909   1.352   7.490 -0.5613 -1.0281 -0.3123
 6878SOL     OW32095   4.574   2.142   0.356 -0.2870 -0.1068 -0.0091
 6878SOL    HW132096   4.608   2.227   0.328  1.4484 -0.8467 -0.1205
 6878SOL    HW232097   4.496   2.128   0.303  1.0217 -0.3192 -1.8611
 6879SOL     OW32098   3.371   4.205   1.838  0.0304  0.8797 -0.1035
 6879SOL    HW132099   3.450   4.241   1.799  0.5354 -2.0776 -1.7925
 6879SOL    HW232100   3.384   4.115   1.809 -0.9293  0.3695  1.0644
 6880SOL     OW32101   0.673   1.768  10.344 -0.0639  0.1056  0.0068
 6880SOL    HW132102   0.585   1.797  10.318  1.2481  1.6658 -2.7693
 6880SOL    HW232103   0.685   1.705  10.273 -0.7969  0.9488 -0.8651
 6881SOL     OW32104   3.160   3.814   2.799  0.2939 -0.3151 -0.1710
 6881SOL    HW132105   3.221   3.869   2.749 -0.4069 -0.1276 -0.8237
 6881SOL    HW232106   3.076   3.860   2.797  0.2920 -0.4274 -2.5471
 6882SOL     OW32107   2.561   4.271   4.608  0.0231  0.0524  0.3985
 6882SOL    HW132108   2.644   4.315   4.628 -1.2502  2.1517  1.0235
 6882SOL    HW232109   2.534   4.246   4.697  1.8162  0.5830  1.0852
 6883SOL     OW32110   1.595   3.075   8.751  0.5172  0.1048  0.0603
 6883SOL    HW132111   1.634   3.139   8.692  2.1811 -0.1666  0.8666
 6883SOL    HW232112   1.668   3.012   8.753 -0.1018 -0.5589  3.3387
 6884SOL     OW32113   3.418   3.809   3.941 -0.3165 -0.1795  0.5231
 6884SOL    HW132114   3.393   3.885   3.888  1.9126  0.8937  1.0301
 6884SOL    HW232115   3.470   3.847   4.011 -0.7671  1.0178  0.2086
 6885SOL     OW32116   3.095   3.544   2.867  0.0458 -0.4925  0.4853
 6885SOL    HW132117   3.011   3.572   2.831 -0.6430 -1.2982  1.4492
 6885SOL    HW232118   3.145   3.623   2.850 -2.2289  0.8912  0.2668
 6886SOL     OW32119   1.938   3.301   9.880  0.1696  0.0853  0.1301
 6886SOL    HW132120   1.913   3.393   9.874  0.6539  0.2798  1.0890
 6886SOL    HW232121   1.852   3.263   9.897  0.5309 -0.7801  0.0309
 6887SOL     OW32122   2.581   1.034  10.647 -0.5787 -0.3025 -0.3246
 6887SOL    HW132123   2.633   1.063  10.572  0.9346 -1.7147  0.1762
 6887SOL    HW232124   2.638   0.989  10.709 -2.1863  0.8674  2.0160
 6888SOL     OW32125   1.704   3.108   5.889  0.1140  0.0402 -0.2195
 6888SOL    HW132126   1.680   3.038   5.828 -1.0367 -0.8771  1.2784
 6888SOL    HW232127   1.731   3.055   5.964 -1.6587 -1.0937 -0.3871
 6889SOL     OW32128   1.931   0.282   1.684  0.0497 -0.3495  0.3570
 6889SOL    HW132129   1.990   0.302   1.611  0.0100  0.1172  0.4510
 6889SOL    HW232130   1.957   0.195   1.715  4.4387 -0.0970 -2.6374
 6890SOL     OW32131   1.145   1.971   5.242 -0.0560  0.4615  0.4516
 6890SOL    HW132132   1.164   2.020   5.162 -1.8733 -1.3871 -1.1185
 6890SOL    HW232133   1.060   2.009   5.266 -0.9460 -0.6714 -0.9175
 6891SOL     OW32134   1.349   0.563   9.824  0.0828  0.3720 -0.1731
 6891SOL    HW132135   1.442   0.585   9.825  0.3136 -0.6840  0.9165
 6891SOL    HW232136   1.324   0.632   9.885  1.0217  1.4391 -0.9733
 6892SOL     OW32137   3.037   4.378   5.444  0.0126 -0.6748 -0.0964
 6892SOL    HW132138   3.006   4.465   5.418  1.7301 -0.2855 -0.8679
 6892SOL    HW232139   3.035   4.328   5.363  0.3862 -1.5887  0.4691
 6893SOL     OW32140   0.211   0.773   6.948 -0.2846  0.0171  0.7637
 6893SOL    HW132141   0.116   0.773   6.956 -0.4314  0.1792 -0.9273
 6893SOL    HW232142   0.226   0.866   6.961 -0.2463 -0.0520  1.2007
 6894SOL     OW32143   1.651   3.252   7.622  0.1310  0.2627 -0.0908
 6894SOL    HW132144   1.700   3.334   7.621  2.5872 -1.1722  1.8616
 6894SOL    HW232145   1.563   3.288   7.622  0.0975  0.1773 -0.5675
 6895SOL     OW32146   3.129   2.655   4.263  0.3709  0.1793  0.6074
 6895SOL    HW132147   3.087   2.582   4.217 -1.9490  0.1283  2.7823
 6895SOL    HW232148   3.217   2.636   4.230  0.3369 -0.2059  0.7305
 6896SOL     OW32149   3.466   3.784  11.239  0.1253 -0.0311 -0.6707
 6896SOL    HW132150   3.381   3.744  11.258 -1.8430  3.6089 -1.7051
 6896SOL    HW232151   3.494   3.720  11.174  0.0174 -0.0514 -0.6975
 6897SOL     OW32152   4.358   3.486   3.900 -0.0453 -0.3989 -0.0975
 6897SOL    HW132153   4.378   3.393   3.917 -0.2970 -0.7369 -1.6325
 6897SOL    HW232154   4.334   3.487   3.807 -1.4929 -1.7643  0.2707
 6898SOL     OW32155   1.741   3.179  13.186  0.0891 -0.6641  0.0044
 6898SOL    HW132156   1.804   3.121  13.230  0.2739 -0.0044  0.5979
 6898SOL    HW232157   1.679   3.195  13.257  0.9038  0.3843  0.4719
 6899SOL     OW32158   0.254   4.553   2.053  0.3787 -0.3854  0.0182
 6899SOL    HW132159   0.288   4.641   2.042  0.3771 -0.1341  1.8954
 6899SOL    HW232160   0.338   4.508   2.057 -0.2854 -1.4803  1.8810
 6900SOL     OW32161   0.503   3.009   2.615 -0.2173 -0.3493  0.0663
 6900SOL    HW132162   0.434   3.059   2.572  0.5921  0.4799 -0.2773
 6900SOL    HW232163   0.484   3.031   2.706 -1.8767  0.8710 -0.5700
 6901SOL     OW32164   1.389   0.694   2.535  0.4204 -0.5426  0.0166
 6901SOL    HW132165   1.312   0.652   2.574 -1.0380 -1.3144 -3.6419
 6901SOL    HW232166   1.447   0.701   2.611  2.8326 -1.5482 -1.7378
 6902SOL     OW32167   4.637   1.085   8.885 -0.5341 -0.3990  0.2439
 6902SOL    HW132168   4.571   1.149   8.910 -1.1136 -0.7556 -0.3641
 6902SOL    HW232169   4.707   1.138   8.846 -2.1785  1.6515  0.0863
 6903SOL     OW32170   4.381   1.476  16.714 -0.5010 -0.1336 -0.0578
 6903SOL    HW132171   4.351   1.489  16.624 -0.1621 -0.0931 -0.1650
 6903SOL    HW232172   4.474   1.495  16.704 -0.8837  1.5385 -0.4053
 6904SOL     OW32173   0.403   0.582   4.207 -0.0026  0.1871  0.7209
 6904SOL    HW132174   0.351   0.661   4.226 -0.0816 -0.5790  3.6282
 6904SOL    HW232175   0.462   0.606   4.135 -0.6629 -0.2654  0.0372
 6905SOL     OW32176   3.551   1.739   4.468  0.3727  0.2483  0.3487
 6905SOL    HW132177   3.495   1.728   4.545 -2.1317  2.6834 -1.1283
 6905SOL    HW232178   3.623   1.678   4.486  0.4572  0.8206  1.9204
 6906SOL     OW32179   2.392   3.116  12.330  0.0309 -0.1886 -0.5983
 6906SOL    HW132180   2.471   3.125  12.382 -0.1818 -0.4729 -0.2234
 6906SOL    HW232181   2.386   3.022  12.311  0.3964 -0.2669 -0.3113
 6907SOL     OW32182   3.831   3.358   8.116 -0.3112  0.7095  0.3848
 6907SOL    HW132183   3.735   3.357   8.118 -0.2995 -1.0505  0.1252
 6907SOL    HW232184   3.852   3.394   8.202  2.0161 -1.3603  0.6920
 6908SOL     OW32185   0.321   4.192   2.325 -0.0579  0.9283  0.1310
 6908SOL    HW132186   0.336   4.229   2.238 -1.8222  1.1740 -0.0774
 6908SOL    HW232187   0.309   4.258   2.393  0.9637 -0.0291  1.2582
 6909SOL     OW32188   1.767   2.983   6.147 -0.4293 -0.1472 -0.1559
 6909SOL    HW132189   1.781   2.902   6.195 -0.6974  0.8296  1.5666
 6909SOL    HW232190   1.754   3.051   6.213 -0.2200 -0.8973  0.6573
 6910SOL     OW32191   1.818   2.074   4.606 -0.1095 -0.2525 -0.2586
 6910SOL    HW132192   1.890   2.020   4.639  0.9137  1.6497  0.6352
 6910SOL    HW232193   1.841   2.090   4.515  0.7511 -1.5691 -0.2634
 6911SOL     OW32194   0.643   0.931  15.788 -0.3945 -0.5693  0.4580
 6911SOL    HW132195   0.600   0.848  15.767 -0.8458 -0.9502  2.8769
 6911SOL    HW232196   0.600   0.995  15.731  2.0798  1.3277  0.7190
 6912SOL     OW32197   0.479   3.098   6.214  0.6013  0.0431 -0.2180
 6912SOL    HW132198   0.408   3.161   6.232 -0.4098 -0.8368 -1.1877
 6912SOL    HW232199   0.492   3.111   6.120  2.7232 -2.1144 -0.2053
 6913SOL     OW32200   1.281   1.170   1.258 -0.1252  0.1567 -0.0094
 6913SOL    HW132201   1.285   1.093   1.202 -0.5817 -0.0047  0.1740
 6913SOL    HW232202   1.271   1.250   1.207  0.7663 -0.0553 -0.5096
 6914SOL     OW32203   1.068   3.123   3.178 -0.6666  0.7624  0.4060
 6914SOL    HW132204   1.142   3.180   3.200  0.3160 -1.0227  1.7325
 6914SOL    HW232205   1.105   3.040   3.208 -0.0968  1.4405  1.5614
 6915SOL     OW32206   1.482   1.068   9.852  0.1856 -0.1743 -0.0700
 6915SOL    HW132207   1.575   1.086   9.866  0.5776 -1.6516 -0.7532
 6915SOL    HW232208   1.475   0.999   9.918  2.2753 -0.2244  0.1060
 6916SOL     OW32209   1.314   1.915   2.730  0.2674  0.1234 -0.4046
 6916SOL    HW132210   1.260   1.948   2.658  2.5439  1.7282 -1.3526
 6916SOL    HW232211   1.272   1.970   2.796  1.1453 -1.2587  1.3116
 6917SOL     OW32212   4.136   4.109  14.959  0.6269  0.3362 -0.2493
 6917SOL    HW132213   4.079   4.065  14.896  0.7403 -0.7452  0.4061
 6917SOL    HW232214   4.068   4.122  15.026  0.8308 -0.2728  0.0739
 6918SOL     OW32215   3.825   1.233   3.316  0.7610  0.0071 -0.1565
 6918SOL    HW132216   3.854   1.238   3.407 -0.2619  1.4340  0.0808
 6918SOL    HW232217   3.804   1.140   3.327 -1.5246  0.7348  1.5280
 6919SOL     OW32218   3.494   1.230   7.926  0.1983  0.1313  0.5434
 6919SOL    HW132219   3.403   1.219   7.955  0.4808 -0.1289  1.3414
 6919SOL    HW232220   3.501   1.144   7.883  1.4327 -0.6764  2.3497
 6920SOL     OW32221   2.678   2.464   5.080 -0.2351  0.0427 -0.5734
 6920SOL    HW132222   2.667   2.526   5.152  0.6932  1.0904 -1.3331
 6920SOL    HW232223   2.774   2.461   5.075 -0.2496  0.3447 -0.9884
 6921SOL     OW32224   3.623   2.009   9.653 -0.1291 -0.4474  0.4405
 6921SOL    HW132225   3.718   2.003   9.653 -0.1154 -0.2089  0.7345
 6921SOL    HW232226   3.617   2.063   9.574  0.0263  1.7364  1.9232
 6922SOL     OW32227   1.925   3.615   2.877 -0.3129 -0.5257  0.7062
 6922SOL    HW132228   2.016   3.609   2.848 -1.1665 -1.5106 -1.7924
 6922SOL    HW232229   1.939   3.614   2.972 -1.5487  1.3192  0.9081
 6923SOL     OW32230   3.895   4.663  12.488  0.1030  0.1748  0.2443
 6923SOL    HW132231   3.874   4.640  12.578 -0.5233 -0.2233 -0.0019
 6923SOL    HW232232   3.814   4.689  12.443  0.5455  1.2084  0.0442
 6924SOL     OW32233   4.551   0.247   9.211 -0.6691  0.3145  0.3348
 6924SOL    HW132234   4.537   0.288   9.126  0.6814  0.8477  0.3860
 6924SOL    HW232235   4.466   0.248   9.256 -1.5261  0.9034 -1.2789
 6925SOL     OW32236   4.610   1.991   4.809  0.2028  0.1681  0.2836
 6925SOL    HW132237   4.619   2.083   4.835  1.3757 -0.1633  1.0628
 6925SOL    HW232238   4.689   1.961   4.855 -0.9933  0.3520  2.4718
 6926SOL     OW32239   2.000   3.077   5.478  0.3325  0.0378 -0.0354
 6926SOL    HW132240   2.035   3.015   5.414  0.5888  0.5064 -0.3447
 6926SOL    HW232241   1.993   3.023   5.557 -0.4466 -2.1112 -1.5584
 6927SOL     OW32242   1.522   3.661  14.772 -0.4625  0.0210 -0.2380
 6927SOL    HW132243   1.488   3.574  14.750 -0.5178 -0.2474  0.8663
 6927SOL    HW232244   1.507   3.658  14.867 -0.4823 -1.8593 -0.2964
 6928SOL     OW32245   1.399   0.031   5.195 -0.1283  0.1307 -0.2104
 6928SOL    HW132246   1.343   0.078   5.257 -4.0772 -2.1380 -2.0546
 6928SOL    HW232247   1.473   0.091   5.190 -0.6388  0.7976  0.1916
 6929SOL     OW32248   1.025   4.656  15.316  0.1842 -0.2752 -0.2380
 6929SOL    HW132249   1.104   4.669  15.369  1.0872  2.5207 -2.3113
 6929SOL    HW232250   0.967   4.617  15.382 -2.0051  1.9216 -0.8571
 6930SOL     OW32251   2.851   4.008   7.505  0.5403  0.0003 -0.4036
 6930SOL    HW132252   2.762   4.038   7.521 -0.2602 -2.2761 -0.4927
 6930SOL    HW232253   2.848   3.912   7.506  1.1310 -0.0337 -1.6581
 6931SOL     OW32254   4.498   0.882   8.991  0.2183 -0.0581  0.4082
 6931SOL    HW132255   4.554   0.935   8.934  0.6591 -0.5151  0.4172
 6931SOL    HW232256   4.508   0.936   9.069  0.6813 -0.4152  0.5940
 6932SOL     OW32257   1.851   4.029   5.920  0.8207 -0.3215  0.2711
 6932SOL    HW132258   1.910   4.094   5.883 -0.3405  0.4415 -0.2261
 6932SOL    HW232259   1.802   4.093   5.971  1.6487 -0.0868  0.7852
 6933SOL     OW32260   1.950   4.584   4.398  0.0520  0.1671  0.4386
 6933SOL    HW132261   1.954   4.609   4.306  1.4365 -0.8460  0.2339
 6933SOL    HW232262   1.912   4.497   4.384  1.3916  0.0216 -2.0837
 6934SOL     OW32263   0.102   3.736   3.740  0.0266 -0.2196  0.2134
 6934SOL    HW132264   0.182   3.767   3.782  0.3815 -0.6699 -0.1392
 6934SOL    HW232265   0.123   3.661   3.685 -0.2006 -0.5081  0.5249
 6935SOL     OW32266   2.654   3.800   8.984 -0.2225 -0.1771 -0.4346
 6935SOL    HW132267   2.730   3.804   9.042  0.0907 -1.5185 -0.7639
 6935SOL    HW232268   2.638   3.894   8.971  2.1826  0.3555  0.3691
 6936SOL     OW32269   4.238   2.668   5.143  0.1075  0.3345 -0.5429
 6936SOL    HW132270   4.291   2.672   5.063  0.2343 -1.4003 -0.5576
 6936SOL    HW232271   4.156   2.635   5.105  0.6535 -5.8485  3.7012
 6937SOL     OW32272   1.775   2.764  15.592 -0.3811  0.6331 -0.0978
 6937SOL    HW132273   1.797   2.688  15.538  1.1092  0.6027  0.5251
 6937SOL    HW232274   1.777   2.731  15.682 -1.1192 -0.3647 -0.4397
 6938SOL     OW32275   3.886   1.314  14.916 -0.3147 -0.3093  0.0129
 6938SOL    HW132276   3.910   1.403  14.941  0.3455  0.6989 -4.2004
 6938SOL    HW232277   3.800   1.334  14.879 -0.2392 -0.2325 -0.1169
 6939SOL     OW32278   2.659   1.993   3.737 -0.5325  0.2588 -0.1912
 6939SOL    HW132279   2.695   2.059   3.796 -0.9146  0.2233  0.0814
 6939SOL    HW232280   2.709   1.916   3.763 -2.0666 -0.3630  0.9379
 6940SOL     OW32281   0.349   3.695  11.215  0.0792  0.1145  0.2924
 6940SOL    HW132282   0.394   3.746  11.148  0.2391 -1.5815 -0.9025
 6940SOL    HW232283   0.420   3.638  11.246 -1.5504 -2.4779 -0.7716
 6941SOL     OW32284   1.332   0.007   6.684 -0.0625 -0.3050  0.1361
 6941SOL    HW132285   1.364   0.063   6.755  0.6951  0.3528 -0.7320
 6941SOL    HW232286   1.305   0.077   6.624  2.3300  0.5432  0.0628
 6942SOL     OW32287   1.628   2.121  12.140  0.2753  0.2250 -0.1348
 6942SOL    HW132288   1.555   2.081  12.093 -1.0798  0.6207  1.6193
 6942SOL    HW232289   1.623   2.061  12.215  0.6496 -1.6128 -1.5665
 6943SOL     OW32290   1.570   1.550   6.695 -0.1563 -0.2535 -0.4072
 6943SOL    HW132291   1.592   1.475   6.750  0.0560 -0.6073 -0.9708
 6943SOL    HW232292   1.475   1.546   6.706 -0.1924 -0.7225 -0.8871
 6944SOL     OW32293   1.479   4.724   0.069 -0.1891  0.2355 -0.4680
 6944SOL    HW132294   1.538   0.053   0.122 -1.1980 -0.3210  1.1984
 6944SOL    HW232295   1.431   4.683   0.141  1.7101 -1.2448 -0.0559
 6945SOL     OW32296   3.865   2.292   9.484  0.5514 -0.2214  0.7652
 6945SOL    HW132297   3.794   2.313   9.544 -0.0012  1.7385 -0.5692
 6945SOL    HW232298   3.934   2.350   9.516  0.1339  0.8911 -0.3673
 6946SOL     OW32299   2.193   1.399   9.167 -0.1285  0.4296  0.4680
 6946SOL    HW132300   2.196   1.489   9.200  0.6360 -0.9683  4.1639
 6946SOL    HW232301   2.287   1.394   9.150  0.0557  0.5528  1.5042
 6947SOL     OW32302   1.507   3.925   2.833  0.0281 -0.1793  0.6118
 6947SOL    HW132303   1.480   3.861   2.899  1.7916 -1.7714 -0.2118
 6947SOL    HW232304   1.547   3.867   2.769 -1.6592 -0.8335  0.1478
 6948SOL     OW32305   4.496   1.006   4.222  0.8725 -0.2169  0.2561
 6948SOL    HW132306   4.458   1.086   4.186  3.8526  0.0342 -2.2568
 6948SOL    HW232307   4.577   1.044   4.256  1.1504  0.3908 -1.0824
 6949SOL     OW32308   2.235   3.384   3.618 -0.5779  0.4000 -0.2303
 6949SOL    HW132309   2.185   3.445   3.672  0.2438  1.4287 -0.6172
 6949SOL    HW232310   2.289   3.345   3.686 -1.8734 -0.1265  0.4852
 6950SOL     OW32311   1.130   2.039   1.805  0.3825  0.0748 -0.0956
 6950SOL    HW132312   1.209   2.092   1.817 -0.0126 -0.1351  3.3953
 6950SOL    HW232313   1.153   1.993   1.724  1.8050  0.8624 -0.1420
 6951SOL     OW32314   2.453   3.675   4.657 -0.1243 -0.0770  0.2231
 6951SOL    HW132315   2.506   3.751   4.680  0.0823  0.0444 -0.6570
 6951SOL    HW232316   2.377   3.716   4.617 -1.8780 -0.2357  3.3527
 6952SOL     OW32317   4.053   1.519   9.391 -0.3915  0.0804  0.0230
 6952SOL    HW132318   4.048   1.435   9.437  1.9203 -0.8160 -1.3703
 6952SOL    HW232319   3.973   1.510   9.338 -0.5525 -0.6731  0.3814
 6953SOL     OW32320   3.335   3.183   5.566 -0.2212 -0.0296  0.1155
 6953SOL    HW132321   3.296   3.121   5.505 -1.3784  1.0906 -0.2927
 6953SOL    HW232322   3.351   3.265   5.519  1.7390  0.3033  1.3562
 6954SOL     OW32323   3.667   4.123   6.497  0.3308  0.5039  0.5849
 6954SOL    HW132324   3.583   4.167   6.492 -0.3602 -1.0215 -1.3036
 6954SOL    HW232325   3.685   4.150   6.587  2.6667  2.3189 -0.4064
 6955SOL     OW32326   3.932   3.271   8.821 -0.1205  0.6885 -0.4045
 6955SOL    HW132327   3.978   3.234   8.897 -0.9401  0.4345 -0.0364
 6955SOL    HW232328   3.964   3.207   8.758  1.6329  2.2247 -1.0638
 6956SOL     OW32329   3.482   0.292  14.300 -0.3235  0.2795  0.2291
 6956SOL    HW132330   3.520   0.246  14.375  0.9346  1.0539  0.0623
 6956SOL    HW232331   3.564   0.300  14.251  0.6182  0.2456  1.8018
 6957SOL     OW32332   1.845   2.845  10.717  0.3153 -0.3884  0.1901
 6957SOL    HW132333   1.861   2.891  10.800 -1.3682 -0.8914  0.7836
 6957SOL    HW232334   1.861   2.920  10.659 -0.4377 -0.9367 -0.7162
 6958SOL     OW32335   1.678   4.556  10.388 -0.1836 -0.1842 -0.3260
 6958SOL    HW132336   1.772   4.536  10.394 -0.1331  0.2271  0.2130
 6958SOL    HW232337   1.658   4.576  10.479 -1.2889 -1.9826 -0.1896
 6959SOL     OW32338   0.772   3.088   3.246  0.2282  0.2415 -0.1273
 6959SOL    HW132339   0.856   3.102   3.203  0.9588 -1.4804  0.7572
 6959SOL    HW232340   0.755   2.997   3.224  0.0362  0.3353 -0.3607
 6960SOL     OW32341   0.308   0.365  16.861  0.5303 -0.5171  0.4534
 6960SOL    HW132342   0.261   0.445  16.886  2.7227  0.7129  0.6066
 6960SOL    HW232343   0.300   0.363  16.766  0.2324 -0.5479  0.4779
 6961SOL     OW32344   2.664   1.057   3.203  0.0000 -0.5752 -0.0433
 6961SOL    HW132345   2.690   0.965   3.209  1.6518 -0.1209 -0.3219
 6961SOL    HW232346   2.630   1.061   3.114 -1.0671  0.3952  0.4013
 6962SOL     OW32347   1.930   1.322   4.430  0.8683 -0.4066  0.0217
 6962SOL    HW132348   1.974   1.316   4.514 -2.2265 -0.9397  1.6108
 6962SOL    HW232349   1.882   1.239   4.432 -0.2971  0.3404  2.2929
 6963SOL     OW32350   4.377   4.678  12.434  0.4114  0.1729 -0.3630
 6963SOL    HW132351   4.302   4.642  12.387 -0.8536  1.7253  0.4627
 6963SOL    HW232352   4.321   4.684  12.511  2.2933 -0.3509  1.0361
 6964SOL     OW32353   2.325   2.804  14.577 -0.1660 -0.3933  0.0793
 6964SOL    HW132354   2.400   2.800  14.636  0.3370  2.2482 -0.3754
 6964SOL    HW232355   2.265   2.743  14.620  2.8327 -2.3646  1.4575
 6965SOL     OW32356   1.360   0.314   9.691 -0.1552 -0.0555 -0.0604
 6965SOL    HW132357   1.340   0.394   9.739  3.9397  0.1931  1.2120
 6965SOL    HW232358   1.453   0.333   9.680 -0.3844  1.5479  0.6618
 6966SOL     OW32359   4.456   4.692   7.299  0.1321 -0.0079  0.1731
 6966SOL    HW132360   4.385   0.023   7.267  1.6353  1.3230 -0.8598
 6966SOL    HW232361   4.458   4.628   7.228 -0.8398 -0.6852  0.7631
 6967SOL     OW32362   4.472   0.234  13.498 -0.2787 -0.1944  0.0569
 6967SOL    HW132363   4.551   0.196  13.536  0.1643 -0.8022 -1.4550
 6967SOL    HW232364   4.465   0.310  13.556 -2.0312 -0.6168  0.4039
 6968SOL     OW32365   3.355   4.474  11.183 -0.1064 -0.0890 -0.0112
 6968SOL    HW132366   3.353   4.401  11.121  0.1958 -0.0670 -0.0455
 6968SOL    HW232367   3.429   4.522  11.147  0.0916 -0.3624  0.0327
 6969SOL     OW32368   4.494   1.398  13.301  0.3125  0.1306 -0.3368
 6969SOL    HW132369   4.410   1.445  13.303  0.3990  0.2103  1.2561
 6969SOL    HW232370   4.551   1.458  13.351 -2.1839  1.6506  0.6876
 6970SOL     OW32371   0.058   1.311   4.615 -0.2876  0.1921 -0.1620
 6970SOL    HW132372   4.716   1.245   4.637 -0.0790  0.6068  1.7029
 6970SOL    HW232373   0.091   1.339   4.701 -1.5859 -0.3337  0.5058
 6971SOL     OW32374   2.842   4.235  11.222 -0.5526  0.0580 -0.1340
 6971SOL    HW132375   2.765   4.226  11.165 -0.5825 -0.4150 -0.0153
 6971SOL    HW232376   2.807   4.178  11.290 -0.1483  0.7158  0.6128
 6972SOL     OW32377   2.899   1.171  11.946 -0.1832  0.0803 -1.4243
 6972SOL    HW132378   2.947   1.206  11.871  0.5285  0.2691 -0.8797
 6972SOL    HW232379   2.848   1.252  11.951  0.4701  0.3950  0.0827
 6973SOL     OW32380   3.768   1.241   5.545 -0.2487  0.2742 -0.0799
 6973SOL    HW132381   3.712   1.246   5.467 -1.3125 -1.3973  0.5747
 6973SOL    HW232382   3.698   1.255   5.609  0.2761 -0.6667  0.7008
 6974SOL     OW32383   0.893   0.406   1.218  0.0220  0.2211 -0.0782
 6974SOL    HW132384   0.956   0.456   1.271  1.0556 -0.6315 -0.4940
 6974SOL    HW232385   0.935   0.325   1.190 -0.6574 -0.0390 -0.3313
 6975SOL     OW32386   1.342   0.318   7.196  0.0877 -0.3224  0.1338
 6975SOL    HW132387   1.337   0.343   7.104 -0.4737 -1.2524 -0.0836
 6975SOL    HW232388   1.263   0.355   7.235 -1.2828  0.3522 -3.2976
 6976SOL     OW32389   2.520   4.129   7.385 -0.7806  0.0036 -0.3692
 6976SOL    HW132390   2.584   4.093   7.323  1.7785  1.0177  1.6829
 6976SOL    HW232391   2.543   4.222   7.384 -1.1244  0.0730 -1.3144
 6977SOL     OW32392   0.010   4.634   9.007 -0.3499  0.4831  0.0771
 6977SOL    HW132393   4.710   4.562   8.948  0.2764  0.9365 -0.7405
 6977SOL    HW232394   4.645   4.661   9.027 -0.8155 -1.7471  1.0325
 6978SOL     OW32395   3.993   2.417   2.359 -0.4960  0.8106  0.0881
 6978SOL    HW132396   4.069   2.472   2.380  0.9556 -1.1236 -0.1698
 6978SOL    HW232397   3.998   2.353   2.430  0.4463  0.6886 -0.0920
 6979SOL     OW32398   0.308   3.307  13.346 -0.9365 -0.6285  0.6652
 6979SOL    HW132399   0.391   3.295  13.300 -0.3845 -0.9603  1.7345
 6979SOL    HW232400   0.254   3.252  13.289 -0.6908 -1.1390  0.9188
 6980SOL     OW32401   3.818   4.660   3.264  0.6153 -0.2002 -0.3367
 6980SOL    HW132402   3.902   4.650   3.310  0.3849  0.7349  0.2821
 6980SOL    HW232403   3.829   4.620   3.178  0.2038 -0.6902 -0.1659
 6981SOL     OW32404   2.495   1.983   3.511 -0.0735  0.0609  0.2131
 6981SOL    HW132405   2.410   1.999   3.551 -1.2812  1.0806 -2.7551
 6981SOL    HW232406   2.556   1.988   3.585 -1.9735  0.4301  1.7621
 6982SOL     OW32407   0.703   2.978   7.691 -0.6564  0.1465 -0.4643
 6982SOL    HW132408   0.789   2.942   7.710  0.2775  2.4075 -0.3246
 6982SOL    HW232409   0.710   2.953   7.599  0.8708  0.7530 -0.5177
 6983SOL     OW32410   1.617   1.323   3.901 -0.2354  0.4467  0.5784
 6983SOL    HW132411   1.666   1.257   3.951  0.6163 -2.1428 -3.6440
 6983SOL    HW232412   1.687   1.381   3.872  2.0680 -1.7838  1.6809
 6984SOL     OW32413   1.392   4.000  13.008 -0.2194  0.4555  0.2774
 6984SOL    HW132414   1.481   3.965  13.020 -0.4336 -0.7948 -1.7973
 6984SOL    HW232415   1.366   3.960  12.925 -1.2253 -2.6236  2.0775
 6985SOL     OW32416   3.308   3.650   8.647  0.2657 -0.0437 -0.0216
 6985SOL    HW132417   3.215   3.653   8.670  0.0233  0.3313 -1.0739
 6985SOL    HW232418   3.327   3.742   8.633  1.9208 -0.4716 -0.6234
 6986SOL     OW32419   0.234   2.928  10.918  0.2087 -0.3079  0.1123
 6986SOL    HW132420   0.290   2.953  10.992  0.6642  0.1901 -0.4006
 6986SOL    HW232421   0.209   2.838  10.935  0.3779 -0.4865 -0.5958
 6987SOL     OW32422   1.547   0.859   1.791 -0.1112  0.2367  0.0995
 6987SOL    HW132423   1.473   0.917   1.810  1.0469  1.6816  0.1864
 6987SOL    HW232424   1.546   0.785   1.851  0.2060  0.6612  0.6248
 6988SOL     OW32425   3.534   4.013   0.222  0.5228 -0.7076  0.2176
 6988SOL    HW132426   3.464   4.075   0.240 -0.8870 -1.5046 -2.6879
 6988SOL    HW232427   3.586   4.053   0.153 -0.1109 -0.0832  0.1070
 6989SOL     OW32428   0.767   1.718   0.259  0.0571 -0.5149 -0.3416
 6989SOL    HW132429   0.791   1.693   0.349 -3.1127 -0.2892  0.5558
 6989SOL    HW232430   0.776   1.813   0.260  1.6270 -0.6613 -0.2148
 6990SOL     OW32431   1.378   0.123   7.424  0.4579  0.2970 -0.2891
 6990SOL    HW132432   1.425   0.198   7.389 -1.2217  1.6095  0.2681
 6990SOL    HW232433   1.296   0.138   7.378  0.0108  0.1248  0.4472
 6991SOL     OW32434   0.813   0.157  12.633 -0.2586  0.0929  0.3077
 6991SOL    HW132435   0.849   0.081  12.590  1.2300  0.2349  1.3071
 6991SOL    HW232436   0.775   0.110  12.707  0.5120  2.6498  2.3421
 6992SOL     OW32437   4.345   3.558   5.428  0.2369  0.2812  0.8148
 6992SOL    HW132438   4.354   3.653   5.434 -0.3150  0.3053  1.2754
 6992SOL    HW232439   4.431   3.518   5.443 -0.5954 -2.3319 -1.3036
 6993SOL     OW32440   1.555   3.263  13.853 -0.7070 -0.2107  0.0056
 6993SOL    HW132441   1.615   3.300  13.918 -1.2884 -0.9019  0.9304
 6993SOL    HW232442   1.607   3.282  13.775  1.4944  0.8825  1.7249
 6994SOL     OW32443   1.111   4.558  16.161 -0.5461  0.2743 -0.3537
 6994SOL    HW132444   1.100   4.560  16.066 -1.7848  0.4590 -0.2073
 6994SOL    HW232445   1.174   4.490  16.187  0.7010  0.3203 -3.2904
 6995SOL     OW32446   0.813   3.012  16.620 -0.6073  0.1418 -0.0855
 6995SOL    HW132447   0.738   2.954  16.605  0.5947 -0.9279 -1.9335
 6995SOL    HW232448   0.874   2.951  16.662  0.6236  0.1630 -1.8304
 6996SOL     OW32449   0.492   2.978   8.591  0.3413  0.4689  0.1579
 6996SOL    HW132450   0.545   3.053   8.565  1.8770  0.2492  2.6700
 6996SOL    HW232451   0.541   2.897   8.573  1.7139  1.1597  0.8126
 6997SOL     OW32452   2.350   1.450   1.379  0.0542  0.3967  0.3498
 6997SOL    HW132453   2.336   1.544   1.363 -1.8420  0.0880  0.2724
 6997SOL    HW232454   2.308   1.415   1.301 -1.2001  2.9818 -0.1406
 6998SOL     OW32455   3.724   0.606   4.699 -0.5422 -0.1810  0.1539
 6998SOL    HW132456   3.757   0.521   4.669  0.7316 -0.8939  3.5451
 6998SOL    HW232457   3.630   0.595   4.716 -0.4103 -2.3739 -0.5138
 6999SOL     OW32458   1.168   3.242  13.639 -0.1607 -0.2272 -0.3897
 6999SOL    HW132459   1.201   3.303  13.574  1.0169  0.0883  0.5158
 6999SOL    HW232460   1.199   3.295  13.712 -0.5559 -1.7786  0.9201
 7000SOL     OW32461   4.432   0.339   2.948 -0.3233 -0.1691  0.0637
 7000SOL    HW132462   4.452   0.295   2.866 -0.8976  0.1551 -0.2534
 7000SOL    HW232463   4.473   0.425   2.934 -1.1197 -0.3191 -3.0432
 7001SOL     OW32464   3.557   1.873   7.084  0.1105 -0.3480 -1.0571
 7001SOL    HW132465   3.493   1.823   7.135 -1.7442  0.5824 -2.4627
 7001SOL    HW232466   3.597   1.930   7.150  1.6753 -1.0735 -1.3620
 7002SOL     OW32467   1.986   2.763   7.420 -0.2534  0.0285 -0.0259
 7002SOL    HW132468   2.016   2.756   7.510 -1.4234  2.2228  0.5309
 7002SOL    HW232469   1.994   2.669   7.400  2.2937  0.0295  0.9611
 7003SOL     OW32470   4.141   3.886  12.019  0.2058  0.6915  0.2310
 7003SOL    HW132471   4.109   3.944  11.950  1.9199  0.2218 -0.9655
 7003SOL    HW232472   4.141   3.942  12.096 -0.8697 -0.2347  0.9062
 7004SOL     OW32473   1.394   3.202  12.769 -0.4649  0.0559 -0.4867
 7004SOL    HW132474   1.352   3.227  12.686  0.0288  2.1264 -0.1038
 7004SOL    HW232475   1.338   3.131  12.801  0.6779 -0.3363  0.6389
 7005SOL     OW32476   3.715   4.536   2.150  0.1144 -0.9205 -0.4124
 7005SOL    HW132477   3.807   4.510   2.145  0.6286  0.4306  1.5873
 7005SOL    HW232478   3.730   4.629   2.170  1.0873 -1.1434 -0.1059
 7006SOL     OW32479   1.606   0.895   8.683  0.1767 -0.3353 -0.4528
 7006SOL    HW132480   1.668   0.966   8.696  0.4200 -0.7098  0.4258
 7006SOL    HW232481   1.564   0.885   8.769  0.3072 -2.0100 -0.5819
 7007SOL     OW32482   1.544   2.943   1.015 -0.0660  0.3428 -0.0391
 7007SOL    HW132483   1.487   2.933   1.091 -0.4378 -1.2183 -0.5145
 7007SOL    HW232484   1.521   3.028   0.977 -1.1396  1.2400  2.6426
 7008SOL     OW32485   4.388   2.022   6.641 -0.0959 -0.4482  0.5907
 7008SOL    HW132486   4.399   2.013   6.547  0.8601  0.0340  0.6548
 7008SOL    HW232487   4.297   1.994   6.650  0.2070 -1.1318  1.5494
 7009SOL     OW32488   3.093   4.282  12.398  0.4056 -0.0880 -0.0563
 7009SOL    HW132489   3.039   4.216  12.354  2.4119  0.1469 -2.8901
 7009SOL    HW232490   3.091   4.357  12.337  0.0718  0.3397  0.4780
 7010SOL     OW32491   3.957   1.208   3.551 -0.8402  0.3313 -0.0076
 7010SOL    HW132492   3.955   1.156   3.631 -1.2280 -0.0761 -0.2794
 7010SOL    HW232493   4.018   1.273   3.585 -1.8374  1.9736 -1.3309
 7011SOL     OW32494   4.405   2.085  13.364  0.1597 -0.8631  0.5014
 7011SOL    HW132495   4.347   2.033  13.309  0.6564 -1.7323  0.7993
 7011SOL    HW232496   4.490   2.084  13.321 -0.4463 -2.8488 -0.7044
 7012SOL     OW32497   0.248   3.496   8.744 -0.5653  0.3492 -0.0956
 7012SOL    HW132498   0.155   3.519   8.738 -0.7034 -0.1914 -0.0181
 7012SOL    HW232499   0.289   3.573   8.785  1.2684  0.1230 -1.5160
 7013SOL     OW32500   1.580   0.253   2.306  0.0421 -0.0379 -0.0850
 7013SOL    HW132501   1.545   0.201   2.379 -0.5491  0.7956  0.2273
 7013SOL    HW232502   1.603   0.332   2.355  0.0604 -1.0873  1.5912
 7014SOL     OW32503   3.849   3.685  11.757  0.4645 -0.1430 -0.2150
 7014SOL    HW132504   3.837   3.676  11.852  1.6389 -0.9072 -0.1270
 7014SOL    HW232505   3.788   3.758  11.748 -0.4586 -1.1994 -2.3420
 7015SOL     OW32506   0.485   2.686   3.565 -0.1725 -0.3313 -0.2512
 7015SOL    HW132507   0.501   2.647   3.479  0.2473  0.2559 -0.4338
 7015SOL    HW232508   0.537   2.635   3.627 -2.2005 -3.8965 -1.4461
 7016SOL     OW32509   1.122   3.686   7.585 -0.4449  0.2009  0.0232
 7016SOL    HW132510   1.191   3.692   7.519  0.2592  0.0035  0.7443
 7016SOL    HW232511   1.136   3.597   7.618  0.2526  1.2239  2.5173
 7017SOL     OW32512   2.035   0.919   7.300  0.6170 -0.1502  0.2429
 7017SOL    HW132513   2.087   0.923   7.380  0.9042 -3.2139  0.1874
 7017SOL    HW232514   1.980   0.844   7.319  1.1445 -0.8222 -0.9193
 7018SOL     OW32515   1.062   1.304   9.748  0.0564  0.1765  0.6360
 7018SOL    HW132516   1.028   1.392   9.741 -1.2315 -0.3493  0.3696
 7018SOL    HW232517   1.117   1.302   9.669 -1.0319  0.7714 -0.1320
 7019SOL     OW32518   4.076   4.213   9.449 -0.0361  0.6163 -0.9073
 7019SOL    HW132519   4.075   4.123   9.481  0.4753  0.4244 -1.4356
 7019SOL    HW232520   4.149   4.209   9.388  0.3376 -0.5755 -0.3877
 7020SOL     OW32521   3.710   4.048  15.593  0.0816 -0.6923  0.1410
 7020SOL    HW132522   3.771   4.015  15.659  0.3854  0.6647  0.5331
 7020SOL    HW232523   3.641   3.981  15.590 -0.6847  0.2274 -3.6914
 7021SOL     OW32524   3.012   0.534   8.231  0.2130 -0.0447 -0.9018
 7021SOL    HW132525   3.084   0.570   8.179  0.4356 -0.0705 -0.6092
 7021SOL    HW232526   3.044   0.546   8.320 -0.0200  3.5030 -1.3050
 7022SOL     OW32527   0.449   3.994  12.056 -0.2874 -0.3086  0.6770
 7022SOL    HW132528   0.446   4.031  11.968 -0.2245 -2.1818 -0.0975
 7022SOL    HW232529   0.355   3.998  12.073 -0.5356  1.2203 -1.0288
 7023SOL     OW32530   1.891   2.015   2.508  0.5768 -0.4555 -0.8469
 7023SOL    HW132531   1.959   1.955   2.476  1.7563 -0.8499  2.3737
 7023SOL    HW232532   1.809   1.984   2.471  0.0592 -0.4883  0.3159
 7024SOL     OW32533   1.605   3.067   6.429 -0.2483  0.2132  0.4583
 7024SOL    HW132534   1.670   3.038   6.494  0.9312  0.0088 -0.8074
 7024SOL    HW232535   1.587   3.157   6.455 -0.8742  0.0513  0.5757
 7025SOL     OW32536   2.684   2.545   0.105  0.3951 -0.5606 -0.3074
 7025SOL    HW132537   2.754   2.523   0.166  0.7268 -0.7922 -0.7734
 7025SOL    HW232538   2.722   2.629   0.081  1.6925 -0.7257  1.1567
 7026SOL     OW32539   0.865   4.342   8.316 -0.4165  0.3290 -0.2526
 7026SOL    HW132540   0.837   4.259   8.356  0.5036 -0.4287 -1.1605
 7026SOL    HW232541   0.889   4.309   8.229  0.5731  1.7491 -0.5045
 7027SOL     OW32542   2.815   0.271   2.864  0.1813  0.1667  0.8708
 7027SOL    HW132543   2.841   0.275   2.772 -3.3801 -1.1740 -0.1852
 7027SOL    HW232544   2.870   0.343   2.897 -2.2980  2.0311  0.9609
 7028SOL     OW32545   1.595   0.187   0.573 -0.5568  0.2155  0.3260
 7028SOL    HW132546   1.611   0.253   0.505  2.8974 -2.1845 -1.1743
 7028SOL    HW232547   1.605   0.235   0.655 -1.2627  1.6285 -0.4164
 7029SOL     OW32548   4.421   4.249   8.316  0.1817  0.1835 -0.4294
 7029SOL    HW132549   4.367   4.295   8.251 -0.1966 -0.8416 -0.8284
 7029SOL    HW232550   4.447   4.329   8.363 -2.1527 -0.0893  1.2897
 7030SOL     OW32551   3.527   3.182   3.124  0.1945  0.4129  0.3326
 7030SOL    HW132552   3.518   3.243   3.050 -0.6163  2.1945  1.9031
 7030SOL    HW232553   3.620   3.163   3.113  0.1247  0.8215 -0.9336
 7031SOL     OW32554   3.255   3.246   0.266 -0.5175  0.1599  0.0721
 7031SOL    HW132555   3.293   3.232   0.180  0.9345  3.7564  0.1119
 7031SOL    HW232556   3.173   3.199   0.249 -0.5812  1.3408 -2.8479
 7032SOL     OW32557   2.804   3.019   4.734 -0.6163  0.7591 -0.5756
 7032SOL    HW132558   2.860   3.010   4.658  0.3571 -0.4455  0.2907
 7032SOL    HW232559   2.723   2.975   4.708 -0.1218 -0.2237 -0.4318
 7033SOL     OW32560   3.649   3.510   6.786  0.3544 -0.3105 -0.1448
 7033SOL    HW132561   3.650   3.523   6.691  2.0029 -2.1597 -0.3824
 7033SOL    HW232562   3.727   3.456   6.802  0.0297 -0.4249  1.0700
 7034SOL     OW32563   2.951   3.565   9.057 -0.3489  0.3825 -0.2143
 7034SOL    HW132564   2.877   3.524   9.012 -0.1913  1.8837 -1.8500
 7034SOL    HW232565   3.002   3.496   9.099 -0.3505  0.8080  0.4919
 7035SOL     OW32566   3.493   3.917   7.450 -0.0137  0.3254 -0.3726
 7035SOL    HW132567   3.588   3.927   7.454  0.0611 -1.4875  2.5578
 7035SOL    HW232568   3.484   3.827   7.421  0.7347  0.1012  0.0877
 7036SOL     OW32569   1.286   3.820   6.648 -0.1706  0.3499 -0.3781
 7036SOL    HW132570   1.312   3.732   6.674  1.7084  0.8517 -0.6036
 7036SOL    HW232571   1.190   3.822   6.650 -0.1553  2.4080 -1.8695
 7037SOL     OW32572   1.733   3.582   7.388  0.2974  0.3237  0.0928
 7037SOL    HW132573   1.803   3.638   7.421  0.4244 -0.0448  0.4467
 7037SOL    HW232574   1.779   3.509   7.347 -1.9662 -0.7678 -0.4918
 7038SOL     OW32575   4.451   2.416  10.820 -0.6551  0.0848  0.0194
 7038SOL    HW132576   4.385   2.415  10.751 -0.6737 -0.5226  0.0467
 7038SOL    HW232577   4.423   2.489  10.875  0.3681  1.4743 -1.3023
 7039SOL     OW32578   3.848   3.839   6.534  0.1706 -0.1177 -0.5414
 7039SOL    HW132579   3.876   3.930   6.530 -0.9475  0.2243 -0.4903
 7039SOL    HW232580   3.855   3.802   6.446  3.0542  0.3498 -0.4975
 7040SOL     OW32581   1.311   3.861   7.823  0.3348  0.1706 -0.3086
 7040SOL    HW132582   1.252   3.838   7.751  2.9944  1.0631 -2.7677
 7040SOL    HW232583   1.397   3.849   7.782  1.5537  0.7707  2.0733
 7041SOL     OW32584   3.960   3.420   7.749  0.0758 -0.1237  0.1250
 7041SOL    HW132585   3.944   3.499   7.801 -1.2666  2.9659 -4.9871
 7041SOL    HW232586   4.055   3.423   7.760  0.2567 -1.7503 -1.1783
 7042SOL     OW32587   3.138   1.698  12.381  0.2766  0.0515 -0.3987
 7042SOL    HW132588   3.208   1.700  12.315 -0.8415  1.0526 -1.5356
 7042SOL    HW232589   3.067   1.655  12.333 -1.4240 -0.5816  2.7027
 7043SOL     OW32590   0.587   2.497   2.488 -0.4360  0.2158 -0.0312
 7043SOL    HW132591   0.610   2.503   2.580 -0.4061  2.1936 -0.1664
 7043SOL    HW232592   0.510   2.554   2.492  0.3314  1.1284  1.7781
 7044SOL     OW32593   4.126   0.080   7.893  0.2486 -0.2875  0.0057
 7044SOL    HW132594   4.108   0.004   7.837  0.8183  0.2318 -0.8750
 7044SOL    HW232595   4.134   0.035   7.978 -2.9170  0.9348  0.9419
 7045SOL     OW32596   2.098   1.135   5.771 -0.3383 -0.0148 -0.2622
 7045SOL    HW132597   2.178   1.086   5.752 -0.3902 -0.3018  0.2482
 7045SOL    HW232598   2.125   1.171   5.856 -1.5304 -0.5489  0.3414
 7046SOL     OW32599   3.101   1.160   9.324 -0.8304  0.0424  0.0587
 7046SOL    HW132600   3.111   1.083   9.379  1.2812 -0.2230 -0.6851
 7046SOL    HW232601   3.194   1.185   9.329 -0.9169  0.5264 -0.7271
 7047SOL     OW32602   3.955   3.009   8.365  0.1474 -0.0387 -0.3373
 7047SOL    HW132603   3.975   2.949   8.293  4.6825 -1.2614  1.8974
 7047SOL    HW232604   3.860   3.018   8.358  0.2159 -0.1319 -1.3956
 7048SOL     OW32605   0.971   4.205   1.743 -0.5364  0.0151 -0.5456
 7048SOL    HW132606   1.013   4.201   1.829  0.9645  2.5808 -1.1359
 7048SOL    HW232607   1.012   4.285   1.710  0.0096  0.6016  1.5812
 7049SOL     OW32608   4.196   1.105   3.870 -0.1854  0.0233  0.3892
 7049SOL    HW132609   4.261   1.145   3.813 -1.3640  1.4619  0.0490
 7049SOL    HW232610   4.158   1.183   3.912  0.0982  1.5478 -2.1512
 7050SOL     OW32611   3.422   2.477   2.629  0.1229 -0.2197  0.1599
 7050SOL    HW132612   3.330   2.505   2.636  0.7722  2.4165 -1.7903
 7050SOL    HW232613   3.430   2.431   2.545 -0.3535  0.4901 -0.2801
 7051SOL     OW32614   1.204   2.051   0.695 -0.4039 -0.1376 -0.1341
 7051SOL    HW132615   1.173   1.961   0.706 -2.0382  0.6177  1.5228
 7051SOL    HW232616   1.274   2.057   0.759  1.6540 -2.1175 -2.2100
 7052SOL     OW32617   1.847   4.187   7.880  0.2984 -0.2204 -0.0731
 7052SOL    HW132618   1.937   4.189   7.912  0.2361  2.9963 -0.1183
 7052SOL    HW232619   1.823   4.277   7.901  0.0832 -0.0516 -1.0895
 7053SOL     OW32620   4.119   2.244  13.763  0.1175  0.2243 -0.4425
 7053SOL    HW132621   4.161   2.267  13.680  1.2600 -2.3302 -0.5537
 7053SOL    HW232622   4.053   2.313  13.765  0.1013  0.1910  0.1639
 7054SOL     OW32623   1.090   2.758   4.935  0.3081 -0.0253 -0.1121
 7054SOL    HW132624   1.065   2.804   4.856  0.0658  0.0882  0.0295
 7054SOL    HW232625   1.004   2.734   4.970  0.1588  0.4918 -0.1273
 7055SOL     OW32626   1.510   3.407   2.316  0.3546  0.0321 -0.2120
 7055SOL    HW132627   1.488   3.353   2.393 -0.5577 -0.5628 -0.8793
 7055SOL    HW232628   1.442   3.390   2.251  0.2421 -0.4519  0.0269
 7056SOL     OW32629   3.676   1.582   5.719 -0.0019 -0.8477  1.0454
 7056SOL    HW132630   3.613   1.517   5.688 -0.6584 -0.9592  2.6127
 7056SOL    HW232631   3.616   1.657   5.712  1.8490  0.3795 -1.7515
 7057SOL     OW32632   3.794   3.956   2.431 -0.4529  0.0375  0.1093
 7057SOL    HW132633   3.788   3.914   2.517 -2.2328 -3.1899 -1.5746
 7057SOL    HW232634   3.712   3.922   2.395  0.2343 -2.7338  1.1668
 7058SOL     OW32635   2.768   1.787   0.787 -0.1269 -1.0425  0.5704
 7058SOL    HW132636   2.755   1.746   0.872 -1.2493  0.8016  1.2883
 7058SOL    HW232637   2.753   1.714   0.727 -0.1743 -0.0814 -0.5929
 7059SOL     OW32638   2.694   4.697   8.481  0.0908  0.6581 -0.1903
 7059SOL    HW132639   2.663   4.610   8.506 -0.0167  1.1639  1.4182
 7059SOL    HW232640   2.766   4.700   8.544 -0.9684 -0.2958  1.0581
 7060SOL     OW32641   3.980   2.834   6.276 -0.0715 -0.2537  0.2410
 7060SOL    HW132642   4.046   2.898   6.251  0.4623  0.0742  2.4662
 7060SOL    HW232643   4.008   2.805   6.363 -0.8184  1.4251  1.0301
 7061SOL     OW32644   0.343   2.476   2.212 -0.2186  0.1563 -0.0512
 7061SOL    HW132645   0.398   2.404   2.240 -0.1838 -0.5330 -1.9057
 7061SOL    HW232646   0.251   2.448   2.208  0.1306 -0.9577 -0.2315
 7062SOL     OW32647   3.685   2.606   2.653 -0.0970 -0.0468  0.2324
 7062SOL    HW132648   3.689   2.588   2.747  0.1690  1.7709  0.5734
 7062SOL    HW232649   3.608   2.559   2.620 -0.2996  0.8076 -0.5184
 7063SOL     OW32650   4.055   0.386  11.119 -0.5726  0.1210 -0.6446
 7063SOL    HW132651   4.137   0.342  11.099  0.2789  1.2751  0.2527
 7063SOL    HW232652   4.043   0.341  11.202 -0.7956  0.9864 -0.2031
 7064SOL     OW32653   0.617   4.114  16.194 -0.1109  0.2119 -0.1225
 7064SOL    HW132654   0.628   4.127  16.288  1.5561 -0.1640 -0.2594
 7064SOL    HW232655   0.702   4.097  16.153  1.4669  1.9862  2.3734
 7065SOL     OW32656   4.133   0.167  13.650 -0.1826 -0.3882 -0.4504
 7065SOL    HW132657   4.206   0.192  13.707  0.4077  0.5975 -1.6436
 7065SOL    HW232658   4.064   0.154  13.716  0.0357  2.2078  0.2930
 7066SOL     OW32659   1.208   0.588   2.699 -0.2452  0.0818 -0.2723
 7066SOL    HW132660   1.118   0.604   2.671 -0.1325  0.9343 -0.1542
 7066SOL    HW232661   1.179   0.546   2.780 -1.7742 -0.1016 -0.9138
 7067SOL     OW32662   4.084   3.076  17.395 -0.9347  0.0106 -0.0582
 7067SOL    HW132663   4.061   3.037  17.310 -0.1141  2.0895 -1.2203
 7067SOL    HW232664   4.099   2.993  17.440  0.8886  1.7210  2.4992
 7068SOL     OW32665   3.522   1.454  12.136  0.5039  0.3606 -0.1426
 7068SOL    HW132666   3.569   1.372  12.121 -0.6510 -0.3231  0.0097
 7068SOL    HW232667   3.551   1.513  12.066  0.3938  1.2683  0.5855
 7069SOL     OW32668   2.771   2.605  14.978  0.0613  0.2803 -0.3660
 7069SOL    HW132669   2.825   2.641  14.908 -1.1516 -0.0820 -1.4965
 7069SOL    HW232670   2.787   2.511  14.968  0.7182  0.4725 -1.1758
 7070SOL     OW32671   3.984   0.949   3.769 -0.0011  0.1764  0.2285
 7070SOL    HW132672   4.052   1.010   3.797  1.5347 -1.2390 -0.4228
 7070SOL    HW232673   3.967   0.886   3.839 -1.0416 -0.4325 -0.5604
 7071SOL     OW32674   2.999   0.933   5.201 -0.1425 -0.1104 -1.0120
 7071SOL    HW132675   3.042   0.911   5.283 -0.5359 -0.0741 -0.7997
 7071SOL    HW232676   3.073   0.939   5.141  1.6291  2.2665  1.4626
 7072SOL     OW32677   0.284   3.952   6.115 -0.3980 -0.3238 -0.8122
 7072SOL    HW132678   0.312   4.011   6.046  0.5533 -0.7861 -0.8283
 7072SOL    HW232679   0.199   3.991   6.138  0.4073  0.8587  0.1258
 7073SOL     OW32680   2.883   1.563  11.673  0.0712 -0.2554 -0.0131
 7073SOL    HW132681   2.805   1.582  11.621  0.2896  1.0702  0.1484
 7073SOL    HW232682   2.942   1.634  11.648 -0.2231  0.1673  0.4908
 7074SOL     OW32683   1.765   4.231  12.899 -0.0307  0.0875  0.0566
 7074SOL    HW132684   1.730   4.310  12.858  0.1270 -0.2165 -0.6618
 7074SOL    HW232685   1.686   4.177  12.895 -0.3738  0.8029 -3.0529
 7075SOL     OW32686   4.582   0.536   8.670  0.0426  0.1206  0.3877
 7075SOL    HW132687   4.664   0.490   8.647  0.9899  1.8216  0.3736
 7075SOL    HW232688   4.557   0.564   8.582  0.3854  1.3347  0.6752
 7076SOL     OW32689   0.862   2.032   0.629 -0.1693  0.0739 -0.5449
 7076SOL    HW132690   0.791   1.971   0.609 -1.5000  1.0889  1.1141
 7076SOL    HW232691   0.937   1.973   0.638 -2.5116 -2.7415  0.9107
 7077SOL     OW32692   4.086   3.807   3.297  0.0534 -0.0062  0.3811
 7077SOL    HW132693   4.007   3.849   3.265 -0.3238  0.7363  2.2665
 7077SOL    HW232694   4.050   3.726   3.333  1.3852 -1.0621 -0.6768
 7078SOL     OW32695   1.186   1.330   3.759  0.2316 -0.2548 -0.0762
 7078SOL    HW132696   1.195   1.250   3.706 -0.0287  0.3561 -1.0301
 7078SOL    HW232697   1.268   1.374   3.736  0.6066 -1.8526 -1.8666
 7079SOL     OW32698   3.559   1.276   3.351 -0.1467 -0.1771 -0.5039
 7079SOL    HW132699   3.649   1.289   3.322 -0.7090  1.4989 -1.4850
 7079SOL    HW232700   3.514   1.315   3.276  0.4337  2.3623  0.4762
 7080SOL     OW32701   3.378   0.052   6.079 -0.0879  0.5115  0.3890
 7080SOL    HW132702   3.419   4.705   6.028 -1.1774 -0.2836  0.6253
 7080SOL    HW232703   3.284   0.037   6.073  0.2223 -1.8600  1.5504
 7081SOL     OW32704   1.676   1.754   5.739 -0.1220  0.1594 -0.0156
 7081SOL    HW132705   1.585   1.774   5.763 -0.4625  0.3963 -1.4862
 7081SOL    HW232706   1.728   1.791   5.810  0.7964 -1.8031  0.3290
 7082SOL     OW32707   1.983   1.648   8.573  0.0111  0.8617 -0.6572
 7082SOL    HW132708   1.888   1.656   8.584  0.1686 -0.0805  1.3549
 7082SOL    HW232709   2.013   1.697   8.649  1.3760  0.2113 -0.7761
 7083SOL     OW32710   4.664   2.370  13.593 -0.1275  0.4431 -0.0319
 7083SOL    HW132711   4.596   2.437  13.601 -1.6300 -1.0887  0.0450
 7083SOL    HW232712   0.023   2.416  13.604  0.6456 -1.0503  0.3258
 7084SOL     OW32713   0.549   1.074   7.325  0.0884  0.2207 -0.4179
 7084SOL    HW132714   0.587   1.097   7.240 -0.6600  0.3958 -0.7089
 7084SOL    HW232715   0.459   1.109   7.325  0.4852  1.2347 -0.2756
 7085SOL     OW32716   3.270   4.242  13.063  0.1108 -0.1534 -0.1155
 7085SOL    HW132717   3.331   4.252  12.990 -0.0270  1.0926 -0.0584
 7085SOL    HW232718   3.202   4.308  13.045 -0.0125 -0.6098 -1.2836
 7086SOL     OW32719   1.466   1.540   5.549 -0.6678  0.0819 -0.6368
 7086SOL    HW132720   1.399   1.483   5.512  1.6429 -3.3202  0.4428
 7086SOL    HW232721   1.442   1.552   5.641 -1.6169 -0.4391 -0.8098
 7087SOL     OW32722   4.035   0.769   8.443  0.5755 -0.0442 -0.2389
 7087SOL    HW132723   3.953   0.759   8.491 -0.4287  1.9694 -1.5227
 7087SOL    HW232724   4.026   0.716   8.364  0.0269 -2.0191  1.1371
 7088SOL     OW32725   3.677   0.917   3.405  0.1860  0.4533  0.3753
 7088SOL    HW132726   3.592   0.950   3.435  0.3162 -0.0757  1.3368
 7088SOL    HW232727   3.675   0.914   3.309 -0.8229  2.6050  0.3185
 7089SOL     OW32728   0.559   1.642   8.712  0.2852 -0.2393  0.0921
 7089SOL    HW132729   0.644   1.604   8.735  1.2045  1.4982 -0.4798
 7089SOL    HW232730   0.498   1.617   8.781  1.6076 -0.7099  1.0950
 7090SOL     OW32731   1.153   0.384  11.497 -0.3516 -0.0977  0.2037
 7090SOL    HW132732   1.102   0.419  11.424 -0.5515 -0.4420  0.1788
 7090SOL    HW232733   1.081   0.374  11.560 -0.4104 -1.0273 -0.0186
 7091SOL     OW32734   4.613   2.694  13.562  0.0203 -0.1182 -0.2599
 7091SOL    HW132735   4.592   2.640  13.486 -0.0074 -0.5933  0.0815
 7091SOL    HW232736   4.534   2.680  13.615 -0.1516 -0.2844 -0.5555
 7092SOL     OW32737   2.568   2.307  11.235  0.0301 -0.3926  0.0785
 7092SOL    HW132738   2.598   2.300  11.326  0.6252 -0.1286 -0.0978
 7092SOL    HW232739   2.627   2.373  11.198  1.3996 -0.0041  2.9321
 7093SOL     OW32740   3.927   0.708   2.441 -0.4372  0.1814 -0.0379
 7093SOL    HW132741   3.912   0.721   2.348 -0.1551 -2.8846 -0.5211
 7093SOL    HW232742   3.867   0.635   2.456 -0.7931  0.3985 -0.4062
 7094SOL     OW32743   1.483   3.362  15.381  0.2160  0.1429 -0.2884
 7094SOL    HW132744   1.398   3.396  15.410 -0.5997 -1.8106 -0.4294
 7094SOL    HW232745   1.539   3.439  15.391  1.6070 -1.0322  0.9825
 7095SOL     OW32746   2.067   1.750   6.577 -0.7521 -0.5335 -0.4322
 7095SOL    HW132747   1.979   1.757   6.614 -0.4766 -1.4358  0.3815
 7095SOL    HW232748   2.114   1.742   6.660  1.3297  0.2782 -1.5347
 7096SOL     OW32749   2.452   0.371   8.741  0.4128 -0.2605 -0.0811
 7096SOL    HW132750   2.448   0.280   8.711 -1.3035 -0.2091  0.0063
 7096SOL    HW232751   2.423   0.378   8.832  3.0213 -1.2334  0.8162
 7097SOL     OW32752   4.408   0.427   3.572 -0.6936  0.4963 -0.4655
 7097SOL    HW132753   4.319   0.427   3.607 -0.3066  0.3221  0.5211
 7097SOL    HW232754   4.432   0.520   3.575  1.9559 -0.3072  3.3483
 7098SOL     OW32755   1.534   4.425   3.077 -0.4307  0.1353 -0.0565
 7098SOL    HW132756   1.557   4.375   3.156 -2.1961 -0.5556  0.0385
 7098SOL    HW232757   1.609   4.413   3.019  1.6062 -0.5974  2.7271
 7099SOL     OW32758   2.186   3.571   2.385 -0.3054 -0.5144 -0.0834
 7099SOL    HW132759   2.253   3.505   2.399 -0.6893 -0.6793  0.9641
 7099SOL    HW232760   2.115   3.543   2.443 -0.6022 -0.4251 -0.4040
 7100SOL     OW32761   3.890   2.560   3.988  0.5366 -0.6828  0.0469
 7100SOL    HW132762   3.884   2.645   4.033  0.7433 -0.7999  0.2904
 7100SOL    HW232763   3.964   2.573   3.930  1.1467 -0.9286  0.7667
 7101SOL     OW32764   4.233   4.337   8.752  0.0033 -0.1484 -0.5358
 7101SOL    HW132765   4.311   4.323   8.807  0.7079  2.0155 -0.9860
 7101SOL    HW232766   4.173   4.390   8.805 -0.6568 -0.0641 -1.3716
 7102SOL     OW32767   1.987   2.372   0.047  0.1717  0.0176 -0.4679
 7102SOL    HW132768   2.066   2.415   0.079  0.9438 -0.4412 -1.7503
 7102SOL    HW232769   2.006   2.279   0.041 -1.1850 -0.1803 -1.6543
 7103SOL     OW32770   1.480   4.668   2.953 -0.4030 -0.2341  0.3663
 7103SOL    HW132771   1.482   4.604   3.025  0.4138 -0.8585 -0.2100
 7103SOL    HW232772   1.422   4.633   2.885 -1.6255  2.1691  0.2021
 7104SOL     OW32773   4.269   4.407   6.892  0.2658 -0.6836 -0.0772
 7104SOL    HW132774   4.270   4.313   6.878  0.5678 -0.2682 -2.8311
 7104SOL    HW232775   4.221   4.407   6.975  2.5477  2.8888  1.2520
 7105SOL     OW32776   4.682   1.562   0.642 -0.6196 -0.3102 -0.8106
 7105SOL    HW132777   4.617   1.589   0.707  1.0255  0.6740  0.4165
 7105SOL    HW232778   0.029   1.525   0.696  0.0648  1.8872 -0.2028
 7106SOL     OW32779   4.377   2.293   1.658  0.1218  0.3924  0.0434
 7106SOL    HW132780   4.326   2.212   1.650 -1.0056  1.0708  0.4075
 7106SOL    HW232781   4.467   2.266   1.636 -0.1972  0.6095 -1.5235
 7107SOL     OW32782   3.372   3.781   6.697  0.2801  0.5579  0.7139
 7107SOL    HW132783   3.348   3.855   6.641  0.1407 -1.6390 -2.1182
 7107SOL    HW232784   3.286   3.744   6.718  0.2521 -0.2750 -0.8605
 7108SOL     OW32785   0.226   4.171  13.513 -0.3696  0.2201 -0.2576
 7108SOL    HW132786   0.307   4.157  13.561 -1.0558 -1.0227  0.5313
 7108SOL    HW232787   0.168   4.143  13.584 -1.2103 -0.3907 -1.1901
 7109SOL     OW32788   0.395   0.642   7.971 -0.4211  0.1432  0.2441
 7109SOL    HW132789   0.408   0.635   7.876  0.6437 -0.6269  0.4494
 7109SOL    HW232790   0.324   0.577   7.976  0.4464 -0.7506  0.8867
 7110SOL     OW32791   1.035   0.886   3.072 -0.4837  0.4952 -0.0237
 7110SOL    HW132792   0.949   0.860   3.104  0.9121 -0.4319  2.9479
 7110SOL    HW232793   1.052   0.970   3.114 -0.9956 -0.3750  1.9459
 7111SOL     OW32794   3.249   1.201  13.923  0.4573 -0.3362 -0.4006
 7111SOL    HW132795   3.291   1.142  13.985 -1.3825 -1.4004 -0.1795
 7111SOL    HW232796   3.175   1.148  13.893 -0.6662  1.3202 -0.5874
 7112SOL     OW32797   0.549   3.766   4.637  0.6439  0.4272  0.0249
 7112SOL    HW132798   0.479   3.773   4.572 -0.8451  0.2036  1.6084
 7112SOL    HW232799   0.533   3.681   4.677 -1.2450  0.6351 -0.2450
 7113SOL     OW32800   0.664   2.681  10.433  0.8888  0.6653  0.0584
 7113SOL    HW132801   0.700   2.689  10.345 -1.2011  1.3637 -0.7431
 7113SOL    HW232802   0.722   2.744  10.475  0.5700 -0.0871  1.6649
 7114SOL     OW32803   2.456   2.298  10.514  0.4833  0.0726  0.0764
 7114SOL    HW132804   2.493   2.367  10.570 -1.0351 -0.0748  1.2761
 7114SOL    HW232805   2.367   2.289  10.547 -0.5843 -0.6988 -3.1088
 7115SOL     OW32806   1.392   0.148   4.611  0.1720  0.1118  0.4774
 7115SOL    HW132807   1.469   0.204   4.615 -1.6306  2.6641 -0.0072
 7115SOL    HW232808   1.411   0.086   4.681  0.0057 -1.4382 -0.8458
 7116SOL     OW32809   3.903   0.816  12.026  0.1632 -0.0141 -0.0504
 7116SOL    HW132810   3.944   0.857  11.950 -1.4847 -0.4667 -1.1844
 7116SOL    HW232811   3.983   0.778  12.063  0.7722  1.2681 -0.0398
 7117SOL     OW32812   3.294   2.993  10.594 -0.3776 -0.1677  0.0125
 7117SOL    HW132813   3.372   2.968  10.545  0.8011  0.8287  1.3790
 7117SOL    HW232814   3.326   3.052  10.662 -1.4044  0.1722  0.2088
 7118SOL     OW32815   2.948   0.576   0.941  0.0321  0.0251 -1.0050
 7118SOL    HW132816   2.879   0.638   0.913  1.0751  1.1716 -1.0359
 7118SOL    HW232817   2.933   0.506   0.878 -1.7436 -1.7520  1.3773
 7119SOL     OW32818   3.470   0.434  13.651  0.1592 -0.1330  0.2320
 7119SOL    HW132819   3.486   0.527  13.635 -0.5734 -0.1626 -0.6668
 7119SOL    HW232820   3.386   0.416  13.609 -0.4348  1.7232  0.5875
 7120SOL     OW32821   1.360   2.280  17.099 -0.1590 -0.1887 -0.2235
 7120SOL    HW132822   1.361   2.374  17.121  0.6373 -0.2415 -0.0086
 7120SOL    HW232823   1.429   2.248  17.157  1.5337  1.0033 -1.5747
 7121SOL     OW32824   0.084   3.959   3.555  0.1072 -0.7219  0.2955
 7121SOL    HW132825   0.087   3.894   3.625 -1.1097 -2.3933 -1.1882
 7121SOL    HW232826   0.160   3.938   3.501  1.8359  1.8247  1.7382
 7122SOL     OW32827   3.000   2.092  15.398 -0.0111  0.2175  0.2804
 7122SOL    HW132828   2.924   2.049  15.359  0.1691  1.3775 -1.3674
 7122SOL    HW232829   3.006   2.157  15.328  1.3595 -0.4303 -0.2063
 7123SOL     OW32830   4.438   1.519   0.512 -0.6693 -0.4183 -0.0528
 7123SOL    HW132831   4.434   1.577   0.436 -2.1980  0.0800  0.4013
 7123SOL    HW232832   4.532   1.514   0.527 -0.8007  1.0028  1.2156
 7124SOL     OW32833   2.608   2.693   9.133 -0.5416 -0.1907 -0.4380
 7124SOL    HW132834   2.556   2.645   9.196  0.6817 -1.0610 -0.0858
 7124SOL    HW232835   2.692   2.653   9.155 -1.0620 -1.3519 -0.5806
 7125SOL     OW32836   1.955   2.557  16.079  0.0360  0.4666 -0.1317
 7125SOL    HW132837   1.872   2.510  16.082 -0.1843  0.8287 -0.4619
 7125SOL    HW232838   2.018   2.486  16.072 -1.3657 -0.7716 -0.0609
 7126SOL     OW32839   1.175   1.023   9.450 -0.2259  0.1813  0.1123
 7126SOL    HW132840   1.247   0.962   9.463 -1.1533 -0.9326  0.0649
 7126SOL    HW232841   1.180   1.029   9.355  0.1805  0.0662  0.1249
 7127SOL     OW32842   4.127   2.611   5.982 -0.2606  0.3381 -0.1159
 7127SOL    HW132843   4.201   2.628   5.925 -1.0959 -0.9545 -1.5813
 7127SOL    HW232844   4.052   2.643   5.931 -0.5643 -2.5578 -1.4846
 7128SOL     OW32845   0.830   2.577   0.600  0.5050  0.0980 -0.9841
 7128SOL    HW132846   0.846   2.489   0.632 -0.9939 -0.7011 -2.4418
 7128SOL    HW232847   0.901   2.590   0.537 -0.4617 -0.6713 -2.2194
 7129SOL     OW32848   2.600   0.005   7.932 -0.5796 -0.2940 -0.2418
 7129SOL    HW132849   2.616   4.721   8.026 -2.4624  4.3142  0.4683
 7129SOL    HW232850   2.596   4.638   7.904  0.6138  0.4131 -2.7548
 7130SOL     OW32851   0.364   1.519   4.303 -0.4672  0.0989  0.2040
 7130SOL    HW132852   0.408   1.447   4.348  0.3745  1.6780  1.9504
 7130SOL    HW232853   0.287   1.484   4.259 -1.0846 -0.2255  1.5414
 7131SOL     OW32854   0.914   0.636   9.266 -0.1968  0.2563  0.4034
 7131SOL    HW132855   1.006   0.634   9.292  0.4233 -0.4740 -1.7915
 7131SOL    HW232856   0.871   0.603   9.345  0.0683 -2.6173 -0.6519
 7132SOL     OW32857   1.519   0.894  10.052  0.3731 -0.2390 -0.5240
 7132SOL    HW132858   1.504   0.940  10.134  0.5388  0.0319 -0.6473
 7132SOL    HW232859   1.602   0.853  10.078  0.2807  0.1670  0.3873
 7133SOL     OW32860   1.979   1.691  12.463 -0.3596  0.2515  0.5341
 7133SOL    HW132861   2.053   1.733  12.508 -0.4628  0.9865  0.0142
 7133SOL    HW232862   1.987   1.741  12.382  0.6665 -0.6692  0.0678
 7134SOL     OW32863   1.045   1.339  11.545 -0.0900  0.0563 -0.5726
 7134SOL    HW132864   1.123   1.393  11.532 -1.2510  2.0367  0.5969
 7134SOL    HW232865   1.043   1.315  11.452 -0.5600 -0.7449 -0.3503
 7135SOL     OW32866   3.957   4.413   2.049 -0.5454  0.0884  0.0325
 7135SOL    HW132867   4.045   4.439   2.075 -1.1950 -0.3050  2.6705
 7135SOL    HW232868   3.944   4.328   2.090  0.4145 -0.1228 -0.0985
 7136SOL     OW32869   1.160   2.705   4.321  0.2422  0.0240  0.1759
 7136SOL    HW132870   1.150   2.699   4.416 -0.3111  2.1300  0.2583
 7136SOL    HW232871   1.255   2.695   4.319  0.3065  0.2280  2.4859
 7137SOL     OW32872   2.845   1.047   8.915  0.1291  0.2976 -0.2350
 7137SOL    HW132873   2.776   0.994   8.877  2.5596 -1.9705 -1.4933
 7137SOL    HW232874   2.834   1.125   8.860 -2.9654 -1.0546 -1.5054
 7138SOL     OW32875   3.858   0.008   2.479  0.1746 -0.1068  0.2802
 7138SOL    HW132876   3.881   0.100   2.478  0.0832 -0.0980 -0.8820
 7138SOL    HW232877   3.934   4.691   2.437  0.7466 -0.2407  1.4630
 7139SOL     OW32878   2.052   0.562   2.457  0.5358  0.5793 -0.5099
 7139SOL    HW132879   2.100   0.594   2.381  0.5007 -0.8843 -1.1431
 7139SOL    HW232880   1.990   0.501   2.416 -0.4260  0.7627  0.6864
 7140SOL     OW32881   1.675   3.847   6.274 -0.3568  0.1700  0.0115
 7140SOL    HW132882   1.691   3.942   6.270  0.7332 -0.0216 -0.1190
 7140SOL    HW232883   1.585   3.823   6.254 -0.4297  1.0641 -0.7885
 7141SOL     OW32884   4.608   1.183   7.259 -0.2435 -0.1860  0.0562
 7141SOL    HW132885   4.674   1.135   7.310 -0.6929  0.3824  1.1882
 7141SOL    HW232886   4.587   1.256   7.317 -0.9139 -1.0532  0.9184
 7142SOL     OW32887   1.515   2.501   4.360 -0.3673 -0.7797 -0.0079
 7142SOL    HW132888   1.504   2.496   4.455  0.1093  1.2311  0.1360
 7142SOL    HW232889   1.609   2.514   4.353 -0.8005  0.8674 -2.6437
 7143SOL     OW32890   0.701   1.399   9.480 -0.5249  0.5256  0.1219
 7143SOL    HW132891   0.735   1.456   9.549 -1.3146 -1.0064  1.7407
 7143SOL    HW232892   0.681   1.456   9.406  0.4330 -0.0517 -0.5831
 7144SOL     OW32893   4.618   2.636  15.189 -0.2648  0.0895  0.0575
 7144SOL    HW132894   4.606   2.590  15.105  0.0276  1.7547 -0.9033
 7144SOL    HW232895   4.656   2.570  15.246  0.0559 -2.0108 -2.5687
 7145SOL     OW32896   1.297   1.482   6.727  0.1414 -0.0399 -0.0189
 7145SOL    HW132897   1.219   1.475   6.672 -0.1415 -0.7357  0.4697
 7145SOL    HW232898   1.292   1.396   6.769  1.1523  0.4322  1.0693
 7146SOL     OW32899   0.278   1.259  16.985 -0.0253 -0.2819  0.3895
 7146SOL    HW132900   0.228   1.188  16.945  1.0468 -0.2906 -0.9434
 7146SOL    HW232901   0.336   1.224  17.053  0.2004  0.1783  0.4349
 7147SOL     OW32902   1.337   1.015   5.002 -0.0607 -0.0123  0.9776
 7147SOL    HW132903   1.420   0.975   5.030  1.5475  1.1695 -2.0893
 7147SOL    HW232904   1.327   1.092   5.058  0.1248  1.2377 -0.7019
 7148SOL     OW32905   4.079   4.103   5.699  0.0873  0.0306  0.4473
 7148SOL    HW132906   4.072   4.115   5.604  1.3214 -1.1729  0.2112
 7148SOL    HW232907   4.172   4.115   5.714  0.5424 -1.7970 -0.9621
 7149SOL     OW32908   2.235   0.031   3.952  0.4056 -0.0036  0.0507
 7149SOL    HW132909   2.313   0.033   3.897  1.6067  0.6971  1.7772
 7149SOL    HW232910   2.267   0.090   4.020  3.8708 -2.5457  0.6295
 7150SOL     OW32911   0.313   0.982   9.537  0.2761  0.1758  0.0327
 7150SOL    HW132912   0.381   1.034   9.494  1.0863 -1.4004 -0.6033
 7150SOL    HW232913   0.351   0.956   9.622 -0.8851  2.6321  1.2912
 7151SOL     OW32914   2.749   0.340   4.357 -0.6165  0.0413  0.1553
 7151SOL    HW132915   2.783   0.310   4.441  2.9131 -1.3902 -1.7579
 7151SOL    HW232916   2.701   0.421   4.376 -1.5900 -0.9173  1.7597
 7152SOL     OW32917   0.334   4.707   6.225  0.0818 -0.4316 -0.2559
 7152SOL    HW132918   0.393   0.058   6.221  0.2234 -0.5736 -0.8238
 7152SOL    HW232919   0.339   4.674   6.135  0.2218 -2.5559  0.5272
 7153SOL     OW32920   2.781   1.401   8.430 -0.4429  0.2100 -0.1213
 7153SOL    HW132921   2.762   1.485   8.389 -1.1198 -0.6349 -1.5850
 7153SOL    HW232922   2.871   1.383   8.405 -0.3878  0.3681 -0.0337
 7154SOL     OW32923   2.408   1.815   0.928 -0.3026 -0.3114 -0.1433
 7154SOL    HW132924   2.342   1.785   0.990 -0.6641 -0.7517 -0.7312
 7154SOL    HW232925   2.427   1.906   0.949 -0.9264  0.5431 -3.2543
 7155SOL     OW32926   3.876   0.057   8.215  0.6256  0.1248 -0.3369
 7155SOL    HW132927   3.899   4.687   8.213  0.2214  0.0316 -0.6664
 7155SOL    HW232928   3.811   0.061   8.286  1.4444  0.1400  0.4145
 7156SOL     OW32929   0.612   0.846   2.582  0.1012  0.1913  0.0307
 7156SOL    HW132930   0.567   0.907   2.641 -2.9593 -0.7091 -1.3801
 7156SOL    HW232931   0.552   0.853   2.508 -0.0536 -2.6238 -0.1000
 7157SOL     OW32932   1.685   3.721   0.578 -0.5154 -0.0075 -0.4452
 7157SOL    HW132933   1.610   3.664   0.595 -2.0181  1.3479 -2.6307
 7157SOL    HW232934   1.727   3.680   0.503 -0.2667  0.5000 -0.5846
 7158SOL     OW32935   0.213   1.175   9.877 -0.4880  0.4306  0.1446
 7158SOL    HW132936   0.237   1.084   9.857  0.7996  0.6011  0.9373
 7158SOL    HW232937   0.234   1.215   9.793  2.3231 -0.2724  0.5240
 7159SOL     OW32938   2.018   2.362   6.334 -0.6643  0.2357 -0.0752
 7159SOL    HW132939   2.034   2.279   6.377  1.8824  0.8341  0.0936
 7159SOL    HW232940   1.975   2.405   6.408  1.1341  3.2029 -0.7523
 7160SOL     OW32941   4.461   1.577   5.808 -0.1485 -0.0520 -0.4835
 7160SOL    HW132942   4.533   1.634   5.781 -0.2919 -0.4474 -1.7180
 7160SOL    HW232943   4.484   1.491   5.773 -0.7393 -0.0342 -0.9115
 7161SOL     OW32944   3.676   3.622  13.129 -0.4397  0.0224 -0.3092
 7161SOL    HW132945   3.747   3.598  13.188 -1.7676  1.5047  1.8980
 7161SOL    HW232946   3.714   3.600  13.044  1.0205 -2.0036  0.8741
 7162SOL     OW32947   4.712   2.582   1.909  0.7247 -0.0224 -0.2094
 7162SOL    HW132948   0.083   2.572   1.921  0.7358  0.6347  0.2469
 7162SOL    HW232949   4.692   2.500   1.865 -3.7476  0.6841  0.5621
 7163SOL     OW32950   2.436   3.404   4.346  0.2930  0.1119  0.7377
 7163SOL    HW132951   2.370   3.414   4.415 -1.1969 -3.2134 -0.2051
 7163SOL    HW232952   2.431   3.486   4.298 -2.6805  0.1782  1.1625
 7164SOL     OW32953   4.079   2.610   6.960 -0.1910 -0.3363 -0.2903
 7164SOL    HW132954   4.106   2.540   6.900 -1.4621 -0.2947 -0.9114
 7164SOL    HW232955   4.095   2.574   7.047 -0.6191 -0.1250 -0.1262
 7165SOL     OW32956   0.810   1.062   5.571 -0.1262 -0.4900 -0.1591
 7165SOL    HW132957   0.865   0.987   5.592  0.7543 -0.3267 -1.8674
 7165SOL    HW232958   0.732   1.012   5.544  0.5945 -1.7737  0.1162
 7166SOL     OW32959   0.951   3.973   4.177  0.0873  0.4528  0.1405
 7166SOL    HW132960   0.856   3.970   4.165  0.1197  1.0143 -0.2749
 7166SOL    HW232961   0.983   4.019   4.099  0.1807 -0.7480 -0.5354
 7167SOL     OW32962   4.584   1.622  13.758  0.1757  0.4256 -0.0645
 7167SOL    HW132963   4.518   1.649  13.820 -0.5920 -0.7100 -0.3885
 7167SOL    HW232964   4.598   1.531  13.785  1.4174  0.7199  0.2832
 7168SOL     OW32965   2.381   2.725   4.323 -0.4606 -0.0530 -0.2041
 7168SOL    HW132966   2.299   2.774   4.335 -0.0361  0.6179 -0.0211
 7168SOL    HW232967   2.361   2.645   4.371 -1.9782 -0.6093 -1.7644
 7169SOL     OW32968   2.732   4.629   1.292 -0.8776 -0.5751  0.0709
 7169SOL    HW132969   2.768   4.566   1.355  0.9837  0.6237  0.1930
 7169SOL    HW232970   2.661   4.676   1.335 -0.4121  0.5477 -0.4031
 7170SOL     OW32971   3.900   1.401   4.892 -0.3096 -0.0244 -0.4688
 7170SOL    HW132972   3.980   1.406   4.839 -0.6940 -2.4122 -1.3003
 7170SOL    HW232973   3.878   1.493   4.879  3.1982  0.8839  0.1180
 7171SOL     OW32974   1.022   0.310  11.029 -0.8616  0.2179 -0.3560
 7171SOL    HW132975   1.025   0.355  10.944  1.5957  0.1033 -0.3122
 7171SOL    HW232976   1.089   0.245  11.013 -0.6677 -0.0487  1.5945
 7172SOL     OW32977   4.635   1.857   4.098 -0.2211 -0.2291  0.3569
 7172SOL    HW132978   4.622   1.939   4.145  0.6132  0.6375 -0.9064
 7172SOL    HW232979   4.549   1.851   4.055  0.3921  1.5580 -1.1315
 7173SOL     OW32980   0.309   1.730  10.666 -0.1780 -0.0293  0.7988
 7173SOL    HW132981   0.262   1.695  10.742 -1.4211 -0.4206 -0.1414
 7173SOL    HW232982   0.245   1.715  10.596  1.6082  0.4196 -0.9503
 7174SOL     OW32983   1.395   3.351   7.544  0.2473  0.2300 -0.2231
 7174SOL    HW132984   1.438   3.436   7.538  0.1173  0.3203  0.1228
 7174SOL    HW232985   1.317   3.376   7.494  1.0327 -2.4273 -2.7056
 7175SOL     OW32986   0.478   4.553   6.606 -0.0504  0.5791 -0.1113
 7175SOL    HW132987   0.523   4.473   6.632 -0.9653 -0.4636 -1.7465
 7175SOL    HW232988   0.509   4.613   6.674  2.9570 -0.8419 -0.2239
 7176SOL     OW32989   3.347   1.826  13.169  0.2543  0.7823 -0.8071
 7176SOL    HW132990   3.390   1.749  13.205  0.3970  0.9473 -0.6252
 7176SOL    HW232991   3.397   1.839  13.089 -1.2861 -0.3614 -1.9554
 7177SOL     OW32992   3.691   0.680   8.791 -0.0860  0.3997  0.0032
 7177SOL    HW132993   3.608   0.727   8.792 -0.5689 -0.4499 -0.1207
 7177SOL    HW232994   3.659   0.594   8.764  1.5553 -0.5300  0.9798
 7178SOL     OW32995   4.529   3.719  16.785  0.0757  0.4307 -0.2955
 7178SOL    HW132996   4.624   3.729  16.783  0.0801 -0.0135 -1.7410
 7178SOL    HW232997   4.499   3.739  16.696 -0.2503  1.5197  0.0501
 7179SOL     OW32998   0.536   0.369   9.079  0.0176 -0.1646  0.6791
 7179SOL    HW132999   0.596   0.346   9.008  0.2881  1.4484  0.3907
 7179SOL    HW233000   0.484   0.288   9.078  0.6943 -0.5877 -0.1681
 7180SOL     OW33001   3.192   0.626  13.696 -0.4063 -0.2738 -0.2069
 7180SOL    HW133002   3.187   0.663  13.607  1.2947  1.3416  0.3536
 7180SOL    HW233003   3.100   0.605  13.710 -0.9714  1.7793 -0.7138
 7181SOL     OW33004   1.722   3.810  17.582  0.2102 -0.7662  0.2949
 7181SOL    HW133005   1.654   3.797  17.648 -0.0795 -0.0134  0.1515
 7181SOL    HW233006   1.793   3.753  17.611 -1.3520 -1.2127  3.3079
 7182SOL     OW33007   0.404   2.736   2.612  0.2207 -0.2282  0.5408
 7182SOL    HW133008   0.437   2.821   2.581 -3.1223  0.3280 -1.5748
 7182SOL    HW233009   0.329   2.729   2.552  1.6453  1.1039 -1.4322
 7183SOL     OW33010   2.554   3.319   8.954 -0.3234  0.0131  0.1326
 7183SOL    HW133011   2.585   3.257   8.888 -0.1517 -0.3992  0.5980
 7183SOL    HW233012   2.609   3.389   8.920 -0.5356 -0.9428 -2.1668
 7184SOL     OW33013   3.044   0.363   5.391  0.4140  0.0440 -0.4878
 7184SOL    HW133014   3.041   0.409   5.475 -1.5720 -0.8692 -0.0722
 7184SOL    HW233015   2.978   0.408   5.338  0.8848  0.1595 -0.9708
 7185SOL     OW33016   0.650   2.767  16.070  0.0941  0.6776  0.7185
 7185SOL    HW133017   0.686   2.762  15.982 -0.9155  2.1071  0.2308
 7185SOL    HW233018   0.611   2.683  16.093  1.9378  0.3703  2.7463
 7186SOL     OW33019   4.273   2.123   6.873 -0.3736  0.0708  0.4946
 7186SOL    HW133020   4.291   2.050   6.932  1.5365 -0.6602 -1.0149
 7186SOL    HW233021   4.319   2.096   6.795 -1.1282  0.1843  0.0063
 7187SOL     OW33022   4.671   3.637   2.496 -0.0497 -0.0490 -0.4599
 7187SOL    HW133023   4.630   3.624   2.582  1.3604  0.3496  0.2635
 7187SOL    HW233024   4.625   3.574   2.440  0.1883  0.1650 -0.8966
 7188SOL     OW33025   4.232   2.109   4.428 -0.1669 -0.1733  0.1454
 7188SOL    HW133026   4.154   2.054   4.435 -1.0966  1.3800  1.9337
 7188SOL    HW233027   4.283   2.091   4.508  2.4698  1.1265 -1.2387
 7189SOL     OW33028   4.219   3.469   8.229  0.2282 -0.0892  0.1308
 7189SOL    HW133029   4.314   3.486   8.222  0.2222 -0.4070 -0.7279
 7189SOL    HW233030   4.211   3.433   8.317  3.5899  1.2395  1.0266
 7190SOL     OW33031   2.791   4.291   5.205  0.5593  0.0729 -0.7461
 7190SOL    HW133032   2.785   4.332   5.119  1.1471 -0.9783 -1.2966
 7190SOL    HW233033   2.881   4.257   5.198  0.7982  0.5459 -0.0009
 7191SOL     OW33034   0.093   4.592  12.144  0.2861  0.3827 -0.3209
 7191SOL    HW133035   0.184   4.595  12.173  1.0936  1.6726 -2.9239
 7191SOL    HW233036   0.042   4.625  12.217  1.3825  0.4998  0.3899
 7192SOL     OW33037   2.062   4.489   5.905  0.0368 -0.1285 -0.2313
 7192SOL    HW133038   1.970   4.518   5.901 -0.6298 -2.2883 -0.3663
 7192SOL    HW233039   2.104   4.570   5.933  1.3261 -0.6766 -0.6039
 7193SOL     OW33040   3.900   4.179   7.948 -0.7818 -0.0720  0.7728
 7193SOL    HW133041   3.976   4.120   7.944  1.1814  2.4826  0.4372
 7193SOL    HW233042   3.832   4.121   7.983  0.6787 -0.9621  2.1253
 7194SOL     OW33043   1.281   1.419   1.429 -0.1815  0.0880 -0.4696
 7194SOL    HW133044   1.361   1.371   1.447 -0.7786 -0.1062  1.6362
 7194SOL    HW233045   1.261   1.392   1.340  1.0101 -2.7068  0.1334
 7195SOL     OW33046   0.320   1.225  10.129  0.4930 -0.6464 -0.2640
 7195SOL    HW133047   0.323   1.141  10.176  0.8075 -0.6415 -0.2729
 7195SOL    HW233048   0.293   1.202  10.040 -0.9410  0.8802 -0.2226
 7196SOL     OW33049   2.784   0.593   8.904 -0.5555 -0.3986 -0.3437
 7196SOL    HW133050   2.718   0.660   8.922  2.2312  2.2419  0.1168
 7196SOL    HW233051   2.831   0.593   8.987 -0.7635  0.0950 -0.2264
 7197SOL     OW33052   4.001   2.935   7.631 -0.7338 -0.2840 -0.5853
 7197SOL    HW133053   3.917   2.982   7.638  0.5045  1.6731  1.1192
 7197SOL    HW233054   3.964   2.851   7.606 -3.6354 -0.1225  3.1571
 7198SOL     OW33055   2.154   0.050   1.723 -0.0396  0.4341  0.2741
 7198SOL    HW133056   2.223   0.002   1.769 -0.7096 -1.3430 -0.5799
 7198SOL    HW233057   2.094   4.701   1.708  1.0837 -0.9561  2.5904
 7199SOL     OW33058   3.844   2.322   0.957  0.0149 -0.5125 -0.0583
 7199SOL    HW133059   3.905   2.260   0.997  2.8311  1.2556 -1.6346
 7199SOL    HW233060   3.846   2.300   0.864 -0.5627 -0.0733 -0.1754
 7200SOL     OW33061   2.768   4.365   5.598  0.6041 -0.3775  0.2013
 7200SOL    HW133062   2.841   4.339   5.542  0.9318 -0.8789  0.8560
 7200SOL    HW233063   2.698   4.302   5.582  1.3399 -1.5958  1.7747
 7201SOL     OW33064   1.908   4.438   0.415  0.4338 -0.5135 -0.4602
 7201SOL    HW133065   1.850   4.459   0.341  1.2190  1.0494 -0.6356
 7201SOL    HW233066   1.889   4.345   0.413 -0.5582 -0.3117 -0.6528
 7202SOL     OW33067   0.096   1.857   4.962  0.3152  0.3584 -0.3344
 7202SOL    HW133068   0.185   1.873   4.994 -0.2194 -0.0447  1.3178
 7202SOL    HW233069   0.098   1.764   4.939  0.0146 -0.1522  1.7169
 7203SOL     OW33070   2.118   2.970   0.628  0.4316  0.2196  0.2135
 7203SOL    HW133071   2.072   2.968   0.544  1.9134 -4.1357 -0.4873
 7203SOL    HW233072   2.209   2.977   0.599 -0.7459  1.0438 -3.2303
 7204SOL     OW33073   2.324   2.954   9.385  0.3300 -0.4477  0.7649
 7204SOL    HW133074   2.292   2.881   9.333  1.1682 -0.2466 -0.0371
 7204SOL    HW233075   2.393   2.912   9.436  0.3885  0.5142  1.4912
 7205SOL     OW33076   2.122   1.841  10.988 -0.3672 -0.4636 -0.1710
 7205SOL    HW133077   2.207   1.808  11.017 -0.2753 -0.6631 -0.6540
 7205SOL    HW233078   2.144   1.933  10.975  4.2394 -1.2250  2.0528
 7206SOL     OW33079   4.660   0.379  12.219 -0.5828 -0.0713  0.1108
 7206SOL    HW133080   4.616   0.295  12.225 -0.0199 -0.4275 -0.7827
 7206SOL    HW233081   4.673   0.368  12.124 -0.0216 -1.0416  0.3105
 7207SOL     OW33082   2.674   2.247   7.960  0.3201 -0.5571  0.1647
 7207SOL    HW133083   2.655   2.209   8.046  1.0633 -1.3834 -0.0350
 7207SOL    HW233084   2.603   2.310   7.944 -0.7073 -1.5769  0.6449
 7208SOL     OW33085   4.297   3.297   8.024  0.4227 -0.3321  0.4302
 7208SOL    HW133086   4.255   3.368   8.074 -2.8506 -3.1618  1.7272
 7208SOL    HW233087   4.290   3.226   8.088  2.0502 -0.7224  0.1546
 7209SOL     OW33088   3.476   3.011   2.312 -0.4775  0.5048 -0.1251
 7209SOL    HW133089   3.525   2.934   2.341 -0.2516  1.6127  2.4114
 7209SOL    HW233090   3.391   2.975   2.288 -0.1119 -1.2544  1.1742
 7210SOL     OW33091   1.308   2.892  15.951 -0.3027  0.4081  0.4149
 7210SOL    HW133092   1.283   2.969  15.900 -0.9184  0.8271  1.3452
 7210SOL    HW233093   1.239   2.826  15.942  0.7770 -0.8452  1.2344
 7211SOL     OW33094   0.669   3.096  11.118 -0.3427 -0.3664  0.2481
 7211SOL    HW133095   0.741   3.107  11.180  0.8194 -1.1005 -0.9811
 7211SOL    HW233096   0.590   3.129  11.161  0.4483  1.6926  0.1567
 7212SOL     OW33097   0.272   3.824   6.389  0.2832 -0.4346 -0.1484
 7212SOL    HW133098   0.210   3.889   6.356 -0.6107 -0.1419  2.1345
 7212SOL    HW233099   0.223   3.795   6.466  0.4514  0.1774  0.1916
 7213SOL     OW33100   2.235   1.186   4.233 -0.5860  0.1714 -0.2211
 7213SOL    HW133101   2.270   1.273   4.255  0.4201 -0.5124  0.8551
 7213SOL    HW233102   2.213   1.154   4.320  0.2333 -1.0798 -0.4676
 7214SOL     OW33103   3.253   4.427   4.236  0.5400  0.8469  0.1258
 7214SOL    HW133104   3.159   4.412   4.248  0.7680 -0.8727 -0.2027
 7214SOL    HW233105   3.288   4.399   4.321 -0.2201  1.2001  0.5577
 7215SOL     OW33106   3.862   0.786   6.972  0.2746  0.0798  0.0934
 7215SOL    HW133107   3.876   0.857   6.909  1.5002 -0.5760 -0.3693
 7215SOL    HW233108   3.789   0.735   6.938  0.2914  1.4223 -1.9770
 7216SOL     OW33109   3.341   4.597   1.180 -0.0293  0.3187  0.5435
 7216SOL    HW133110   3.369   4.507   1.161 -0.9950 -0.0122  0.6511
 7216SOL    HW233111   3.381   4.650   1.111 -0.5600  0.7428  0.5621
 7217SOL     OW33112   3.417   1.304   4.906 -0.3177  0.0482  0.4471
 7217SOL    HW133113   3.447   1.356   4.832  1.0770  0.0234  0.9972
 7217SOL    HW233114   3.497   1.303   4.959 -0.2252  0.6587  0.3156
 7218SOL     OW33115   1.950   3.020   3.483 -0.3408  0.2403 -1.2113
 7218SOL    HW133116   1.978   3.109   3.461  3.2975 -0.0306  2.4129
 7218SOL    HW233117   1.877   3.018   3.421 -2.3854 -0.9761  1.2475
 7219SOL     OW33118   2.051   1.700   2.641  0.0516 -0.1949 -0.0844
 7219SOL    HW133119   2.084   1.614   2.664 -1.4582 -1.1052 -1.3263
 7219SOL    HW233120   2.065   1.702   2.547  0.9497  2.2495  0.0855
 7220SOL     OW33121   0.677   0.053   8.510  0.4367  0.2781 -0.0123
 7220SOL    HW133122   0.626   0.006   8.444 -1.6881 -0.1206  1.9152
 7220SOL    HW233123   0.626   0.133   8.523 -1.9911 -1.6247  2.0683
 7221SOL     OW33124   3.816   0.766   4.434  0.2308  0.2359 -0.3257
 7221SOL    HW133125   3.799   0.736   4.524 -0.2350 -1.5975 -1.0338
 7221SOL    HW233126   3.727   0.755   4.401  0.1499 -0.8699  0.2824
 7222SOL     OW33127   2.323   1.987  15.904 -0.0292  0.1611 -0.5196
 7222SOL    HW133128   2.274   1.910  15.933 -1.2661  1.2822  0.4222
 7222SOL    HW233129   2.277   2.024  15.829 -1.8507 -0.6259  0.1930
 7223SOL     OW33130   2.817   1.890   5.162 -0.2931  0.3344 -0.7156
 7223SOL    HW133131   2.775   1.926   5.084  1.1009  0.9135 -1.2111
 7223SOL    HW233132   2.911   1.887   5.141  0.1432  0.3599  1.2143
 7224SOL     OW33133   0.311   2.126   9.345  0.7036  1.0884  0.4503
 7224SOL    HW133134   0.378   2.169   9.398 -0.2621  2.0960  0.8679
 7224SOL    HW233135   0.270   2.070   9.411 -1.7424  0.3420 -1.6699
 7225SOL     OW33136   0.930   2.553   5.344  0.3826  0.1613  0.1872
 7225SOL    HW133137   0.908   2.525   5.433 -0.3007  0.7636  0.2099
 7225SOL    HW233138   0.876   2.505   5.281  0.3199  1.0492 -0.4380
 7226SOL     OW33139   3.460   0.946  12.997  0.1282 -1.0421  0.5929
 7226SOL    HW133140   3.414   0.894  12.932 -0.1582  0.7628 -0.6377
 7226SOL    HW233141   3.452   1.034  12.960 -1.4739 -0.5558  2.0685
 7227SOL     OW33142   3.097   2.336   3.128  0.2463  0.1541  0.0568
 7227SOL    HW133143   3.147   2.381   3.059 -0.3771  0.4656 -0.1920
 7227SOL    HW233144   3.068   2.258   3.081  0.4482 -0.2816  0.6590
 7228SOL     OW33145   3.323   1.503   3.253  0.5128 -0.5915  0.3574
 7228SOL    HW133146   3.306   1.501   3.159 -1.0054 -3.7144  0.7222
 7228SOL    HW233147   3.267   1.432   3.285  1.1447 -1.1256  0.2704
 7229SOL     OW33148   4.493   4.125   4.427 -0.0789  0.0519  0.1898
 7229SOL    HW133149   4.483   4.220   4.433 -0.6853  0.2170 -3.0311
 7229SOL    HW233150   4.553   4.112   4.353  3.1121  0.0410  2.7907
 7230SOL     OW33151   2.803   2.508   2.643 -0.2389  0.0800 -0.1745
 7230SOL    HW133152   2.769   2.434   2.694  0.8843 -0.1085  0.3022
 7230SOL    HW233153   2.723   2.559   2.640 -0.6943 -0.7695 -2.9037
 7231SOL     OW33154   4.237   3.409   8.499 -0.4480 -0.3644  0.5648
 7231SOL    HW133155   4.259   3.322   8.533  0.0328  0.6487  2.8575
 7231SOL    HW233156   4.182   3.447   8.568  1.1352 -1.0275  2.1778
 7232SOL     OW33157   4.439   4.343   8.976 -0.4402  0.5108 -0.2506
 7232SOL    HW133158   4.370   4.354   9.041 -1.4863  0.4312 -1.3464
 7232SOL    HW233159   4.476   4.262   9.009 -0.2541  1.2994  1.4745
 7233SOL     OW33160   0.704   4.589  14.546 -0.1975 -0.0493 -0.4129
 7233SOL    HW133161   0.682   4.594  14.639 -2.7509 -0.5776 -0.9883
 7233SOL    HW233162   0.799   4.598  14.551 -0.0375 -1.6640 -0.6629
 7234SOL     OW33163   3.461   0.505   3.394  0.3602 -0.0381 -0.2514
 7234SOL    HW133164   3.450   0.454   3.314 -0.9211 -1.4951  0.8484
 7234SOL    HW233165   3.454   0.596   3.367  1.8193  0.2447  0.3142
 7235SOL     OW33166   0.493   2.579  16.174  0.1861  0.1361  0.0771
 7235SOL    HW133167   0.403   2.608  16.188  0.6412  0.2655  2.7684
 7235SOL    HW233168   0.507   2.523  16.250  1.7387  2.3224  1.4157
 7236SOL     OW33169   4.225   1.769   8.016  0.5665  0.1245  0.5741
 7236SOL    HW133170   4.146   1.796   8.063  0.1385  1.4006 -0.8806
 7236SOL    HW233171   4.249   1.700   8.078  1.3992  0.7995  1.0207
 7237SOL     OW33172   0.627   3.668   5.722  0.4174  0.1176 -0.2887
 7237SOL    HW133173   0.600   3.759   5.739  1.2805  0.6107 -1.5525
 7237SOL    HW233174   0.630   3.665   5.626 -0.5666 -3.0768 -0.1998
 7238SOL     OW33175   1.287   2.874   6.143 -0.2548  0.2781 -0.3962
 7238SOL    HW133176   1.332   2.805   6.192 -0.5455  0.5518  0.2526
 7238SOL    HW233177   1.318   2.862   6.053  1.3466  3.3639 -0.2398
 7239SOL     OW33178   2.495   4.109  10.753  0.1482  0.0500 -0.4260
 7239SOL    HW133179   2.456   4.024  10.773 -1.0428  0.6612 -0.1239
 7239SOL    HW233180   2.422   4.144  10.702  0.9476  1.6630 -0.4639
 7240SOL     OW33181   2.285   4.348   3.828 -0.5111 -0.2119  0.6731
 7240SOL    HW133182   2.330   4.267   3.854  1.7251  0.1352 -2.0730
 7240SOL    HW233183   2.363   4.403   3.831  0.2688 -1.1771 -1.7342
 7241SOL     OW33184   2.111   1.893   1.519  0.8001  0.0160 -0.2477
 7241SOL    HW133185   2.105   1.980   1.479  1.6994  0.4132  0.4972
 7241SOL    HW233186   2.046   1.904   1.587 -0.6489 -0.2653 -1.5932
 7242SOL     OW33187   2.074   3.467   1.510 -0.3112 -0.8736 -0.1734
 7242SOL    HW133188   2.146   3.525   1.534 -1.5940  0.1678  1.1898
 7242SOL    HW233189   2.054   3.419   1.590  2.4390 -0.2140  0.9331
 7243SOL     OW33190   1.463   4.345   4.497 -0.4521  0.2325 -0.0030
 7243SOL    HW133191   1.462   4.431   4.455  2.2477 -0.1489 -0.8175
 7243SOL    HW233192   1.456   4.373   4.589 -1.5870 -0.2651  0.0583
 7244SOL     OW33193   1.562   1.068   9.356 -0.2413  0.0866  0.5410
 7244SOL    HW133194   1.547   1.086   9.449  1.2214  0.2920  0.7321
 7244SOL    HW233195   1.577   1.157   9.323  0.7317 -0.8249 -1.4377
 7245SOL     OW33196   0.239   0.937   8.928 -0.3930  0.1396 -0.1728
 7245SOL    HW133197   0.183   0.876   8.879  0.8425 -1.1711  0.0530
 7245SOL    HW233198   0.242   1.002   8.857 -1.8782  1.6887  1.1734
 7246SOL     OW33199   3.398   0.466   8.211 -0.6075  0.2472 -0.7713
 7246SOL    HW133200   3.387   0.405   8.138 -2.1369  0.9294 -1.1245
 7246SOL    HW233201   3.345   0.540   8.181 -2.7828 -0.5018  1.2267
 7247SOL     OW33202   0.595   3.016  13.248  0.2745  0.2302  0.1409
 7247SOL    HW133203   0.671   3.045  13.196  1.5617 -3.3623  0.0442
 7247SOL    HW233204   0.636   2.959  13.312 -3.1990 -1.4495  0.8370
 7248SOL     OW33205   1.467   2.402  13.278  0.5992  0.3240  0.0443
 7248SOL    HW133206   1.549   2.374  13.237  1.6971  1.8816  1.1224
 7248SOL    HW233207   1.436   2.467  13.215  0.0415  1.4912  1.5101
 7249SOL     OW33208   1.747   2.548   8.014  0.1893 -0.4601  0.5844
 7249SOL    HW133209   1.797   2.617   8.059 -2.5761  0.5053  2.1530
 7249SOL    HW233210   1.689   2.524   8.086 -0.0720  2.5152  1.3757
 7250SOL     OW33211   3.821   2.558   3.636 -0.0289  0.0207  0.1189
 7250SOL    HW133212   3.788   2.468   3.636 -2.0023  0.7433  0.1098
 7250SOL    HW233213   3.740   2.606   3.617 -0.2237 -0.4739 -0.3137
 7251SOL     OW33214   2.794   0.596   4.319  0.2270 -0.2377  0.0214
 7251SOL    HW133215   2.859   0.642   4.265  0.7619  1.1119  1.7895
 7251SOL    HW233216   2.840   0.587   4.403  1.3699 -0.2064 -0.5946
 7252SOL     OW33217   2.027   2.865   5.322  0.9435 -0.3921 -0.6316
 7252SOL    HW133218   2.006   2.787   5.373 -2.7093  0.9767 -0.0779
 7252SOL    HW233219   2.085   2.848   5.247  1.2724 -2.0615  0.0152
 7253SOL     OW33220   4.365   3.970  12.951  0.0610 -0.8572 -0.3816
 7253SOL    HW133221   4.430   3.911  12.913  0.7525 -0.0437 -0.4570
 7253SOL    HW233222   4.354   3.933  13.039  1.2836  1.1911  0.6498
 7254SOL     OW33223   1.927   3.107   7.262  0.0795 -0.4956  0.0607
 7254SOL    HW133224   1.856   3.055   7.223 -0.4724  0.4563 -0.1973
 7254SOL    HW233225   1.908   3.094   7.355 -0.1589  1.8297  0.3216
 7255SOL     OW33226   4.314   0.387   8.134  0.5333 -0.2601  0.8993
 7255SOL    HW133227   4.251   0.315   8.145 -0.3017  0.2974 -0.1965
 7255SOL    HW233228   4.316   0.402   8.040 -1.1754  0.4951  0.9806
 7256SOL     OW33229   2.270   2.969   8.038 -0.5387 -0.4028 -0.5618
 7256SOL    HW133230   2.270   2.884   8.081  1.6576 -0.1449 -0.0706
 7256SOL    HW233231   2.304   3.034   8.101  0.7059 -1.8302  0.2416
 7257SOL     OW33232   4.418   1.261   1.614  0.3367 -0.0617  0.5603
 7257SOL    HW133233   4.412   1.210   1.533  0.1500 -1.6407  1.5736
 7257SOL    HW233234   4.437   1.190   1.675 -1.6418  0.1124  1.3748
 7258SOL     OW33235   1.941   1.685   4.150 -0.7692 -0.2623  0.0522
 7258SOL    HW133236   1.978   1.605   4.187  0.8210 -0.1156 -1.2350
 7258SOL    HW233237   1.987   1.676   4.067  1.4741 -1.3672  1.3957
 7259SOL     OW33238   0.037   0.426   6.337 -0.2388  0.0082  0.4587
 7259SOL    HW133239   4.715   0.509   6.334  0.8402  0.5042 -1.8510
 7259SOL    HW233240   4.705   0.376   6.277  2.3417 -0.8660 -1.2062
 7260SOL     OW33241   3.618   1.663   7.872 -0.4380 -0.1927  0.2613
 7260SOL    HW133242   3.531   1.702   7.869 -0.4507 -0.2259  0.2059
 7260SOL    HW233243   3.620   1.624   7.959  2.5674  1.3194  0.8862
 7261SOL     OW33244   1.004   3.883   6.668  0.2471 -0.1100 -0.5080
 7261SOL    HW133245   0.924   3.840   6.638 -1.1281  0.5293  2.3311
 7261SOL    HW233246   0.960   3.958   6.706 -0.4933 -0.9220  0.2356
 7262SOL     OW33247   3.564   3.764   8.595 -0.4600 -0.1638 -0.4453
 7262SOL    HW133248   3.517   3.796   8.518 -2.6525 -0.3562  0.8326
 7262SOL    HW233249   3.653   3.774   8.559 -0.5067 -2.2852 -1.1514
 7263SOL     OW33250   4.031   2.868   8.151 -0.4507 -0.3696  0.1757
 7263SOL    HW133251   4.107   2.856   8.094 -0.5071 -1.5589  0.3494
 7263SOL    HW233252   3.993   2.955   8.139 -0.1877 -0.5173 -1.7181
 7264SOL     OW33253   2.649   3.151   1.675 -0.0697 -0.0083  0.2793
 7264SOL    HW133254   2.664   3.185   1.587 -3.1098  0.6422  0.0211
 7264SOL    HW233255   2.619   3.064   1.651 -0.3546  0.7937 -2.3045
 7265SOL     OW33256   2.569   0.690   0.251 -0.7710  0.4060 -0.5715
 7265SOL    HW133257   2.507   0.687   0.324 -0.1781 -0.5382 -0.1107
 7265SOL    HW233258   2.620   0.769   0.266  1.5905 -0.9222 -1.6334
 7266SOL     OW33259   1.191   2.887   3.302 -0.1427 -0.5134  0.3183
 7266SOL    HW133260   1.250   2.891   3.377 -0.3079  0.1695  0.4141
 7266SOL    HW233261   1.233   2.828   3.239 -0.5718  0.6534 -1.0660
 7267SOL     OW33262   0.920   2.258  16.718  0.6652  0.7237  0.2180
 7267SOL    HW133263   1.002   2.306  16.722  1.1350  0.0130 -0.7003
 7267SOL    HW233264   0.951   2.189  16.777  0.5569  0.5693  0.0964
 7268SOL     OW33265   1.779   2.095   8.384  0.5612  0.7968 -0.7849
 7268SOL    HW133266   1.851   2.039   8.358 -0.4222 -0.8752  0.1257
 7268SOL    HW233267   1.793   2.091   8.478 -0.4737  1.5790 -0.5888
 7269SOL     OW33268   2.091   2.312  16.113  0.5515 -0.5023 -0.8096
 7269SOL    HW133269   2.063   2.280  16.199 -0.9399  0.7395 -0.8486
 7269SOL    HW233270   2.153   2.377  16.147  0.0231 -0.9212  0.9301
 7270SOL     OW33271   1.224   4.574   6.333 -0.1697  0.0354 -0.3213
 7270SOL    HW133272   1.130   4.557   6.342 -0.2047  0.7220  0.7166
 7270SOL    HW233273   1.250   4.486   6.358 -0.1982  0.3909  0.9845
 7271SOL     OW33274   4.090   2.167   6.441  0.5457 -0.1828 -0.2075
 7271SOL    HW133275   4.052   2.165   6.528  1.0916  1.7662  0.0642
 7271SOL    HW233276   4.020   2.141   6.381  1.6483  0.7996 -1.9261
 7272SOL     OW33277   3.374   1.252   6.138  0.0037 -0.3387 -0.0571
 7272SOL    HW133278   3.362   1.204   6.220 -0.2437 -0.1191  0.0352
 7272SOL    HW233279   3.316   1.208   6.076  1.5562 -0.1544 -1.6388
 7273SOL     OW33280   0.857   0.590  14.103  0.2832  0.4844  0.3193
 7273SOL    HW133281   0.888   0.624  14.019  3.1305  0.8845  1.5197
 7273SOL    HW233282   0.788   0.535  14.068  0.4499 -0.5880  1.6983
 7274SOL     OW33283   1.679   0.498   3.561  0.1844 -0.1578  0.0956
 7274SOL    HW133284   1.686   0.403   3.555  0.3071 -0.0103 -2.2207
 7274SOL    HW233285   1.746   0.534   3.504 -0.0084  2.2497  1.4083
 7275SOL     OW33286   0.008   2.887   9.812 -0.1119 -0.2049 -0.1897
 7275SOL    HW133287   4.659   2.881   9.751  1.6607  2.0385 -2.5562
 7275SOL    HW233288   4.702   2.960   9.866 -1.2864 -0.4533 -0.5178
 7276SOL     OW33289   1.665   4.540  15.701 -0.1272 -0.7758 -0.1983
 7276SOL    HW133290   1.747   4.575  15.664 -1.0786  2.0699  0.4051
 7276SOL    HW233291   1.645   4.469  15.640 -0.2202  0.9361 -2.1598
 7277SOL     OW33292   3.124   3.758   5.088 -0.1771 -0.5339 -0.0809
 7277SOL    HW133293   3.217   3.779   5.094 -0.1936 -0.5107  0.0913
 7277SOL    HW233294   3.107   3.750   5.182 -2.3569  0.0144 -0.4282
 7278SOL     OW33295   1.868   4.258  10.818 -0.4603 -0.3426  0.1543
 7278SOL    HW133296   1.832   4.234  10.903  0.9659 -1.7083  0.3817
 7278SOL    HW233297   1.790   4.250  10.763 -0.0756 -0.2285 -0.4080
 7279SOL     OW33298   2.582   1.890  15.910  0.3686  0.0793 -0.1246
 7279SOL    HW133299   2.519   1.958  15.936  1.0293 -0.1039  1.9232
 7279SOL    HW233300   2.562   1.816  15.967 -0.1436  0.5787  0.3478
 7280SOL     OW33301   3.365   1.940  13.917  0.9380  0.0098 -0.5947
 7280SOL    HW133302   3.319   1.856  13.922 -0.6969  0.6242 -5.2491
 7280SOL    HW233303   3.334   1.970  14.003 -1.3098 -0.8646 -1.0753
 7281SOL     OW33304   1.684   2.708   3.887 -0.0623  0.1216 -0.2308
 7281SOL    HW133305   1.722   2.765   3.953  0.1584  1.9644 -1.9663
 7281SOL    HW233306   1.673   2.766   3.812  0.2390  1.4240  0.7351
 7282SOL     OW33307   3.412   0.236   1.369  0.1720  0.0926 -0.2762
 7282SOL    HW133308   3.358   0.249   1.291 -1.8346 -0.1602  1.0933
 7282SOL    HW233309   3.404   0.142   1.384 -1.0706  0.1450 -0.6531
 7283SOL     OW33310   3.780   3.417   3.307  0.1183  0.1051 -0.0691
 7283SOL    HW133311   3.751   3.428   3.217 -0.1005  1.4539  0.1641
 7283SOL    HW233312   3.834   3.339   3.295  2.3456  1.7979 -0.9940
 7284SOL     OW33313   2.520   0.756   9.309  0.2888 -0.0561 -0.2133
 7284SOL    HW133314   2.491   0.717   9.391  1.4027 -1.7740 -0.6431
 7284SOL    HW233315   2.552   0.843   9.334 -1.1309 -0.3900  2.7163
 7285SOL     OW33316   0.591   3.330   0.097  0.2863  0.1625 -0.5977
 7285SOL    HW133317   0.650   3.379   0.154 -0.0299 -0.4799  0.2875
 7285SOL    HW233318   0.598   3.244   0.139  0.6242 -0.0952 -1.1942
 7286SOL     OW33319   3.343   3.184   8.103  0.4528 -0.1974  0.6844
 7286SOL    HW133320   3.386   3.184   8.189  0.0217 -1.6251  0.9057
 7286SOL    HW233321   3.299   3.269   8.109  2.9125  1.1785 -0.7280
 7287SOL     OW33322   0.892   4.199   7.081  0.0515 -0.3301  0.0659
 7287SOL    HW133323   0.902   4.292   7.060 -1.1220 -0.0167  0.8697
 7287SOL    HW233324   0.939   4.210   7.163 -0.0320 -0.7037  0.1601
 7288SOL     OW33325   0.891   3.919  12.607  0.0240  0.4793 -0.0593
 7288SOL    HW133326   0.956   3.911  12.536 -1.0531  1.3834 -1.1418
 7288SOL    HW233327   0.930   3.987  12.661  1.3240 -0.7959  0.6244
 7289SOL     OW33328   3.597   2.587   3.904 -0.2151 -0.3002  0.0596
 7289SOL    HW133329   3.681   2.547   3.882 -0.2253 -0.7153  0.7614
 7289SOL    HW233330   3.626   2.678   3.906  1.3845 -0.7937 -1.4314
 7290SOL     OW33331   3.178   2.394   7.905  0.0293  0.1951 -0.0221
 7290SOL    HW133332   3.263   2.361   7.935 -0.7440  0.1349  2.0810
 7290SOL    HW233333   3.188   2.394   7.810 -0.2611  0.7842 -0.0520
 7291SOL     OW33334   0.340   1.574   9.553  0.2588 -0.8386  0.3422
 7291SOL    HW133335   0.423   1.537   9.585  0.8641  0.2079  0.0072
 7291SOL    HW233336   0.295   1.491   9.538 -0.5814 -0.6477  1.8551
 7292SOL     OW33337   1.855   0.797   8.482 -0.0392  0.2356  0.0318
 7292SOL    HW133338   1.840   0.862   8.413 -0.9886  3.4517  3.2599
 7292SOL    HW233339   1.930   0.833   8.529  1.6234 -1.2925 -1.4963
 7293SOL     OW33340   3.204   2.691   5.341  0.7113 -0.2541 -0.2577
 7293SOL    HW133341   3.181   2.690   5.248 -2.2504  0.4858  0.4405
 7293SOL    HW233342   3.119   2.726   5.370  1.1791  2.6779 -2.3776
 7294SOL     OW33343   2.353   0.501   2.436  0.0757  0.2350 -0.2591
 7294SOL    HW133344   2.445   0.476   2.429 -0.6988 -2.7693  0.3499
 7294SOL    HW233345   2.314   0.414   2.439 -1.9163  1.1075 -0.8265
 7295SOL     OW33346   2.888   2.664   7.411  0.2232 -0.0496 -0.2479
 7295SOL    HW133347   2.913   2.710   7.491  2.0301  3.6836 -2.9153
 7295SOL    HW233348   2.903   2.735   7.348  3.3299  0.3408  0.9010
 7296SOL     OW33349   0.615   0.362   5.374 -0.1276 -0.4241 -0.0374
 7296SOL    HW133350   0.706   0.337   5.359  0.2842  1.1726 -0.1564
 7296SOL    HW233351   0.595   0.305   5.449  1.2854  0.5687  1.0977
 7297SOL     OW33352   3.778   3.899   2.694  0.1725  0.0699  0.1305
 7297SOL    HW133353   3.837   3.854   2.754 -0.0374  1.6781  1.5595
 7297SOL    HW233354   3.704   3.840   2.706  1.4051 -1.0690  2.1232
 7298SOL     OW33355   0.248   0.594   6.598 -0.6885 -0.0257 -0.1137
 7298SOL    HW133356   0.271   0.639   6.517 -1.0697 -1.2755 -0.9087
 7298SOL    HW233357   0.161   0.631   6.614 -0.0178  0.9784  1.2554
 7299SOL     OW33358   0.739   1.896   6.611  0.1839  0.2494  0.1287
 7299SOL    HW133359   0.770   1.904   6.701  3.5823  2.1978 -1.2564
 7299SOL    HW233360   0.664   1.836   6.614 -0.0892  0.5910  0.2545
 7300SOL     OW33361   2.474   3.964  10.358  0.8097  0.0783 -0.3111
 7300SOL    HW133362   2.437   4.052  10.354  1.9351  0.5110 -1.1281
 7300SOL    HW233363   2.487   3.961  10.263 -0.4834  0.4663 -0.5004
 7301SOL     OW33364   0.575   0.857  17.544 -0.2655 -0.1539 -0.1225
 7301SOL    HW133365   0.624   0.911  17.606  0.0370  0.0172 -0.5067
 7301SOL    HW233366   0.640   0.792  17.519  0.7345  1.2725 -1.2667
 7302SOL     OW33367   2.673   4.156   1.923  0.4094 -0.2440  0.2855
 7302SOL    HW133368   2.644   4.176   2.012 -1.9779  1.8366 -0.9624
 7302SOL    HW233369   2.740   4.090   1.939  0.8938  0.0095 -0.6915
 7303SOL     OW33370   3.488   4.613   2.008  1.0711  0.1435  0.0597
 7303SOL    HW133371   3.543   4.549   2.052  0.6727  0.3789  0.8950
 7303SOL    HW233372   3.405   4.569   1.990 -0.0909  2.1452  0.5389
 7304SOL     OW33373   1.640   2.137  11.115  0.0642 -0.1635 -0.1775
 7304SOL    HW133374   1.569   2.082  11.146  0.5294 -0.0121  1.1784
 7304SOL    HW233375   1.592   2.192  11.053  3.2266  0.0175 -2.5024
 7305SOL     OW33376   3.884   3.210  15.417 -0.5691 -0.0328  0.1485
 7305SOL    HW133377   3.866   3.224  15.510  0.8262  1.2469  0.2300
 7305SOL    HW233378   3.802   3.165  15.399 -0.2554 -1.3243  1.9179
 7306SOL     OW33379   3.882   3.914  17.416  1.0349  0.1281 -0.0345
 7306SOL    HW133380   3.972   3.933  17.389  1.1720  0.9759  1.0115
 7306SOL    HW233381   3.834   3.931  17.335  0.4543  0.7841  0.4499
 7307SOL     OW33382   0.134   0.367   4.598  0.1847  0.1931 -0.1896
 7307SOL    HW133383   0.085   0.325   4.528  0.5393 -2.0699  0.9107
 7307SOL    HW233384   0.217   0.364   4.550  1.2490 -0.3298  1.6698
 7308SOL     OW33385   2.620   1.914   1.836 -0.4210  0.3247 -0.0809
 7308SOL    HW133386   2.613   1.892   1.743  1.0979  0.9708 -0.3506
 7308SOL    HW233387   2.706   1.874   1.852 -1.1061 -1.3423 -0.5819
 7309SOL     OW33388   3.803   2.077   3.626  0.2439 -0.1357 -0.9653
 7309SOL    HW133389   3.893   2.058   3.598 -0.0105  0.3380 -2.1162
 7309SOL    HW233390   3.820   2.069   3.719  0.1957  0.9043 -0.8713
 7310SOL     OW33391   0.756   0.615  16.531  0.5602  0.5542 -0.2603
 7310SOL    HW133392   0.702   0.537  16.515  1.7302  0.0205 -1.6171
 7310SOL    HW233393   0.811   0.584  16.603  0.0710 -2.2553 -1.1109
 7311SOL     OW33394   2.143   4.407  11.425 -0.2194  0.1527  0.0174
 7311SOL    HW133395   2.089   4.338  11.385 -0.9217  0.4846  0.3889
 7311SOL    HW233396   2.202   4.359  11.482  0.0393  1.6378  1.0019
 7312SOL     OW33397   2.394   3.180  10.139  0.1497  0.4252 -0.5709
 7312SOL    HW133398   2.406   3.255  10.082 -2.9034 -0.1311 -1.9998
 7312SOL    HW233399   2.368   3.229  10.217 -0.2457 -0.8822  0.1340
 7313SOL     OW33400   0.073   4.232   2.998 -0.7597  0.0729  0.0247
 7313SOL    HW133401   0.100   4.314   2.959 -0.1910 -0.7589 -1.3273
 7313SOL    HW233402   4.723   4.212   2.940  0.4896 -2.8168 -0.5874
 7314SOL     OW33403   0.416   2.829   7.947  0.0860 -0.4043 -0.4089
 7314SOL    HW133404   0.427   2.912   7.900  0.9456 -1.0550 -1.3362
 7314SOL    HW233405   0.325   2.806   7.929 -0.7046  1.5042  1.1283
 7315SOL     OW33406   0.035   0.392  15.270  0.2853  0.2641 -0.0012
 7315SOL    HW133407   4.711   0.346  15.339  1.8768  0.5168  1.2733
 7315SOL    HW233408   0.044   0.319  15.209  2.2648  0.0967  0.4937
 7316SOL     OW33409   4.587   0.612   7.237 -0.0955 -0.5172 -0.1690
 7316SOL    HW133410   4.499   0.648   7.245 -0.4807 -1.3972 -0.3722
 7316SOL    HW233411   4.635   0.652   7.309 -0.5282 -0.2402 -0.0390
 7317SOL     OW33412   3.038   0.716  16.146  0.5906  0.1156 -0.3006
 7317SOL    HW133413   3.009   0.730  16.236 -0.2002  2.8879 -1.0063
 7317SOL    HW233414   3.002   0.785  16.090  1.9413  0.0520 -1.2377
 7318SOL     OW33415   1.359   3.322   8.744  0.5847 -0.0297 -0.3690
 7318SOL    HW133416   1.422   3.393   8.730  3.1550 -2.4088 -0.9667
 7318SOL    HW233417   1.395   3.288   8.826  0.4606 -2.8425 -1.4728
 7319SOL     OW33418   1.548   3.149   1.956  0.1095 -0.3879 -0.8043
 7319SOL    HW133419   1.637   3.183   1.946 -0.1011 -0.2136 -2.1293
 7319SOL    HW233420   1.574   3.093   2.028  1.2154 -1.4378 -2.0236
 7320SOL     OW33421   2.083   0.535  10.336  0.5731  0.2657 -0.1066
 7320SOL    HW133422   2.000   0.578  10.358  0.3361  0.1094 -0.6972
 7320SOL    HW233423   2.113   0.494  10.418  1.1336  2.0970  0.6174
 7321SOL     OW33424   2.254   4.019   1.588 -0.0621  0.8526 -0.1670
 7321SOL    HW133425   2.320   4.060   1.532 -1.0025  2.1194 -0.3530
 7321SOL    HW233426   2.263   4.083   1.659 -3.5597 -1.5231  2.3717
 7322SOL     OW33427   2.321   4.369   6.794  0.5842  0.3534  0.0758
 7322SOL    HW133428   2.294   4.350   6.884 -2.0540  1.6324 -0.4375
 7322SOL    HW233429   2.289   4.289   6.752  2.5598 -0.7945  0.7444
 7323SOL     OW33430   1.080   3.904  11.248 -0.4914 -0.0016  0.8790
 7323SOL    HW133431   1.025   3.982  11.257  0.4392  0.7460  0.0702
 7323SOL    HW233432   1.139   3.942  11.182 -1.7233 -0.3479 -0.4093
 7324SOL     OW33433   2.449   3.968  10.103 -0.4991  0.0342 -0.0381
 7324SOL    HW133434   2.492   3.970  10.018  2.9587 -1.8347  1.6289
 7324SOL    HW233435   2.395   4.045  10.086  0.4757  0.3023 -1.9228
 7325SOL     OW33436   2.772   1.404  11.930 -0.4242 -0.4141  0.1595
 7325SOL    HW133437   2.822   1.439  11.857  2.3222  0.3202  2.3610
 7325SOL    HW233438   2.693   1.370  11.887 -0.8196  0.2486  0.3481
 7326SOL     OW33439   1.666   2.284   3.322  0.0258  0.1683  0.1111
 7326SOL    HW133440   1.691   2.334   3.399  0.5299 -0.1157  0.1364
 7326SOL    HW233441   1.681   2.352   3.257  0.3907  1.0222  1.0935
 7327SOL     OW33442   3.080   2.294   4.857  0.0075  0.0785  0.4196
 7327SOL    HW133443   3.116   2.219   4.904  0.2587 -1.5903 -2.3743
 7327SOL    HW233444   3.077   2.262   4.766 -1.5081 -2.2993  1.3150
 7328SOL     OW33445   0.024   0.539   8.937  0.4080  0.0324 -0.5549
 7328SOL    HW133446   0.104   0.494   8.965 -0.2112 -1.2969 -0.8907
 7328SOL    HW233447   0.050   0.629   8.916  1.9513 -0.5453 -1.1579
 7329SOL     OW33448   3.502   4.117   2.539 -1.1470 -0.0987  0.5414
 7329SOL    HW133449   3.435   4.141   2.475  0.7249  1.1795 -0.9356
 7329SOL    HW233450   3.563   4.190   2.527 -1.4657  0.0293 -0.2860
 7330SOL     OW33451   2.213   0.832   6.813  0.8509  0.0021 -0.0915
 7330SOL    HW133452   2.251   0.848   6.900 -2.6949  0.3598  1.3729
 7330SOL    HW233453   2.121   0.826   6.837  0.9976 -1.0411  0.2251
 7331SOL     OW33454   2.685   0.514   8.425  0.4707  0.3113 -0.0296
 7331SOL    HW133455   2.634   0.549   8.497  0.6863 -0.1906  0.3702
 7331SOL    HW233456   2.628   0.535   8.351 -0.0100 -2.3422 -0.4294
 7332SOL     OW33457   1.504   2.155   4.709 -0.4619 -0.0153 -0.0884
 7332SOL    HW133458   1.442   2.226   4.725 -0.2004  0.0738  0.5266
 7332SOL    HW233459   1.445   2.088   4.675  0.1417 -1.3977  1.5841
 7333SOL     OW33460   3.905   0.815   4.791 -0.6939 -0.0983  0.2940
 7333SOL    HW133461   3.831   0.754   4.790 -1.1243  0.4245  0.2027
 7333SOL    HW233462   3.974   0.750   4.803 -0.1049  0.4388 -0.1854
 7334SOL     OW33463   0.331   3.674   3.290  0.5659 -0.0134 -0.0923
 7334SOL    HW133464   0.419   3.689   3.256  1.0231  0.3077  1.2341
 7334SOL    HW233465   0.323   3.579   3.284 -2.2324  0.4447 -3.5654
 7335SOL     OW33466   3.916   1.877   4.575 -0.5064  0.2422  0.1418
 7335SOL    HW133467   3.967   1.947   4.536 -1.7530  1.6859  1.0791
 7335SOL    HW233468   3.972   1.805   4.549  0.4370  0.6056  1.1575
 7336SOL     OW33469   0.667   1.571   1.041 -0.1535  0.0664 -0.1173
 7336SOL    HW133470   0.611   1.648   1.046  0.4856  0.5654 -0.8840
 7336SOL    HW233471   0.631   1.520   0.969  0.5001 -1.2300  0.4681
 7337SOL     OW33472   4.225   1.708   2.689  0.0412 -0.1486  0.3140
 7337SOL    HW133473   4.204   1.624   2.729  0.4324 -0.2215  0.3690
 7337SOL    HW233474   4.161   1.762   2.735 -0.9561 -1.4748  0.4642
 7338SOL     OW33475   3.800   1.075   2.305  0.1123 -0.4227 -0.4164
 7338SOL    HW133476   3.807   1.165   2.273  0.8264 -0.0545  0.7829
 7338SOL    HW233477   3.818   1.035   2.220  3.7176 -1.8050  1.0042
 7339SOL     OW33478   1.421   0.535   3.121 -0.2028  0.1768  0.1004
 7339SOL    HW133479   1.365   0.607   3.092 -1.5714  0.4586  3.4690
 7339SOL    HW233480   1.377   0.459   3.081  0.9503 -0.4088 -0.0527
 7340SOL     OW33481   2.014   1.065  17.269 -0.2877  0.3260  0.3930
 7340SOL    HW133482   2.078   1.123  17.311 -0.4027  0.8814 -0.1865
 7340SOL    HW233483   2.047   0.976  17.274 -0.9492 -0.0331 -1.6245
 7341SOL     OW33484   0.879   4.603   7.981 -0.1263 -0.3235 -0.0681
 7341SOL    HW133485   0.952   4.540   7.980 -0.6962 -0.9956  0.4968
 7341SOL    HW233486   0.806   4.557   7.938 -1.1615 -0.5017  1.9083
 7342SOL     OW33487   0.054   1.462   2.779  0.2880  0.3674  0.3354
 7342SOL    HW133488   0.016   1.379   2.748  1.0454  0.4878 -0.8874
 7342SOL    HW233489   0.126   1.474   2.718 -1.1843 -0.2235 -1.5269
 7343SOL     OW33490   1.133   4.243   1.998 -0.1448  0.1401  0.7415
 7343SOL    HW133491   1.216   4.289   2.014  0.2291  0.2831 -1.6771
 7343SOL    HW233492   1.166   4.153   1.993  0.5126  0.4422 -0.4524
 7344SOL     OW33493   4.212   3.763  12.306  0.2462  0.2275  0.1059
 7344SOL    HW133494   4.301   3.796  12.297 -0.9178  3.3152  0.1197
 7344SOL    HW233495   4.157   3.835  12.275 -0.5742 -1.1788 -1.7463
 7345SOL     OW33496   4.144   0.576   6.318  1.0779 -0.4306 -0.6350
 7345SOL    HW133497   4.058   0.565   6.278  0.8386  0.2205 -0.3063
 7345SOL    HW233498   4.182   0.658   6.286 -1.0291  0.4576 -0.8478
 7346SOL     OW33499   4.100   1.475   5.418  0.3591 -0.4264  0.0122
 7346SOL    HW133500   4.054   1.469   5.502 -1.1483  1.8172 -0.6644
 7346SOL    HW233501   4.137   1.564   5.419  0.0139 -0.3083  2.5509
 7347SOL     OW33502   3.998   1.001   3.353 -0.1987  0.5927  0.5013
 7347SOL    HW133503   4.000   1.074   3.415 -0.1645  1.3929 -0.4455
 7347SOL    HW233504   3.996   0.923   3.409  0.5927  0.8465  0.8898
 7348SOL     OW33505   4.506   2.507   4.356 -0.3661  0.1040 -0.1080
 7348SOL    HW133506   4.422   2.490   4.398  0.7913 -0.1063  2.1557
 7348SOL    HW233507   4.487   2.565   4.282  0.2293 -0.9504 -1.1004
 7349SOL     OW33508   0.952   3.124   4.206 -0.3976  0.2586  0.0513
 7349SOL    HW133509   0.936   3.120   4.300 -2.1126 -1.2079 -0.3128
 7349SOL    HW233510   0.985   3.213   4.194 -0.1023 -0.2322 -2.7543
 7350SOL     OW33511   4.025   3.552  10.576  0.1010  0.0320 -0.4622
 7350SOL    HW133512   3.951   3.610  10.595  0.6030 -0.1338  1.9727
 7350SOL    HW233513   4.044   3.510  10.660 -0.9559 -1.1622 -0.8165
 7351SOL     OW33514   2.798   0.309   7.359 -0.4348 -0.3382  0.0158
 7351SOL    HW133515   2.772   0.301   7.451 -1.2641  1.4491 -0.0625
 7351SOL    HW233516   2.767   0.225   7.326 -3.0645  0.3083  0.8963
 7352SOL     OW33517   3.172   4.413   6.618  0.1709 -0.5515 -0.1494
 7352SOL    HW133518   3.108   4.367   6.672 -0.0410 -0.2903 -0.1782
 7352SOL    HW233519   3.241   4.444   6.675 -0.5801  0.5369  0.1735
 7353SOL     OW33520   0.321   0.949   6.111 -0.1138 -0.5925 -0.0790
 7353SOL    HW133521   0.404   0.903   6.127 -0.6165 -1.6764 -0.5962
 7353SOL    HW233522   0.330   1.011   6.183 -0.1692 -1.9489  1.0981
 7354SOL     OW33523   4.077   3.465   5.990 -0.5592 -0.0666  0.3285
 7354SOL    HW133524   4.044   3.375   5.981  1.5320 -0.6032 -2.0129
 7354SOL    HW233525   4.115   3.484   5.904  0.1596  1.5946  1.0255
 7355SOL     OW33526   2.945   0.880  13.001 -0.1135 -0.2322 -0.1991
 7355SOL    HW133527   3.015   0.873  12.936 -1.2764 -0.1963 -1.4553
 7355SOL    HW233528   2.965   0.795  13.040  0.2121 -0.5815 -1.1140
 7356SOL     OW33529   4.425   3.833   6.707  0.4966  0.0160  0.0059
 7356SOL    HW133530   4.353   3.882   6.667 -0.3047 -0.6238  0.6543
 7356SOL    HW233531   4.502   3.848   6.653  0.4919  1.0432  0.2949
 7357SOL     OW33532   2.026   3.664   3.150  0.3141  0.2172 -0.0195
 7357SOL    HW133533   2.103   3.714   3.179 -0.9842  1.3726  1.4088
 7357SOL    HW233534   1.967   3.683   3.223  0.2256  0.0707 -0.0555
 7358SOL     OW33535   2.848   0.973  10.221 -0.3189 -0.3714  0.0400
 7358SOL    HW133536   2.879   0.901  10.166 -0.3448 -0.3038 -0.0642
 7358SOL    HW233537   2.827   1.038  10.153 -2.4538  1.1129  2.0909
 7359SOL     OW33538   3.078   3.955   1.756  0.0691 -0.3481  0.1284
 7359SOL    HW133539   3.078   4.041   1.714  0.0373  0.7573  2.3909
 7359SOL    HW233540   3.168   3.953   1.787 -0.1276 -0.0066  0.7109
 7360SOL     OW33541   3.767   0.396   8.171  0.2207  0.2538 -0.0070
 7360SOL    HW133542   3.854   0.423   8.141  1.2902 -0.7488  2.1840
 7360SOL    HW233543   3.756   0.314   8.123  0.2624 -0.1267  0.6431
 7361SOL     OW33544   0.883   0.685  13.853 -0.1682  0.0545 -0.6749
 7361SOL    HW133545   0.856   0.619  13.789 -0.2110 -0.0259 -0.5744
 7361SOL    HW233546   0.868   0.771  13.815 -0.8477  1.2260  2.2811
 7362SOL     OW33547   2.485   4.617   0.313  0.1739  0.0419  0.2272
 7362SOL    HW133548   2.525   4.698   0.343 -1.5137  1.4276 -1.2510
 7362SOL    HW233549   2.417   4.608   0.380  0.2152 -1.3488  0.0890
 7363SOL     OW33550   2.597   3.622   3.268 -0.5115 -0.1368 -0.1981
 7363SOL    HW133551   2.637   3.653   3.187  1.0819 -1.3503  0.1271
 7363SOL    HW233552   2.668   3.634   3.332 -0.7455 -0.1162  0.0546
 7364SOL     OW33553   0.754   3.734   1.430 -0.8121 -0.2048 -0.3562
 7364SOL    HW133554   0.846   3.735   1.458 -0.5153  1.2844 -1.3671
 7364SOL    HW233555   0.743   3.639   1.425 -0.2516 -0.2081 -1.5831
 7365SOL     OW33556   0.791   2.668   4.400 -0.0489  0.1437  0.0834
 7365SOL    HW133557   0.823   2.754   4.375 -1.1605  0.8759  1.1925
 7365SOL    HW233558   0.811   2.620   4.319 -0.1126  1.7862 -0.9087
 7366SOL     OW33559   0.595   4.408   5.681 -0.1742 -0.0029  0.4228
 7366SOL    HW133560   0.605   4.370   5.593  0.7033  1.1916  0.0131
 7366SOL    HW233561   0.660   4.358   5.731 -0.6173  1.1131  2.1119
 7367SOL     OW33562   1.316   2.412  11.513 -0.6517  0.2955  0.2597
 7367SOL    HW133563   1.360   2.388  11.431  0.1822 -0.9670  1.0762
 7367SOL    HW233564   1.268   2.330  11.530  0.5408 -0.2430  0.9851
 7368SOL     OW33565   3.513   1.480   4.721 -0.0142  0.5036 -0.0184
 7368SOL    HW133566   3.450   1.551   4.725 -0.7243 -0.1774  0.7976
 7368SOL    HW233567   3.590   1.511   4.674 -0.9889  2.2722 -0.4321
 7369SOL     OW33568   3.413   2.297   8.052 -0.0707  0.2568  0.1530
 7369SOL    HW133569   3.505   2.278   8.070 -0.5262  0.0786  2.2555
 7369SOL    HW233570   3.371   2.215   8.027 -0.9824  0.8337 -0.1936
 7370SOL     OW33571   1.832   3.543  12.530  0.9199 -0.5773 -0.0839
 7370SOL    HW133572   1.851   3.633  12.504  0.3566 -0.0802  1.2391
 7370SOL    HW233573   1.856   3.536  12.622 -3.5374 -2.2694  0.9398
 7371SOL     OW33574   1.699   3.214  15.292 -0.0419 -0.7175  0.5039
 7371SOL    HW133575   1.722   3.192  15.382  3.3305 -0.5495 -0.2947
 7371SOL    HW233576   1.612   3.247  15.313 -0.7050 -3.0928  1.3760
 7372SOL     OW33577   0.255   3.190   8.423 -0.0518  0.5105  0.1976
 7372SOL    HW133578   0.334   3.211   8.473 -0.2231  0.3132  0.5553
 7372SOL    HW233579   0.214   3.274   8.402  1.1149  0.7922 -0.9292
 7373SOL     OW33580   3.150   3.985   9.626 -0.4561 -0.4966 -0.2103
 7373SOL    HW133581   3.116   4.064   9.668 -1.6727 -0.2003 -1.7932
 7373SOL    HW233582   3.243   4.002   9.640 -0.0397 -1.1953 -2.1279
 7374SOL     OW33583   1.379   0.887   6.774  0.6216  0.2831 -0.4926
 7374SOL    HW133584   1.312   0.934   6.724  0.8780  0.4017 -0.7264
 7374SOL    HW233585   1.335   0.880   6.859  0.5795 -0.1969 -0.5526
 7375SOL     OW33586   0.337   4.586  12.301 -0.4873 -0.3436 -0.5226
 7375SOL    HW133587   0.433   4.585  12.308 -0.5272 -0.7409 -0.0411
 7375SOL    HW233588   0.326   4.637  12.381 -1.3667 -2.1472  0.5216
 7376SOL     OW33589   2.558   1.858   8.433 -0.0239  0.0751  0.0815
 7376SOL    HW133590   2.589   1.943   8.404 -1.7056  1.2412  1.7518
 7376SOL    HW233591   2.467   1.874   8.458 -0.1817  1.8935 -1.7137
 7377SOL     OW33592   2.141   0.127  16.646  0.5210 -0.3643  0.4065
 7377SOL    HW133593   2.048   0.106  16.644  0.7750 -1.4278  0.0321
 7377SOL    HW233594   2.165   0.060  16.710  0.7615 -0.4282  0.2482
 7378SOL     OW33595   0.826   0.012   5.184 -0.1377  0.4533  0.4418
 7378SOL    HW133596   0.768   0.018   5.108  1.5142 -0.9721 -0.9327
 7378SOL    HW233597   0.794   4.661   5.235 -3.3273  0.9586 -0.8003
 7379SOL     OW33598   3.134   1.690   8.426  0.4513  0.4278  0.4037
 7379SOL    HW133599   3.102   1.690   8.335 -1.2277 -1.9873  0.9871
 7379SOL    HW233600   3.118   1.779   8.458 -0.0477 -0.0526  1.4815
 7380SOL     OW33601   2.128   2.330   3.423 -0.0905 -0.4558  0.3004
 7380SOL    HW133602   2.170   2.350   3.339 -1.0453  2.1887  0.4422
 7380SOL    HW233603   2.118   2.416   3.465  0.1969  0.3719 -1.3170
 7381SOL     OW33604   4.499   3.690   5.774  0.0347  0.4759 -0.2943
 7381SOL    HW133605   4.472   3.741   5.850  1.7640 -0.1155  0.7011
 7381SOL    HW233606   4.528   3.609   5.815 -0.6405  0.1751 -0.3989
 7382SOL     OW33607   2.314   2.892  10.035  0.2234 -0.5193  0.6303
 7382SOL    HW133608   2.350   2.981  10.042  1.0509 -0.7832 -0.2836
 7382SOL    HW233609   2.230   2.914   9.995 -0.0613 -3.1155 -0.1398
 7383SOL     OW33610   2.904   4.544   1.975 -0.1147 -0.6804  0.4802
 7383SOL    HW133611   2.862   4.629   1.984 -0.0417 -0.6463  0.4908
 7383SOL    HW233612   2.872   4.493   2.050  1.6923  1.7835  2.9091
 7384SOL     OW33613   3.292   4.291   4.474  0.4088 -0.4777 -0.3285
 7384SOL    HW133614   3.272   4.215   4.420 -0.6054  0.7643 -1.7209
 7384SOL    HW233615   3.206   4.302   4.516  0.6785  1.6401 -0.3432
 7385SOL     OW33616   3.678   1.577   8.132 -0.0725 -0.0152  0.7931
 7385SOL    HW133617   3.699   1.499   8.182  0.2460  1.1162  2.4389
 7385SOL    HW233618   3.662   1.646   8.197 -1.8863 -0.4437  0.8180
 7386SOL     OW33619   2.071   4.191   2.944 -0.4537  0.1750 -0.3828
 7386SOL    HW133620   2.085   4.188   2.850  1.3166  2.4295 -0.1890
 7386SOL    HW233621   2.047   4.282   2.962 -0.5885 -0.0256  0.4723
 7387SOL     OW33622   4.681   0.729   7.449 -0.1959 -0.3264  0.2850
 7387SOL    HW133623   4.609   0.758   7.504 -0.4925 -0.1313 -0.2009
 7387SOL    HW233624   0.036   0.725   7.502  0.1469 -1.1451 -0.2921
 7388SOL     OW33625   2.080   2.339   9.201  0.1756  0.2886  0.5513
 7388SOL    HW133626   2.129   2.262   9.229 -0.7617 -0.9541 -1.3007
 7388SOL    HW233627   2.081   2.391   9.282  1.5191 -0.3010  0.9229
 7389SOL     OW33628   1.268   2.158   2.869 -0.3589 -0.7516 -0.8851
 7389SOL    HW133629   1.264   2.251   2.891  2.6031 -0.3040 -2.2877
 7389SOL    HW233630   1.316   2.131   2.946 -0.3663  0.3785 -0.4796
 7390SOL     OW33631   3.587   0.643   4.422  0.0789  0.2812  0.7398
 7390SOL    HW133632   3.640   0.575   4.380 -0.1979 -1.8862  3.9186
 7390SOL    HW233633   3.508   0.592   4.440  0.4899 -0.0518  1.5634
 7391SOL     OW33634   0.711   0.970   8.137 -0.0318 -0.2712 -0.0989
 7391SOL    HW133635   0.621   0.978   8.108 -0.0208  0.5252  0.1038
 7391SOL    HW233636   0.757   1.026   8.075  0.7550  0.4897  1.1816
 7392SOL     OW33637   1.727   3.917  11.939 -0.2163 -0.6459  0.2209
 7392SOL    HW133638   1.700   3.830  11.910  0.3860 -0.3510 -1.1955
 7392SOL    HW233639   1.802   3.936  11.882 -0.2556 -1.1982 -0.0078
 7393SOL     OW33640   1.563   1.604   3.319  0.3204  0.0139 -0.4368
 7393SOL    HW133641   1.491   1.596   3.255  0.5698  1.3285 -0.8914
 7393SOL    HW233642   1.512   1.607   3.400 -0.9059  0.2697 -1.2097
 7394SOL     OW33643   3.023   2.324  12.808  0.6334  0.3765  0.2778
 7394SOL    HW133644   3.104   2.348  12.853  3.2785 -1.8017 -3.3134
 7394SOL    HW233645   3.056   2.352  12.722  1.0233  1.3824  0.7591
 7395SOL     OW33646   0.961   4.671   3.958 -0.0448  0.0138  0.3447
 7395SOL    HW133647   1.030   4.612   3.929 -0.2727 -0.6858  1.2310
 7395SOL    HW233648   1.006   0.028   3.932  0.7767 -0.7564 -0.6243
 7396SOL     OW33649   2.290   2.081  13.909  0.6131 -0.5661  0.0913
 7396SOL    HW133650   2.255   2.024  13.977 -0.8448 -1.5020 -1.4435
 7396SOL    HW233651   2.236   2.065  13.831 -0.4753 -3.0229  1.3554
 7397SOL     OW33652   3.149   0.396   2.179 -0.0914 -0.3195 -0.8584
 7397SOL    HW133653   3.084   0.384   2.248  2.5698  2.4670  2.1374
 7397SOL    HW233654   3.144   0.318   2.124 -1.6916 -0.4470 -0.5222
 7398SOL     OW33655   2.182   0.229   5.183 -0.6639  0.2698  0.7722
 7398SOL    HW133656   2.134   0.161   5.136 -0.2422  0.8537 -0.4960
 7398SOL    HW233657   2.249   0.255   5.120 -2.3040  0.5082 -0.8653
 7399SOL     OW33658   4.114   0.184   3.509  0.8784 -0.4915  0.3096
 7399SOL    HW133659   4.136   0.266   3.553  3.1636 -1.7191  1.4473
 7399SOL    HW233660   4.180   0.117   3.526  1.0105 -0.7716 -1.2923
 7400SOL     OW33661   3.744   2.203  13.826  0.3035  0.0419 -0.3735
 7400SOL    HW133662   3.688   2.192  13.750  0.2738 -1.2805 -0.1525
 7400SOL    HW233663   3.757   2.113  13.855 -0.1870 -0.2685 -1.1423
 7401SOL     OW33664   4.514   0.126   4.865 -0.0655  0.5600 -0.6499
 7401SOL    HW133665   4.582   0.189   4.890  2.0011 -1.7118 -0.6300
 7401SOL    HW233666   4.435   0.180   4.854  0.5564  1.5925 -0.0566
 7402SOL     OW33667   4.687   1.704   2.212  0.1163  0.3885 -0.6703
 7402SOL    HW133668   4.609   1.727   2.262  1.1817  1.6584  0.3713
 7402SOL    HW233669   4.647   1.720   2.126 -0.2134 -1.4707 -0.8652
 7403SOL     OW33670   0.191   2.413   5.678  0.0309  0.0955  0.2729
 7403SOL    HW133671   0.189   2.318   5.690  0.9204  0.0058 -0.3183
 7403SOL    HW233672   0.110   2.436   5.724 -0.3867  0.9531 -0.8853
 7404SOL     OW33673   1.820   1.843   7.012  0.3486 -0.8040  0.3880
 7404SOL    HW133674   1.815   1.807   6.924  2.5056  0.8132 -0.3955
 7404SOL    HW233675   1.727   1.861   7.026  1.1804  2.8145  1.5278
 7405SOL     OW33676   3.961   0.474   9.072  0.3371 -0.0936  0.0047
 7405SOL    HW133677   4.008   0.509   8.996 -1.5857 -0.0735 -1.1759
 7405SOL    HW233678   3.917   0.396   9.040  2.2643 -0.8436 -0.7892
 7406SOL     OW33679   4.179   2.199  12.905 -0.7207  0.5007  0.2276
 7406SOL    HW133680   4.197   2.108  12.930  1.4368  1.1485  1.1118
 7406SOL    HW233681   4.174   2.240  12.992  0.2947  0.7079  0.1893
 7407SOL     OW33682   0.601   2.072   7.967 -0.1130 -0.0278 -0.6786
 7407SOL    HW133683   0.640   2.045   8.050  1.3713  0.2420 -1.2946
 7407SOL    HW233684   0.590   2.165   7.986 -1.3362  0.0619 -1.8279
 7408SOL     OW33685   0.017   1.924   0.217 -0.2098  0.6787 -0.4803
 7408SOL    HW133686   0.002   2.006   0.263 -1.1234 -0.6873  1.6277
 7408SOL    HW233687   0.069   1.867   0.274 -3.5898 -1.7619  0.1652
 7409SOL     OW33688   1.665   0.324   1.682  0.1050  0.3072 -0.1622
 7409SOL    HW133689   1.662   0.239   1.639  0.2101  0.8989 -1.3369
 7409SOL    HW233690   1.760   0.334   1.675  0.3835 -0.5939  2.5159
 7410SOL     OW33691   1.793   1.210   9.563 -0.1015  0.3623  0.0549
 7410SOL    HW133692   1.849   1.231   9.638 -0.5674  1.1478  0.1820
 7410SOL    HW233693   1.840   1.243   9.486  0.7652  1.6894  1.1422
 7411SOL     OW33694   3.452   3.614  15.150  0.6251  0.0102  0.0072
 7411SOL    HW133695   3.367   3.654  15.132  0.2811 -0.8627 -0.3090
 7411SOL    HW233696   3.514   3.683  15.126  0.5102  0.3194  0.6054
 7412SOL     OW33697   3.112   1.768   5.443  0.4965  0.2927  0.0854
 7412SOL    HW133698   3.088   1.818   5.365  0.8827  0.3252 -0.0139
 7412SOL    HW233699   3.205   1.761   5.424  0.6654 -1.1877  1.4898
 7413SOL     OW33700   0.566   2.611   3.295 -0.1125  0.0912 -0.1143
 7413SOL    HW133701   0.569   2.703   3.267 -1.1084  0.1281 -0.1153
 7413SOL    HW233702   0.510   2.575   3.227  1.0615 -0.5662 -0.7276
 7414SOL     OW33703   1.914   1.171   6.072 -0.0888  0.0258  0.1598
 7414SOL    HW133704   1.864   1.247   6.102 -2.1344 -1.7659  1.3443
 7414SOL    HW233705   1.999   1.211   6.057 -1.0602  2.9970  2.5135
 7415SOL     OW33706   0.486   2.069  11.966  0.1077  0.2279  0.3979
 7415SOL    HW133707   0.555   2.045  11.904  1.6147 -0.4809  2.3274
 7415SOL    HW233708   0.525   2.149  12.001 -1.7038  0.5560  1.6799
 7416SOL     OW33709   2.640   1.667   0.533 -0.7234 -0.3315  0.0730
 7416SOL    HW133710   2.555   1.705   0.555 -0.8130  0.0148 -0.8652
 7416SOL    HW233711   2.671   1.722   0.460 -0.8064 -1.3992 -0.7734
 7417SOL     OW33712   2.251   3.520   5.168 -0.0569  0.1778 -0.1046
 7417SOL    HW133713   2.234   3.610   5.196  1.0727  0.7424 -1.2341
 7417SOL    HW233714   2.306   3.547   5.095  2.0701  1.6774  2.0223
 7418SOL     OW33715   1.812   0.360   7.691  0.0655  0.5899  0.1819
 7418SOL    HW133716   1.871   0.395   7.758 -1.0657 -0.5280  1.7587
 7418SOL    HW233717   1.773   0.285   7.735  0.0078 -0.6892 -2.0224
 7419SOL     OW33718   0.400   3.390   2.536 -0.2446  0.0758  0.0973
 7419SOL    HW133719   0.327   3.435   2.579 -0.3162 -1.0035  1.0994
 7419SOL    HW233720   0.389   3.441   2.455  3.2244 -0.1410 -0.5046
 7420SOL     OW33721   4.641   3.124   3.694 -0.6713  0.4388 -0.5452
 7420SOL    HW133722   0.008   3.103   3.718 -0.9943 -0.5729 -0.2353
 7420SOL    HW233723   4.655   3.144   3.601  0.7199  5.5600  0.7096
 7421SOL     OW33724   1.944   0.540   5.830  0.1906  0.0624  0.1467
 7421SOL    HW133725   1.857   0.500   5.835  0.5337 -0.8332 -1.2110
 7421SOL    HW233726   1.996   0.470   5.790 -0.5268 -0.2406 -0.2461
 7422SOL     OW33727   4.023   2.305   4.066 -0.0092  0.4332 -0.4185
 7422SOL    HW133728   3.965   2.232   4.042  1.2121 -0.7395  0.2500
 7422SOL    HW233729   3.957   2.369   4.094  0.0558  1.1122 -1.8083
 7423SOL     OW33730   3.821   2.989  11.763 -0.2332  0.7966  0.2321
 7423SOL    HW133731   3.827   3.016  11.855  0.8369  1.9447 -0.1701
 7423SOL    HW233732   3.826   3.068  11.709  1.0570  1.4619  1.3294
 7424SOL     OW33733   3.331   3.408   2.771  0.8006 -0.5834 -0.0240
 7424SOL    HW133734   3.259   3.454   2.813  1.8136 -0.8232  1.9652
 7424SOL    HW233735   3.332   3.314   2.788 -2.3415 -0.4114  0.9377
 7425SOL     OW33736   2.859   0.550   4.564  0.6610  0.1782 -0.1806
 7425SOL    HW133737   2.916   0.478   4.592  0.3362 -0.9950 -2.5057
 7425SOL    HW233738   2.882   0.624   4.620 -0.6863  0.3945  0.0817
 7426SOL     OW33739   0.687   2.354  17.214  0.3619 -0.4002  0.2133
 7426SOL    HW133740   0.645   2.336  17.130  0.9683  0.9745 -0.3869
 7426SOL    HW233741   0.752   2.285  17.226 -0.3627 -0.7682  2.0323
 7427SOL     OW33742   4.673   3.267   4.203 -0.3528 -0.2834 -0.1915
 7427SOL    HW133743   0.023   3.314   4.242 -0.1431 -0.7293 -0.0615
 7427SOL    HW233744   4.608   3.329   4.170 -0.5285 -0.3815 -0.0261
 7428SOL     OW33745   2.603   3.237   4.500  0.2034 -0.2028  0.2337
 7428SOL    HW133746   2.570   3.303   4.438 -0.8687 -0.6559  0.3215
 7428SOL    HW233747   2.557   3.272   4.577  0.3017  0.5555 -0.0492
 7429SOL     OW33748   2.529   3.984   3.115 -0.2357  0.2587  0.5077
 7429SOL    HW133749   2.496   3.980   3.204 -2.4572 -0.8194 -0.3733
 7429SOL    HW233750   2.454   3.982   3.056 -0.5187 -1.6611  0.9104
 7430SOL     OW33751   4.559   1.654  15.056 -0.0790 -0.0087  0.1303
 7430SOL    HW133752   4.510   1.736  15.050  2.2560  1.3131 -0.7684
 7430SOL    HW233753   4.631   1.683  14.999 -1.0665 -2.4590 -2.3887
 7431SOL     OW33754   0.857   0.276   5.245  0.6098 -0.0248 -0.0888
 7431SOL    HW133755   0.927   0.293   5.182 -0.9478  0.5031 -1.6779
 7431SOL    HW233756   0.850   0.181   5.230 -0.1832 -0.1104  0.7701
 7432SOL     OW33757   4.133   4.178   3.538 -0.1202  0.2236 -0.1864
 7432SOL    HW133758   4.200   4.111   3.525  1.6541  1.6704  1.4276
 7432SOL    HW233759   4.191   4.255   3.533 -0.0180  0.0542 -1.5432
 7433SOL     OW33760   0.663   4.097   3.371  0.0896  0.2586  0.0486
 7433SOL    HW133761   0.625   4.012   3.395  0.8235 -0.1813 -0.3434
 7433SOL    HW233762   0.634   4.094   3.279 -4.0160 -0.8008  1.3828
 7434SOL     OW33763   4.171   2.740   2.617 -0.1027  0.5381  0.5461
 7434SOL    HW133764   4.220   2.658   2.628 -1.9991 -0.8456 -1.2018
 7434SOL    HW233765   4.247   2.798   2.622  0.1159  0.3067 -0.0740
 7435SOL     OW33766   4.539   2.888   3.598 -0.4730  0.7140  0.0106
 7435SOL    HW133767   4.582   2.951   3.656  0.2178 -0.2802  0.5719
 7435SOL    HW233768   4.622   2.845   3.580 -1.0380 -0.9661  1.4756
 7436SOL     OW33769   1.276   2.865   7.912 -0.4890  0.4887  0.3456
 7436SOL    HW133770   1.280   2.787   7.967  0.4964 -0.0885 -0.5451
 7436SOL    HW233771   1.218   2.919   7.966  0.1343 -0.1693  1.6688
 7437SOL     OW33772   2.881   3.667   3.132  0.4223  0.5469  0.1764
 7437SOL    HW133773   2.935   3.592   3.106  0.7663  0.5117  0.9890
 7437SOL    HW233774   2.880   3.650   3.226  1.2422 -0.7536 -0.0588
 7438SOL     OW33775   0.362   0.240  11.978  0.2334 -0.0924 -0.1179
 7438SOL    HW133776   0.384   0.217  12.068  2.1443  0.3085 -0.4730
 7438SOL    HW233777   0.331   0.330  11.987 -0.0733 -0.3586  1.3561
 7439SOL     OW33778   1.407   2.078   6.257  0.0008  0.0409 -0.2999
 7439SOL    HW133779   1.348   2.143   6.219  1.1849  1.2204 -0.1274
 7439SOL    HW233780   1.489   2.123   6.275  0.1331  0.1962 -1.3152
 7440SOL     OW33781   2.633   4.235   3.766  0.1740 -0.0339  0.1864
 7440SOL    HW133782   2.590   4.314   3.800 -0.1414 -0.7262  1.4025
 7440SOL    HW233783   2.714   4.262   3.724  0.5446 -0.2599  0.7553
 7441SOL     OW33784   0.203   3.441   6.307  0.3594  0.2137 -0.2964
 7441SOL    HW133785   0.288   3.481   6.324  1.1685 -1.5082 -0.3628
 7441SOL    HW233786   0.191   3.400   6.392  1.1394  0.1730 -0.2135
 7442SOL     OW33787   4.251   3.225   3.163  0.1400  0.9470  0.1384
 7442SOL    HW133788   4.276   3.179   3.083 -0.4125  1.3649 -0.2776
 7442SOL    HW233789   4.303   3.170   3.222 -0.9357  1.0284  1.1489
 7443SOL     OW33790   1.159   0.968   5.364 -0.3232 -0.5942  0.5208
 7443SOL    HW133791   1.240   0.925   5.335 -1.3703 -1.0801 -1.6533
 7443SOL    HW233792   1.134   0.894   5.420  1.2069 -1.1202  0.5227
 7444SOL     OW33793   2.158   4.412  10.331  0.5326  0.0527 -0.1697
 7444SOL    HW133794   2.194   4.478  10.272 -0.0756  1.2570  0.7884
 7444SOL    HW233795   2.087   4.462  10.372  2.4803 -0.1757  3.5105
 7445SOL     OW33796   2.676   4.043  11.348  0.0806 -0.0607  0.5973
 7445SOL    HW133797   2.591   4.081  11.372  1.7602  2.6026  2.3179
 7445SOL    HW233798   2.669   3.957  11.389  0.2014  0.2212  1.2165
 7446SOL     OW33799   3.222   3.252   3.444  0.6135  0.2823 -0.3959
 7446SOL    HW133800   3.230   3.158   3.425 -1.5286  0.0107  0.0369
 7446SOL    HW233801   3.264   3.288   3.366 -1.2551  0.6193 -1.2463
 7447SOL     OW33802   1.925   0.629   3.436  0.2169 -0.0323  0.1942
 7447SOL    HW133803   1.878   0.705   3.402  2.0299  0.4297 -1.2530
 7447SOL    HW233804   1.962   0.680   3.509 -1.2081 -0.7007  1.3717
 7448SOL     OW33805   2.632   4.055   3.372  0.0003 -0.1605  0.4570
 7448SOL    HW133806   2.648   4.047   3.278  3.2350 -0.1248  1.0049
 7448SOL    HW233807   2.708   4.108   3.399 -1.0268  2.1523 -1.2274
 7449SOL     OW33808   2.490   2.931  14.758 -0.4036  0.3392  0.1975
 7449SOL    HW133809   2.416   2.957  14.814  1.5825 -0.5412  3.2360
 7449SOL    HW233810   2.553   2.905  14.825  1.4956 -0.9176 -2.0745
 7450SOL     OW33811   3.771   2.905   0.826  0.0325 -0.0212  0.3270
 7450SOL    HW133812   3.808   2.834   0.774 -1.4138  0.4034 -1.2500
 7450SOL    HW233813   3.719   2.957   0.765  2.0992  0.5756 -0.9318
 7451SOL     OW33814   0.807   2.476  10.538  0.3623 -0.1782 -0.0786
 7451SOL    HW133815   0.777   2.404  10.483 -2.4090  0.0330  1.1316
 7451SOL    HW233816   0.777   2.559  10.502 -0.5358 -1.0192 -1.2552
 7452SOL     OW33817   4.092   2.546   8.217 -0.2336 -0.2391  0.3890
 7452SOL    HW133818   4.169   2.589   8.255  1.9607 -1.4028 -2.7309
 7452SOL    HW233819   4.017   2.584   8.262 -0.4525 -0.6732  0.3875
 7453SOL     OW33820   1.157   4.608  12.174  0.4723 -0.1197 -0.2370
 7453SOL    HW133821   1.252   4.614  12.166  0.6536  1.0374  2.7688
 7453SOL    HW233822   1.151   4.594  12.268 -0.9235  1.1494 -0.1360
 7454SOL     OW33823   4.104   0.118   6.908  0.0654 -0.0683  0.5272
 7454SOL    HW133824   4.120   0.212   6.901  0.2051 -0.2203 -1.1686
 7454SOL    HW233825   4.169   0.087   6.845  1.1831  1.2293  1.0448
 7455SOL     OW33826   1.382   3.654   4.641 -0.0832  0.5840 -0.6343
 7455SOL    HW133827   1.289   3.675   4.634 -0.2508 -0.5509 -1.7968
 7455SOL    HW233828   1.393   3.574   4.589 -1.1880  0.4501 -0.6634
 7456SOL     OW33829   3.467   0.726  17.501 -0.2575  0.1678  0.3348
 7456SOL    HW133830   3.493   0.771  17.421 -1.6453 -0.1178 -0.2658
 7456SOL    HW233831   3.441   0.639  17.470  0.9731 -1.2005  3.0437
 7457SOL     OW33832   3.960   4.465   3.048  0.2496  0.1836 -0.2320
 7457SOL    HW133833   3.897   4.401   3.015 -0.8106  1.4662 -0.7047
 7457SOL    HW233834   4.031   4.447   2.986  0.2918  0.3345 -0.2294
 7458SOL     OW33835   0.737   3.645   7.341  0.4962 -0.1776 -0.8895
 7458SOL    HW133836   0.718   3.567   7.394 -1.4129  0.7297 -0.2488
 7458SOL    HW233837   0.752   3.711   7.409  2.0950 -0.5642 -0.8642
 7459SOL     OW33838   2.374   3.356   2.409  0.3205  0.5695  0.1527
 7459SOL    HW133839   2.452   3.304   2.393 -0.8650 -1.3424  0.5629
 7459SOL    HW233840   2.330   3.327   2.329  0.2287  2.5246 -0.5022
 7460SOL     OW33841   2.450   0.531   7.204  0.2047  1.0257  0.0011
 7460SOL    HW133842   2.407   0.464   7.257  0.6058 -0.5892 -1.7096
 7460SOL    HW233843   2.484   0.480   7.130  1.6362  0.9588  0.6972
 7461SOL     OW33844   0.711   1.722   3.815 -0.7214  0.5076  0.2602
 7461SOL    HW133845   0.732   1.693   3.726 -2.0865  0.4612 -0.0613
 7461SOL    HW233846   0.768   1.663   3.864 -1.6934 -0.4362  0.2502
 7462SOL     OW33847   3.556   3.329   4.191  0.0688  0.2487 -0.2896
 7462SOL    HW133848   3.461   3.322   4.200  0.3556 -3.2057 -0.0675
 7462SOL    HW233849   3.563   3.413   4.146 -0.5354  0.1153 -0.6414
 7463SOL     OW33850   4.500   0.011  16.736  0.2149 -0.1131  0.0271
 7463SOL    HW133851   4.408   0.007  16.709  0.1947 -1.8067  0.3667
 7463SOL    HW233852   4.548   0.042  16.658  1.6054 -1.3817  0.3909
 7464SOL     OW33853   3.341   2.425   0.213  0.0920  1.0052 -0.3412
 7464SOL    HW133854   3.381   2.372   0.144 -0.4847 -2.5830  2.1191
 7464SOL    HW233855   3.300   2.356   0.265  0.3965 -0.3793 -1.9413
 7465SOL     OW33856   1.153   3.023   9.643 -0.0723  0.3958  0.7481
 7465SOL    HW133857   1.127   3.112   9.666 -0.5581  0.1859  1.0050
 7465SOL    HW233858   1.154   3.028   9.547  1.1331  2.6721  0.8624
 7466SOL     OW33859   0.239   0.072   0.388  0.1632 -0.0161  0.3817
 7466SOL    HW133860   0.264   0.105   0.474 -1.5540 -2.3156  1.7805
 7466SOL    HW233861   0.283   4.711   0.390  0.2451 -0.0181 -1.4985
 7467SOL     OW33862   2.258   4.273  11.645 -0.5890 -0.1566  0.1232
 7467SOL    HW133863   2.276   4.195  11.698  1.0660  0.7126  0.8501
 7467SOL    HW233864   2.327   4.334  11.671 -1.9412  2.1991 -1.8066
 7468SOL     OW33865   2.864   1.516   4.893 -0.1116 -0.2696  0.3090
 7468SOL    HW133866   2.937   1.555   4.844 -0.4621  0.8919  0.7099
 7468SOL    HW233867   2.790   1.571   4.866  1.3529  1.7647  0.3832
 7469SOL     OW33868   3.044   2.249   3.405  0.5383  0.2061  0.1225
 7469SOL    HW133869   3.038   2.281   3.315  0.5714 -3.6212 -1.2214
 7469SOL    HW233870   2.954   2.217   3.409  0.3526  0.8966  1.5117
 7470SOL     OW33871   4.655   0.100   3.018 -0.5252  0.2522  0.1613
 7470SOL    HW133872   4.584   0.119   3.080  1.1144  1.9622  1.5152
 7470SOL    HW233873   4.704   0.183   3.016  0.7984 -0.5273  0.2366
 7471SOL     OW33874   1.827   0.643   3.050  0.4165 -0.1183 -0.2175
 7471SOL    HW133875   1.892   0.705   3.084  0.0999  0.3715 -0.4974
 7471SOL    HW233876   1.827   0.654   2.955 -2.2782 -4.3269 -0.6825
 7472SOL     OW33877   3.704   0.436   4.259 -0.0216 -0.0622  0.4984
 7472SOL    HW133878   3.756   0.366   4.218 -0.2223  0.7232 -1.0883
 7472SOL    HW233879   3.718   0.511   4.201 -1.8860 -0.9800 -1.1304
 7473SOL     OW33880   0.028   1.703  11.087 -0.4673 -0.1789  0.4048
 7473SOL    HW133881   0.036   1.660  11.172  0.2957 -2.0738 -0.6288
 7473SOL    HW233882   4.705   1.784  11.109 -1.1274 -0.9084  1.6532
 7474SOL     OW33883   2.749   1.882   4.121 -0.0660  0.1642 -0.1058
 7474SOL    HW133884   2.820   1.940   4.151 -0.4482  0.5043  0.1336
 7474SOL    HW233885   2.685   1.899   4.190 -1.1512  0.7404 -1.2462
 7475SOL     OW33886   1.983   2.771   3.599 -0.6725 -0.4102 -0.3327
 7475SOL    HW133887   1.943   2.846   3.557  2.0085  0.9217 -0.5014
 7475SOL    HW233888   1.992   2.800   3.690  0.0351  0.0782 -0.5567
 7476SOL     OW33889   1.546   3.904   8.880  0.2354 -0.2412 -0.0105
 7476SOL    HW133890   1.624   3.935   8.926 -1.4581  2.4268  1.1539
 7476SOL    HW233891   1.487   3.905   8.956 -0.1088  2.4022 -0.3148
 7477SOL     OW33892   3.771   1.585   3.798  0.0924  0.0227  0.2719
 7477SOL    HW133893   3.781   1.598   3.704  0.0336  0.5713  0.3446
 7477SOL    HW233894   3.754   1.491   3.811  0.2618  0.1675  1.5185
 7478SOL     OW33895   1.623   0.605   8.129  0.4036  0.4627  1.0831
 7478SOL    HW133896   1.620   0.649   8.044 -0.5892 -1.8662 -0.1097
 7478SOL    HW233897   1.711   0.569   8.115  0.4531  0.2408  1.9507
 7479SOL     OW33898   3.493   3.649   4.320  0.1675  0.3875  0.0041
 7479SOL    HW133899   3.554   3.710   4.278  0.6403 -1.8618 -2.5949
 7479SOL    HW233900   3.485   3.585   4.249  0.0505  0.3784  0.0255
 7480SOL     OW33901   0.725   4.074   2.849 -0.1622 -0.0599  0.5049
 7480SOL    HW133902   0.659   4.044   2.787  0.8296  0.1340 -0.6525
 7480SOL    HW233903   0.782   4.000   2.828  0.7129  0.4404  1.0942
 7481SOL     OW33904   0.406   3.188  14.579  0.6436 -0.2705  0.7687
 7481SOL    HW133905   0.441   3.231  14.501  2.4323 -1.4690  0.9119
 7481SOL    HW233906   0.335   3.249  14.599 -1.3271 -1.9286 -1.2790
 7482SOL     OW33907   3.266   4.068  10.295  0.3382  0.1076  0.0668
 7482SOL    HW133908   3.359   4.092  10.292  1.0978 -2.9883 -0.9172
 7482SOL    HW233909   3.239   4.107  10.212 -1.7630 -1.2663  0.1044
 7483SOL     OW33910   4.576   2.873   3.956 -0.1404 -0.1472 -0.4289
 7483SOL    HW133911   4.601   2.927   4.031  0.1577  1.4630 -1.6932
 7483SOL    HW233912   4.526   2.939   3.908 -0.2701  1.6378  2.1048
 7484SOL     OW33913   1.904   1.341   7.024  0.0196 -0.2070  0.2651
 7484SOL    HW133914   1.837   1.295   7.074  1.2833 -2.4257 -0.1041
 7484SOL    HW233915   1.971   1.273   7.024 -0.8817 -1.0935  2.6347
 7485SOL     OW33916   3.489   1.604   5.093 -0.2504 -0.0742 -0.1447
 7485SOL    HW133917   3.502   1.519   5.051 -1.5595 -1.0955  1.4893
 7485SOL    HW233918   3.396   1.604   5.115 -0.3775 -4.6800 -0.6850
 7486SOL     OW33919   2.613   0.398   7.588 -0.5979 -0.2752 -0.1073
 7486SOL    HW133920   2.615   0.316   7.637 -1.8896 -0.3795 -0.2440
 7486SOL    HW233921   2.602   0.473   7.646 -2.4191 -1.1451  0.6540
 7487SOL     OW33922   0.264   4.330  17.549 -0.1954  0.0092 -0.4357
 7487SOL    HW133923   0.260   4.239  17.576 -2.6185 -0.1356 -1.2822
 7487SOL    HW233924   0.183   4.376  17.571  0.1853  0.2964  0.3734
 7488SOL     OW33925   0.503   1.562  12.372 -0.5096 -0.2120  0.4030
 7488SOL    HW133926   0.409   1.570  12.359 -0.2273 -1.6082 -2.4618
 7488SOL    HW233927   0.533   1.526  12.288 -1.3626 -0.8084  0.3558
 7489SOL     OW33928   4.196   1.724   3.350 -0.1698  0.2591  0.1363
 7489SOL    HW133929   4.107   1.723   3.313 -0.5985 -3.7222  1.2635
 7489SOL    HW233930   4.174   1.734   3.442  1.4634  0.0786  0.5314
 7490SOL     OW33931   2.571   3.788   5.127  0.2936 -0.0294  0.4255
 7490SOL    HW133932   2.665   3.809   5.128 -0.1346  1.9552 -0.5621
 7490SOL    HW233933   2.555   3.755   5.215  1.0217  0.6121  0.8022
 7491SOL     OW33934   1.284   3.288   3.272  0.7518  0.3723 -0.0732
 7491SOL    HW133935   1.309   3.214   3.327 -1.1592  0.2723  0.6642
 7491SOL    HW233936   1.368   3.333   3.280  1.2693 -0.2279 -2.0353
 7492SOL     OW33937   2.340   2.025   4.311 -0.0072 -0.1834 -0.0443
 7492SOL    HW133938   2.350   1.945   4.259 -0.1253 -0.9943  1.1897
 7492SOL    HW233939   2.292   2.077   4.246  1.6735  0.8982 -0.4189
 7493SOL     OW33940   3.805   0.389  11.023  0.2199 -0.4112 -0.3078
 7493SOL    HW133941   3.885   0.358  11.066 -1.4628  0.3441  3.3099
 7493SOL    HW233942   3.814   0.483  11.039  0.4774 -0.6156  0.7517
 7494SOL     OW33943   3.613   3.896   1.854  0.5751 -0.1740 -0.3871
 7494SOL    HW133944   3.669   3.844   1.911  0.4132  0.3996  0.3003
 7494SOL    HW233945   3.683   3.907   1.791  1.4227  0.3083  0.6360
 7495SOL     OW33946   2.036   3.865   1.689  0.0169 -0.1199  0.6164
 7495SOL    HW133947   2.062   3.808   1.761 -2.1645 -1.6591  0.1999
 7495SOL    HW233948   2.121   3.900   1.663 -0.1649  0.4201  0.7674
 7496SOL     OW33949   2.408   2.335  11.017 -0.3002 -0.0178 -0.5594
 7496SOL    HW133950   2.459   2.331  11.098  0.8616  0.8300 -1.2481
 7496SOL    HW233951   2.431   2.424  10.989  2.9242 -0.3229  1.1471
 7497SOL     OW33952   3.533   1.829   2.094  0.1783 -0.2879  0.1084
 7497SOL    HW133953   3.508   1.872   2.176  3.0351 -0.7695  1.2408
 7497SOL    HW233954   3.536   1.913   2.048  2.2075  0.3559  1.4144
 7498SOL     OW33955   0.366   1.659   8.893  0.5526 -0.6353  0.5791
 7498SOL    HW133956   0.330   1.719   8.959  0.5150 -1.5103  1.3465
 7498SOL    HW233957   0.285   1.654   8.843  0.6733  2.4349  0.0292
 7499SOL     OW33958   4.522   0.814   7.658  0.1277 -0.5459  0.5093
 7499SOL    HW133959   4.450   0.877   7.660 -0.1568 -0.9121  1.8939
 7499SOL    HW233960   4.510   0.767   7.740  1.9264  0.5833  1.4085
 7500SOL     OW33961   3.588   2.823   9.800 -0.1528 -0.2290  0.0886
 7500SOL    HW133962   3.667   2.869   9.771  0.8660 -1.2656  1.1949
 7500SOL    HW233963   3.593   2.845   9.893 -0.3204  1.1310 -0.2247
 7501SOL     OW33964   3.432   2.177  13.232  0.3296 -0.1876 -0.2914
 7501SOL    HW133965   3.378   2.170  13.311  0.3798  0.8705 -0.1744
 7501SOL    HW233966   3.433   2.272  13.226 -0.3825 -0.2607 -1.4738
 7502SOL     OW33967   2.701   1.941   6.971  0.2091 -0.3827 -0.0597
 7502SOL    HW133968   2.779   1.902   7.010  0.3403 -0.6246 -0.5712
 7502SOL    HW233969   2.669   1.975   7.055  1.3440 -1.5468  0.8333
 7503SOL     OW33970   1.991   3.314   8.669  0.5721  0.0186  0.1495
 7503SOL    HW133971   2.061   3.281   8.726  0.1441 -0.2188  0.5370
 7503SOL    HW233972   2.011   3.408   8.673 -1.1286  0.3750  0.4322
 7504SOL     OW33973   0.391   1.648   7.281 -0.1874  0.2811  0.3052
 7504SOL    HW133974   0.381   1.721   7.342 -0.2889  0.7638 -0.2995
 7504SOL    HW233975   0.485   1.633   7.290 -0.7038 -1.5911  2.8724
 7505SOL     OW33976   0.056   0.222   2.513  0.0730  0.1806  0.4037
 7505SOL    HW133977   0.097   0.208   2.599 -1.6717  0.3190  1.2705
 7505SOL    HW233978   0.086   0.312   2.498  0.0538  0.1355  0.1027
 7506SOL     OW33979   2.192   0.042   8.768  0.1092  0.6169 -0.0771
 7506SOL    HW133980   2.142   4.688   8.790  1.1451  0.5711  2.1362
 7506SOL    HW233981   2.285   0.019   8.768  0.7331  3.1405  2.8113
 7507SOL     OW33982   4.089   1.037   8.520  0.5354 -0.4533 -0.7237
 7507SOL    HW133983   4.114   1.082   8.438  1.0310  0.1582 -0.2376
 7507SOL    HW233984   4.109   0.944   8.508  1.6556 -0.4199  0.8480
 7508SOL     OW33985   3.918   2.816   7.097  0.0861 -0.3285  0.5604
 7508SOL    HW133986   3.979   2.793   7.168  0.0911  0.4754  0.8243
 7508SOL    HW233987   3.974   2.853   7.029  0.5287 -2.8788 -0.4392
 7509SOL     OW33988   4.389   2.031   4.631  0.2217  0.8468 -0.0582
 7509SOL    HW133989   4.326   1.963   4.655 -0.8822  1.5725 -0.8511
 7509SOL    HW233990   4.461   2.023   4.693 -0.2049  0.3642  0.3822
 7510SOL     OW33991   4.522   3.938   8.175  0.5036  0.0474 -0.5521
 7510SOL    HW133992   4.575   3.969   8.248  1.5814  0.2281 -1.4146
 7510SOL    HW233993   4.542   3.999   8.105  3.3214 -1.7061 -1.2849
 7511SOL     OW33994   1.204   2.273   6.232 -0.3304 -0.2380 -0.2919
 7511SOL    HW133995   1.273   2.302   6.172 -2.0288  2.0641 -1.1085
 7511SOL    HW233996   1.192   2.350   6.287  2.5814 -0.0717  0.1071
 7512SOL     OW33997   1.216   3.475   4.041 -0.2196 -0.2618 -0.0412
 7512SOL    HW133998   1.247   3.390   4.009  1.3176  0.1734  0.3016
 7512SOL    HW233999   1.131   3.447   4.075  0.6112 -1.0177  1.4227
 7513SOL     OW34000   0.306   1.494   4.649 -0.3756  0.0795  0.3140
 7513SOL    HW134001   0.337   1.462   4.733  0.0074 -2.8684 -0.9412
 7513SOL    HW234002   0.384   1.531   4.609 -0.6774 -0.0039 -0.3679
 7514SOL     OW34003   4.430   0.686   0.859 -0.6494  1.0979 -0.4667
 7514SOL    HW134004   4.467   0.770   0.888  3.0599 -1.0283  0.8889
 7514SOL    HW234005   4.344   0.690   0.900  0.6995 -1.8970  2.6344
 7515SOL     OW34006   3.170   2.979   8.068 -0.1898 -0.0185 -0.2689
 7515SOL    HW134007   3.224   2.962   8.145 -2.1859  3.2444  1.8515
 7515SOL    HW234008   3.173   3.074   8.060  0.0674  0.1491  1.8446
 7516SOL     OW34009   0.965   2.694   4.140  0.5664 -0.5329  0.5177
 7516SOL    HW134010   0.952   2.601   4.118  2.1448 -0.1375 -2.0433
 7516SOL    HW234011   1.044   2.688   4.194  1.2630 -1.1088 -0.5717
 7517SOL     OW34012   2.847   1.145  10.007  0.5908 -0.6955  0.4218
 7517SOL    HW134013   2.929   1.159   9.961  1.1252  0.1802  1.6304
 7517SOL    HW234014   2.789   1.162   9.933  0.0536 -1.1909  0.7324
 7518SOL     OW34015   2.767   3.844  10.053  0.2229 -0.1190  0.2121
 7518SOL    HW134016   2.784   3.938  10.050  3.0488 -0.6286  0.4851
 7518SOL    HW234017   2.843   3.805  10.011  1.6765  2.3489  0.5992
 7519SOL     OW34018   1.467   4.160   9.994 -0.0296 -0.1330  0.3768
 7519SOL    HW134019   1.561   4.144   9.988  0.1259  1.1541 -0.4951
 7519SOL    HW234020   1.435   4.188   9.908 -0.9577  2.4089  1.5728
 7520SOL     OW34021   2.118   0.757   5.839 -0.9379 -0.2818  0.2802
 7520SOL    HW134022   2.063   0.679   5.831 -1.6488 -0.0101  2.6549
 7520SOL    HW234023   2.049   0.822   5.853 -1.4019 -0.3427 -1.7366
 7521SOL     OW34024   2.696   3.883   3.617 -0.2632  0.4130  0.0366
 7521SOL    HW134025   2.618   3.935   3.596  0.9225  0.8242 -3.4110
 7521SOL    HW234026   2.692   3.867   3.711  0.0466 -1.4940 -0.2862
 7522SOL     OW34027   2.046   0.387   3.694  0.3338 -0.2021 -0.1717
 7522SOL    HW134028   2.139   0.411   3.688 -0.2191  1.3539 -2.7644
 7522SOL    HW234029   2.015   0.364   3.607 -2.2439  0.0863  0.6739
 7523SOL     OW34030   0.282   0.122   7.923  0.0282  0.4454 -0.2772
 7523SOL    HW134031   0.338   0.163   7.858 -1.2113  0.4518 -1.3357
 7523SOL    HW234032   0.334   0.055   7.968  0.4472  0.6568 -0.4464
 7524SOL     OW34033   3.162   1.949   8.536 -0.5344 -0.4003  0.1887
 7524SOL    HW134034   3.169   1.982   8.626  0.6164 -0.0542 -0.0229
 7524SOL    HW234035   3.244   1.988   8.506 -0.6593  0.8500  1.4413
 7525SOL     OW34036   4.161   2.281  13.146  0.4131  0.2542  0.5006
 7525SOL    HW134037   4.204   2.361  13.175 -0.3508  0.7175  0.3371
 7525SOL    HW234038   4.164   2.219  13.219 -2.3912  0.3443  0.6673
 7526SOL     OW34039   1.353   2.388   6.672  0.6272 -0.6072  0.0838
 7526SOL    HW134040   1.326   2.467   6.625 -0.5711 -0.1137  1.6047
 7526SOL    HW234041   1.383   2.339   6.595  1.7069 -0.0483  0.1437
 7527SOL     OW34042   3.448   3.858   0.010  0.3971 -0.0683  0.0179
 7527SOL    HW134043   3.476   3.911   0.084 -0.5094  0.6040 -0.1145
 7527SOL    HW234044   3.426   3.930  17.647  0.9367 -0.2587 -0.4030
 7528SOL     OW34045   3.337   0.007  16.449 -0.4400 -0.0964 -0.1572
 7528SOL    HW134046   3.366   0.004  16.358  1.3145 -0.8138  0.4242
 7528SOL    HW234047   3.402   4.682  16.501 -0.6666 -0.0316  0.1867
 7529SOL     OW34048   1.438   4.141   8.081 -0.5292  0.3883  0.0922
 7529SOL    HW134049   1.464   4.209   8.144 -1.1671 -0.1312  0.9232
 7529SOL    HW234050   1.487   4.069   8.122  0.5535  0.4573 -1.0833
 7530SOL     OW34051   2.080   2.279  12.882  0.3254  0.1942 -0.3344
 7530SOL    HW134052   2.035   2.200  12.850 -0.5097  0.3564  0.4249
 7530SOL    HW234053   2.052   2.284  12.974 -0.6956 -0.9125 -0.5828
 7531SOL     OW34054   0.431   1.921  14.432 -0.1458 -0.4463  0.3954
 7531SOL    HW134055   0.343   1.890  14.455 -0.5042 -0.5599 -1.1536
 7531SOL    HW234056   0.420   2.006  14.475 -0.9615 -1.5835  2.4437
 7532SOL     OW34057   1.360   3.535  12.672 -0.2071 -0.3698 -0.4394
 7532SOL    HW134058   1.440   3.545  12.621 -1.3543 -1.2890 -2.4393
 7532SOL    HW234059   1.302   3.538  12.596  0.3767 -4.3669 -1.0478
 7533SOL     OW34060   4.611   0.077   8.229 -0.2232  0.0627 -0.4022
 7533SOL    HW134061   4.651   0.157   8.195  2.5314 -1.7838 -1.5894
 7533SOL    HW234062   4.679   0.012   8.211  2.0808  1.6559  2.6543
 7534SOL     OW34063   4.079   2.356   0.346  0.8929 -0.0117  0.5286
 7534SOL    HW134064   4.155   2.311   0.384 -0.2861 -2.3518  0.1497
 7534SOL    HW234065   4.036   2.281   0.306 -0.3198 -0.1113  2.0198
 7535SOL     OW34066   2.263   1.851   3.168 -0.5065 -0.1413 -0.0557
 7535SOL    HW134067   2.203   1.796   3.118 -0.8887  0.1093  0.1354
 7535SOL    HW234068   2.215   1.934   3.166 -0.7217 -0.2701 -0.2418
 7536SOL     OW34069   4.355   1.490   3.481  0.0995  0.8920 -0.3589
 7536SOL    HW134070   4.261   1.484   3.501 -0.2523 -1.5880 -2.8878
 7536SOL    HW234071   4.356   1.585   3.471 -2.0931  0.8800 -0.6998
 7537SOL     OW34072   2.188   2.039  17.640  0.0411 -0.1920 -0.1242
 7537SOL    HW134073   2.103   2.079  17.621  1.1345  1.5344 -1.3162
 7537SOL    HW234074   2.160   2.025   0.034 -0.1107  0.6485 -0.0467
 7538SOL     OW34075   3.735   2.648   7.926  0.1542 -0.5531  0.4019
 7538SOL    HW134076   3.804   2.613   7.984 -0.6175 -0.9781  1.0663
 7538SOL    HW234077   3.754   2.741   7.930 -0.1814 -0.4648 -0.0652
 7539SOL     OW34078   4.445   3.812   5.538  0.1859 -0.3019 -0.0425
 7539SOL    HW134079   4.538   3.830   5.521  0.0726 -0.1312 -0.4572
 7539SOL    HW234080   4.454   3.772   5.625 -0.0880  0.3309  0.2808
 7540SOL     OW34081   1.608   0.936   1.405  0.7156 -0.2311  0.3248
 7540SOL    HW134082   1.566   0.978   1.480 -0.5799 -0.1197 -0.4536
 7540SOL    HW234083   1.562   0.852   1.405 -0.4782  0.4311  3.0073
 7541SOL     OW34084   2.697   3.107   4.949 -0.2158 -0.1354 -0.0394
 7541SOL    HW134085   2.645   3.187   4.946  1.3869  0.9984  2.3472
 7541SOL    HW234086   2.744   3.106   4.865  0.9363  0.4160  0.5898
 7542SOL     OW34087   4.688   3.249   1.336 -0.2764 -0.4946 -0.0656
 7542SOL    HW134088   4.665   3.193   1.411  0.6426 -1.3510 -0.4290
 7542SOL    HW234089   4.604   3.263   1.292 -0.3215 -0.2260  0.1073
 7543SOL     OW34090   2.008   3.593   8.733 -0.3051  0.0645  0.1046
 7543SOL    HW134091   1.932   3.572   8.788 -0.8075  1.1649 -0.1544
 7543SOL    HW234092   2.024   3.682   8.765  0.7006 -0.3881  0.8726
 7544SOL     OW34093   2.350   1.693   5.546  0.0373  0.1587  0.4446
 7544SOL    HW134094   2.308   1.764   5.593 -2.2925 -1.3627  0.6759
 7544SOL    HW234095   2.353   1.729   5.457 -0.3185 -1.2890 -0.1551
 7545SOL     OW34096   3.453   2.862   7.960 -0.3751  0.7917  0.1719
 7545SOL    HW134097   3.418   2.933   8.014 -0.6092  0.5208  0.3769
 7545SOL    HW234098   3.396   2.791   7.990  1.1858 -0.4424  0.2151
 7546SOL     OW34099   0.441   3.276  17.355 -0.5165  0.1837 -0.6862
 7546SOL    HW134100   0.435   3.352  17.296 -0.8643 -0.6540 -1.7225
 7546SOL    HW234101   0.396   3.203  17.312  0.6858  0.0973 -1.8000
 7547SOL     OW34102   1.289   0.130   3.219 -0.6918  0.1540  0.2488
 7547SOL    HW134103   1.207   0.170   3.191  0.3209  1.9394 -0.1937
 7547SOL    HW234104   1.264   0.080   3.297  1.6932 -1.8466 -0.2458
 7548SOL     OW34105   3.519   1.137  10.134 -0.3662 -0.2333 -0.4809
 7548SOL    HW134106   3.592   1.197  10.115 -2.1875  2.1113 -0.0896
 7548SOL    HW234107   3.557   1.050  10.123 -0.6288 -0.6711  2.2298
 7549SOL     OW34108   3.075   3.092  12.577 -0.5220 -0.3328  0.1545
 7549SOL    HW134109   3.020   3.108  12.654  0.3330 -1.5948  1.0289
 7549SOL    HW234110   3.150   3.059  12.626 -0.0950  1.0211  0.4262
 7550SOL     OW34111   0.448   0.239  12.583  0.2049  0.2799 -0.1662
 7550SOL    HW134112   0.500   0.222  12.661 -0.6900 -1.3182  0.0882
 7550SOL    HW234113   0.407   0.322  12.605 -1.4777 -1.4968  3.4191
 7551SOL     OW34114   0.390   4.362  13.873 -0.0312 -0.0378 -0.2901
 7551SOL    HW134115   0.329   4.405  13.933 -1.1437 -1.0082 -0.7285
 7551SOL    HW234116   0.458   4.429  13.870  0.6361 -0.6338  1.6328
 7552SOL     OW34117   0.812   1.948   8.179  0.2137  0.4211 -0.4131
 7552SOL    HW134118   0.890   1.937   8.232 -1.9017 -0.5706  2.4720
 7552SOL    HW234119   0.801   1.854   8.168 -1.1778  0.7724 -2.1523
 7553SOL     OW34120   0.683   3.611   2.004  0.4543 -0.5972 -0.1671
 7553SOL    HW134121   0.646   3.571   2.083  1.3101  0.9784  1.0181
 7553SOL    HW234122   0.778   3.607   2.018  0.3258 -0.3695  0.7824
 7554SOL     OW34123   0.579   4.146   0.033 -0.1495  0.0977 -0.4214
 7554SOL    HW134124   0.663   4.105   0.013  0.0788 -0.7581  2.2452
 7554SOL    HW234125   0.527   4.133  17.650 -0.4989  1.2621 -0.3756
 7555SOL     OW34126   4.668   2.088   2.125  0.8099  0.1364 -0.6645
 7555SOL    HW134127   0.035   2.064   2.140 -0.3174 -2.4411  1.8610
 7555SOL    HW234128   4.623   2.015   2.082 -0.5466  1.7816 -2.0439
 7556SOL     OW34129   3.830   0.283   8.930 -0.3357 -0.3533 -0.1360
 7556SOL    HW134130   3.801   0.241   8.849  1.0606 -0.6973 -0.4597
 7556SOL    HW234131   3.790   0.228   8.998  0.7989 -2.4785 -1.2071
 7557SOL     OW34132   0.936   0.838   5.624 -0.0393 -0.5637  0.4826
 7557SOL    HW134133   0.932   0.769   5.691  0.1560 -1.3741 -0.3336
 7557SOL    HW234134   1.026   0.829   5.592  0.0305  2.3286 -0.0836
 7558SOL     OW34135   4.142   2.485   7.192 -0.3459  0.6239 -0.1258
 7558SOL    HW134136   4.229   2.460   7.160  0.1327  1.3107  0.6276
 7558SOL    HW234137   4.135   2.418   7.260  0.1487  0.7878  0.0847
 7559SOL     OW34138   2.541   3.894  17.616  0.2595  0.6181  0.0946
 7559SOL    HW134139   2.574   3.811  17.650 -0.3573 -0.1818 -1.2795
 7559SOL    HW234140   2.476   3.898  17.686  0.5114 -0.4036  0.3961
 7560SOL     OW34141   2.314   3.807   9.693 -0.4011  0.4122 -0.0935
 7560SOL    HW134142   2.309   3.771   9.605 -1.1248 -1.3528  0.6701
 7560SOL    HW234143   2.348   3.730   9.738 -0.6245  2.3659  3.4673
 7561SOL     OW34144   2.136   0.848   9.667 -0.4915 -0.5138  0.1502
 7561SOL    HW134145   2.083   0.881   9.594 -2.8112 -2.6369  0.8901
 7561SOL    HW234146   2.183   0.785   9.614  1.3862  0.8417  0.1971
 7562SOL     OW34147   2.854   4.468   4.010 -0.1463  0.0735 -0.2933
 7562SOL    HW134148   2.820   4.553   3.982 -0.6504 -1.3375 -3.9072
 7562SOL    HW234149   2.885   4.430   3.929 -2.1717 -1.4208 -0.3618
 7563SOL     OW34150   2.405   2.877   0.762 -0.5658 -0.1813 -0.2195
 7563SOL    HW134151   2.384   2.956   0.811  2.3966 -0.7617  1.9917
 7563SOL    HW234152   2.480   2.910   0.713  0.7583  0.9473  2.5474
 7564SOL     OW34153   2.567   4.704   4.729  0.1005  0.3054 -0.0407
 7564SOL    HW134154   2.532   4.669   4.812  0.9615  3.2342  1.5372
 7564SOL    HW234155   2.505   4.671   4.664  0.0098  1.1665 -0.3867
 7565SOL     OW34156   3.937   2.819   8.696 -0.2042  0.4806 -0.1050
 7565SOL    HW134157   3.887   2.743   8.726  1.3868 -1.4461 -2.3387
 7565SOL    HW234158   3.996   2.778   8.632 -0.0925  0.7865 -0.2001
 7566SOL     OW34159   4.168   2.171   0.696 -0.1199 -0.0971 -0.0374
 7566SOL    HW134160   4.082   2.138   0.723  0.4966 -0.5747  1.3362
 7566SOL    HW234161   4.153   2.263   0.720  0.2802 -0.0808  0.1561
 7567SOL     OW34162   2.700   2.505  11.113 -0.2421 -0.0417 -0.8843
 7567SOL    HW134163   2.723   2.430  11.058  2.7317  1.6207 -1.9235
 7567SOL    HW234164   2.747   2.572  11.063  1.7544 -1.3720 -0.8016
 7568SOL     OW34165   2.055   4.259   1.646  0.1612 -0.4206 -0.3631
 7568SOL    HW134166   2.044   4.194   1.716 -0.6563 -0.7881 -0.8361
 7568SOL    HW234167   2.148   4.282   1.646 -0.3486  1.5748 -1.0630
 7569SOL     OW34168   2.203   4.651   3.097 -0.7616 -0.5950 -0.4262
 7569SOL    HW134169   2.296   4.671   3.084 -1.1536  1.6325  0.1178
 7569SOL    HW234170   2.215   4.614   3.184  2.6872  1.0651 -0.2017
 7570SOL     OW34171   4.033   0.442   4.170 -0.2269  0.3361  0.4231
 7570SOL    HW134172   4.097   0.507   4.142 -2.0664  1.5427 -0.9971
 7570SOL    HW234173   4.055   0.420   4.261  0.1930 -1.7824 -0.2125
 7571SOL     OW34174   2.660   4.498   7.027 -0.3792  0.5182  0.0423
 7571SOL    HW134175   2.755   4.507   7.023 -0.6209  1.9977 -3.0778
 7571SOL    HW234176   2.643   4.545   7.108  0.9934  1.5600 -0.2704
 7572SOL     OW34177   2.815   3.093  17.590 -0.0516 -0.1079 -0.2015
 7572SOL    HW134178   2.817   3.024  17.524  0.5174 -1.3866  1.1670
 7572SOL    HW234179   2.865   3.048  17.658  0.0204  0.5220  0.1593
 7573SOL     OW34180   0.639   2.043   8.374 -0.3218 -0.1760 -0.5698
 7573SOL    HW134181   0.659   1.965   8.426 -1.5852  0.7433  1.2795
 7573SOL    HW234182   0.698   2.039   8.299 -0.4762  0.2104 -0.7106
 7574SOL     OW34183   1.028   0.516   8.757 -0.0913 -0.3317  0.7686
 7574SOL    HW134184   0.986   0.523   8.842 -1.6504 -0.3275 -0.0015
 7574SOL    HW234185   1.106   0.568   8.779 -1.0262  1.7573 -0.7568
 7575SOL     OW34186   3.172   0.636   9.107 -0.7514  0.0406 -0.7813
 7575SOL    HW134187   3.086   0.607   9.076 -1.5610  2.2427 -0.5635
 7575SOL    HW234188   3.185   0.584   9.187  1.7620  2.5332  0.4150
 7576SOL     OW34189   1.011   3.457  10.488  0.3402  0.3964  0.1404
 7576SOL    HW134190   0.992   3.549  10.472  0.0613  0.5595  1.4247
 7576SOL    HW234191   0.956   3.436  10.563  1.8400  0.0952  1.1575
 7577SOL     OW34192   1.465   4.353  10.448 -0.1356  0.0132 -1.2381
 7577SOL    HW134193   1.514   4.271  10.458 -0.7495 -0.1669  0.2886
 7577SOL    HW234194   1.537   4.416  10.446 -1.6888  1.8951  2.3370
 7578SOL     OW34195   1.965   2.039   5.338  0.1347  0.3199  0.3117
 7578SOL    HW134196   2.035   2.100   5.313  0.0054 -0.5128 -2.0388
 7578SOL    HW234197   2.008   1.980   5.399  0.8270 -2.9364 -3.3367
 7579SOL     OW34198   3.747   0.160   5.101 -0.4498  0.0314 -0.0174
 7579SOL    HW134199   3.687   0.231   5.075  0.3537  1.2660  1.4707
 7579SOL    HW234200   3.706   0.142   5.186  0.1597 -3.6701 -0.5406
 7580SOL     OW34201   3.688   1.297   9.585  0.3473  0.9414  0.2708
 7580SOL    HW134202   3.715   1.241   9.658  1.7634  1.3818  0.0683
 7580SOL    HW234203   3.600   1.262   9.571  1.1592 -0.1947 -2.1192
 7581SOL     OW34204   0.773   3.014   2.247 -0.2470 -0.2725 -0.0713
 7581SOL    HW134205   0.806   2.964   2.321  0.4667 -0.8345 -0.7771
 7581SOL    HW234206   0.683   3.020   2.280  0.2371  0.5761  1.1142
 7582SOL     OW34207   2.955   3.054   5.929  0.3590 -0.0527 -0.7039
 7582SOL    HW134208   2.892   3.104   5.981  0.5848 -0.6557  0.1427
 7582SOL    HW234209   2.999   3.010   6.001 -0.5748 -0.2879 -0.2766
 7583SOL     OW34210   2.197   1.006   3.517 -0.5656  0.0580  0.4188
 7583SOL    HW134211   2.150   1.077   3.560  1.4929  1.7650 -0.1208
 7583SOL    HW234212   2.267   1.000   3.582  0.1368  1.3454 -0.2271
 7584SOL     OW34213   4.552   3.925  10.222 -0.0145 -0.3947 -0.3384
 7584SOL    HW134214   4.625   3.863  10.219 -0.4425 -0.8304 -1.7425
 7584SOL    HW234215   4.474   3.874  10.199  0.0012 -0.0616 -1.1344
 7585SOL     OW34216   2.633   3.754  15.291  0.0154  0.2268 -0.6501
 7585SOL    HW134217   2.547   3.746  15.333 -0.2731 -1.9793 -1.6385
 7585SOL    HW234218   2.692   3.760  15.366 -1.2960 -0.2693  0.4330
 7586SOL     OW34219   3.681   1.675   6.527 -0.1764 -0.2466 -0.3513
 7586SOL    HW134220   3.628   1.625   6.465 -1.0348  0.9548 -0.5940
 7586SOL    HW234221   3.696   1.600   6.585  0.7813 -0.2806 -0.6419
 7587SOL     OW34222   2.207   3.773   1.163  1.1816  0.3002  0.1854
 7587SOL    HW134223   2.128   3.734   1.126  0.7887  1.4151 -0.1415
 7587SOL    HW234224   2.271   3.710   1.130 -0.8445 -0.5815 -2.1310
 7588SOL     OW34225   2.900   1.509   5.818  0.5465 -0.3741 -0.0475
 7588SOL    HW134226   2.835   1.467   5.760 -1.9677  0.4902  2.1423
 7588SOL    HW234227   2.967   1.535   5.754  0.7892 -0.4534  0.1788
 7589SOL     OW34228   0.428   0.984   9.126 -0.4487  0.2055  0.0820
 7589SOL    HW134229   0.502   0.985   9.065  0.2291 -1.4789  0.9047
 7589SOL    HW234230   0.356   0.988   9.062  1.2556  2.7684 -1.7102
 7590SOL     OW34231   1.714   3.978  10.090  0.2405  0.1336  0.1697
 7590SOL    HW134232   1.704   4.070  10.116  1.7424 -0.2700  2.2690
 7590SOL    HW234233   1.700   3.981   9.996  1.4954 -0.2491 -0.0318
 7591SOL     OW34234   3.712   2.273  14.324 -0.0212  0.3160 -0.5176
 7591SOL    HW134235   3.654   2.215  14.276  0.3884  0.3909 -1.0972
 7591SOL    HW234236   3.783   2.289  14.262  0.3323  1.3760  0.1619
 7592SOL     OW34237   3.865   0.355   3.190 -0.4566  0.0929 -0.1865
 7592SOL    HW134238   3.814   0.289   3.236  0.9232 -0.2992  0.7791
 7592SOL    HW234239   3.942   0.304   3.165 -2.3225 -2.1952 -1.1456
 7593SOL     OW34240   0.091   2.886  16.704  0.2607  0.2092 -0.4830
 7593SOL    HW134241   4.721   2.897  16.689 -0.2866 -1.2461  1.8169
 7593SOL    HW234242   0.095   2.925  16.792 -0.9138 -0.2444 -0.2311
 7594SOL     OW34243   2.746   4.362  16.518 -0.2708  0.1926  0.1707
 7594SOL    HW134244   2.698   4.286  16.485  1.0311 -1.0667  1.1912
 7594SOL    HW234245   2.744   4.421  16.442 -3.0439  1.8459  1.5092
 7595SOL     OW34246   0.012   2.861   2.364 -0.0754  0.2188 -0.6130
 7595SOL    HW134247   4.707   2.872   2.454  1.0271  1.0311 -0.3602
 7595SOL    HW234248   4.679   2.787   2.344 -0.0242  0.0468 -0.1211
 7596SOL     OW34249   2.228   1.515   8.463 -0.0915 -0.0007  0.5910
 7596SOL    HW134250   2.164   1.581   8.490  0.1091  0.9164 -1.2514
 7596SOL    HW234251   2.295   1.562   8.414 -1.0045  1.2789  0.5819
 7597SOL     OW34252   2.011   0.520   8.640  0.0297  0.0702  0.0456
 7597SOL    HW134253   2.013   0.426   8.658  2.1873 -0.2017 -1.6787
 7597SOL    HW234254   1.917   0.539   8.637 -0.1924 -0.9009  0.8596
 7598SOL     OW34255   3.993   2.389   7.621 -0.4966 -0.2204 -0.4341
 7598SOL    HW134256   3.947   2.340   7.688  1.7860  0.3500  1.5418
 7598SOL    HW234257   4.067   2.415   7.675 -0.0840  0.3932 -1.2869
 7599SOL     OW34258   2.738   1.471   6.601  0.7307 -0.4540 -0.5299
 7599SOL    HW134259   2.742   1.564   6.623  0.5138 -0.7581  0.7483
 7599SOL    HW234260   2.822   1.444   6.638  0.4534 -0.8862 -0.2154
 7600SOL     OW34261   0.710   3.127  14.051 -0.1029 -0.0730 -0.1036
 7600SOL    HW134262   0.615   3.128  14.064  0.1035  1.2362  1.3391
 7600SOL    HW234263   0.724   3.214  14.013  0.2759  0.0574  0.3444
 7601SOL     OW34264   4.140   2.659   8.562  0.2424 -0.0456 -0.9770
 7601SOL    HW134265   4.210   2.658   8.497  0.8011 -3.2693 -0.3469
 7601SOL    HW234266   4.182   2.590   8.613 -1.2240 -0.4066 -0.2645
 7602SOL     OW34267   3.638   1.671   5.335 -0.7931  0.1990 -0.4867
 7602SOL    HW134268   3.629   1.659   5.240 -1.5446 -2.0352 -0.1325
 7602SOL    HW234269   3.697   1.599   5.357  1.3386  0.9682 -3.7285
 7603SOL     OW34270   3.817   4.247   2.920 -0.1526 -0.0071  0.6056
 7603SOL    HW134271   3.731   4.223   2.886  0.1907 -3.1094  1.9804
 7603SOL    HW234272   3.839   4.297   2.841 -1.0395 -1.3913 -0.4987
 7604SOL     OW34273   2.299   3.050  12.068 -0.0936  0.0184 -0.0828
 7604SOL    HW134274   2.364   3.083  12.130  0.3678 -0.1295 -0.4837
 7604SOL    HW234275   2.353   3.025  11.993  0.9497 -1.3900  1.1296
 7605SOL     OW34276   1.802   3.186   9.292  0.2698 -0.3467 -0.3430
 7605SOL    HW134277   1.712   3.155   9.307  0.9476 -2.0750  0.0599
 7605SOL    HW234278   1.818   3.236   9.371  1.4736 -2.7621  0.9391
 7606SOL     OW34279   2.772   0.577  16.122 -0.6054 -0.0224  0.6939
 7606SOL    HW134280   2.721   0.618  16.191 -1.6299 -0.0953 -0.0146
 7606SOL    HW234281   2.863   0.598  16.139 -0.7327 -0.3211  1.7285
 7607SOL     OW34282   0.784   0.743   7.334  0.6936  0.3498  0.3065
 7607SOL    HW134283   0.753   0.782   7.252 -0.1837 -2.1195 -0.5204
 7607SOL    HW234284   0.817   0.820   7.382  1.2261  0.8246 -0.8130
 7608SOL     OW34285   2.315   1.630   6.159  0.9802 -0.2066 -0.6680
 7608SOL    HW134286   2.227   1.660   6.183  1.7209 -0.6911  2.6797
 7608SOL    HW234287   2.327   1.681   6.079 -0.5380 -0.6808 -1.1978
 7609SOL     OW34288   2.548   2.353   3.747 -0.0384 -0.2409  0.0234
 7609SOL    HW134289   2.570   2.361   3.654 -0.5409  0.1900 -0.0595
 7609SOL    HW234290   2.635   2.374   3.780 -0.9610  0.6246  1.8959
 7610SOL     OW34291   0.870   0.827   8.784 -0.3015 -0.2687  0.0597
 7610SOL    HW134292   0.885   0.777   8.864 -1.2417 -0.2806  0.2170
 7610SOL    HW234293   0.935   0.897   8.796  0.5464 -0.2741 -4.1970
 7611SOL     OW34294   0.997   1.279   6.658 -0.3411  0.3416  0.3278
 7611SOL    HW134295   0.937   1.205   6.645  1.0697 -0.7280 -0.1418
 7611SOL    HW234296   0.948   1.347   6.612 -0.5526  0.1492  0.2698
 7612SOL     OW34297   2.710   2.554   5.327  0.4318  0.1469  0.0097
 7612SOL    HW134298   2.754   2.472   5.347  0.1908  0.0001 -0.0598
 7612SOL    HW234299   2.712   2.595   5.414 -2.6807 -0.1406  0.2311
 7613SOL     OW34300   2.414   2.964   5.640 -0.1611 -0.5149  0.4182
 7613SOL    HW134301   2.487   3.025   5.627 -1.5324  1.4218  1.9231
 7613SOL    HW234302   2.370   2.949   5.557  0.8670 -0.3936 -0.1478
 7614SOL     OW34303   1.951   4.401   1.443 -0.1032 -0.2779 -0.5293
 7614SOL    HW134304   1.971   4.370   1.531 -2.3320 -0.5810 -0.1418
 7614SOL    HW234305   1.928   4.323   1.393 -1.0671 -0.1809 -0.2322
 7615SOL     OW34306   3.732   2.208   3.088 -0.3757  0.1776 -0.3938
 7615SOL    HW134307   3.699   2.146   3.153  0.7764  0.1485  0.1618
 7615SOL    HW234308   3.725   2.287   3.143 -1.0372  0.0251 -0.2491
 7616SOL     OW34309   4.220   1.181   9.787  1.0253  0.0081 -0.4335
 7616SOL    HW134310   4.143   1.126   9.773  0.8742 -0.3185  1.6783
 7616SOL    HW234311   4.248   1.160   9.876  0.6229 -1.7185 -0.7034
 7617SOL     OW34312   0.782   2.017   3.939  0.4346 -0.0761 -0.6049
 7617SOL    HW134313   0.713   2.078   3.912  0.0686 -0.2581 -0.0807
 7617SOL    HW234314   0.744   1.939   3.898 -0.4173 -0.6606  1.2818
 7618SOL     OW34315   0.939   4.157   8.844 -0.4816 -0.1608 -0.3335
 7618SOL    HW134316   1.003   4.097   8.807 -0.3804  0.1121 -0.5953
 7618SOL    HW234317   0.958   4.235   8.792 -0.8883 -0.0095 -0.2550
 7619SOL     OW34318   2.785   2.525  13.656 -0.1852 -0.7014 -0.6393
 7619SOL    HW134319   2.772   2.437  13.691 -0.1770 -0.7306 -0.7094
 7619SOL    HW234320   2.708   2.576  13.683 -0.0241  0.6939 -2.7935
 7620SOL     OW34321   0.411   4.243   8.918  0.4666  0.5884  0.1846
 7620SOL    HW134322   0.468   4.246   8.994 -0.2894 -1.3142  0.8289
 7620SOL    HW234323   0.326   4.279   8.945  0.0821  0.7306 -1.1754
 7621SOL     OW34324   0.768   0.876   0.070 -0.3843  0.4720 -0.3512
 7621SOL    HW134325   0.838   0.931   0.105 -0.4112 -0.5548  1.2859
 7621SOL    HW234326   0.783   0.799   0.124  0.8085  0.2310 -1.0068
 7622SOL     OW34327   1.527   3.602   7.586  0.0523  0.0885  0.1953
 7622SOL    HW134328   1.609   3.599   7.537 -0.3663 -0.0195 -0.5013
 7622SOL    HW234329   1.521   3.697   7.588  2.8696  0.1921  2.7703
 7623SOL     OW34330   4.607   3.178   7.299 -0.5009 -0.6598  0.4755
 7623SOL    HW134331   4.597   3.174   7.394  0.7672  0.9495  0.6644
 7623SOL    HW234332   4.686   3.124   7.289  1.1404  1.6314  1.0732
 7624SOL     OW34333   3.622   4.033   8.668 -0.0059  0.1639 -0.1831
 7624SOL    HW134334   3.583   3.949   8.643  0.0130  0.1877 -0.2906
 7624SOL    HW234335   3.683   3.996   8.733 -1.6286  0.7260  1.6618
 7625SOL     OW34336   4.567   3.460   5.916 -0.0181  0.3534 -0.0107
 7625SOL    HW134337   4.615   3.473   5.998 -1.8954  0.9613  1.0038
 7625SOL    HW234338   4.505   3.391   5.938  0.9562 -0.4109  0.3107
 7626SOL     OW34339   2.609   3.010   3.371 -0.1891 -0.7024 -0.0668
 7626SOL    HW134340   2.674   3.008   3.300  1.0878  1.4536  1.0222
 7626SOL    HW234341   2.566   2.925   3.360  0.6338 -0.8481 -2.2355
 7627SOL     OW34342   0.495   0.711  15.736  0.5697 -0.0902 -0.3953
 7627SOL    HW134343   0.564   0.683  15.675 -1.2467 -0.1801 -2.3789
 7627SOL    HW234344   0.430   0.733  15.670 -0.4875 -0.1749  0.6354
 7628SOL     OW34345   3.076   2.928   9.943 -0.1290 -0.0835  0.4171
 7628SOL    HW134346   3.033   2.956   9.862  0.8377  0.8840  0.2386
 7628SOL    HW234347   3.166   2.909   9.916 -1.5093 -1.3416 -3.3183
 7629SOL     OW34348   4.629   1.034   3.536  0.1823  0.4952  0.1516
 7629SOL    HW134349   4.673   1.115   3.512  1.6810 -0.8956 -1.8066
 7629SOL    HW234350   4.612   1.059   3.627 -0.0851 -2.2662  0.8830
 7630SOL     OW34351   0.014   4.176  10.878  0.0964 -0.1040  0.1032
 7630SOL    HW134352   0.057   4.126  10.809  0.7924  0.3810  0.1918
 7630SOL    HW234353   4.698   4.244  10.824 -0.4075  0.5740  1.3162
 7631SOL     OW34354   4.020   0.637   3.511 -0.3331 -0.3508 -0.7500
 7631SOL    HW134355   3.994   0.641   3.419  0.8875  0.0891 -1.0824
 7631SOL    HW234356   3.951   0.693   3.547 -0.5139 -0.4830 -0.8921
 7632SOL     OW34357   3.502   1.926  16.910  0.0702  0.1360 -0.6801
 7632SOL    HW134358   3.567   1.989  16.880 -0.1339  1.8516  2.5545
 7632SOL    HW234359   3.514   1.836  16.878 -1.3901  0.1316 -1.2268
 7633SOL     OW34360   0.787   3.699  16.145  0.3947  0.6132  0.0500
 7633SOL    HW134361   0.858   3.643  16.178  0.3074  0.1266 -0.6001
 7633SOL    HW234362   0.785   3.763  16.217 -0.4563  1.0726 -0.3800
 7634SOL     OW34363   0.845   4.214   7.627  0.6912  0.5787  0.4848
 7634SOL    HW134364   0.925   4.205   7.575 -0.7455  0.4550 -1.6910
 7634SOL    HW234365   0.795   4.136   7.603 -1.3603  2.5464 -1.7217
 7635SOL     OW34366   0.993   1.284   9.221 -0.0135  1.0554  0.2914
 7635SOL    HW134367   0.923   1.350   9.212 -2.0206 -0.8200  2.1566
 7635SOL    HW234368   0.993   1.288   9.317  2.8201  0.1466  0.3204
 7636SOL     OW34369   1.816   3.221   4.492  0.2431 -0.3081  0.0878
 7636SOL    HW134370   1.763   3.161   4.438  1.8770 -2.3913  0.7982
 7636SOL    HW234371   1.824   3.290   4.426 -0.3998 -1.7692 -1.5356
 7637SOL     OW34372   4.050   3.497  13.419  0.2206 -0.0536 -0.6150
 7637SOL    HW134373   4.124   3.438  13.433 -2.6002 -2.4837  3.9348
 7637SOL    HW234374   4.082   3.576  13.463 -0.1831 -0.6759  0.7991
 7638SOL     OW34375   4.444   3.131   9.992  0.1228  0.3478 -0.2554
 7638SOL    HW134376   4.407   3.163   9.909 -0.1412  1.0191  0.1217
 7638SOL    HW234377   4.416   3.195  10.057  1.1197  0.4122  0.1056
 7639SOL     OW34378   2.568   1.195   3.480 -0.3891 -0.1893 -0.0892
 7639SOL    HW134379   2.523   1.206   3.396  0.6534 -1.2356 -0.8012
 7639SOL    HW234380   2.589   1.286   3.498  2.0890 -0.8407  0.2670
 7640SOL     OW34381   4.157   0.987   7.671 -0.7524  0.6688 -0.0440
 7640SOL    HW134382   4.225   1.006   7.607  1.0984 -0.1209  1.6998
 7640SOL    HW234383   4.175   1.056   7.734 -1.7140 -1.0596  2.1359
 7641SOL     OW34384   2.961   2.443   5.053  0.8925 -0.4425 -0.0721
 7641SOL    HW134385   3.019   2.400   4.991  0.2822 -2.7673  0.9862
 7641SOL    HW234386   3.003   2.529   5.057  1.3153 -0.5694 -1.5563
 7642SOL     OW34387   0.853   2.007   2.662  0.2980 -0.0377  0.3111
 7642SOL    HW134388   0.921   1.949   2.630 -0.6609 -1.8676  1.5694
 7642SOL    HW234389   0.799   1.952   2.719 -1.6844  0.3074 -1.2280
 7643SOL     OW34390   2.880   0.485  12.762 -0.0384 -0.0153 -0.1312
 7643SOL    HW134391   2.787   0.461  12.766 -0.5466  2.2368  1.3831
 7643SOL    HW234392   2.858   0.568  12.720 -1.4813 -1.2560 -1.8491
 7644SOL     OW34393   3.964   4.202   1.814 -0.0806 -0.2787 -0.3531
 7644SOL    HW134394   4.059   4.193   1.806 -0.1589 -0.9884 -0.4437
 7644SOL    HW234395   3.960   4.170   1.904  2.6180  0.6241  0.0945
 7645SOL     OW34396   0.177   3.372  14.590  0.7044  0.0004  0.3990
 7645SOL    HW134397   0.207   3.445  14.536  0.8696  0.2009  0.7676
 7645SOL    HW234398   0.133   3.316  14.525  1.1701  0.7940 -0.6061
 7646SOL     OW34399   0.326   0.368   3.916 -0.1365  0.2805 -0.1223
 7646SOL    HW134400   0.392   0.300   3.920  1.3266  1.6638 -0.6897
 7646SOL    HW234401   0.257   0.344   3.854 -0.5236  1.5825 -0.2106
 7647SOL     OW34402   3.889   3.674   6.048 -0.3659 -0.0001  0.2822
 7647SOL    HW134403   3.930   3.587   6.044 -1.1116 -0.2122 -2.4347
 7647SOL    HW234404   3.853   3.680   5.960 -2.2153  1.0129  1.0891
 7648SOL     OW34405   1.177   2.256   4.941 -0.1585 -0.0963  0.1748
 7648SOL    HW134406   1.247   2.283   5.000  0.6151 -0.4688 -0.5731
 7648SOL    HW234407   1.207   2.277   4.853  2.2450 -0.7476  0.8211
 7649SOL     OW34408   1.813   0.321   5.172  0.7033 -0.1698  0.3184
 7649SOL    HW134409   1.894   0.365   5.197  1.1394  0.4695 -2.1961
 7649SOL    HW234410   1.837   0.317   5.079  0.3533  0.3932  0.2066
 7650SOL     OW34411   0.193   2.965   7.704  1.3830 -0.0563 -0.1462
 7650SOL    HW134412   0.194   2.968   7.608 -0.9270 -1.1451 -0.2077
 7650SOL    HW234413   0.283   2.987   7.729  1.0478  2.3317 -1.0316
 7651SOL     OW34414   3.044   0.943   8.418  0.3198  0.5773 -0.6017
 7651SOL    HW134415   2.964   0.929   8.469  0.9801  2.4296  0.9234
 7651SOL    HW234416   3.107   0.962   8.486 -1.1087  1.9008  0.3495
 7652SOL     OW34417   0.132   4.499   5.632 -0.4884 -0.1201  0.1460
 7652SOL    HW134418   0.121   4.418   5.581 -0.1348  1.0382 -1.7811
 7652SOL    HW234419   0.225   4.492   5.653  0.1151  0.9456 -2.1493
 7653SOL     OW34420   2.852   2.722   8.132 -0.1032 -0.5173 -0.3768
 7653SOL    HW134421   2.937   2.695   8.098  1.0340  2.6607  0.0318
 7653SOL    HW234422   2.803   2.714   8.050 -0.7440  1.2077 -0.1618
 7654SOL     OW34423   3.818   3.935  13.483  0.6558 -0.1920  0.6041
 7654SOL    HW134424   3.747   3.942  13.547  0.9382 -0.2964  0.9314
 7654SOL    HW234425   3.833   4.024  13.452 -0.0128  0.5628  2.4340
 7655SOL     OW34426   1.177   0.312   8.649 -0.2528 -0.0568  0.2250
 7655SOL    HW134427   1.131   0.388   8.684  0.6665 -0.3766  2.1143
 7655SOL    HW234428   1.107   0.247   8.641  0.1421 -0.7732  2.6021
 7656SOL     OW34429   0.109   2.824  16.413  0.2962  0.0641  0.1710
 7656SOL    HW134430   0.151   2.908  16.393 -0.0445 -0.0374 -0.9735
 7656SOL    HW234431   0.104   2.841  16.507 -2.9182 -1.4895  0.2993
 7657SOL     OW34432   2.432   0.473  13.224  0.8319  0.5224  0.0704
 7657SOL    HW134433   2.354   0.450  13.274  1.7978  0.7561  1.7086
 7657SOL    HW234434   2.434   0.420  13.144 -0.0774  2.0061 -0.9173
 7658SOL     OW34435   3.017   3.302   7.788 -0.4230 -0.2713  0.2882
 7658SOL    HW134436   3.034   3.213   7.759 -0.1868 -0.0887 -0.1345
 7658SOL    HW234437   2.939   3.299   7.843  0.1433 -0.4378  1.0768
 7659SOL     OW34438   1.424   3.317  10.537 -0.6140  0.0907  0.1045
 7659SOL    HW134439   1.376   3.277  10.609  0.0620  1.0205  1.0666
 7659SOL    HW234440   1.505   3.345  10.579  0.1214 -2.2652  0.2636
 7660SOL     OW34441   2.189   4.019   9.977 -0.2455 -0.1248  0.7341
 7660SOL    HW134442   2.228   4.106   9.988  1.2867 -1.0979  2.9801
 7660SOL    HW234443   2.148   4.019  10.063  1.3160 -1.7610  1.4630
 7661SOL     OW34444   0.314   3.363   2.888 -0.2403  0.2248 -0.6837
 7661SOL    HW134445   0.221   3.383   2.899 -0.0467  1.5558 -1.4418
 7661SOL    HW234446   0.359   3.441   2.920  0.3593 -0.0929 -0.7695
 7662SOL     OW34447   3.477   2.060   4.461  0.2939 -0.4323  0.5630
 7662SOL    HW134448   3.459   1.997   4.392  1.2350 -0.4546  0.3428
 7662SOL    HW234449   3.531   2.117   4.407 -1.2242  1.3487  0.9186
 7663SOL     OW34450   0.798   2.597   5.892 -0.3838  0.2512  0.1008
 7663SOL    HW134451   0.801   2.690   5.915 -1.8138  0.6181 -1.1987
 7663SOL    HW234452   0.789   2.560   5.980  1.8280 -0.1226  0.1655
 7664SOL     OW34453   3.697   1.817   2.496  0.1337 -0.3864  0.6223
 7664SOL    HW134454   3.708   1.904   2.457 -2.5013 -0.3462  0.0140
 7664SOL    HW234455   3.730   1.833   2.584  0.6144  0.6448  0.2561
 7665SOL     OW34456   2.567   3.723   5.424  0.6168  0.0944  0.0364
 7665SOL    HW134457   2.473   3.718   5.442  0.4330  0.7663 -0.7801
 7665SOL    HW234458   2.596   3.791   5.485  1.4768  0.1021 -0.3817
 7666SOL     OW34459   1.717   2.702   1.717 -0.6326  0.1881  0.2661
 7666SOL    HW134460   1.659   2.705   1.793  0.6518 -0.7459  1.2786
 7666SOL    HW234461   1.699   2.615   1.682 -3.1799  1.3544 -1.3136
 7667SOL     OW34462   2.750   1.735   3.535 -0.3218 -0.7690 -0.4306
 7667SOL    HW134463   2.736   1.781   3.452 -0.9191  0.2691  0.2451
 7667SOL    HW234464   2.846   1.741   3.530 -0.2732 -1.5739 -0.4013
 7668SOL     OW34465   1.877   0.951   0.060 -0.2061 -0.1080 -0.3670
 7668SOL    HW134466   1.901   1.039   0.032 -2.9741  0.2047 -1.8398
 7668SOL    HW234467   1.824   0.923  17.682 -1.4886  0.3593  0.3493
 7669SOL     OW34468   2.130   0.916   2.319 -0.3475 -0.4893  0.3007
 7669SOL    HW134469   2.157   0.832   2.282  2.7754  0.5096  0.3605
 7669SOL    HW234470   2.036   0.896   2.317 -0.1847 -0.9687 -3.0561
 7670SOL     OW34471   3.216   4.092   4.249 -0.0786  0.0065  0.2556
 7670SOL    HW134472   3.206   3.997   4.258 -1.9985  0.2405  0.5260
 7670SOL    HW234473   3.128   4.123   4.229 -0.2719 -0.0499  1.0352
 7671SOL     OW34474   0.584   0.834   8.385 -0.2322  0.0330  0.1922
 7671SOL    HW134475   0.505   0.786   8.359 -0.7142 -0.6127  2.9072
 7671SOL    HW234476   0.573   0.834   8.480 -1.1153 -1.8016  0.1054
 7672SOL     OW34477   0.749   0.334   8.866  0.4247 -0.0465 -0.2484
 7672SOL    HW134478   0.774   0.303   8.779 -0.9121  0.1404 -0.6994
 7672SOL    HW234479   0.721   0.422   8.842 -1.6756 -0.5945  0.2133
 7673SOL     OW34480   4.360   2.854   2.889  0.2144  0.2983  0.0145
 7673SOL    HW134481   4.300   2.782   2.909  0.8461 -0.7450 -1.8757
 7673SOL    HW234482   4.429   2.799   2.853  2.1993  2.6792  0.1745
 7674SOL     OW34483   0.200   1.299  10.573  0.4386  0.2271 -0.3330
 7674SOL    HW134484   0.273   1.333  10.520  2.2987 -0.7523  1.6045
 7674SOL    HW234485   0.249   1.305  10.655 -0.3349  1.2856  0.0486
 7675SOL     OW34486   0.814   0.851   7.876 -0.4683  0.2499  0.0278
 7675SOL    HW134487   0.879   0.844   7.946 -0.8440  0.4457  0.3972
 7675SOL    HW234488   0.735   0.846   7.930 -0.6216 -0.6228 -0.2769
 7676SOL     OW34489   3.617   3.364   6.124  0.7594  0.0535 -0.0672
 7676SOL    HW134490   3.531   3.405   6.125  0.3612 -0.7599 -0.7980
 7676SOL    HW234491   3.650   3.411   6.200 -0.0692 -1.5862  1.2992
 7677SOL     OW34492   3.426   1.014   3.458  0.1200 -0.4269 -0.9456
 7677SOL    HW134493   3.364   1.033   3.387  0.3268  2.1552 -0.4293
 7677SOL    HW234494   3.374   0.968   3.523 -0.5341  1.3975 -0.1827
 7678SOL     OW34495   2.000   1.806   5.506  0.1920 -0.4934 -0.1825
 7678SOL    HW134496   2.022   1.713   5.514 -0.1743 -0.7008 -1.5708
 7678SOL    HW234497   2.070   1.847   5.556  1.2849 -1.5158 -0.8768
 7679SOL     OW34498   4.452   4.480   2.071 -0.6719  0.5229 -0.4542
 7679SOL    HW134499   4.435   4.409   2.010 -2.4060  1.7823 -1.4300
 7679SOL    HW234500   4.524   4.516   2.019 -0.8708  0.8708 -0.4932
 7680SOL     OW34501   2.424   3.201   9.605  0.2724 -0.3944 -0.0259
 7680SOL    HW134502   2.376   3.274   9.568 -0.2625 -0.4026  0.6725
 7680SOL    HW234503   2.372   3.171   9.679  0.4404  0.4552  0.4312
 7681SOL     OW34504   0.170   3.051   2.256 -0.3431  0.0872 -0.7135
 7681SOL    HW134505   0.106   2.991   2.295 -2.1468  1.4815 -1.4883
 7681SOL    HW234506   0.203   3.005   2.180  2.5014 -0.8723  1.1243
 7682SOL     OW34507   1.403   1.865   5.438  0.3422 -0.3992  0.2773
 7682SOL    HW134508   1.497   1.860   5.425  0.6086 -0.5693  2.3210
 7682SOL    HW234509   1.366   1.777   5.436 -1.4222  0.3347 -0.0038
 7683SOL     OW34510   4.271   0.851   8.702  0.0079  0.0080  0.3185
 7683SOL    HW134511   4.324   0.781   8.741 -1.3389 -0.4257  1.3602
 7683SOL    HW234512   4.265   0.806   8.617 -1.8747  2.5189 -0.8557
 7684SOL     OW34513   1.319   3.633   4.230  0.4558  0.4401  0.3613
 7684SOL    HW134514   1.294   3.562   4.170  0.5366  2.0675 -1.6106
 7684SOL    HW234515   1.249   3.616   4.293  0.4351  0.4204  0.3332
 7685SOL     OW34516   3.472   1.136   9.467 -0.4146 -0.2663 -0.0590
 7685SOL    HW134517   3.415   1.128   9.390 -1.5914 -3.5128  1.1590
 7685SOL    HW234518   3.421   1.206   9.508 -0.4807 -0.8815  0.8884
 7686SOL     OW34519   0.185   4.036  12.120  0.0990 -0.2029  0.0245
 7686SOL    HW134520   0.217   4.122  12.094  1.7426 -0.5588  0.8491
 7686SOL    HW234521   0.189   4.030  12.216  0.4026  0.1765  0.0346
 7687SOL     OW34522   1.424   1.519   6.065 -0.0427 -0.0589 -0.1601
 7687SOL    HW134523   1.359   1.451   6.083 -0.1337  0.2111  0.5422
 7687SOL    HW234524   1.372   1.599   6.072  2.0912  1.3757 -0.7369
 7688SOL     OW34525   0.988   2.971   6.875 -0.1957 -0.7185  0.8910
 7688SOL    HW134526   0.943   3.054   6.859 -0.0412 -0.8855 -0.4704
 7688SOL    HW234527   0.934   2.908   6.828  4.1514 -3.8795  0.1589
 7689SOL     OW34528   3.885   3.003   0.496 -0.2323 -0.2123 -0.0541
 7689SOL    HW134529   3.835   3.069   0.543  1.0770  1.2636 -0.7070
 7689SOL    HW234530   3.894   2.929   0.556  1.9878  1.1230  1.2353
 7690SOL     OW34531   4.157   2.880   6.943  0.3171  0.6702 -0.1142
 7690SOL    HW134532   4.132   2.789   6.925  2.0628  0.5649 -1.9897
 7690SOL    HW234533   4.212   2.864   7.021 -0.4290 -0.1310  0.2508
 7691SOL     OW34534   3.107   3.248  10.472 -0.2597 -0.9149 -0.2112
 7691SOL    HW134535   3.161   3.183  10.427 -0.4364 -1.7537  0.7850
 7691SOL    HW234536   3.138   3.226  10.560  1.2584 -1.1023 -0.7806
 7692SOL     OW34537   4.444   1.622   6.422  0.6581  0.0850 -0.2231
 7692SOL    HW134538   4.452   1.555   6.354 -0.5959  0.3599 -0.6260
 7692SOL    HW234539   4.526   1.670   6.407  1.0853 -1.2977 -2.2642
 7693SOL     OW34540   4.119   4.350   2.281  0.4906  0.0833  0.3057
 7693SOL    HW134541   4.179   4.289   2.238 -1.3476  0.3644 -2.6329
 7693SOL    HW234542   4.053   4.292   2.317 -0.9676  2.0481  0.7880
 7694SOL     OW34543   3.571   1.647  10.779 -0.0308  0.0800  0.3305
 7694SOL    HW134544   3.520   1.707  10.725 -0.2458  1.4197  2.0255
 7694SOL    HW234545   3.555   1.668  10.870  2.5353  0.5181  0.6855
 7695SOL     OW34546   2.731   2.819  11.250  0.0102  0.4751  0.2186
 7695SOL    HW134547   2.675   2.872  11.307  0.0361 -1.2020  1.7876
 7695SOL    HW234548   2.744   2.741  11.303  2.1214  0.7742  0.1760
 7696SOL     OW34549   0.371   1.876   5.799  0.3766 -0.1612 -0.2451
 7696SOL    HW134550   0.435   1.820   5.842 -0.9293 -2.3744 -1.2207
 7696SOL    HW234551   0.415   1.904   5.718  0.7392  0.0451  0.0213
 7697SOL     OW34552   3.708   2.351   6.553  0.4566  0.3483  0.3573
 7697SOL    HW134553   3.715   2.324   6.645  1.0214 -2.0978 -0.4238
 7697SOL    HW234554   3.706   2.266   6.510 -3.2693  3.2665 -5.2529
 7698SOL     OW34555   4.450   2.652   3.777  0.1972 -0.3876  0.3512
 7698SOL    HW134556   4.517   2.589   3.802  0.5016 -0.9890 -2.0000
 7698SOL    HW234557   4.507   2.708   3.724 -1.0025 -1.2039 -1.7773
 7699SOL     OW34558   3.889   2.531   3.360 -0.1608  0.3327  0.3537
 7699SOL    HW134559   3.871   2.524   3.454 -3.1734 -0.8868 -0.3084
 7699SOL    HW234560   3.982   2.554   3.365 -0.1094  0.5266 -1.7351
 7700SOL     OW34561   4.654   3.992   7.630 -0.2574 -0.0885  0.2920
 7700SOL    HW134562   4.712   3.942   7.688 -1.8295 -0.3101  1.6823
 7700SOL    HW234563   4.574   3.940   7.631  0.4679 -1.2073  0.6788
 7701SOL     OW34564   0.218   0.735  12.223  0.5788 -0.4129 -0.2931
 7701SOL    HW134565   0.135   0.779  12.242 -0.1255 -0.9166 -2.1544
 7701SOL    HW234566   0.224   0.740  12.127 -1.6766  1.4823 -0.3343
 7702SOL     OW34567   3.208   3.109   9.151 -0.1742  0.0119 -0.3144
 7702SOL    HW134568   3.258   3.175   9.198 -1.3203 -0.2368  1.2501
 7702SOL    HW234569   3.126   3.104   9.200 -0.3250  3.3336 -0.2140
 7703SOL     OW34570   0.284   0.737   9.109  0.1085 -0.1718 -0.1095
 7703SOL    HW134571   0.287   0.794   9.032 -1.7796  2.0199  1.4210
 7703SOL    HW234572   0.342   0.787   9.166  1.0305 -1.2043 -0.1550
 7704SOL     OW34573   0.424   4.692  16.661 -1.0443 -0.0863 -0.3201
 7704SOL    HW134574   0.383   4.719  16.579  0.2378  0.7401 -0.6985
 7704SOL    HW234575   0.355   4.721  16.720 -0.8577 -0.9824  0.3391
 7705SOL     OW34576   3.515   0.209   6.898 -0.5696  0.7613  0.0341
 7705SOL    HW134577   3.521   0.115   6.918  2.8706  0.9228 -0.1038
 7705SOL    HW234578   3.591   0.217   6.840  0.6773  0.1854  1.5661
 7706SOL     OW34579   2.143   3.518   4.147 -0.0114 -0.1204  0.2340
 7706SOL    HW134580   2.173   3.608   4.139 -1.0199  0.3258  1.5310
 7706SOL    HW234581   2.062   3.525   4.198 -0.4730 -1.8701 -0.2605
 7707SOL     OW34582   1.554   1.897   7.035 -0.2825  0.2409  0.1181
 7707SOL    HW134583   1.571   1.988   7.061  2.5517  0.3001 -1.9339
 7707SOL    HW234584   1.464   1.893   7.068 -0.6409  0.7032 -0.7707
 7708SOL     OW34585   1.147   0.480  10.854  0.0806  0.5669 -0.0332
 7708SOL    HW134586   1.183   0.407  10.803  0.0681  0.1958  0.4851
 7708SOL    HW234587   1.215   0.497  10.919  0.2390 -1.7151  0.4186
 7709SOL     OW34588   4.009   3.562   3.381 -0.1173 -0.1477  0.2669
 7709SOL    HW134589   3.935   3.513   3.346  1.1944 -0.7614 -1.6367
 7709SOL    HW234590   4.086   3.516   3.349  0.1269  1.5213 -1.5777
 7710SOL     OW34591   0.116   2.413   6.516  0.0576  0.3130 -0.0311
 7710SOL    HW134592   0.053   2.398   6.586 -1.1208 -1.6183 -1.4940
 7710SOL    HW234593   0.185   2.360   6.556  0.9537  0.7311 -1.0300
 7711SOL     OW34594   3.892   4.697  15.356 -0.7809 -0.4639  0.3432
 7711SOL    HW134595   3.871   4.695  15.263 -1.8142  1.4163  0.5382
 7711SOL    HW234596   3.960   4.631  15.370  0.8595  0.8047 -1.6739
 7712SOL     OW34597   1.726   2.329  12.879  0.0757 -0.0672  0.2448
 7712SOL    HW134598   1.633   2.326  12.856 -0.0449 -0.9956  0.8543
 7712SOL    HW234599   1.756   2.385  12.807  2.6568  3.4285  4.0153
 7713SOL     OW34600   0.893   2.331   0.362  0.5074 -0.1218 -0.0090
 7713SOL    HW134601   0.958   2.401   0.369  1.0932 -0.7986  1.2911
 7713SOL    HW234602   0.947   2.254   0.339  0.4444  0.0476 -0.7271
 7714SOL     OW34603   0.113   0.289  10.557  0.0407  0.2314  0.3173
 7714SOL    HW134604   0.136   0.355  10.622 -1.3160 -1.8817  2.9514
 7714SOL    HW234605   0.089   0.345  10.484 -1.6152  0.9882  1.4555
 7715SOL     OW34606   1.828   4.664  15.391  0.3831  0.1325 -0.3614
 7715SOL    HW134607   1.751   4.662  15.335 -1.0055  2.1789  1.4415
 7715SOL    HW234608   1.834   4.575  15.425 -1.6770 -0.0893 -0.5904
 7716SOL     OW34609   2.585   3.994   4.941 -0.4204 -0.2045  0.7249
 7716SOL    HW134610   2.628   3.956   4.864 -1.0800 -0.8076  0.6558
 7716SOL    HW234611   2.601   3.924   5.004  0.0310  0.0802  0.9257
 7717SOL     OW34612   3.747   2.726  11.698  0.0421  0.0622  0.3724
 7717SOL    HW134613   3.769   2.817  11.717  1.2784  0.3224 -2.3205
 7717SOL    HW234614   3.678   2.743  11.633 -1.2414  1.0085  1.9984
 7718SOL     OW34615   0.390   2.787   6.978 -0.1731  0.1403 -0.8141
 7718SOL    HW134616   0.477   2.785   7.019  0.5814  1.4269 -2.3742
 7718SOL    HW234617   0.348   2.852   7.035  2.2244  1.6928 -0.8028
 7719SOL     OW34618   0.381   0.080  14.001 -0.1276  0.1858  0.0015
 7719SOL    HW134619   0.296   0.037  14.014 -0.1767 -0.2329 -1.6771
 7719SOL    HW234620   0.358   0.172  13.993  2.2591  0.9603  1.8770
 7720SOL     OW34621   4.246   1.702   6.137  0.6283  0.1190 -0.2239
 7720SOL    HW134622   4.340   1.720   6.130  0.4284  1.5210  0.7652
 7720SOL    HW234623   4.241   1.607   6.127  1.4714  0.1637 -1.0838
 7721SOL     OW34624   1.694   2.476   3.071 -0.4006 -0.1124  0.2331
 7721SOL    HW134625   1.607   2.516   3.076 -0.5047 -0.1907 -0.9469
 7721SOL    HW234626   1.746   2.556   3.068  0.6180 -0.8526 -1.4070
 7722SOL     OW34627   0.516   3.478   3.610  0.4195  0.0157  0.1316
 7722SOL    HW134628   0.531   3.487   3.516  2.1704  0.9973  0.5031
 7722SOL    HW234629   0.540   3.560   3.652  2.0189 -1.5657  2.3085
 7723SOL     OW34630   1.458   1.918   0.819 -0.1892  0.0609  0.1904
 7723SOL    HW134631   1.455   1.854   0.748  2.5491 -0.5637  0.6329
 7723SOL    HW234632   1.552   1.934   0.820 -0.0889 -0.5417  0.1784
 7724SOL     OW34633   3.503   3.967   6.859  0.3685 -0.0320  0.1022
 7724SOL    HW134634   3.447   4.035   6.897  2.0020  1.7027 -0.5801
 7724SOL    HW234635   3.438   3.901   6.838 -0.1823  1.1094 -1.7558
 7725SOL     OW34636   2.384   2.143   4.836  0.4972  0.0688  0.3587
 7725SOL    HW134637   2.373   2.083   4.909 -0.4111 -0.8077 -0.5099
 7725SOL    HW234638   2.296   2.150   4.800  0.8807  2.5796 -0.1336
 7726SOL     OW34639   1.563   4.683   3.720 -0.2882  0.0780 -0.2240
 7726SOL    HW134640   1.533   0.032   3.666  1.1328  1.3369  0.6959
 7726SOL    HW234641   1.526   4.612   3.668  0.3289 -0.7167  0.4261
 7727SOL     OW34642   0.896   1.192   2.814  0.1330 -0.3387  0.4850
 7727SOL    HW134643   0.891   1.282   2.845  1.7110 -0.3900  0.9318
 7727SOL    HW234644   0.803   1.178   2.799  0.3739 -2.8406  1.3556
 7728SOL     OW34645   2.236   2.872   5.132  0.2931  0.1478  0.2322
 7728SOL    HW134646   2.284   2.890   5.213 -1.9626  1.1510  1.3407
 7728SOL    HW234647   2.296   2.802   5.106 -0.6570 -0.1423 -1.1904
 7729SOL     OW34648   0.978   3.145  13.795  0.7933 -0.9849  0.0037
 7729SOL    HW134649   1.035   3.130  13.870  1.1876  0.1466 -0.0826
 7729SOL    HW234650   1.035   3.186  13.730  1.3003 -0.8511  0.5325
 7730SOL     OW34651   3.139   4.694   7.600  0.0620  0.4832  0.5951
 7730SOL    HW134652   3.133   4.680   7.505 -0.3026 -0.7883  0.8051
 7730SOL    HW234653   3.219   4.644   7.614  0.9383  1.2699 -1.5592
 7731SOL     OW34654   3.001   0.307   4.632  0.3623  0.3539  0.0642
 7731SOL    HW134655   2.923   0.262   4.662  1.2395 -1.9976 -1.1842
 7731SOL    HW234656   3.073   0.244   4.627 -0.5477 -0.5945 -1.1478
 7732SOL     OW34657   3.499   3.032   5.321 -0.1496 -0.3213 -0.5132
 7732SOL    HW134658   3.453   3.112   5.297 -2.0676 -0.3494  3.0146
 7732SOL    HW234659   3.559   3.075   5.382  1.6191 -2.6910 -0.5608
 7733SOL     OW34660   2.515   3.714  12.185 -0.0505 -0.2591 -0.1392
 7733SOL    HW134661   2.513   3.702  12.280 -0.7585 -2.4540 -0.4352
 7733SOL    HW234662   2.435   3.666  12.165 -0.9659  0.9403  0.7162
 7734SOL     OW34663   2.551   2.575   6.904  0.0855  0.0292  0.3155
 7734SOL    HW134664   2.631   2.626   6.908 -0.8004  1.4546 -0.0428
 7734SOL    HW234665   2.491   2.605   6.973 -1.9420 -0.4135 -1.2317
 7735SOL     OW34666   2.448   3.592   4.954 -0.4576  0.1622  0.2763
 7735SOL    HW134667   2.495   3.623   4.876 -2.0220 -1.4015 -1.2822
 7735SOL    HW234668   2.422   3.673   4.999  1.2857  1.0705 -0.3454
 7736SOL     OW34669   1.902   0.294   6.383 -0.0900 -0.5334 -0.2811
 7736SOL    HW134670   1.909   0.338   6.298 -0.6932  0.5586  0.2296
 7736SOL    HW234671   1.996   0.282   6.398 -0.2461 -0.8790  0.4487
 7737SOL     OW34672   0.697   1.886   0.919 -0.4960 -0.4929  0.4080
 7737SOL    HW134673   0.643   1.859   0.993 -0.5382 -2.1961 -0.2399
 7737SOL    HW234674   0.653   1.850   0.842  1.4544 -1.7283 -0.1424
 7738SOL     OW34675   0.871   0.579  14.562  0.2907 -0.2404  0.7597
 7738SOL    HW134676   0.942   0.594  14.500 -0.8765 -2.5669 -1.1248
 7738SOL    HW234677   0.802   0.536  14.512  0.6692 -2.5593  2.2407
 7739SOL     OW34678   0.056   1.646   8.936  0.5789  0.4087  0.6072
 7739SOL    HW134679   0.063   1.730   8.892 -0.7202 -0.2599 -0.8922
 7739SOL    HW234680   0.012   1.598   8.866  0.9314 -0.6014  1.0756
 7740SOL     OW34681   2.859   3.669   6.608  0.3252 -0.2823  0.3014
 7740SOL    HW134682   2.767   3.661   6.582  0.3640  0.7262 -0.1657
 7740SOL    HW234683   2.874   3.763   6.597  0.5100 -0.2792  0.5950
 7741SOL     OW34684   3.141   2.124   2.013 -0.1842  0.0626  0.2372
 7741SOL    HW134685   3.222   2.073   2.018 -0.6087 -0.7688 -1.5660
 7741SOL    HW234686   3.181   2.201   2.055 -0.4013  1.3501 -1.9141
 7742SOL     OW34687   3.639   2.506   4.318 -0.2184  0.4325  0.4624
 7742SOL    HW134688   3.577   2.578   4.306 -0.9461 -0.3975 -0.8515
 7742SOL    HW234689   3.666   2.523   4.408 -0.2658  0.0382  0.5501
 7743SOL     OW34690   3.701   1.961   0.137 -0.2202  0.1484 -0.1970
 7743SOL    HW134691   3.768   1.907   0.095  1.2293  0.7068  1.3867
 7743SOL    HW234692   3.624   1.941   0.084  0.2292  0.3494 -0.9249
 7744SOL     OW34693   0.072   1.794  13.827 -0.5541 -0.1166 -0.4774
 7744SOL    HW134694   0.004   1.727  13.823 -1.7178  1.1102 -1.2516
 7744SOL    HW234695   0.135   1.765  13.760 -1.6916 -1.6117 -0.8882
 7745SOL     OW34696   1.141   1.064  13.350  0.3859  0.5468  0.4439
 7745SOL    HW134697   1.140   0.993  13.415  0.4299  1.2626  1.2260
 7745SOL    HW234698   1.147   1.010  13.271  2.4744 -2.4518  2.6414
 7746SOL     OW34699   4.159   3.217   9.934  0.6811  0.2749  0.2873
 7746SOL    HW134700   4.161   3.159  10.010 -1.2006 -1.5431 -1.0593
 7746SOL    HW234701   4.078   3.268   9.944 -0.2595 -1.6681  2.5824
 7747SOL     OW34702   2.793   4.066   5.809 -0.2427  0.7237 -0.0288
 7747SOL    HW134703   2.844   3.994   5.845 -1.8826 -0.2518  0.3755
 7747SOL    HW234704   2.753   4.099   5.889  0.5802 -1.7834  1.4038
 7748SOL     OW34705   0.578   2.130  12.384 -0.3753 -0.0419 -0.1593
 7748SOL    HW134706   0.490   2.097  12.370 -0.4348  0.3049 -0.5903
 7748SOL    HW234707   0.624   2.050  12.410 -0.2538  0.3297  0.7792
 7749SOL     OW34708   3.229   2.565   6.476 -0.0618 -0.1146  0.5597
 7749SOL    HW134709   3.203   2.474   6.490  2.1829 -0.8437 -0.0089
 7749SOL    HW234710   3.321   2.567   6.499 -0.2387  0.1178  1.2510
 7750SOL     OW34711   3.827   2.794  12.407  0.5724 -0.0089  0.7558
 7750SOL    HW134712   3.863   2.733  12.471  0.2589 -0.2175  0.7353
 7750SOL    HW234713   3.897   2.773  12.346 -0.4463  2.9208 -1.3920
 7751SOL     OW34714   0.525   0.645  13.740 -0.4091  0.6739 -0.1614
 7751SOL    HW134715   0.614   0.611  13.748 -0.7368  0.0435  0.8072
 7751SOL    HW234716   0.487   0.620  13.824  0.2303  1.0007  0.2194
 7752SOL     OW34717   2.088   4.454   0.592 -0.2950 -0.1023 -0.7924
 7752SOL    HW134718   2.025   4.393   0.630  0.9221 -0.6037  0.4201
 7752SOL    HW234719   2.039   4.469   0.511 -1.7557  0.6740  0.2356
 7753SOL     OW34720   4.646   3.139  10.281  0.1955  0.3103  0.4185
 7753SOL    HW134721   4.591   3.063  10.265 -0.4983  1.1883 -1.3184
 7753SOL    HW234722   4.720   3.099  10.328 -1.1300  1.2629  3.2901
 7754SOL     OW34723   3.912   2.421   5.138  0.9731 -0.0406 -0.1423
 7754SOL    HW134724   3.863   2.480   5.080  0.1205 -0.5872  0.0176
 7754SOL    HW234725   3.943   2.366   5.067 -2.4690  0.4937 -2.0792
 7755SOL     OW34726   1.115   2.289   7.912  0.0092  0.0006  0.1805
 7755SOL    HW134727   1.092   2.234   7.987  1.7666  0.7190  1.2445
 7755SOL    HW234728   1.186   2.339   7.952 -0.2594 -0.3572  1.1043
 7756SOL     OW34729   4.617   2.263   9.380 -0.4620 -0.5612  0.1631
 7756SOL    HW134730   4.581   2.334   9.327 -0.8523 -0.1192  1.0096
 7756SOL    HW234731   4.696   2.234   9.336  3.1481  2.9136  4.2814
 7757SOL     OW34732   4.177   0.290  14.675 -0.4330 -0.0276 -0.5226
 7757SOL    HW134733   4.153   0.312  14.585 -0.8024  0.1370 -0.3886
 7757SOL    HW234734   4.221   0.207  14.662 -0.2995 -0.1262  0.5505
 7758SOL     OW34735   3.379   3.406   3.814 -0.0952  0.0411 -0.4673
 7758SOL    HW134736   3.356   3.313   3.825 -0.0569  0.0425 -0.3758
 7758SOL    HW234737   3.391   3.404   3.719 -0.8013 -0.3953 -0.5484
 7759SOL     OW34738   1.779   0.408   1.960 -0.1464  0.1300  0.0389
 7759SOL    HW134739   1.713   0.379   1.897 -0.0466  0.8651 -0.4127
 7759SOL    HW234740   1.843   0.337   1.954  0.1215  0.3931 -0.2019
 7760SOL     OW34741   4.705   2.460   3.333 -0.1035  0.2059 -0.0607
 7760SOL    HW134742   0.052   2.400   3.357 -0.0505  0.5836  0.7270
 7760SOL    HW234743   0.004   2.486   3.244  0.0788  0.3394  0.0257
 7761SOL     OW34744   3.140   3.292  13.293 -0.0564  0.4277  0.0168
 7761SOL    HW134745   3.052   3.327  13.279 -0.0874 -0.2575 -1.4829
 7761SOL    HW234746   3.170   3.284  13.203 -0.1763  0.1858 -0.0033
 7762SOL     OW34747   3.293   2.918   8.324  1.0426  0.6213 -0.7111
 7762SOL    HW134748   3.334   2.917   8.410  1.0240  0.1103 -0.7073
 7762SOL    HW234749   3.324   2.832   8.297  0.0624  0.0908 -0.1462
 7763SOL     OW34750   3.008   2.229   6.300 -0.2667 -0.9110 -0.0052
 7763SOL    HW134751   3.041   2.166   6.236  1.3490  1.3082 -1.3501
 7763SOL    HW234752   3.089   2.246   6.348 -0.1786 -1.3227 -0.0103
 7764SOL     OW34753   2.907   1.636  17.225  0.4079 -0.1520  0.1334
 7764SOL    HW134754   2.956   1.679  17.294  1.7505 -0.1761 -0.7981
 7764SOL    HW234755   2.876   1.708  17.170  0.5773 -0.8781 -0.9230
 7765SOL     OW34756   0.595   1.696   7.663 -0.1695 -0.3583 -0.3871
 7765SOL    HW134757   0.591   1.602   7.678 -0.6314 -0.3621 -0.5554
 7765SOL    HW234758   0.666   1.701   7.600  0.0364  0.1025 -0.1257
 7766SOL     OW34759   1.979   2.867   2.654 -0.2173 -0.3943  0.1620
 7766SOL    HW134760   2.041   2.862   2.727  0.4091  0.1272 -0.3426
 7766SOL    HW234761   1.894   2.857   2.698 -0.6850  0.7776 -0.4686
 7767SOL     OW34762   3.588   4.009   5.023 -0.1518 -0.1874  0.0798
 7767SOL    HW134763   3.672   3.972   4.996 -0.1349 -0.6241  0.7296
 7767SOL    HW234764   3.568   4.065   4.949 -2.2953 -0.2838  0.5735
 7768SOL     OW34765   3.220   1.198   7.535 -0.8692 -0.3773 -0.3288
 7768SOL    HW134766   3.125   1.186   7.539 -0.5707 -2.3042  0.7433
 7768SOL    HW234767   3.246   1.174   7.623 -0.0176  2.1280  0.1014
 7769SOL     OW34768   4.564   0.158  13.133  0.5958  0.1173 -0.2426
 7769SOL    HW134769   4.506   0.083  13.118 -0.3154  0.3020  2.3672
 7769SOL    HW234770   4.651   0.123  13.153 -0.0726 -0.9584  0.8294
 7770SOL     OW34771   2.491   4.634  14.224 -0.4245  0.2222  1.0726
 7770SOL    HW134772   2.561   4.637  14.159 -0.1263 -1.1249  1.3244
 7770SOL    HW234773   2.515   4.703  14.286  1.2700  0.0832  0.5823
 7771SOL     OW34774   2.230   0.624  12.705 -0.0138  0.0687 -0.1352
 7771SOL    HW134775   2.164   0.657  12.644  0.1572  2.1817  0.8335
 7771SOL    HW234776   2.260   0.707  12.743  0.3408 -0.3753  0.5442
 7772SOL     OW34777   3.492   4.139   4.189  0.7172  0.8130 -0.1039
 7772SOL    HW134778   3.405   4.124   4.224  0.9475  1.0224  0.5535
 7772SOL    HW234779   3.474   4.204   4.121 -0.2242 -0.0894 -0.7170
 7773SOL     OW34780   2.449   0.472  16.256  0.2682  0.1229 -0.6152
 7773SOL    HW134781   2.455   0.381  16.286 -1.8086  1.3950  3.6373
 7773SOL    HW234782   2.355   0.485  16.241  0.4348  0.2318 -1.6081
 7774SOL     OW34783   0.855   3.753   6.084 -0.3023 -0.6577  0.6388
 7774SOL    HW134784   0.938   3.801   6.075  0.7234 -2.3463  0.9576
 7774SOL    HW234785   0.784   3.814   6.069  0.4209  0.2496  0.9257
 7775SOL     OW34786   3.221   4.120   3.422  0.1055 -0.9467  0.3567
 7775SOL    HW134787   3.276   4.047   3.448 -0.8759 -1.1255  1.8818
 7775SOL    HW234788   3.133   4.084   3.424 -0.6680  0.8061 -1.6442
 7776SOL     OW34789   0.052   4.441   6.912 -0.0406 -0.2570  0.1933
 7776SOL    HW134790   0.050   4.518   6.856  0.6992  0.1981  0.7920
 7776SOL    HW234791   0.044   4.369   6.849 -0.0602 -0.1117  0.0329
 7777SOL     OW34792   2.883   2.907   2.383 -0.3178  0.0154  0.0246
 7777SOL    HW134793   2.947   2.876   2.447 -0.9917 -1.6166 -0.1038
 7777SOL    HW234794   2.872   2.838   2.318  4.3033 -0.5045 -0.2172
 7778SOL     OW34795   3.558   3.968  13.575  0.7352  0.1512 -0.4668
 7778SOL    HW134796   3.602   3.948  13.658  0.1612  1.7807  0.2299
 7778SOL    HW234797   3.471   3.993  13.606 -0.6443 -1.6569 -2.8762
 7779SOL     OW34798   3.758   3.971  13.116  0.5045 -0.3362  0.1925
 7779SOL    HW134799   3.820   4.008  13.179  0.5186 -0.5112  0.2823
 7779SOL    HW234800   3.700   3.930  13.181  1.1589  0.2866  1.1764
 7780SOL     OW34801   3.685   1.238   8.130  0.5126 -0.0246 -0.1428
 7780SOL    HW134802   3.631   1.265   8.056  0.1764  0.4653  0.2806
 7780SOL    HW234803   3.744   1.181   8.080  0.2873 -0.0342 -0.3994
 7781SOL     OW34804   2.296   3.720   6.007 -0.1140  0.4532  0.2297
 7781SOL    HW134805   2.266   3.698   6.095  0.9023  1.7278  0.8938
 7781SOL    HW234806   2.347   3.644   5.978  0.9711  0.7246  1.4694
 7782SOL     OW34807   1.878   0.864   1.448 -0.0813 -0.5417 -0.1306
 7782SOL    HW134808   1.916   0.892   1.365  1.9739 -1.9865  0.3084
 7782SOL    HW234809   1.787   0.874   1.421 -0.2430  0.3246  0.7473
 7783SOL     OW34810   3.254   4.181  12.586  0.5460  0.1348  0.3090
 7783SOL    HW134811   3.305   4.128  12.526 -0.5916 -0.4451 -0.1538
 7783SOL    HW234812   3.204   4.235  12.525  1.3287 -0.0092 -0.4541
 7784SOL     OW34813   2.634   0.464   2.449  0.0677  0.6893 -0.1644
 7784SOL    HW134814   2.636   0.410   2.529  1.9134 -1.9260 -1.9994
 7784SOL    HW234815   2.675   0.545   2.479  1.4439  0.3720 -1.2087
 7785SOL     OW34816   1.594   3.623   5.266 -0.6823 -0.8847  0.5640
 7785SOL    HW134817   1.566   3.688   5.202  2.8002 -0.0066 -0.0381
 7785SOL    HW234818   1.664   3.674   5.307 -1.0908 -0.8201  1.1806
 7786SOL     OW34819   0.828   3.670  16.730  0.1237  0.2611 -0.6063
 7786SOL    HW134820   0.904   3.635  16.683  1.8028 -0.6708  2.7921
 7786SOL    HW234821   0.870   3.748  16.766  0.2957  0.2869 -0.8672
 7787SOL     OW34822   3.512   3.958  13.961 -0.5531 -0.2047  0.1172
 7787SOL    HW134823   3.503   3.907  14.041 -3.9278 -1.2086 -0.8822
 7787SOL    HW234824   3.585   3.910  13.922 -0.2801  0.5075 -0.2558
 7788SOL     OW34825   3.706   0.403  15.592 -0.0737  0.2068 -0.3097
 7788SOL    HW134826   3.721   0.351  15.670  0.9648  0.9252 -0.0189
 7788SOL    HW234827   3.623   0.449  15.605 -0.8125 -0.6558 -1.8988
 7789SOL     OW34828   3.192   1.992   5.869  0.2325  0.5080 -0.2637
 7789SOL    HW134829   3.202   2.064   5.932 -1.5214  0.8932 -0.4115
 7789SOL    HW234830   3.233   2.034   5.793 -1.6228 -0.5133 -1.8186
 7790SOL     OW34831   4.657   0.016   5.791 -0.0043  0.3775  0.0458
 7790SOL    HW134832   4.609   0.098   5.782  1.1328  1.1949  1.3252
 7790SOL    HW234833   4.612   4.680   5.732 -1.4348  2.2518 -0.7455
 7791SOL     OW34834   0.433   3.135   2.831 -0.4260 -0.4734 -0.0833
 7791SOL    HW134835   0.522   3.168   2.841 -0.9286  1.1743 -1.0801
 7791SOL    HW234836   0.378   3.214   2.826 -1.7717 -1.3040  1.5999
 7792SOL     OW34837   1.580   2.164   5.896  0.3225 -0.7909 -0.2107
 7792SOL    HW134838   1.656   2.108   5.910  1.9498  1.5852  0.4253
 7792SOL    HW234839   1.537   2.111   5.829 -1.4568  0.0181  0.2680
 7793SOL     OW34840   3.795   2.795   6.743 -0.4112  0.2320 -0.3238
 7793SOL    HW134841   3.711   2.841   6.733 -1.5789 -1.2255  2.8305
 7793SOL    HW234842   3.859   2.835   6.684  0.6165 -0.0118  0.6325
 7794SOL     OW34843   0.163   2.997   2.745  0.7199  0.1756 -0.0906
 7794SOL    HW134844   0.180   2.905   2.766  3.2996  0.8702  0.8595
 7794SOL    HW234845   0.250   3.030   2.723  0.3566  0.5505 -0.9522
 7795SOL     OW34846   4.186   4.708   6.447  0.2674 -0.1055 -0.0266
 7795SOL    HW134847   4.275   4.679   6.465  0.8945  3.0739  2.0035
 7795SOL    HW234848   4.199   0.049   6.378  1.2799  0.6434  0.8721
 7796SOL     OW34849   0.244   1.312  16.441  0.7173  0.0479 -0.3980
 7796SOL    HW134850   0.174   1.372  16.467  1.0396  0.2963 -0.1192
 7796SOL    HW234851   0.235   1.232  16.493  1.1958  1.3309  1.6508
 7797SOL     OW34852   2.000   4.528   1.753  0.1068  0.0574 -0.0802
 7797SOL    HW134853   1.990   4.495   1.664 -3.2664 -2.3766  1.2313
 7797SOL    HW234854   2.036   4.451   1.796 -0.4583 -1.9761 -3.2487
 7798SOL     OW34855   2.771   3.479   7.494  0.2539 -0.1996 -0.4292
 7798SOL    HW134856   2.695   3.534   7.515  1.3896  0.6918  1.3909
 7798SOL    HW234857   2.803   3.473   7.584  0.9551 -3.0496 -0.8897
 7799SOL     OW34858   2.507   0.707   1.870 -0.3001  0.0304  0.1801
 7799SOL    HW134859   2.597   0.693   1.840 -0.5632 -0.6426 -0.2862
 7799SOL    HW234860   2.469   0.776   1.816  1.7774  1.3704  0.4304
 7800SOL     OW34861   0.698   4.328   9.742  0.2247  0.1995 -0.2714
 7800SOL    HW134862   0.642   4.281   9.804 -0.4246  1.8709  0.3938
 7800SOL    HW234863   0.738   4.384   9.808  1.0825  0.0077 -0.6330
 7801SOL     OW34864   2.615   2.616   3.235 -0.1264 -0.2840  0.3783
 7801SOL    HW134865   2.706   2.608   3.206 -0.3651 -0.5586 -0.2940
 7801SOL    HW234866   2.589   2.528   3.208  2.8344 -0.6800 -1.1850
 7802SOL     OW34867   2.484   0.348   9.508  0.3574 -0.3359 -0.4559
 7802SOL    HW134868   2.549   0.352   9.578 -0.1291 -1.4270  0.0518
 7802SOL    HW234869   2.398   0.347   9.551  1.3330  1.2021  1.5498
 7803SOL     OW34870   0.789   3.079   3.884  0.3827 -0.0560 -0.1224
 7803SOL    HW134871   0.821   3.036   3.963 -0.8591 -0.2729  0.2646
 7803SOL    HW234872   0.754   3.003   3.836 -1.8965  0.3139  0.9522
 7804SOL     OW34873   2.341   0.878  12.763  0.2180 -0.1007  0.3515
 7804SOL    HW134874   2.309   0.946  12.822 -1.0380  0.5645 -1.1101
 7804SOL    HW234875   2.332   0.913  12.674 -1.4207  0.0394  0.5848
 7805SOL     OW34876   3.580   4.188   1.618 -0.0151  0.0885  0.3643
 7805SOL    HW134877   3.630   4.265   1.593  0.0718 -0.1399 -0.1507
 7805SOL    HW234878   3.645   4.118   1.628 -1.2047 -1.3339 -1.8616
 7806SOL     OW34879   1.779   0.929  17.519 -0.0705 -0.1679  0.1487
 7806SOL    HW134880   1.705   0.896  17.469 -1.6173  0.4923  1.9934
 7806SOL    HW234881   1.784   1.020  17.491  1.6556 -0.0735  0.7946
 7807SOL     OW34882   1.189   4.522   3.032  0.3686 -0.0142 -0.0263
 7807SOL    HW134883   1.241   4.540   3.111  1.1122 -0.1606 -0.4851
 7807SOL    HW234884   1.127   4.454   3.060 -0.5338  0.2462 -1.4154
 7808SOL     OW34885   1.847   2.412   6.572  0.3197 -0.2710 -0.0305
 7808SOL    HW134886   1.851   2.318   6.589 -1.3843 -0.7121 -2.1665
 7808SOL    HW234887   1.756   2.438   6.561 -0.0141 -1.4132  0.0980
 7809SOL     OW34888   0.469   1.048   3.008 -0.1803  0.6067  0.5504
 7809SOL    HW134889   0.415   1.125   3.025  0.6871  1.0341  1.3754
 7809SOL    HW234890   0.470   1.006   3.094  0.5304 -0.9290 -0.2112
 7810SOL     OW34891   1.624   1.548   6.389 -0.1368 -0.1351  0.0043
 7810SOL    HW134892   1.558   1.520   6.453 -0.6424  2.6513  0.7240
 7810SOL    HW234893   1.653   1.630   6.429  0.9315  0.5562 -2.2107
 7811SOL     OW34894   3.473   1.494   9.091 -0.3720 -0.0241  0.2827
 7811SOL    HW134895   3.532   1.569   9.077 -0.5164 -0.0886 -0.6379
 7811SOL    HW234896   3.413   1.523   9.023  2.4940  0.3307 -2.1145
 7812SOL     OW34897   3.803   1.555   3.066 -0.3339 -0.4792 -0.1118
 7812SOL    HW134898   3.836   1.465   3.063  3.4615  0.9229 -0.5107
 7812SOL    HW234899   3.812   1.571   2.973 -0.0536 -0.4157 -0.0744
 7813SOL     OW34900   1.903   2.230   5.506 -0.3188  0.4252 -0.3480
 7813SOL    HW134901   1.912   2.164   5.437  1.0823  0.2227  0.0444
 7813SOL    HW234902   1.815   2.229   5.543  1.1381  0.1462  3.0904
 7814SOL     OW34903   3.485   0.875   2.623 -0.3950 -0.2815  1.0594
 7814SOL    HW134904   3.466   0.876   2.717  0.4355 -0.6295  1.2267
 7814SOL    HW234905   3.512   0.785   2.606  0.4509 -0.0425  1.1684
 7815SOL     OW34906   4.237   4.169   1.824  0.2535 -0.0427 -0.3026
 7815SOL    HW134907   4.244   4.135   1.735 -1.5875  0.4596 -0.6520
 7815SOL    HW234908   4.314   4.224   1.838 -0.2686  1.1428 -2.1044
 7816SOL     OW34909   2.707   1.456   7.690  0.6994  0.1780  0.2910
 7816SOL    HW134910   2.679   1.442   7.600  0.2258 -0.1580  0.4880
 7816SOL    HW234911   2.645   1.522   7.720 -1.5924 -1.9723  0.3075
 7817SOL     OW34912   3.878   4.369   4.601 -0.2688  0.4446  0.1722
 7817SOL    HW134913   3.953   4.419   4.570  1.0089 -1.3053  0.4012
 7817SOL    HW234914   3.893   4.278   4.575  2.3396  0.6662  0.8870
 7818SOL     OW34915   0.321   2.837   4.562  0.1411 -0.3083  0.0566
 7818SOL    HW134916   0.346   2.841   4.469  0.7432 -0.5080  0.2071
 7818SOL    HW234917   0.399   2.787   4.588 -0.5252 -1.3083  0.1394
 7819SOL     OW34918   1.875   4.684   5.799  0.5647  0.3639  0.2233
 7819SOL    HW134919   1.940   0.014   5.753 -1.3197  0.3488 -2.4241
 7819SOL    HW234920   1.807   4.678   5.732  0.9164 -1.5170  0.0454
 7820SOL     OW34921   4.392   1.950   0.926 -0.2372 -0.4123 -0.6403
 7820SOL    HW134922   4.371   1.875   0.982 -0.6917  0.4060  0.2852
 7820SOL    HW234923   4.450   1.988   0.992 -1.1089  0.5861 -0.4522
 7821SOL     OW34924   0.995   2.589   7.183  0.3680 -0.0922 -0.7256
 7821SOL    HW134925   1.085   2.578   7.153  0.9577  0.5481  0.8561
 7821SOL    HW234926   0.953   2.504   7.167  1.1466 -0.4582 -0.8372
 7822SOL     OW34927   0.745   2.030   5.464  0.2151  0.0547 -0.0777
 7822SOL    HW134928   0.812   2.098   5.457 -0.4926  0.6827 -0.7846
 7822SOL    HW234929   0.779   1.960   5.409 -0.1677  0.3756 -0.7132
 7823SOL     OW34930   4.004   1.944   6.861 -0.9716 -0.1370 -0.2436
 7823SOL    HW134931   4.064   1.957   6.788  0.7842  1.4232  1.4336
 7823SOL    HW234932   4.063   1.968   6.933 -0.1168  1.0907 -1.3616
 7824SOL     OW34933   2.329   1.800   5.896 -0.8899 -0.0145  0.2365
 7824SOL    HW134934   2.415   1.835   5.875 -0.2474 -0.0035  2.9323
 7824SOL    HW234935   2.271   1.869   5.864  0.2982 -0.0596 -2.0014
 7825SOL     OW34936   1.290   1.476  11.524  0.2463  0.1549  0.0804
 7825SOL    HW134937   1.328   1.528  11.454  2.6347 -0.5466  0.8529
 7825SOL    HW234938   1.303   1.527  11.604 -0.8667 -0.1196  0.4394
 7826SOL     OW34939   2.118   4.248   8.315 -0.5377 -0.1630  0.2470
 7826SOL    HW134940   2.160   4.218   8.396 -1.2655 -2.4890 -0.2369
 7826SOL    HW234941   2.033   4.243   8.359 -0.7988 -1.5738 -0.4231
 7827SOL     OW34942   2.231   3.781   3.819 -0.7953 -0.3088  0.0386
 7827SOL    HW134943   2.279   3.818   3.744 -2.2421 -2.4986 -1.9464
 7827SOL    HW234944   2.150   3.830   3.831 -1.4066 -0.8384 -1.9051
 7828SOL     OW34945   1.010   0.728   8.171 -0.3313 -0.0420 -0.1778
 7828SOL    HW134946   1.040   0.709   8.260  2.0267  3.5632 -0.2371
 7828SOL    HW234947   1.055   0.660   8.121  1.0627 -0.3819  1.5163
 7829SOL     OW34948   1.383   1.801   1.325  0.1338 -0.1721  0.1477
 7829SOL    HW134949   1.304   1.746   1.328 -0.4985  0.7319  0.0744
 7829SOL    HW234950   1.451   1.734   1.328  1.1168  0.8630  1.0551
 7830SOL     OW34951   4.408   1.261   4.456  0.0605 -0.8867  0.2796
 7830SOL    HW134952   4.487   1.276   4.404 -0.8847  3.2177 -0.0163
 7830SOL    HW234953   4.399   1.339   4.512  2.6043  0.0887 -0.6645
 7831SOL     OW34954   3.462   0.069   7.685  0.3379  0.1403 -0.1305
 7831SOL    HW134955   3.459   0.117   7.602 -1.4473 -0.4160 -0.3875
 7831SOL    HW234956   3.530   0.004   7.667 -1.9377 -1.9150 -1.3625
 7832SOL     OW34957   0.549   4.042  13.366 -0.5608 -0.7734  0.0927
 7832SOL    HW134958   0.576   4.132  13.382  0.9109 -1.2092  0.0534
 7832SOL    HW234959   0.460   4.043  13.403 -0.8170  2.1277 -0.6135
 7833SOL     OW34960   1.771   3.162   3.640 -0.4365  0.0086 -0.0876
 7833SOL    HW134961   1.830   3.194   3.708 -0.5286  0.3548 -0.1720
 7833SOL    HW234962   1.753   3.240   3.588 -2.0462  0.0468  0.5464
 7834SOL     OW34963   0.577   2.129  12.697  0.4339 -0.2728 -0.0632
 7834SOL    HW134964   0.565   2.187  12.621 -1.2274  0.7993  1.0148
 7834SOL    HW234965   0.624   2.174  12.767 -2.0463  2.2479  0.0093
 7835SOL     OW34966   1.913   0.324   9.667 -0.0907  0.3775  0.5031
 7835SOL    HW134967   1.917   0.402   9.723 -2.0270 -0.2350  1.4736
 7835SOL    HW234968   1.818   0.329   9.660 -0.0986  0.7718  0.9353
 7836SOL     OW34969   2.394   3.303   1.954  0.8576  0.4727 -0.0253
 7836SOL    HW134970   2.396   3.228   1.894 -3.7688 -0.0885  0.4976
 7836SOL    HW234971   2.393   3.373   1.889 -0.1419  0.2786 -0.2258
 7837SOL     OW34972   2.614   2.838   4.620 -0.7017 -0.8969  0.8943
 7837SOL    HW134973   2.669   2.794   4.555 -1.9504 -1.3145  0.1092
 7837SOL    HW234974   2.565   2.760   4.647 -2.1333  0.6233  2.6964
 7838SOL     OW34975   3.918   4.331  15.252  0.4750  0.4710  0.5562
 7838SOL    HW134976   3.871   4.253  15.282 -1.9127  0.8480 -2.2114
 7838SOL    HW234977   3.951   4.374  15.331  1.9010  1.3947 -0.5648
 7839SOL     OW34978   0.720   3.335  16.168 -0.2914 -0.2029 -0.4886
 7839SOL    HW134979   0.634   3.359  16.133 -0.9330 -1.4453  0.2307
 7839SOL    HW234980   0.707   3.241  16.159 -2.2790  0.1289 -0.9380
 7840SOL     OW34981   1.112   2.668   1.313 -0.2378 -0.3584 -0.2434
 7840SOL    HW134982   1.191   2.669   1.258  0.1995  2.1200  0.4014
 7840SOL    HW234983   1.070   2.596   1.267  0.5197  0.1829 -1.7749
 7841SOL     OW34984   4.602   2.807   9.595 -0.1134  0.1783  0.1403
 7841SOL    HW134985   4.638   2.818   9.507 -0.4357  3.3892  0.3913
 7841SOL    HW234986   4.626   2.715   9.600  0.5134  0.3906  1.1010
 7842SOL     OW34987   4.596   2.366  17.500 -0.6568  0.0083  0.2162
 7842SOL    HW134988   4.632   2.278  17.510 -0.0256  0.4197  1.5792
 7842SOL    HW234989   4.566   2.379  17.410 -0.4005  0.5027  0.2016
 7843SOL     OW34990   0.696   0.498  16.160  0.3017  0.0270 -0.4024
 7843SOL    HW134991   0.633   0.513  16.089 -0.4383  0.2837  0.3209
 7843SOL    HW234992   0.723   0.586  16.184 -0.9846 -0.2106  1.8540
 7844SOL     OW34993   2.998   2.999  11.068 -0.1396 -0.9116 -0.7015
 7844SOL    HW134994   3.078   3.039  11.034 -0.3380  0.0786  0.0010
 7844SOL    HW234995   2.941   2.998  10.991 -2.6890 -2.2342  1.2044
 7845SOL     OW34996   3.935   3.067   1.941 -0.4554 -0.2652  0.0479
 7845SOL    HW134997   3.842   3.079   1.959 -0.1688  0.6241  0.9286
 7845SOL    HW234998   3.968   3.155   1.922 -2.0316 -0.3920 -3.3898
 7846SOL     OW34999   1.257   0.714   3.006  0.0219 -0.2575  0.0425
 7846SOL    HW135000   1.232   0.801   3.036 -2.3430 -1.0951  0.4714
 7846SOL    HW235001   1.170   0.673   3.001 -0.1549  0.1737 -0.3940
 7847SOL     OW35002   3.982   4.609   9.134 -0.6331  0.1696  0.2330
 7847SOL    HW135003   3.980   4.569   9.221  0.2641  0.9859  0.6277
 7847SOL    HW235004   3.891   4.611   9.104 -0.7633  0.4467  0.6440
 7848SOL     OW35005   3.120   2.650  17.145  0.3429 -0.3896  0.2137
 7848SOL    HW135006   3.075   2.571  17.113 -0.0069 -0.3713  0.6557
 7848SOL    HW235007   3.116   2.639  17.240 -0.0303 -0.4870  0.1891
 7849SOL     OW35008   3.942   3.656   2.583 -0.1268 -0.1125 -0.5273
 7849SOL    HW135009   3.993   3.578   2.560  1.0261  1.0705 -1.9272
 7849SOL    HW235010   3.879   3.650   2.511 -1.5686  2.4035  0.5326
 7850SOL     OW35011   4.259   3.988   6.566  0.8073  0.4431  0.0944
 7850SOL    HW135012   4.170   3.997   6.600 -0.2344 -1.5835 -2.0735
 7850SOL    HW235013   4.293   4.077   6.573 -1.2368  1.0660  2.1880
 7851SOL     OW35014   1.621   0.277   6.334 -0.2850 -0.4145 -0.2568
 7851SOL    HW135015   1.588   0.230   6.411  1.5278 -0.6909  0.3469
 7851SOL    HW235016   1.714   0.285   6.351 -0.2809 -2.2677  0.5562
 7852SOL     OW35017   2.756   3.504   6.772  0.5158  0.6556  0.0959
 7852SOL    HW135018   2.817   3.552   6.716  2.3047  0.7253  2.0856
 7852SOL    HW235019   2.728   3.434   6.713 -0.0277  0.0437  1.0752
 7853SOL     OW35020   0.728   2.906   7.411  0.0731  0.5601 -0.0875
 7853SOL    HW135021   0.766   2.820   7.425 -1.9202 -0.3557 -0.2348
 7853SOL    HW235022   0.783   2.940   7.340 -0.7800 -1.0020 -1.4820
 7854SOL     OW35023   2.868   3.340   1.121 -0.3845  0.1516 -0.5689
 7854SOL    HW135024   2.949   3.303   1.154 -0.9605  0.4174  1.1345
 7854SOL    HW235025   2.895   3.376   1.036 -1.5355  0.8858 -0.6357
 7855SOL     OW35026   0.933   2.541  15.604 -0.1392 -0.3642  0.4583
 7855SOL    HW135027   0.867   2.520  15.538  0.8803 -0.7137 -0.4535
 7855SOL    HW235028   0.898   2.491  15.678  1.1834 -2.3986 -0.2977
 7856SOL     OW35029   0.667   1.273  13.493 -0.0206  0.2429  0.1736
 7856SOL    HW135030   0.572   1.270  13.482  0.0369  0.4869 -0.4146
 7856SOL    HW235031   0.706   1.303  13.410 -0.2077  2.1141  0.7477
 7857SOL     OW35032   1.760   4.342   5.159  0.0199  0.0651 -0.6007
 7857SOL    HW135033   1.847   4.369   5.189  0.3956  0.4233 -2.0148
 7857SOL    HW235034   1.789   4.281   5.092 -1.0128 -1.6462  0.5208
 7858SOL     OW35035   2.802   4.631   8.745  0.0533  0.4537  0.9471
 7858SOL    HW135036   2.844   4.615   8.830  2.2695 -3.2594 -0.8602
 7858SOL    HW235037   2.820   0.001   8.737  0.6223  0.4526  2.1870
 7859SOL     OW35038   2.433   1.198  13.218  0.0890  0.3661 -0.1506
 7859SOL    HW135039   2.467   1.120  13.262  1.0349  0.5816 -0.5015
 7859SOL    HW235040   2.473   1.189  13.131 -1.4155  1.7638 -1.0003
 7860SOL     OW35041   4.065   3.963  13.559 -0.0733 -0.4211 -0.0679
 7860SOL    HW135042   3.970   3.954  13.552  0.1514 -1.8108 -1.2894
 7860SOL    HW235043   4.086   3.869  13.559  0.8632 -0.2105 -1.5556
 7861SOL     OW35044   3.943   0.458  10.595 -0.5502 -0.0310 -0.6567
 7861SOL    HW135045   3.920   0.532  10.650  0.6679 -0.5804  0.5837
 7861SOL    HW235046   4.019   0.435  10.648 -0.6244  1.4690  0.0889
 7862SOL     OW35047   2.683   1.876   6.227  0.1319 -0.1621 -0.0789
 7862SOL    HW135048   2.660   1.801   6.173  0.1571  1.1223 -1.8456
 7862SOL    HW235049   2.738   1.833   6.293  0.2767  0.7417  0.3942
 7863SOL     OW35050   1.325   2.103   0.954  1.1761  0.1858  0.1923
 7863SOL    HW135051   1.384   2.033   0.924  2.0495  0.5601  1.0748
 7863SOL    HW235052   1.347   2.096   1.046  0.2796  2.1006  0.5546
 7864SOL     OW35053   0.080   0.021   6.559 -0.7971 -0.5795 -0.0956
 7864SOL    HW135054   0.055   0.025   6.651  1.6522  1.1406  0.4825
 7864SOL    HW235055   0.149   4.678   6.553  0.2231  0.2710  2.3205
 7865SOL     OW35056   3.484   2.217   6.217  0.7538 -0.0195  0.8135
 7865SOL    HW135057   3.537   2.141   6.194  0.2138 -0.1021 -0.2025
 7865SOL    HW235058   3.511   2.266   6.139  2.6348 -1.0883  0.8001
 7866SOL     OW35059   0.944   3.554   2.110 -0.1013  0.5738  0.4959
 7866SOL    HW135060   0.899   3.504   2.179  0.2467  1.5064  1.3959
 7866SOL    HW235061   1.026   3.504   2.115 -0.6505 -0.2103  1.6950
 7867SOL     OW35062   3.187   2.526   5.782  0.1493 -0.6173 -0.0354
 7867SOL    HW135063   3.103   2.568   5.798 -0.1768 -0.9366 -0.9380
 7867SOL    HW235064   3.200   2.539   5.688 -2.9368  0.5782 -0.2737
 7868SOL     OW35065   2.726   0.784  14.673 -0.1764 -0.5118  0.6982
 7868SOL    HW135066   2.804   0.729  14.666  0.2417 -0.1109  2.1215
 7868SOL    HW235067   2.769   0.870  14.680  2.6402 -1.8681 -0.1267
 7869SOL     OW35068   3.144   0.204   2.443 -0.0865 -0.4948 -0.2682
 7869SOL    HW135069   3.127   0.269   2.375  0.1774  0.5527  0.6663
 7869SOL    HW235070   3.065   0.150   2.445  0.9381 -2.0375 -2.6924
 7870SOL     OW35071   2.666   2.628   3.518 -0.1589  0.2727  0.7727
 7870SOL    HW135072   2.622   2.650   3.436  1.5847 -1.1190 -0.5546
 7870SOL    HW235073   2.720   2.549   3.510  1.3720  0.9839  4.1501
 7871SOL     OW35074   0.314   0.506   8.990 -0.0827 -0.2556 -0.2100
 7871SOL    HW135075   0.399   0.468   9.011 -0.6456 -0.0115  2.4282
 7871SOL    HW235076   0.311   0.578   9.052  3.0011 -1.2306  1.0361
 7872SOL     OW35077   1.400   0.175   6.885  0.0548 -0.2239 -0.2331
 7872SOL    HW135078   1.445   0.146   6.964 -0.2286  0.2100  0.0862
 7872SOL    HW235079   1.339   0.239   6.922  0.2883 -0.2309  0.1682
 7873SOL     OW35080   3.448   1.987   2.305 -0.0320 -0.3385 -0.1275
 7873SOL    HW135081   3.541   2.000   2.320 -0.0835  0.5563 -0.5455
 7873SOL    HW235082   3.422   2.070   2.264 -0.6108 -0.0101  0.9209
 7874SOL     OW35083   0.975   2.379   4.132 -0.6305 -0.0336 -0.5839
 7874SOL    HW135084   1.062   2.343   4.152 -0.5398  1.6474  1.9983
 7874SOL    HW235085   0.917   2.326   4.186 -2.5721 -0.0885 -2.7595
 7875SOL     OW35086   2.941   2.912   7.260  0.0152 -0.1482 -0.3514
 7875SOL    HW135087   2.978   2.898   7.173  1.0479 -3.5166  0.6383
 7875SOL    HW235088   2.892   2.993   7.246  1.1852  0.5553 -0.3498
 7876SOL     OW35089   0.096   1.362  16.709 -0.2248 -0.1414 -0.0007
 7876SOL    HW135090   0.129   1.307  16.781  0.0807 -1.2262 -0.9737
 7876SOL    HW235091   0.167   1.424  16.694  1.8858 -2.6627 -0.5016
 7877SOL     OW35092   1.198   4.710   4.826 -0.0099 -0.2411 -0.3477
 7877SOL    HW135093   1.157   4.700   4.912 -1.7638 -1.8297 -1.3635
 7877SOL    HW235094   1.197   4.618   4.799 -1.3704 -0.9938  2.2328
 7878SOL     OW35095   4.576   4.466  14.335 -0.0041 -0.1798  0.1442
 7878SOL    HW135096   4.645   4.399  14.337 -0.2852 -0.5200 -1.0947
 7878SOL    HW235097   4.529   4.446  14.416 -0.6023 -2.3792 -0.7113
 7879SOL     OW35098   3.910   0.545   6.163 -0.6857  0.0209 -0.1123
 7879SOL    HW135099   3.887   0.632   6.130  3.5705  1.2069  0.0665
 7879SOL    HW235100   3.865   0.492   6.097  0.1757  0.4816 -1.0603
 7880SOL     OW35101   1.557   2.403   5.383 -0.4019 -0.0119  0.3541
 7880SOL    HW135102   1.582   2.371   5.469  2.9480  1.4582 -0.0691
 7880SOL    HW235103   1.622   2.373   5.319 -0.8243 -2.2318  0.9769
 7881SOL     OW35104   0.356   0.769  12.685  0.0891  0.0410 -0.2582
 7881SOL    HW135105   0.283   0.815  12.643  1.1199 -0.7989 -3.0222
 7881SOL    HW235106   0.335   0.761  12.778  1.0924 -1.4564 -0.1773
 7882SOL     OW35107   2.215   2.382   6.868  0.3792  0.0665 -0.2570
 7882SOL    HW135108   2.152   2.452   6.885  0.8731  0.6498 -0.8508
 7882SOL    HW235109   2.275   2.426   6.807 -0.2045  2.7083  1.0543
 7883SOL     OW35110   2.816   2.346  13.938  0.7917 -1.1240  0.0745
 7883SOL    HW135111   2.817   2.267  13.992 -3.4868 -0.4613  1.1773
 7883SOL    HW235112   2.889   2.335  13.878 -0.9590  1.3361 -2.5440
 7884SOL     OW35113   2.083   3.820   2.235  0.3338  0.1980  0.0215
 7884SOL    HW135114   2.054   3.799   2.146  2.2376 -1.5676 -0.1967
 7884SOL    HW235115   2.051   3.746   2.288  1.5896 -0.5154 -0.2127
 7885SOL     OW35116   1.205   1.471   6.286 -0.4838 -0.7477  0.2385
 7885SOL    HW135117   1.111   1.488   6.285 -0.7923 -2.5355 -0.3854
 7885SOL    HW235118   1.237   1.555   6.254  0.3128 -0.9860  0.4261
 7886SOL     OW35119   0.545   4.047   5.243  0.3817 -0.3121  0.6707
 7886SOL    HW135120   0.562   4.104   5.167 -1.1793  1.2155  1.4798
 7886SOL    HW235121   0.587   3.964   5.220 -1.0846 -0.3852 -1.7467
 7887SOL     OW35122   0.251   2.675   5.672  0.3630  0.1707 -0.4167
 7887SOL    HW135123   0.192   2.693   5.599  0.5325  0.2623 -0.5302
 7887SOL    HW235124   0.250   2.579   5.674 -0.8219  0.2098  0.9307
 7888SOL     OW35125   2.740   1.175   9.709 -0.5357 -0.1079  0.6244
 7888SOL    HW135126   2.691   1.257   9.701  1.4614  0.7900 -2.3435
 7888SOL    HW235127   2.809   1.180   9.643 -0.6908 -1.8699  0.3410
 7889SOL     OW35128   2.851   0.813   4.690  0.0814  0.3190 -0.2985
 7889SOL    HW135129   2.892   0.808   4.604  0.5305 -1.2108  0.0134
 7889SOL    HW235130   2.869   0.901   4.721 -0.3379  0.7314 -1.2329
 7890SOL     OW35131   3.827   3.726   3.070 -0.1819  0.0654 -0.9214
 7890SOL    HW135132   3.813   3.634   3.095 -0.1754  0.5534  0.9123
 7890SOL    HW235133   3.891   3.718   2.999 -0.5254 -1.6891 -1.0445
 7891SOL     OW35134   0.561   4.691   8.278  0.6089 -0.1489 -0.4733
 7891SOL    HW135135   0.553   4.598   8.257  1.3361 -0.6810  1.6256
 7891SOL    HW235136   0.555   4.721   8.187 -1.5433  0.0414 -0.2505
 7892SOL     OW35137   3.030   4.055   7.742 -0.1272  0.2109 -0.4548
 7892SOL    HW135138   2.992   4.087   7.661 -0.9050 -1.3275 -0.7024
 7892SOL    HW235139   2.952   4.009   7.774 -0.3329 -0.0804 -1.3889
 7893SOL     OW35140   1.233   2.573   3.954 -0.0762  0.2257 -0.2915
 7893SOL    HW135141   1.310   2.518   3.968  0.0138  0.4707  0.1427
 7893SOL    HW235142   1.244   2.607   3.865 -0.1386 -0.0533 -0.4075
 7894SOL     OW35143   1.147   3.344  12.875 -0.1897 -0.0895  0.2666
 7894SOL    HW135144   1.111   3.274  12.820  2.0511 -0.4572 -0.7455
 7894SOL    HW235145   1.092   3.421  12.858  0.3143  0.9205  3.2304
 7895SOL     OW35146   0.771   3.425   0.595 -0.3204  0.3510 -0.1052
 7895SOL    HW135147   0.766   3.342   0.641 -1.2256  0.3070 -0.2794
 7895SOL    HW235148   0.865   3.424   0.574 -0.4566  0.7716 -0.7417
 7896SOL     OW35149   2.047   1.724  14.566  0.1026  0.3419 -0.3637
 7896SOL    HW135150   1.973   1.785  14.558 -0.5128 -0.4010 -0.3285
 7896SOL    HW235151   2.080   1.732  14.477 -0.9131 -0.5981 -0.8287
 7897SOL     OW35152   0.041   0.189   4.941  0.8463 -0.2845 -0.1974
 7897SOL    HW135153   0.112   0.206   4.879  0.5959  0.5521 -0.2595
 7897SOL    HW235154   0.085   0.177   5.025  2.6548  0.3212 -1.0519
 7898SOL     OW35155   4.255   2.855   3.237 -0.4398 -0.4296  0.6811
 7898SOL    HW135156   4.175   2.892   3.200 -0.1029 -1.8231 -1.3741
 7898SOL    HW235157   4.301   2.935   3.262  1.0557 -1.3395  0.8611
 7899SOL     OW35158   2.657   2.346  12.629  0.0946  0.2857  0.1777
 7899SOL    HW135159   2.603   2.274  12.594  0.9444  0.0039 -0.5583
 7899SOL    HW235160   2.695   2.298  12.703  1.3567  0.2638 -0.4832
 7900SOL     OW35161   0.694   0.860   7.113  0.1779  0.5795 -1.1632
 7900SOL    HW135162   0.610   0.815   7.123 -0.9910  2.7276 -1.1825
 7900SOL    HW235163   0.662   0.948   7.090 -0.8788  0.2017 -1.1112
 7901SOL     OW35164   2.591   1.871   4.674 -0.2880 -0.6432 -0.0098
 7901SOL    HW135165   2.568   1.930   4.746  1.9556 -0.4815  0.5755
 7901SOL    HW235166   2.503   1.864   4.638  0.3068  0.6759 -1.7294
 7902SOL     OW35167   1.571   1.080   1.636 -0.2538 -0.3121 -0.1385
 7902SOL    HW135168   1.481   1.081   1.670 -0.9355 -1.3646 -1.9037
 7902SOL    HW235169   1.596   0.998   1.677  0.8262 -0.5893 -1.3504
 7903SOL     OW35170   3.248   0.676  10.212 -0.5800 -0.4098  0.4319
 7903SOL    HW135171   3.215   0.593  10.246  1.8857 -0.4924  2.6447
 7903SOL    HW235172   3.173   0.698  10.158 -1.2868 -1.6240  0.9347
 7904SOL     OW35173   1.459   4.430   5.848 -0.0682 -0.4684  0.3566
 7904SOL    HW135174   1.397   4.444   5.920 -2.0488 -1.0698 -1.2241
 7904SOL    HW235175   1.521   4.499   5.868  1.6187 -1.3688 -1.8347
 7905SOL     OW35176   1.288   2.324   4.702  0.8945  0.4691 -0.0068
 7905SOL    HW135177   1.218   2.294   4.643  0.9682  0.3026 -0.0078
 7905SOL    HW235178   1.328   2.399   4.658 -0.0309  0.2420 -1.2568
 7906SOL     OW35179   2.507   4.469   3.848  0.2715 -0.3559  0.7725
 7906SOL    HW135180   2.525   4.524   3.925  0.6285  1.9372 -0.9653
 7906SOL    HW235181   2.518   4.537   3.782 -0.4910 -1.5165 -0.5461
 7907SOL     OW35182   0.497   0.254   1.533 -0.2442  0.2013 -0.8285
 7907SOL    HW135183   0.434   0.219   1.470 -0.2803 -2.4698  0.6805
 7907SOL    HW235184   0.565   0.187   1.526 -1.4641 -1.1546  0.1518
 7908SOL     OW35185   2.540   4.289   0.563  0.6351  0.0633 -0.3559
 7908SOL    HW135186   2.604   4.268   0.630  0.1598  0.9929  0.3973
 7908SOL    HW235187   2.595   4.273   0.486 -0.9757 -1.0803 -1.2839
 7909SOL     OW35188   0.404   3.601   6.436  0.6613 -0.0400  0.7758
 7909SOL    HW135189   0.382   3.693   6.454 -0.5771  0.1220 -1.5453
 7909SOL    HW235190   0.434   3.558   6.516  0.7791 -0.4477  0.5141
 7910SOL     OW35191   0.085   2.500  14.955  0.8722  0.1439 -0.1063
 7910SOL    HW135192   4.715   2.489  14.942  0.7631  1.3149 -0.3234
 7910SOL    HW235193   0.112   2.408  14.962  0.3619  0.1070  1.2803
 7911SOL     OW35194   0.115   1.633  10.842 -0.4293 -0.0239 -0.5197
 7911SOL    HW135195   0.155   1.549  10.865  0.0792  0.4065  0.1491
 7911SOL    HW235196   0.082   1.661  10.928  0.7674 -1.2843  0.3441
 7912SOL     OW35197   0.840   2.988  10.332  0.1639  1.0331  0.2111
 7912SOL    HW135198   0.834   2.915  10.272  1.5659 -0.0575  1.3982
 7912SOL    HW235199   0.861   2.936  10.410  0.4678  0.2559 -0.3964
 7913SOL     OW35200   3.596   4.538   1.731  0.4256  0.3325 -0.1171
 7913SOL    HW135201   3.688   4.543   1.755  1.1129  0.7359 -2.8758
 7913SOL    HW235202   3.569   4.571   1.816  1.8465  0.7977  0.1405
 7914SOL     OW35203   1.632   2.641   5.557  0.5800 -0.1527 -0.5773
 7914SOL    HW135204   1.638   2.734   5.536  1.6054 -0.5598 -2.1301
 7914SOL    HW235205   1.635   2.600   5.470 -0.2415  2.5439 -1.8937
 7915SOL     OW35206   2.071   4.559  12.814 -0.2992 -0.6018 -0.2299
 7915SOL    HW135207   2.140   4.609  12.771 -0.7562  1.8197  1.8568
 7915SOL    HW235208   2.004   4.625  12.834  0.8693  0.8107 -0.9759
 7916SOL     OW35209   4.243   3.118   8.243  0.6685  0.0245 -0.1247
 7916SOL    HW135210   4.157   3.112   8.203  0.4516 -1.6795  0.5942
 7916SOL    HW235211   4.217   3.166   8.322 -0.1024 -1.7574  0.7019
 7917SOL     OW35212   3.722   2.132   9.131  0.1491 -0.3914 -0.0223
 7917SOL    HW135213   3.676   2.121   9.049  1.8881 -0.6060 -0.9730
 7917SOL    HW235214   3.763   2.217   9.116 -0.1803 -0.2619 -0.1897
 7918SOL     OW35215   1.465   3.380   9.002  0.2585 -0.4405 -0.1553
 7918SOL    HW135216   1.379   3.380   9.045 -1.2229  0.6159 -3.1269
 7918SOL    HW235217   1.511   3.441   9.059 -0.4459  1.7810 -1.9931
 7919SOL     OW35218   2.891   1.140   5.088  0.1473 -0.4355  0.1912
 7919SOL    HW135219   2.927   1.068   5.140  1.3168 -0.8808 -1.2430
 7919SOL    HW235220   2.966   1.198   5.088 -0.5804  0.5380  3.0280
 7920SOL     OW35221   1.476   3.923   4.675  0.7745 -0.4990 -0.0521
 7920SOL    HW135222   1.446   3.833   4.662  1.5116 -0.3226 -2.9166
 7920SOL    HW235223   1.401   3.980   4.656  2.0443  0.6090 -1.6861
 7921SOL     OW35224   4.526   2.622  13.838 -0.3338  0.6133 -0.0966
 7921SOL    HW135225   4.483   2.558  13.782  0.8115 -0.4595  0.2565
 7921SOL    HW235226   4.453   2.671  13.877  1.5441  1.5557  2.2840
 7922SOL     OW35227   1.752   2.081  15.567 -0.3588 -0.3154 -0.1648
 7922SOL    HW135228   1.791   2.014  15.511 -2.9496  0.3507 -2.7445
 7922SOL    HW235229   1.668   2.040  15.587 -1.1026  2.0577  1.5799
 7923SOL     OW35230   0.997   3.709  12.762  0.6355 -0.2015 -0.0989
 7923SOL    HW135231   0.949   3.627  12.771 -1.9601  1.1454 -1.7311
 7923SOL    HW235232   0.938   3.769  12.717 -0.7939 -1.5496 -0.0175
 7924SOL     OW35233   4.627   1.180   5.897  0.3191 -0.3700  0.1741
 7924SOL    HW135234   4.702   1.121   5.902  0.5573 -0.0893 -0.1291
 7924SOL    HW235235   4.659   1.252   5.951 -0.4106  1.0958 -1.3414
 7925SOL     OW35236   0.389   3.434   2.026 -0.3931  0.0936 -0.4083
 7925SOL    HW135237   0.302   3.404   2.000 -0.5128 -0.9261  1.1121
 7925SOL    HW235238   0.414   3.490   1.953  0.6833  0.1556  0.0090
 7926SOL     OW35239   1.665   1.460  11.475 -0.2193  0.0256  0.1558
 7926SOL    HW135240   1.572   1.447  11.456  0.1946  0.3459 -2.1189
 7926SOL    HW235241   1.685   1.508  11.395  1.4985 -0.9941 -0.0074
 7927SOL     OW35242   0.631   3.190   0.994 -0.5118  0.1683  0.3236
 7927SOL    HW135243   0.635   3.098   0.967 -0.6553 -0.5681  2.7945
 7927SOL    HW235244   0.582   3.233   0.923 -0.4840 -0.8239 -0.3012
 7928SOL     OW35245   2.215   1.972   2.060 -0.4276  0.5619  0.3372
 7928SOL    HW135246   2.155   2.017   2.119 -0.7088  0.2439  0.2922
 7928SOL    HW235247   2.174   1.886   2.046  2.1173 -0.5647 -0.3264
 7929SOL     OW35248   0.224   4.621   3.762  0.1169 -0.4467  0.0173
 7929SOL    HW135249   0.292   4.663   3.709  0.7159  0.6798  1.6833
 7929SOL    HW235250   0.144   4.635   3.712  1.5155  0.1855 -2.0682
 7930SOL     OW35251   0.029   1.371   9.023  0.2487  0.1781 -0.1959
 7930SOL    HW135252   0.084   1.366   8.945 -0.6223  1.2495 -0.8822
 7930SOL    HW235253   0.020   1.467   9.018  1.6774  0.3626  0.7602
 7931SOL     OW35254   1.381   1.022  11.998 -0.1379 -0.1829 -0.3467
 7931SOL    HW135255   1.325   1.094  12.028 -2.2688 -2.0968  0.2692
 7931SOL    HW235256   1.462   1.016  12.049 -0.5445  0.6741  0.3932
 7932SOL     OW35257   0.517   0.011   1.089  0.1050  0.1128 -0.2538
 7932SOL    HW135258   0.541   0.013   0.996  0.9636 -2.0686 -0.0741
 7932SOL    HW235259   0.569   0.085   1.120 -0.4132  0.6458 -0.6463
 7933SOL     OW35260   1.714   2.655   5.240 -0.0560 -0.3335 -0.6167
 7933SOL    HW135261   1.709   2.575   5.188  0.4172 -0.9065  0.2343
 7933SOL    HW235262   1.639   2.695   5.195 -0.8729  0.4536  1.4572
 7934SOL     OW35263   2.621   1.071   8.504  0.1156  0.6058  0.1994
 7934SOL    HW135264   2.536   1.104   8.533 -0.8705  1.5800 -3.7898
 7934SOL    HW235265   2.636   1.110   8.418 -1.0173 -2.8840 -1.6096
 7935SOL     OW35266   3.998   4.440   5.356 -0.1757  0.0487  0.5891
 7935SOL    HW135267   3.965   4.491   5.282  0.8988  2.0921  1.5198
 7935SOL    HW235268   3.990   4.356   5.311  2.1583  0.3903 -0.4353
 7936SOL     OW35269   3.797   2.029  16.289 -0.1215  0.0149 -0.2025
 7936SOL    HW135270   3.892   2.032  16.291 -0.1164 -0.4861  0.4048
 7936SOL    HW235271   3.793   1.945  16.335  0.7603  0.3505  0.4806
 7937SOL     OW35272   0.744   2.588   8.288  0.6384 -0.1987 -0.1163
 7937SOL    HW135273   0.775   2.665   8.239 -0.4641 -1.9253 -3.4874
 7937SOL    HW235274   0.649   2.594   8.288  0.5068 -2.4708  1.1104
 7938SOL     OW35275   3.370   2.321   3.230 -0.0073 -0.0003 -0.2782
 7938SOL    HW135276   3.367   2.380   3.306 -1.0932  0.3603 -0.6006
 7938SOL    HW235277   3.276   2.305   3.221 -0.6686  2.8038  1.5014
 7939SOL     OW35278   4.087   1.949   7.275  0.2687 -0.2530 -0.5041
 7939SOL    HW135279   4.049   1.933   7.362  0.4015 -0.8586 -0.5583
 7939SOL    HW235280   4.021   2.012   7.246 -0.9328 -0.4701  1.7404
 7940SOL     OW35281   3.818   2.587   6.450 -0.1486 -0.0480 -0.1565
 7940SOL    HW135282   3.781   2.503   6.478  0.1242  0.0547  0.5094
 7940SOL    HW235283   3.859   2.546   6.374 -0.4279 -1.2085  0.3097
 7941SOL     OW35284   0.585   1.419   5.939  0.4202  0.2548  0.1501
 7941SOL    HW135285   0.659   1.398   5.883  0.9228  0.8874  0.5933
 7941SOL    HW235286   0.572   1.335   5.984  1.5509 -0.3887 -0.7389
 7942SOL     OW35287   0.007   2.278   3.034  0.3639  0.2206  0.4066
 7942SOL    HW135288   4.711   2.194   2.992 -0.0009  0.4055  0.2097
 7942SOL    HW235289   0.098   2.259   3.056 -0.0401 -1.9625  0.2242
 7943SOL     OW35290   0.247   0.576  12.902 -0.1268 -0.3233  0.2219
 7943SOL    HW135291   0.246   0.547  12.993  0.3712 -0.8234  0.0767
 7943SOL    HW235292   0.291   0.661  12.906 -0.0579 -0.2686 -1.4840
 7944SOL     OW35293   3.891   0.940   4.171  0.2064 -0.0338  0.3893
 7944SOL    HW135294   3.849   1.016   4.129  1.9144  1.1949  0.9046
 7944SOL    HW235295   3.826   0.872   4.154  0.4411  0.2667 -1.7596
 7945SOL     OW35296   1.140   1.680   5.565 -0.0555  0.0966  0.0338
 7945SOL    HW135297   1.132   1.589   5.537 -1.9102 -0.3539  2.0243
 7945SOL    HW235298   1.163   1.666   5.657 -0.2731  1.4529  0.2970
 7946SOL     OW35299   3.643   1.075   4.646  0.3497 -0.5597  0.3126
 7946SOL    HW135300   3.559   1.032   4.631  0.0014  0.7887 -1.6176
 7946SOL    HW235301   3.663   1.091   4.554 -1.1697  0.9799  0.2563
 7947SOL     OW35302   2.560   2.195   5.176 -0.2558  0.1013 -0.2821
 7947SOL    HW135303   2.595   2.283   5.164  0.2307  0.2419  2.1940
 7947SOL    HW235304   2.604   2.163   5.255  2.4054 -1.7499 -2.4678
 7948SOL     OW35305   2.913   2.569   3.251  0.3076  0.5716 -0.1557
 7948SOL    HW135306   2.958   2.485   3.251  1.3367  1.1296 -1.1601
 7948SOL    HW235307   2.918   2.593   3.158 -0.1665 -1.5371 -0.7130
 7949SOL     OW35308   0.874   1.987   4.486 -0.4804  0.3942  0.1970
 7949SOL    HW135309   0.954   1.980   4.435 -1.3031 -2.1582 -0.7506
 7949SOL    HW235310   0.803   1.996   4.422 -0.5952 -0.1939  0.2463
 7950SOL     OW35311   3.509   2.540  11.504 -0.1214 -0.0319 -0.4206
 7950SOL    HW135312   3.482   2.524  11.594 -1.1541 -1.5526 -0.9988
 7950SOL    HW235313   3.539   2.630  11.501 -2.7141  0.9109  2.0841
 7951SOL     OW35314   1.149   1.672  12.173 -0.2189 -0.5098  0.3086
 7951SOL    HW135315   1.087   1.649  12.104  1.8756  2.8415 -2.7026
 7951SOL    HW235316   1.088   1.716  12.233  0.7425  2.7177 -1.0997
 7952SOL     OW35317   1.268   3.361   7.960  0.1100  0.1512 -0.6933
 7952SOL    HW135318   1.281   3.455   7.951 -0.7957  0.1643 -1.8105
 7952SOL    HW235319   1.269   3.342   7.866  1.1253 -0.0102 -0.6495
 7953SOL     OW35320   2.686   0.124   4.167  0.6891  0.3876  0.5235
 7953SOL    HW135321   2.739   0.165   4.099 -1.3657  1.9361 -0.1378
 7953SOL    HW235322   2.677   0.197   4.228 -2.0197  1.2752 -0.9121
 7954SOL     OW35323   1.716   1.757   7.753 -0.2882  0.2084  0.4829
 7954SOL    HW135324   1.728   1.672   7.795 -1.2233 -1.0313 -1.7563
 7954SOL    HW235325   1.622   1.775   7.749 -0.2936  0.2321  0.6911
 7955SOL     OW35326   3.181   2.912   5.767  0.7024 -0.1428 -0.3272
 7955SOL    HW135327   3.117   2.981   5.746  0.0762 -0.2505  1.1690
 7955SOL    HW235328   3.125   2.844   5.805  0.2597 -0.0437 -0.7958
 7956SOL     OW35329   1.437   3.561   3.196  0.1464  0.2990  0.3051
 7956SOL    HW135330   1.399   3.596   3.277  3.0271  0.1324  1.7119
 7956SOL    HW235331   1.369   3.586   3.133 -0.4037 -0.4892  0.5777
 7957SOL     OW35332   4.282   4.095  13.408 -0.2344  0.3844 -0.3290
 7957SOL    HW135333   4.277   4.188  13.427  1.2326  0.1493  1.2304
 7957SOL    HW235334   4.206   4.060  13.454  0.5450 -3.2591 -1.7789
 7958SOL     OW35335   4.152   4.412   4.038 -0.5153  0.5194  0.4123
 7958SOL    HW135336   4.111   4.326   4.042  0.0698  0.2681  0.9972
 7958SOL    HW235337   4.086   4.451   3.980 -0.7714  1.9677  1.6743
 7959SOL     OW35338   3.087   3.645   2.429 -0.0849 -0.6627  0.6693
 7959SOL    HW135339   2.999   3.682   2.415 -0.6779 -1.8055  1.3216
 7959SOL    HW235340   3.059   3.555   2.444 -1.7985 -0.1464  0.6596
 7960SOL     OW35341   3.536   2.945  17.208  0.3941 -0.1476 -0.1028
 7960SOL    HW135342   3.488   2.947  17.125  0.1198 -1.6978  0.0124
 7960SOL    HW235343   3.463   2.928  17.267  1.6971  0.5457  1.7230
 7961SOL     OW35344   1.816   3.755   8.334  0.9469 -0.8038 -0.0241
 7961SOL    HW135345   1.757   3.816   8.377 -0.2491 -0.1069 -2.6416
 7961SOL    HW235346   1.783   3.759   8.244  1.1549 -0.8243 -0.1011
 7962SOL     OW35347   0.415   0.591  16.693 -0.0406 -0.4604 -0.0200
 7962SOL    HW135348   0.392   0.502  16.668 -0.0502 -0.2452 -0.7812
 7962SOL    HW235349   0.496   0.574  16.742 -1.6808 -3.4306  1.6244
 7963SOL     OW35350   1.528   3.385   5.578 -0.1450 -0.1621 -0.1978
 7963SOL    HW135351   1.545   3.448   5.508  0.5066 -0.5140 -0.3608
 7963SOL    HW235352   1.477   3.424   5.649  0.6206 -2.8303  1.8154
 7964SOL     OW35353   2.444   3.414   2.802 -0.8965  0.0179  0.2580
 7964SOL    HW135354   2.486   3.447   2.882 -1.1435  2.9735 -0.8529
 7964SOL    HW235355   2.453   3.323   2.832 -1.1588  0.1606  0.7652
 7965SOL     OW35356   3.161   4.424  10.812  0.0686 -0.2960  0.2402
 7965SOL    HW135357   3.102   4.404  10.739 -0.3616 -1.2470  0.8521
 7965SOL    HW235358   3.127   4.503  10.854 -0.7795  0.3429 -1.6759
 7966SOL     OW35359   2.454   0.485   8.096 -0.1381  0.0166 -0.2887
 7966SOL    HW135360   2.531   0.486   8.153  0.5581 -2.6779 -1.2034
 7966SOL    HW235361   2.490   0.447   8.016 -2.5562  1.5913 -2.1356
 7967SOL     OW35362   2.165   3.659   8.517 -1.1655  0.2067 -0.8710
 7967SOL    HW135363   2.161   3.739   8.569  2.0177  0.0564 -0.4041
 7967SOL    HW235364   2.130   3.590   8.574  2.1847 -1.6776 -1.0552
 7968SOL     OW35365   4.274   3.218  16.012 -0.2097  0.0294  0.3710
 7968SOL    HW135366   4.288   3.180  15.925 -0.5218 -0.7721  0.6699
 7968SOL    HW235367   4.355   3.196  16.059  0.5761  1.2953 -0.3847
 7969SOL     OW35368   3.989   0.705   6.659 -0.4272  0.0991 -0.0589
 7969SOL    HW135369   4.002   0.764   6.734  1.6156 -1.1960  0.6048
 7969SOL    HW235370   3.950   0.769   6.599 -0.2271 -0.7543 -1.0860
 7970SOL     OW35371   2.991   4.126  14.222  0.6380  0.2477  0.2277
 7970SOL    HW135372   3.031   4.161  14.143 -2.5747 -1.2581 -2.0327
 7970SOL    HW235373   3.027   4.184  14.290 -0.1740  1.0639 -0.0409
 7971SOL     OW35374   1.490   1.754   1.601  0.4066  0.0410  0.6601
 7971SOL    HW135375   1.512   1.688   1.667 -2.3929  3.4803  5.0086
 7971SOL    HW235376   1.455   1.702   1.528 -0.7508  2.0237 -0.1881
 7972SOL     OW35377   0.525   4.054  10.632  0.4011 -0.0986  0.6163
 7972SOL    HW135378   0.599   4.009  10.591 -0.6131  1.1956 -2.6401
 7972SOL    HW235379   0.541   4.012  10.716 -0.8186  0.4640  1.1235
 7973SOL     OW35380   2.946   4.266   6.882 -0.2920 -0.1548  0.1167
 7973SOL    HW135381   2.888   4.337   6.855  0.1674 -0.5129 -1.8155
 7973SOL    HW235382   2.900   4.184   6.862 -1.3131  1.2094 -3.0498
 7974SOL     OW35383   1.014   2.062  16.885  0.5133 -0.2320 -0.1613
 7974SOL    HW135384   0.945   2.020  16.833 -0.2857  0.5201  0.2991
 7974SOL    HW235385   1.086   2.005  16.856 -0.1579 -2.0768  1.7784
 7975SOL     OW35386   1.877   4.321   4.334  0.3518  0.0471 -0.0489
 7975SOL    HW135387   1.845   4.368   4.257  0.4404  1.0286  0.5210
 7975SOL    HW235388   1.909   4.242   4.289 -1.1173 -0.5792 -0.0071
 7976SOL     OW35389   3.408   4.146  16.791  0.3358  0.2714 -0.1505
 7976SOL    HW135390   3.473   4.084  16.757  3.3090  3.3388 -0.1069
 7976SOL    HW235391   3.329   4.149  16.738  1.1308  1.7559 -1.2668
 7977SOL     OW35392   3.111   3.983  15.791  0.2544  0.0068  0.1691
 7977SOL    HW135393   3.108   3.894  15.826 -2.0952  1.5127  3.8377
 7977SOL    HW235394   3.104   4.039  15.869 -1.4259 -0.7361  0.5613
 7978SOL     OW35395   2.981   1.657   8.167 -0.4120  0.3075  0.0409
 7978SOL    HW135396   2.975   1.752   8.157 -0.1981 -0.0343 -3.2054
 7978SOL    HW235397   2.897   1.646   8.213 -0.0490  0.1881  0.6708
 7979SOL     OW35398   2.092   3.040   9.967 -0.4830  0.0197  0.4627
 7979SOL    HW135399   2.065   3.090  10.043 -1.4469 -0.3568  0.3686
 7979SOL    HW235400   2.006   3.024   9.929 -0.4914 -0.7886  0.8169
 7980SOL     OW35401   3.886   4.458   8.117  0.8427  0.2674  0.1976
 7980SOL    HW135402   3.868   4.375   8.072 -1.7058  0.0044  1.7191
 7980SOL    HW235403   3.816   4.510   8.079  0.4321 -1.2845 -1.1907
 7981SOL     OW35404   0.577   2.304  12.058 -0.3724  0.3034 -0.0020
 7981SOL    HW135405   0.592   2.381  12.002 -2.1248 -1.2718 -2.6653
 7981SOL    HW235406   0.589   2.352  12.140  2.2914 -0.5093  0.0623
 7982SOL     OW35407   1.212   0.564  17.074  0.1957  0.2996 -0.3518
 7982SOL    HW135408   1.150   0.628  17.109  0.5474 -0.2309  1.2868
 7982SOL    HW235409   1.152   0.490  17.065 -1.4543  1.4808  0.9942
 7983SOL     OW35410   1.623   0.361  10.913  0.8318 -0.0685 -0.1193
 7983SOL    HW135411   1.647   0.314  10.992 -0.1922  1.0308  0.8391
 7983SOL    HW235412   1.676   0.440  10.927  0.5029  0.0600  0.3732
 7984SOL     OW35413   4.537   2.205   5.437 -0.2246 -0.0767 -0.6458
 7984SOL    HW135414   4.571   2.289   5.408  2.7873 -1.2641 -0.4935
 7984SOL    HW235415   4.510   2.232   5.525  0.5031 -1.2440 -0.0583
 7985SOL     OW35416   4.221   0.651   1.712  0.0422 -0.0378  0.5387
 7985SOL    HW135417   4.167   0.727   1.690 -0.9297 -1.2380 -1.2093
 7985SOL    HW235418   4.301   0.663   1.661 -1.7423 -2.1933 -2.7379
 7986SOL     OW35419   1.033   2.679   2.858  0.2257  0.2101  0.0482
 7986SOL    HW135420   1.086   2.649   2.784 -0.7943 -0.1802 -0.5290
 7986SOL    HW235421   1.042   2.610   2.923 -2.3563 -0.3982 -0.2481
 7987SOL     OW35422   2.756   4.232  14.231 -0.0535 -0.1230 -0.1562
 7987SOL    HW135423   2.846   4.200  14.241  0.9487  2.1732 -1.8723
 7987SOL    HW235424   2.729   4.222  14.322  1.2280 -1.3368  0.0922
 7988SOL     OW35425   3.123   0.089   4.208  0.4349 -0.5563  0.5651
 7988SOL    HW135426   3.101   0.032   4.281 -1.4843  0.8963  1.1340
 7988SOL    HW235427   3.058   0.156   4.231 -1.2827 -2.1373  0.2977
 7989SOL     OW35428   4.177   4.374   2.868  0.2143 -0.3916 -0.1671
 7989SOL    HW135429   4.242   4.434   2.832  0.8351 -2.1234 -1.9051
 7989SOL    HW235430   4.232   4.309   2.911 -1.1835 -1.7456 -0.4404
 7990SOL     OW35431   2.099   1.398   3.946 -0.5326  0.5165  0.2076
 7990SOL    HW135432   2.064   1.444   4.023 -0.3977 -1.3236  1.3855
 7990SOL    HW235433   2.187   1.435   3.947  0.0073 -0.7855 -1.1194
 7991SOL     OW35434   3.371   0.701   4.162  0.3014 -0.0446  0.2453
 7991SOL    HW135435   3.397   0.609   4.156 -0.6995 -0.2985 -0.2574
 7991SOL    HW235436   3.292   0.685   4.214  0.2598  0.4181  0.3258
 7992SOL     OW35437   1.403   0.457   7.458 -0.7517 -0.3112 -0.0026
 7992SOL    HW135438   1.427   0.540   7.418  0.2818 -0.0510  1.1997
 7992SOL    HW235439   1.478   0.443   7.515  1.9855  2.0950 -3.0520
 7993SOL     OW35440   1.993   2.848   4.153 -0.1945 -0.7431 -0.0348
 7993SOL    HW135441   2.064   2.909   4.172 -1.3881  1.2981 -2.1765
 7993SOL    HW235442   2.007   2.784   4.222 -3.2936 -0.8307  0.5184
 7994SOL     OW35443   2.084   2.403   5.626 -0.5065 -0.4190 -0.0563
 7994SOL    HW135444   2.039   2.344   5.566  0.7594  0.5821 -2.0026
 7994SOL    HW235445   2.064   2.371   5.714 -0.8734  0.8661  0.3257
 7995SOL     OW35446   1.893   0.814   9.806 -0.3593 -0.2501  0.0088
 7995SOL    HW135447   1.966   0.815   9.745 -0.6728 -0.7902 -0.3732
 7995SOL    HW235448   1.907   0.739   9.865  0.0404 -0.0100  0.2203
 7996SOL     OW35449   0.752   3.531  15.408  0.1264 -0.0991  0.0478
 7996SOL    HW135450   0.805   3.610  15.401 -0.1989  0.1945  0.9117
 7996SOL    HW235451   0.667   3.573  15.395  0.9328  1.7919  0.7908
 7997SOL     OW35452   0.085   1.383  11.060  0.1879 -0.1123  0.3457
 7997SOL    HW135453   0.180   1.378  11.066  0.1270  0.6286  1.9927
 7997SOL    HW235454   0.057   1.310  11.115  0.1081  0.7024  1.4014
 7998SOL     OW35455   3.263   2.927  17.286 -0.2128 -0.3363  0.4668
 7998SOL    HW135456   3.181   2.950  17.242 -0.4588  2.0835  2.1938
 7998SOL    HW235457   3.243   2.833  17.289  1.1674 -0.6238  0.6107
 7999SOL     OW35458   0.652   1.619   7.086 -0.1379  0.4213 -0.2573
 7999SOL    HW135459   0.684   1.578   7.166 -1.4114 -2.0872 -1.0291
 7999SOL    HW235460   0.718   1.688   7.087  0.1854  0.1374 -2.4131
 8000SOL     OW35461   2.806   3.455   1.359 -0.4014  0.3449 -0.7277
 8000SOL    HW135462   2.836   3.383   1.416  0.5105  0.0502 -1.5896
 8000SOL    HW235463   2.836   3.421   1.275 -0.2878 -0.0439 -0.5275
 8001SOL     OW35464   4.001   2.813   1.046  0.0685  0.1813 -0.0587
 8001SOL    HW135465   3.926   2.769   1.084  0.5412 -1.5762 -1.1403
 8001SOL    HW235466   4.012   2.890   1.101  1.6772 -0.3705  0.4163
 8002SOL     OW35467   0.241   2.892   8.688  0.0306  0.1825 -0.0410
 8002SOL    HW135468   0.325   2.931   8.664  0.0576  1.8450  2.8003
 8002SOL    HW235469   0.222   2.834   8.615  0.3996 -0.5344  0.4281
 8003SOL     OW35470   3.616   0.522   7.223  0.5831  0.1310 -0.7102
 8003SOL    HW135471   3.638   0.615   7.220 -4.3044  1.3043 -0.6836
 8003SOL    HW235472   3.692   0.479   7.183  3.3417  1.1947  3.4571
 8004SOL     OW35473   1.841   1.564   1.320  0.3094  0.1722 -0.0403
 8004SOL    HW135474   1.813   1.474   1.342 -0.3058  0.6637  1.2091
 8004SOL    HW235475   1.899   1.548   1.246 -2.2636  0.4051 -2.1350
 8005SOL     OW35476   1.386   0.045   4.342  0.6957  0.4150 -0.2370
 8005SOL    HW135477   1.413   0.080   4.426  1.9863 -1.8499  0.3118
 8005SOL    HW235478   1.470   0.047   4.296  0.4543 -0.1199 -0.7038
 8006SOL     OW35479   1.133   1.248   7.079  0.4627  0.3836 -0.0889
 8006SOL    HW135480   1.222   1.276   7.056  0.3619 -0.3536 -1.4035
 8006SOL    HW235481   1.102   1.314   7.141  0.2045 -0.3140  0.5247
 8007SOL     OW35482   2.637   0.347   7.942  0.0576 -0.3962  0.6674
 8007SOL    HW135483   2.692   0.409   7.991 -1.2699  0.4843  1.0510
 8007SOL    HW235484   2.667   0.258   7.961  0.2506 -0.4010  0.3414
 8008SOL     OW35485   1.340   1.127   8.950  0.3087 -0.3854 -0.3318
 8008SOL    HW135486   1.324   1.128   9.044  0.5422 -1.5775 -0.2817
 8008SOL    HW235487   1.262   1.162   8.906 -0.7835 -3.3294 -0.7111
 8009SOL     OW35488   3.062   0.556   8.511 -0.4109  0.3838 -0.2692
 8009SOL    HW135489   2.983   0.602   8.539 -1.4245 -0.8644 -1.1237
 8009SOL    HW235490   3.124   0.588   8.577  0.2006 -1.9406  0.2871
 8010SOL     OW35491   4.007   1.988   1.905 -0.6297  0.4580  0.0484
 8010SOL    HW135492   3.933   1.928   1.919 -0.7293  0.5246 -0.1940
 8010SOL    HW235493   4.014   2.044   1.982 -0.4329 -0.8813  1.0134
 8011SOL     OW35494   3.710   2.984   6.931  0.7122 -0.9339 -0.2810
 8011SOL    HW135495   3.803   3.003   6.921  0.6252 -0.6918 -0.5972
 8011SOL    HW235496   3.677   3.010   6.846 -1.0358  0.9845  0.9968
 8012SOL     OW35497   2.682   1.295   1.593 -0.9363  0.1229  0.1189
 8012SOL    HW135498   2.710   1.214   1.550 -0.7959  1.3553 -2.1024
 8012SOL    HW235499   2.587   1.284   1.601 -0.9449  0.4464  0.4473
 8013SOL     OW35500   0.038   3.391   5.375  0.0452 -0.2324 -0.6025
 8013SOL    HW135501   0.079   3.355   5.453  0.9695 -1.8778 -1.8691
 8013SOL    HW235502   4.723   3.472   5.410  1.4555 -0.0473  0.5348
 8014SOL     OW35503   3.645   3.501   3.836  0.1362  1.1249  0.1054
 8014SOL    HW135504   3.688   3.436   3.780 -1.1237  1.0828 -0.8149
 8014SOL    HW235505   3.555   3.473   3.821  0.1953  0.1338  1.5801
 8015SOL     OW35506   0.636   3.286   1.947 -0.2645 -0.6567 -0.0322
 8015SOL    HW135507   0.623   3.216   1.883  0.5174 -1.2526  0.4553
 8015SOL    HW235508   0.546   3.291   1.977 -0.1905 -0.6539  0.1937
 8016SOL     OW35509   3.062   4.602   1.270 -0.2297  0.5974  0.0361
 8016SOL    HW135510   3.140   4.575   1.222  1.3139 -1.5698  3.8037
 8016SOL    HW235511   3.056   4.694   1.246  1.7775  1.2932  2.2394
 8017SOL     OW35512   0.416   2.500   0.080 -0.0462  0.0744 -0.6192
 8017SOL    HW135513   0.381   2.537   0.161  1.1922  1.1301 -0.5577
 8017SOL    HW235514   0.341   2.503   0.020 -0.6114 -1.1919  0.0353
 8018SOL     OW35515   0.075   0.840   7.885  0.0753  0.8338  0.0445
 8018SOL    HW135516   4.720   0.876   7.926 -1.5753  0.4280 -2.8161
 8018SOL    HW235517   0.051   0.751   7.860  2.5339  0.6755 -1.6852
 8019SOL     OW35518   4.324   3.233   2.277  0.0036 -0.4725  0.8788
 8019SOL    HW135519   4.274   3.176   2.336 -1.0433  0.0251  0.4658
 8019SOL    HW235520   4.414   3.224   2.308  0.5236 -0.6784 -0.6885
 8020SOL     OW35521   0.645   1.602   5.453 -0.2107 -0.4659 -0.0345
 8020SOL    HW135522   0.720   1.625   5.509 -1.2979 -0.9141  1.5940
 8020SOL    HW235523   0.590   1.564   5.521 -0.1169  1.5112  1.1632
 8021SOL     OW35524   1.103   2.709  15.916  0.2382  0.5553 -0.4470
 8021SOL    HW135525   1.109   2.647  15.844 -2.6114  0.6266 -0.7303
 8021SOL    HW235526   1.034   2.770  15.893  0.7325  2.1320  2.2930
 8022SOL     OW35527   4.163   3.174  13.572  0.1157  0.4961  0.0734
 8022SOL    HW135528   4.202   3.162  13.659 -1.0983 -4.3172  0.0017
 8022SOL    HW235529   4.214   3.253  13.554 -1.3741  1.5357  0.4067
 8023SOL     OW35530   0.337   3.784   4.420  0.1343 -0.2285  0.2276
 8023SOL    HW135531   0.243   3.774   4.433  0.0766  1.7789  1.3445
 8023SOL    HW235532   0.349   3.765   4.327 -0.2775 -1.3875  0.4104
 8024SOL     OW35533   3.235   4.419   2.750 -0.3382 -0.0503 -0.7965
 8024SOL    HW135534   3.215   4.326   2.743  0.2683 -0.2393  0.0868
 8024SOL    HW235535   3.302   4.439   2.684  0.7045  1.1959  0.6647
 8025SOL     OW35536   1.235   2.027   5.554  0.5119 -0.0323  0.1069
 8025SOL    HW135537   1.193   2.054   5.473  0.8236  2.4155  0.7628
 8025SOL    HW235538   1.300   1.967   5.517  0.8232  0.2931  0.1250
 8026SOL     OW35539   0.001   1.872   7.037 -0.6549  0.4565 -0.1501
 8026SOL    HW135540   4.648   1.923   7.063 -0.7188 -0.5824  1.7043
 8026SOL    HW235541   0.027   1.825   7.116  2.1042  1.7349 -0.3109
 8027SOL     OW35542   0.493   1.996   5.564  0.5953 -0.3926 -0.1295
 8027SOL    HW135543   0.583   2.005   5.532  1.2122 -0.3201  1.6286
 8027SOL    HW235544   0.455   2.054   5.498  0.5792 -0.1020  0.1346
 8028SOL     OW35545   2.659   3.579   3.950 -0.7153 -0.5226 -0.3121
 8028SOL    HW135546   2.595   3.525   3.997 -0.9236 -0.5586 -0.6392
 8028SOL    HW235547   2.715   3.514   3.907  0.4973  0.4449 -0.2141
 8029SOL     OW35548   2.560   2.862   2.996 -1.2486 -0.1416  0.3882
 8029SOL    HW135549   2.547   2.776   2.955 -1.9170 -0.6446  1.6768
 8029SOL    HW235550   2.654   2.874   2.985 -1.3994  0.6286 -0.0632
 8030SOL     OW35551   0.762   3.979  10.467  0.6149  0.1439 -0.2821
 8030SOL    HW135552   0.822   4.037  10.515  0.8052 -0.1349 -0.1828
 8030SOL    HW235553   0.759   4.017  10.379  3.8534  0.6554 -0.1574
 8031SOL     OW35554   2.597   3.963   6.801 -0.2113 -0.3089 -0.2840
 8031SOL    HW135555   2.572   3.893   6.740 -1.7873 -0.1973  0.2472
 8031SOL    HW235556   2.510   3.987   6.831 -0.5250  0.2696 -1.6627
 8032SOL     OW35557   3.797   3.049   9.760 -0.2184 -0.2687 -0.0729
 8032SOL    HW135558   3.847   3.004   9.828 -1.8158 -1.5200  0.2667
 8032SOL    HW235559   3.779   3.136   9.796  2.1723  0.6089 -0.9249
 8033SOL     OW35560   0.101   0.090  17.558 -0.1813  0.4918 -0.1955
 8033SOL    HW135561   0.084   0.100  17.465  0.4230 -1.9962 -0.5820
 8033SOL    HW235562   0.016   0.114  17.596 -0.4071 -1.8901  0.8646
 8034SOL     OW35563   4.537   0.923  10.786 -0.4321  0.0705  0.1180
 8034SOL    HW135564   4.520   0.932  10.692 -2.8093  0.4908  0.5818
 8034SOL    HW235565   4.538   1.016  10.809  3.0788 -0.7423  3.1807
 8035SOL     OW35566   0.384   1.968   4.018  0.1022 -0.2339  0.1275
 8035SOL    HW135567   0.451   1.958   4.086  0.9978 -0.3175 -0.7629
 8035SOL    HW235568   0.434   2.017   3.953  1.8041  1.3080  2.5665
 8036SOL     OW35569   3.110   3.522   6.930 -0.4181  0.4165 -0.8298
 8036SOL    HW135570   3.188   3.513   6.986 -3.0829 -4.6652  2.0692
 8036SOL    HW235571   3.143   3.508   6.841  2.1944  1.4300 -0.0313
 8037SOL     OW35572   3.016   3.715   1.660 -0.4285 -0.0428 -0.2769
 8037SOL    HW135573   2.941   3.773   1.653 -1.0187 -1.0766 -2.5184
 8037SOL    HW235574   3.074   3.781   1.698 -0.8619 -0.9941  2.0824
 8038SOL     OW35575   2.277   4.037  11.756 -0.3578 -0.1139 -0.1729
 8038SOL    HW135576   2.255   3.982  11.680  1.6764 -2.0181  0.6289
 8038SOL    HW235577   2.275   3.975  11.828  0.8289  2.4459  2.0618
 8039SOL     OW35578   0.704   1.172  14.095 -0.6973  0.1405  0.1776
 8039SOL    HW135579   0.728   1.222  14.174  1.9398 -1.3174  0.2988
 8039SOL    HW235580   0.747   1.087  14.104  1.6608  1.2197 -0.6140
 8040SOL     OW35581   1.189   2.969   2.842 -0.2102 -0.1413 -0.2014
 8040SOL    HW135582   1.106   2.932   2.811 -0.0853 -0.4879 -0.1135
 8040SOL    HW235583   1.209   3.022   2.765 -0.2753 -1.6657 -1.2603
 8041SOL     OW35584   4.242   3.485   3.253 -0.0767  0.4271  0.2947
 8041SOL    HW135585   4.325   3.528   3.268  0.7078 -1.8857  2.4811
 8041SOL    HW235586   4.273   3.404   3.211 -0.3433  0.1302  0.6684
 8042SOL     OW35587   2.874   2.837  17.447  0.0010 -0.0854  0.3089
 8042SOL    HW135588   2.856   2.798  17.362 -1.7256 -1.9132  1.5185
 8042SOL    HW235589   2.956   2.794  17.470  0.8848  0.9264 -0.9565
 8043SOL     OW35590   4.361   3.473   7.082  0.7046 -0.4529  0.3612
 8043SOL    HW135591   4.440   3.485   7.029 -0.2426 -0.4568 -1.0381
 8043SOL    HW235592   4.327   3.561   7.068 -2.1016 -1.5501  0.3499
 8044SOL     OW35593   1.445   4.194  13.211  0.5027  0.4822 -0.3781
 8044SOL    HW135594   1.462   4.265  13.149 -1.8232  1.4606  0.1229
 8044SOL    HW235595   1.426   4.119  13.155  0.1457 -0.6019  1.1966
 8045SOL     OW35596   3.960   2.266   6.891  0.1667 -0.0362 -0.0544
 8045SOL    HW135597   4.029   2.331   6.875  0.5313 -0.2666  0.5591
 8045SOL    HW235598   3.979   2.229   6.978  2.0306  0.8911 -0.0524
 8046SOL     OW35599   2.971   4.697  10.811  0.4543 -0.2084  0.0184
 8046SOL    HW135600   2.946   0.058  10.848  1.6821  0.4603 -0.6761
 8046SOL    HW235601   2.886   4.653  10.806  0.7017 -0.6389 -0.3764
 8047SOL     OW35602   4.479   4.708   9.016 -0.2460 -0.1733  0.6268
 8047SOL    HW135603   4.411   0.036   8.971 -0.1824 -1.3571 -0.8533
 8047SOL    HW235604   4.431   4.702   9.099 -2.5705 -1.4584 -0.7871
 8048SOL     OW35605   2.409   3.992  13.753 -0.2971 -0.8253 -0.0250
 8048SOL    HW135606   2.324   3.987  13.709 -0.4804  2.6315 -0.1176
 8048SOL    HW235607   2.390   4.036  13.836  0.6357  0.6962 -0.6139
 8049SOL     OW35608   0.093   1.609   8.323  0.5909 -0.0033 -0.9272
 8049SOL    HW135609   0.168   1.621   8.265  0.9784  1.1273 -0.1900
 8049SOL    HW235610   0.138   1.558   8.391  0.7212 -1.1161 -1.8617
 8050SOL     OW35611   3.213   1.208   8.046 -0.0515  0.3101 -0.0675
 8050SOL    HW135612   3.255   1.230   8.129  0.5383 -0.6055 -0.1216
 8050SOL    HW235613   3.141   1.270   8.053 -0.4559 -0.1075 -0.5111
 8051SOL     OW35614   1.818   2.198   8.004  0.8217 -0.6120  0.2420
 8051SOL    HW135615   1.804   2.292   8.017  2.2865 -0.4923  0.9007
 8051SOL    HW235616   1.901   2.195   7.956 -0.5044 -1.4137 -1.9870
 8052SOL     OW35617   1.508   2.799   6.660  0.5284 -0.3040 -0.2315
 8052SOL    HW135618   1.513   2.893   6.677  0.6123 -0.4593  0.5921
 8052SOL    HW235619   1.598   2.772   6.643  1.4923  1.8917  1.4390
 8053SOL     OW35620   2.928   2.512  12.975 -0.5641 -0.2269  0.7726
 8053SOL    HW135621   3.009   2.563  12.970 -0.4370 -0.5019  0.0972
 8053SOL    HW235622   2.937   2.457  12.898 -0.8680 -0.3670  0.8384
 8054SOL     OW35623   4.000   4.492   9.389 -0.1365 -0.3168 -0.1364
 8054SOL    HW135624   3.989   4.397   9.396 -1.4532 -0.3714 -2.8852
 8054SOL    HW235625   4.093   4.503   9.408  0.0923 -1.3749 -0.6259
 8055SOL     OW35626   0.936   2.822   7.721 -0.3004  0.0815  0.1738
 8055SOL    HW135627   1.021   2.782   7.701  0.2415  1.0249  0.6071
 8055SOL    HW235628   0.913   2.789   7.808 -2.0335  0.0414 -0.3077
 8056SOL     OW35629   4.323   4.257   4.783 -0.0765  0.3742 -0.0410
 8056SOL    HW135630   4.358   4.333   4.830 -2.5735  0.7064  1.2722
 8056SOL    HW235631   4.268   4.293   4.713 -2.5715 -0.5221  1.4784
 8057SOL     OW35632   2.207   3.173   4.970 -0.0887 -0.1073  0.4781
 8057SOL    HW135633   2.198   3.078   4.972 -0.1792 -0.0411  2.4152
 8057SOL    HW235634   2.147   3.204   4.902  0.0886  1.2843  0.9711
 8058SOL     OW35635   2.604   2.581   8.142  0.2528 -0.5606  0.4758
 8058SOL    HW135636   2.569   2.670   8.154 -0.8450 -0.8538 -0.5601
 8058SOL    HW235637   2.697   2.601   8.136 -0.9134  4.3784 -1.6161
 8059SOL     OW35638   2.044   4.364   5.499  0.2287  0.2688 -0.2530
 8059SOL    HW135639   2.020   4.392   5.410  2.4270 -0.3077 -1.0216
 8059SOL    HW235640   1.961   4.391   5.539 -0.9811  0.1827 -2.6294
 8060SOL     OW35641   3.542   1.193   7.246  0.1546 -0.0888 -0.5667
 8060SOL    HW135642   3.463   1.155   7.284  1.7194 -1.5615  1.1942
 8060SOL    HW235643   3.507   1.273   7.208  0.2111 -0.8843 -2.3138
 8061SOL     OW35644   3.568   3.881   4.141 -0.3721 -0.1230  0.4146
 8061SOL    HW135645   3.539   3.972   4.149  2.4420  0.4998  3.5392
 8061SOL    HW235646   3.662   3.896   4.129  0.0149 -1.0097  2.2391
 8062SOL     OW35647   3.881   1.614   2.149 -0.7153  0.2459  0.5326
 8062SOL    HW135648   3.860   1.705   2.127 -1.1735  0.6428  2.6512
 8062SOL    HW235649   3.976   1.619   2.157 -0.6148 -0.3174 -0.2803
 8063SOL     OW35650   1.035   0.399  16.263  0.6430  0.8151 -0.0093
 8063SOL    HW135651   1.004   0.339  16.331 -1.7404  2.1855  0.1081
 8063SOL    HW235652   1.026   0.478  16.316  0.8735  0.8441 -0.0138
 8064SOL     OW35653   4.702   1.397   9.293  0.2721 -0.2950  0.2663
 8064SOL    HW135654   4.607   1.393   9.308  0.2855 -0.6749  0.2479
 8064SOL    HW235655   4.703   1.408   9.198  1.2338  1.2499  0.4545
 8065SOL     OW35656   3.413   2.234   2.230  0.2955  1.1171 -0.0874
 8065SOL    HW135657   3.417   2.304   2.296  0.9919 -0.6468  1.7598
 8065SOL    HW235658   3.342   2.273   2.180 -0.7191 -1.9452 -1.0129
 8066SOL     OW35659   1.560   3.837   2.347 -0.2230  0.7120  0.0221
 8066SOL    HW135660   1.524   3.917   2.308 -0.6800  0.1536 -0.7120
 8066SOL    HW235661   1.620   3.873   2.413  0.7763  1.2512 -1.1779
 8067SOL     OW35662   1.956   2.416   2.226 -0.3176  0.2258 -0.1007
 8067SOL    HW135663   1.969   2.467   2.147  0.1804 -0.4575 -0.4619
 8067SOL    HW235664   1.864   2.437   2.241 -0.7751 -0.7336 -1.5445
 8068SOL     OW35665   3.798   1.811   9.301 -0.3778  0.3759  0.6083
 8068SOL    HW135666   3.754   1.889   9.335  0.6071  1.2634 -0.1571
 8068SOL    HW235667   3.891   1.830   9.300 -0.3093  0.0508  0.9274
 8069SOL     OW35668   0.646   0.493  14.377  0.3076 -0.0137 -0.3800
 8069SOL    HW135669   0.627   0.568  14.321  0.7798 -0.5434 -1.2456
 8069SOL    HW235670   0.610   0.425  14.320 -0.8567 -1.1112  1.6600
 8070SOL     OW35671   2.006   1.703   4.607 -0.2460 -0.0309  0.0460
 8070SOL    HW135672   2.033   1.614   4.584 -0.7875 -0.3988  0.8312
 8070SOL    HW235673   2.031   1.700   4.699 -0.4027 -1.2438  0.0526
 8071SOL     OW35674   2.802   0.261  17.016 -0.0823  0.3786  0.2423
 8071SOL    HW135675   2.897   0.247  17.017 -0.1639 -0.3548 -1.2582
 8071SOL    HW235676   2.776   0.241  17.106  0.8398  3.1498  1.1104
 8072SOL     OW35677   1.252   2.783  11.065 -0.5452  0.5478  0.0895
 8072SOL    HW135678   1.197   2.769  11.142 -0.8178 -0.5427 -0.2964
 8072SOL    HW235679   1.190   2.751  11.000  1.9682 -0.7134 -1.6904
 8073SOL     OW35680   4.597   4.541   7.817 -0.6373 -0.0285 -0.3209
 8073SOL    HW135681   4.664   4.474   7.828 -2.3703 -2.2974 -3.5766
 8073SOL    HW235682   4.608   4.556   7.723 -1.3374 -3.3114 -0.9340
 8074SOL     OW35683   0.508   1.356  14.153  0.2443  0.3880  0.6233
 8074SOL    HW135684   0.570   1.378  14.222 -1.1027  2.1135  1.2968
 8074SOL    HW235685   0.429   1.333  14.201 -0.4915 -1.9403 -1.7381
 8075SOL     OW35686   2.736   4.162   6.652 -0.2710 -0.2506  0.2815
 8075SOL    HW135687   2.683   4.093   6.691  1.0504 -0.7669  1.1576
 8075SOL    HW235688   2.696   4.231   6.706  1.7805  0.8697  0.4022
 8076SOL     OW35689   2.609   2.021   4.348 -0.4810 -0.1777  0.4304
 8076SOL    HW135690   2.522   2.060   4.334  0.0923  0.1278 -2.2124
 8076SOL    HW235691   2.628   2.058   4.435 -1.2086 -0.9237  0.9039
 8077SOL     OW35692   2.320   0.928   2.810  0.5200 -0.4742  0.6985
 8077SOL    HW135693   2.229   0.945   2.834  0.9131 -0.5864  2.2483
 8077SOL    HW235694   2.306   0.898   2.720  2.9604  1.3529 -0.2869
 8078SOL     OW35695   2.603   4.553   5.737 -0.1892  0.1502  0.1742
 8078SOL    HW135696   2.562   4.588   5.658 -0.0252  0.1678  0.0971
 8078SOL    HW235697   2.668   4.496   5.696  1.4403  0.1620  2.6877
 8079SOL     OW35698   2.209   3.789   2.720  0.1211  0.0998 -0.6483
 8079SOL    HW135699   2.137   3.758   2.665 -0.4827  1.3867 -0.5939
 8079SOL    HW235700   2.178   3.875   2.749 -0.0249 -0.3512  0.5335
 8080SOL     OW35701   0.010   1.358   7.886 -0.2631 -0.0063  0.4491
 8080SOL    HW135702   4.692   1.386   7.967 -0.9439  1.6561 -0.4763
 8080SOL    HW235703   0.095   1.403   7.891  0.5023 -1.3853 -0.2613
 8081SOL     OW35704   3.442   2.956  15.611 -0.3204 -0.2306 -0.5587
 8081SOL    HW135705   3.481   2.875  15.645 -0.7990  0.0897  0.7262
 8081SOL    HW235706   3.352   2.927  15.595 -0.4773  0.1772 -0.4102
 8082SOL     OW35707   1.678   3.409   0.991 -0.2510 -0.1663  0.0601
 8082SOL    HW135708   1.681   3.503   0.970  1.8291 -0.2294  0.0411
 8082SOL    HW235709   1.771   3.391   1.001 -0.3068 -0.5999 -0.2476
 8083SOL     OW35710   0.983   2.822  15.570 -0.2851 -0.5010 -0.4917
 8083SOL    HW135711   0.962   2.738  15.610 -0.6542 -0.2617 -0.1889
 8083SOL    HW235712   1.077   2.826  15.587  0.1103  3.7883 -3.6627
 8084SOL     OW35713   0.828   1.906  16.143 -0.3015  0.0873 -0.3449
 8084SOL    HW135714   0.790   1.924  16.228  0.5761 -0.2833  0.1307
 8084SOL    HW235715   0.778   1.959  16.081  0.8091  1.6937  0.1344
 8085SOL     OW35716   3.203   3.342   9.832 -0.2723 -0.2460 -0.3973
 8085SOL    HW135717   3.136   3.408   9.812 -0.1183 -0.3513 -1.2404
 8085SOL    HW235718   3.174   3.268   9.778  2.3228 -0.8715 -0.9485
 8086SOL     OW35719   0.673   3.453   1.481 -0.1549 -0.2487  0.3130
 8086SOL    HW135720   0.651   3.395   1.408  1.9253 -2.3292  1.3526
 8086SOL    HW235721   0.587   3.478   1.513 -1.2353 -1.3788 -1.7302
 8087SOL     OW35722   1.034   0.995   9.179 -0.2871 -0.1842 -0.5933
 8087SOL    HW135723   0.949   0.951   9.180 -1.1194  1.4508  1.4468
 8087SOL    HW235724   1.015   1.089   9.173  0.0917 -0.0071  0.8772
 8088SOL     OW35725   2.585   3.078  10.595 -0.5249 -0.3880  0.0369
 8088SOL    HW135726   2.503   3.028  10.591  1.5087 -3.8970  2.5416
 8088SOL    HW235727   2.593   3.128  10.514 -1.4464  1.4125  1.0684
 8089SOL     OW35728   1.348   1.937   4.589  0.1417 -0.0837 -0.6747
 8089SOL    HW135729   1.326   1.966   4.500  1.0601  0.2619 -0.7879
 8089SOL    HW235730   1.379   1.847   4.578  0.5348  0.0640 -0.7609
 8090SOL     OW35731   0.360   2.886   5.340 -0.2439  0.1418  0.0313
 8090SOL    HW135732   0.402   2.827   5.404  3.6221 -0.2293 -2.8464
 8090SOL    HW235733   0.360   2.825   5.266 -0.1352  0.6330 -0.3698
 8091SOL     OW35734   4.243   4.252   9.226  0.2673 -0.0043 -0.0155
 8091SOL    HW135735   4.208   4.314   9.162 -1.4467 -0.8563  0.0771
 8091SOL    HW235736   4.212   4.167   9.194  0.6101  0.4404 -1.4956
 8092SOL     OW35737   4.704   2.387  10.897  0.1592 -0.3427  0.2996
 8092SOL    HW135738   0.001   2.481  10.904 -1.2061 -0.1128  1.3996
 8092SOL    HW235739   4.622   2.392  10.848  0.7230 -0.0569 -0.6085
 8093SOL     OW35740   0.894   4.223   3.454  0.0387 -0.2615  0.3472
 8093SOL    HW135741   0.815   4.178   3.422 -0.9045  0.8872  1.0843
 8093SOL    HW235742   0.861   4.289   3.514  0.5992  1.5565 -1.3670
 8094SOL     OW35743   2.630   0.389  12.728  0.5017 -0.4032  0.3334
 8094SOL    HW135744   2.586   0.411  12.646  0.8251  0.2584  0.3415
 8094SOL    HW235745   2.558   0.398  12.790  0.0156 -0.5031 -0.2144
 8095SOL     OW35746   0.434   1.505   5.654  0.2890 -0.0030  0.0840
 8095SOL    HW135747   0.396   1.590   5.630  1.8329  0.6344 -0.0913
 8095SOL    HW235748   0.370   1.476   5.719  1.3874 -0.1001  1.1317
 8096SOL     OW35749   2.109   0.880   4.831 -0.1799 -0.1891  0.0526
 8096SOL    HW135750   2.182   0.922   4.875 -0.0466  1.9420 -2.2160
 8096SOL    HW235751   2.152   0.807   4.787 -0.1147  0.6067 -1.2127
 8097SOL     OW35752   3.040   1.789   7.285 -0.3152  0.4358  0.0762
 8097SOL    HW135753   3.106   1.821   7.347  0.5471 -0.7712 -0.2240
 8097SOL    HW235754   3.086   1.721   7.236  1.3383  0.9112  0.9679
 8098SOL     OW35755   2.207   3.141  17.098 -0.4799 -0.2680 -0.9046
 8098SOL    HW135756   2.257   3.160  17.178 -3.0956 -0.4522  0.7629
 8098SOL    HW235757   2.129   3.188  17.125 -0.9723 -0.9666 -1.1293
 8099SOL     OW35758   3.555   3.576  11.097  0.1811  0.1328 -0.0525
 8099SOL    HW135759   3.510   3.498  11.129 -0.9315  0.9641  0.3960
 8099SOL    HW235760   3.533   3.560  11.005  0.2137  0.1734 -0.0676
 8100SOL     OW35761   3.618   1.087  13.188 -0.7663  0.4562  0.4413
 8100SOL    HW135762   3.561   1.023  13.145 -0.1060  0.4368 -0.4057
 8100SOL    HW235763   3.664   1.118  13.111 -4.2494  1.7704 -1.0967
 8101SOL     OW35764   3.958   4.489   0.833 -0.3664 -0.3849  0.2410
 8101SOL    HW135765   3.905   4.436   0.893  0.1094 -0.2245  0.7999
 8101SOL    HW235766   3.973   4.433   0.756 -2.1290 -0.3228 -0.1540
 8102SOL     OW35767   0.267   4.094  13.024 -0.6492 -0.1702 -0.2946
 8102SOL    HW135768   0.201   4.148  12.980 -1.1220 -0.7154 -0.2459
 8102SOL    HW235769   0.219   4.073  13.103 -0.4497 -0.1099 -0.1559
 8103SOL     OW35770   1.153   2.346   8.439  0.3838  0.1140  0.2196
 8103SOL    HW135771   1.154   2.288   8.515 -0.4112  1.0097  0.9135
 8103SOL    HW235772   1.067   2.387   8.434 -0.9851 -2.5765  1.6203
 8104SOL     OW35773   3.656   2.424   7.817 -0.3038 -0.3744 -0.4387
 8104SOL    HW135774   3.654   2.381   7.902 -0.6851  0.1880 -0.1614
 8104SOL    HW235775   3.688   2.512   7.835 -0.8839 -0.2515 -0.0281
 8105SOL     OW35776   2.806   0.681  16.712 -0.4113  0.4859 -1.0621
 8105SOL    HW135777   2.814   0.735  16.790 -0.5797 -1.0753  0.0461
 8105SOL    HW235778   2.866   0.611  16.738 -1.4300 -0.2502 -0.6541
 8106SOL     OW35779   2.652   1.720   2.239 -0.1174 -0.1558 -0.3686
 8106SOL    HW135780   2.594   1.773   2.185  1.0664  0.8097 -0.6968
 8106SOL    HW235781   2.683   1.647   2.186  0.7985  1.0069 -1.4173
 8107SOL     OW35782   3.335   0.878   7.140  0.6293 -0.2902  0.2835
 8107SOL    HW135783   3.330   0.940   7.213 -1.2948  0.3080 -0.3420
 8107SOL    HW235784   3.294   0.795   7.168 -3.1117  0.8090 -1.9564
 8108SOL     OW35785   2.107   2.754  16.461  0.4090 -0.3305  0.0846
 8108SOL    HW135786   2.152   2.788  16.384 -2.2363  1.3002 -0.7404
 8108SOL    HW235787   2.185   2.731  16.511  0.5161  0.7334  0.3920
 8109SOL     OW35788   1.500   4.100   4.359 -0.9771  0.3476 -0.1890
 8109SOL    HW135789   1.465   4.180   4.396 -1.5772 -0.8482  1.7849
 8109SOL    HW235790   1.581   4.091   4.409 -2.0073  1.3035  1.6164
 8110SOL     OW35791   4.151   0.998   4.119  0.8168 -0.0085 -0.2137
 8110SOL    HW135792   4.057   0.981   4.117  0.9024 -0.7792  2.6366
 8110SOL    HW235793   4.168   1.029   4.030  0.9423  1.7242  0.4057
 8111SOL     OW35794   1.292   3.204   5.388 -0.0376  0.1567 -0.4994
 8111SOL    HW135795   1.377   3.245   5.404 -1.1232  1.6710  1.4039
 8111SOL    HW235796   1.264   3.182   5.477 -0.1431 -1.0640 -0.8341
 8112SOL     OW35797   3.616   2.223  12.596 -0.0579 -0.1969  0.3022
 8112SOL    HW135798   3.655   2.194  12.513 -0.7552 -2.9697  0.9418
 8112SOL    HW235799   3.679   2.278  12.641  0.1881 -0.3471  0.1437
 8113SOL     OW35800   3.445   3.743  13.125 -0.0751 -0.4169  0.2290
 8113SOL    HW135801   3.457   3.818  13.183 -0.6085 -0.2414  0.1075
 8113SOL    HW235802   3.527   3.699  13.149  0.9914  1.0962 -0.7104
 8114SOL     OW35803   4.343   3.843   3.365 -0.6559 -0.0965 -0.7779
 8114SOL    HW135804   4.250   3.836   3.346 -1.1790 -2.0513  2.5364
 8114SOL    HW235805   4.371   3.807   3.280  1.8747 -0.5855  0.2479
 8115SOL     OW35806   3.689   1.096   7.465  0.4651 -0.4169  0.3793
 8115SOL    HW135807   3.644   1.015   7.487 -1.6112  0.6320  0.0463
 8115SOL    HW235808   3.644   1.122   7.385 -0.6634 -0.5712  0.9611
 8116SOL     OW35809   1.290   2.501  16.397  0.4919 -0.1209  0.2211
 8116SOL    HW135810   1.266   2.513  16.305 -0.8457  2.6143  0.9196
 8116SOL    HW235811   1.377   2.540  16.404  0.3092 -0.0825  2.2878
 8117SOL     OW35812   0.169   0.007   8.532 -0.7007  0.2345 -0.2796
 8117SOL    HW135813   0.110   4.656   8.537  0.2034 -0.4921 -0.4355
 8117SOL    HW235814   0.150   0.043   8.619 -1.9479 -1.3324  0.0854
 8118SOL     OW35815   1.644   1.611   5.360  0.0208 -0.3009  0.4557
 8118SOL    HW135816   1.579   1.583   5.424  0.0559  0.1913  0.7071
 8118SOL    HW235817   1.656   1.703   5.383 -1.4563 -0.2985  1.1881
 8119SOL     OW35818   0.059   1.799   7.988 -0.0502 -0.8457  0.3608
 8119SOL    HW135819   4.690   1.778   7.994 -0.8088  2.6798  0.8436
 8119SOL    HW235820   0.069   1.891   8.012 -0.8422 -0.5265 -0.5420
 8120SOL     OW35821   0.672   3.601   7.080 -0.2392  0.1114  0.3324
 8120SOL    HW135822   0.686   3.663   7.151 -0.7260 -0.2558  0.7428
 8120SOL    HW235823   0.680   3.517   7.125 -1.5967  0.8430  1.9215
 8121SOL     OW35824   3.045   1.835  11.994 -0.3202 -0.0665  0.4026
 8121SOL    HW135825   3.063   1.882  12.076 -1.0907  1.6420 -0.4033
 8121SOL    HW235826   3.027   1.746  12.024  1.2510 -0.2202  0.9114
 8122SOL     OW35827   1.849   0.601   3.845  0.4880 -0.0911  0.1003
 8122SOL    HW135828   1.874   0.651   3.768 -0.1098 -3.3720 -2.2111
 8122SOL    HW235829   1.870   0.511   3.820 -0.2692 -0.1433 -0.3509
 8123SOL     OW35830   2.939   2.046   6.507  0.7550  0.0012 -0.0184
 8123SOL    HW135831   2.865   2.073   6.562 -1.7082 -1.3724 -2.6826
 8123SOL    HW235832   2.959   2.128   6.462 -1.6818  1.4384  1.5158
 8124SOL     OW35833   0.844   3.840   9.034 -0.5076  0.2712  0.2557
 8124SOL    HW135834   0.847   3.935   9.024 -0.6627  0.2098 -0.3586
 8124SOL    HW235835   0.760   3.830   9.077  0.7897 -0.8622  2.5209
 8125SOL     OW35836   1.297   1.592   8.521  0.0295  0.3317 -0.2310
 8125SOL    HW135837   1.280   1.683   8.496  2.1316  0.5708 -0.8017
 8125SOL    HW235838   1.211   1.568   8.554 -0.0683 -0.3188 -0.9643
 8126SOL     OW35839   2.499   4.257   8.343  0.0896 -0.2067 -0.4633
 8126SOL    HW135840   2.518   4.263   8.250  2.0318 -1.9381 -0.1823
 8126SOL    HW235841   2.541   4.173   8.362  1.4976  0.4708 -0.5733
 8127SOL     OW35842   3.593   2.850  10.063 -0.4163 -0.2101  0.5049
 8127SOL    HW135843   3.645   2.812  10.134 -1.2202  0.1172  1.2777
 8127SOL    HW235844   3.526   2.878  10.126 -0.3501 -0.5537  0.7253
 8128SOL     OW35845   4.240   4.362   0.631 -0.6821  0.0185 -0.1260
 8128SOL    HW135846   4.313   4.364   0.569 -0.7836  0.8131 -0.2170
 8128SOL    HW235847   4.236   4.268   0.647  0.7656  0.2708  1.7146
 8129SOL     OW35848   2.635   3.183   7.628  0.0799  0.0513  0.1336
 8129SOL    HW135849   2.637   3.125   7.704 -0.9889  2.0502  1.7117
 8129SOL    HW235850   2.624   3.123   7.554 -0.8259  1.5435 -0.9598
 8130SOL     OW35851   2.224   0.163  13.877  0.6866 -0.1080 -0.0124
 8130SOL    HW135852   2.261   0.217  13.948  1.0793 -1.2605  0.6702
 8130SOL    HW235853   2.229   0.077  13.921 -0.2135 -0.4438 -0.5829
 8131SOL     OW35854   3.363   4.445   0.099 -0.2015 -0.4484  0.1987
 8131SOL    HW135855   3.269   4.461   0.089 -0.2211  0.1581  1.3716
 8131SOL    HW235856   3.385   4.419   0.009 -0.8669  1.9640 -0.6673
 8132SOL     OW35857   1.631   2.915   3.722  0.3996  0.1856  0.1658
 8132SOL    HW135858   1.615   2.955   3.808  1.1231 -1.0456  0.8825
 8132SOL    HW235859   1.694   2.979   3.689  0.3093  0.9124  1.3946
 8133SOL     OW35860   3.081   1.556  13.779 -0.1923 -0.0642  0.0334
 8133SOL    HW135861   3.091   1.470  13.738 -3.6517 -0.9443  1.0401
 8133SOL    HW235862   3.058   1.533  13.869 -0.4769 -1.4183 -0.3824
 8134SOL     OW35863   0.721   1.600   6.378  0.2377 -0.0478  0.1989
 8134SOL    HW135864   0.646   1.541   6.377  0.2248 -0.0129 -1.1883
 8134SOL    HW235865   0.695   1.648   6.457 -2.6194 -1.8932  0.3825
 8135SOL     OW35866   2.730   3.407   8.534  1.0415 -0.5305 -0.5141
 8135SOL    HW135867   2.664   3.417   8.603 -1.4959  0.0146 -3.0262
 8135SOL    HW235868   2.816   3.403   8.576 -0.4642  0.4204  2.7175
 8136SOL     OW35869   3.515   3.100   5.737 -0.2741  0.1915 -0.0697
 8136SOL    HW135870   3.584   3.164   5.719  2.1445 -1.0103  4.7433
 8136SOL    HW235871   3.447   3.118   5.673  1.1085 -2.1403 -2.1706
 8137SOL     OW35872   0.855   4.340   3.716  0.4198  0.0337  0.0788
 8137SOL    HW135873   0.849   4.322   3.809 -1.1297 -1.0266 -0.2272
 8137SOL    HW235874   0.799   4.265   3.692  0.4068 -0.3452  1.2999
 8138SOL     OW35875   3.825   3.991   1.690  0.0055  0.2054  0.0287
 8138SOL    HW135876   3.893   3.940   1.646 -0.9153 -1.3088  0.3243
 8138SOL    HW235877   3.884   4.059   1.721  1.4384 -0.5467 -1.0517
 8139SOL     OW35878   2.232   1.572   7.090  0.3063 -0.4795  0.7846
 8139SOL    HW135879   2.251   1.593   6.998  0.6136  0.6428  1.1150
 8139SOL    HW235880   2.148   1.616   7.103 -0.1356 -1.7953  2.4550
 8140SOL     OW35881   2.558   2.128   9.799 -0.6049 -0.1815  0.3461
 8140SOL    HW135882   2.639   2.157   9.758 -0.4762 -1.3424 -0.2309
 8140SOL    HW235883   2.559   2.177   9.881 -2.9829  1.9150 -0.8908
 8141SOL     OW35884   1.193   1.685   5.261  0.0390  0.6195  0.4361
 8141SOL    HW135885   1.183   1.777   5.236  0.0036  0.4475 -0.1589
 8141SOL    HW235886   1.175   1.696   5.355 -0.3840 -0.7117  0.5105
 8142SOL     OW35887   3.906   1.653   3.300 -0.3900  0.3298  0.5686
 8142SOL    HW135888   3.911   1.742   3.264 -0.3011 -0.8215 -2.2949
 8142SOL    HW235889   3.862   1.605   3.229  3.5001 -2.7454  0.2348
 8143SOL     OW35890   1.287   0.437   5.662 -0.0039  0.0052  0.7013
 8143SOL    HW135891   1.366   0.387   5.682  0.8856  1.1549  0.0504
 8143SOL    HW235892   1.220   0.388   5.710 -1.2723  1.7512  0.6995
 8144SOL     OW35893   2.678   3.018   7.412  0.2556  0.6653  0.2273
 8144SOL    HW135894   2.745   3.083   7.436  2.2032 -0.3316 -2.5196
 8144SOL    HW235895   2.632   3.067   7.345 -0.2957  1.3076  1.0679
 8145SOL     OW35896   3.459   2.871  11.853 -0.1714  0.2761  0.4555
 8145SOL    HW135897   3.394   2.922  11.902  1.1867  2.1600  0.2933
 8145SOL    HW235898   3.473   2.916  11.770 -1.5386  1.0742  0.6582
 8146SOL     OW35899   4.116   0.235   3.244 -0.4948 -0.3681 -0.7130
 8146SOL    HW135900   4.119   0.224   3.339 -0.9735  2.3002 -0.4000
 8146SOL    HW235901   4.100   0.148   3.207 -0.4144 -0.6138 -0.1590
 8147SOL     OW35902   1.355   4.588   7.763 -0.1472 -0.0832 -0.5368
 8147SOL    HW135903   1.413   4.520   7.798 -1.8624 -1.2945 -0.0678
 8147SOL    HW235904   1.275   4.574   7.814 -0.1106 -0.7539 -0.6575
 8148SOL     OW35905   1.052   2.377  14.492 -0.6238  0.2809  0.5038
 8148SOL    HW135906   1.143   2.360  14.518 -0.2663  0.4194 -0.6501
 8148SOL    HW235907   0.998   2.317  14.542  0.9804 -0.7600  1.0093
 8149SOL     OW35908   1.529   1.210   9.603 -0.5081  0.1518  0.2666
 8149SOL    HW135909   1.516   1.211   9.698 -2.5596  2.9658 -0.0136
 8149SOL    HW235910   1.624   1.208   9.592 -0.6670  1.3259 -1.3429
 8150SOL     OW35911   3.676   2.604   1.303  1.0028  0.4515 -0.5975
 8150SOL    HW135912   3.724   2.541   1.356  0.0684 -1.1646 -1.6541
 8150SOL    HW235913   3.646   2.663   1.372 -1.0819  1.2785 -2.1980
 8151SOL     OW35914   1.295   2.851  13.398  0.2933  0.3920  0.5201
 8151SOL    HW135915   1.285   2.816  13.486 -0.7352 -1.6434 -0.4018
 8151SOL    HW235916   1.204   2.851  13.368 -0.4419  0.8533  2.7520
 8152SOL     OW35917   2.575   0.749   3.035 -0.8980  0.4155 -0.0776
 8152SOL    HW135918   2.582   0.844   3.021 -1.6423  0.7122  1.5313
 8152SOL    HW235919   2.495   0.735   3.087 -0.3279 -0.5435  0.5445
 8153SOL     OW35920   0.287   4.438   4.816 -0.1437 -0.3362 -0.3062
 8153SOL    HW135921   0.277   4.502   4.887 -2.6778 -0.5806 -0.4566
 8153SOL    HW235922   0.250   4.363   4.861 -1.4136  1.5757  1.8308
 8154SOL     OW35923   1.260   4.713   3.764  0.4216 -0.3001 -0.2521
 8154SOL    HW135924   1.223   4.633   3.801  1.4784 -0.2226  0.9736
 8154SOL    HW235925   1.354   4.696   3.753  0.8730  1.8941  0.3080
 8155SOL     OW35926   3.934   2.931   6.543  0.0245 -0.0510 -0.9062
 8155SOL    HW135927   3.897   2.912   6.457  0.3378  1.0740 -1.2914
 8155SOL    HW235928   3.891   3.016   6.540  1.3008  0.6449  0.2694
 8156SOL     OW35929   2.540   0.434   3.376  0.3759  0.0521 -0.2607
 8156SOL    HW135930   2.528   0.515   3.328 -0.6370 -0.1263 -0.3094
 8156SOL    HW235931   2.459   0.382   3.377  0.4314 -0.0841 -3.1063
 8157SOL     OW35932   2.157   2.922   6.421 -0.3118  0.2784  0.1725
 8157SOL    HW135933   2.200   2.841   6.393 -1.9531 -0.4811 -0.1603
 8157SOL    HW235934   2.120   2.942   6.335 -1.1968 -0.6449  0.3470
 8158SOL     OW35935   3.938   0.031   2.974  0.1458  0.2177  0.3923
 8158SOL    HW135936   4.023   0.050   2.934 -0.1564 -0.1802 -0.4436
 8158SOL    HW235937   3.958   4.667   3.006 -0.0560  0.3452  0.8751
 8159SOL     OW35938   1.431   2.176  13.997 -0.1204  0.5047  0.2763
 8159SOL    HW135939   1.382   2.239  13.944 -0.0542 -0.3165 -0.7769
 8159SOL    HW235940   1.399   2.190  14.086  2.4638  1.5498  1.0217
 8160SOL     OW35941   3.939   1.201  14.627 -0.4084  0.4302  0.3732
 8160SOL    HW135942   3.888   1.264  14.576 -0.9274  0.3048  0.7355
 8160SOL    HW235943   3.893   1.129  14.585  0.5256  1.3082 -2.1755
 8161SOL     OW35944   3.857   1.766   7.716 -0.2059  0.1758 -0.3721
 8161SOL    HW135945   3.860   1.673   7.740  1.1115  0.6772  1.4203
 8161SOL    HW235946   3.762   1.779   7.726 -0.0492  0.4158  0.8501
 8162SOL     OW35947   4.657   1.488   8.103 -0.4483  0.8760 -0.9843
 8162SOL    HW135948   0.023   1.505   8.076 -0.2180 -2.4873 -2.3872
 8162SOL    HW235949   4.649   1.525   8.191 -0.5025  0.4735 -0.8191
 8163SOL     OW35950   4.031   1.115   4.580 -0.2016 -0.5033  0.2579
 8163SOL    HW135951   4.107   1.100   4.635  0.8041 -2.4517 -1.6570
 8163SOL    HW235952   4.022   1.036   4.526 -1.0473  0.4340 -0.9788
 8164SOL     OW35953   3.720   1.853   3.904 -0.1147 -0.3233  0.0838
 8164SOL    HW135954   3.746   1.813   3.822  2.6328 -0.6711  1.1109
 8164SOL    HW235955   3.701   1.773   3.953  0.1147 -1.4004 -1.6124
 8165SOL     OW35956   4.198   2.882  11.114  0.4502 -0.4884  0.3435
 8165SOL    HW135957   4.253   2.898  11.038 -1.2914  1.9018 -0.4016
 8165SOL    HW235958   4.115   2.855  11.075  0.3089  0.0787  0.2524
 8166SOL     OW35959   0.682   4.310   6.042  0.3509 -0.7975  0.5009
 8166SOL    HW135960   0.722   4.256   6.111  2.2012  0.2901  0.2751
 8166SOL    HW235961   0.740   4.290   5.968  0.8914 -0.0951  0.7330
 8167SOL     OW35962   1.436   1.150   7.328  0.9684  0.0646 -0.1518
 8167SOL    HW135963   1.397   1.215   7.386  0.7199 -1.5876  1.5189
 8167SOL    HW235964   1.462   1.076   7.382  0.9164  0.2134  0.0763
 8168SOL     OW35965   1.118   1.395  17.528 -0.3021  0.8364 -0.4479
 8168SOL    HW135966   1.119   1.305  17.559 -0.5547  1.6425  1.8568
 8168SOL    HW235967   1.030   1.398  17.490  0.4334 -2.8251 -2.5243
 8169SOL     OW35968   3.710   0.515   5.295 -0.0693  0.0683 -0.5257
 8169SOL    HW135969   3.748   0.503   5.208 -0.9187 -0.2121 -0.8615
 8169SOL    HW235970   3.660   0.597   5.288  1.5713  0.9557 -1.9344
 8170SOL     OW35971   4.179   3.119   5.680  0.1669 -0.0601 -0.4600
 8170SOL    HW135972   4.126   3.044   5.706 -1.9720  1.9510  0.9373
 8170SOL    HW235973   4.150   3.148   5.593 -2.3368 -0.6079  0.2176
 8171SOL     OW35974   1.164   0.267   7.902  0.3660  0.5440  0.4713
 8171SOL    HW135975   1.177   0.181   7.942  0.1441  0.4384  0.3165
 8171SOL    HW235976   1.084   0.238   7.858  1.2249  2.3533 -2.2277
 8172SOL     OW35977   4.115   2.611  11.369  0.0579 -0.3310  0.1305
 8172SOL    HW135978   4.145   2.580  11.455  0.1659  2.1187  0.9757
 8172SOL    HW235979   4.195   2.642  11.325 -0.3446 -0.8081 -0.9497
 8173SOL     OW35980   2.052   0.301  11.660  0.1065  0.4436 -0.2954
 8173SOL    HW135981   1.984   0.315  11.594 -0.9008  1.4229  0.9325
 8173SOL    HW235982   2.072   0.210  11.638  0.4570  0.4701 -0.0836
 8174SOL     OW35983   4.436   1.631   2.898  0.1895 -0.3167 -0.1485
 8174SOL    HW135984   4.390   1.558   2.857  1.7860 -1.8778  0.8595
 8174SOL    HW235985   4.511   1.639   2.838  0.8448 -1.6743  0.4891
 8175SOL     OW35986   1.047   2.037   6.334 -0.8031  0.1517  0.0357
 8175SOL    HW135987   1.112   2.093   6.291 -1.9349  1.1437 -0.3644
 8175SOL    HW235988   1.010   1.978   6.268 -0.2079 -0.9567  0.6788
 8176SOL     OW35989   1.146   0.028   8.042  0.4518  0.2362 -0.6657
 8176SOL    HW135990   1.063   0.036   8.089  1.2575  1.2181  0.6059
 8176SOL    HW235991   1.134   4.667   8.000  1.0589  0.1418 -0.6445
 8177SOL     OW35992   1.421   3.730   8.660 -0.2234  0.0555  0.2793
 8177SOL    HW135993   1.427   3.779   8.742  0.3666  0.6866 -0.1329
 8177SOL    HW235994   1.475   3.654   8.682  0.2480  0.2305 -0.2719
 8178SOL     OW35995   3.814   0.286   2.626  0.6058 -0.8164 -0.2788
 8178SOL    HW135996   3.724   0.254   2.618  0.3698  0.2247 -1.6687
 8178SOL    HW235997   3.827   0.355   2.561 -0.5428 -0.6022 -0.2829
 8179SOL     OW35998   3.721   3.240   4.700  0.3158 -0.0685  0.4547
 8179SOL    HW135999   3.642   3.189   4.679 -0.0644  0.1440  1.3800
 8179SOL    HW236000   3.749   3.252   4.609  0.4463  0.6509  0.5925
 8180SOL     OW36001   3.900   2.925   9.975  0.4533 -0.5450  0.2511
 8180SOL    HW136002   3.905   2.970  10.060 -1.6210 -2.2456  1.2782
 8180SOL    HW236003   3.904   2.834  10.005 -0.7064 -0.3624  1.0118
 8181SOL     OW36004   4.476   1.522   4.585 -0.0391  0.2431 -0.7887
 8181SOL    HW136005   4.567   1.498   4.602 -0.2773  0.7968  1.2263
 8181SOL    HW236006   4.483   1.593   4.649  0.9585 -1.9189  1.5331
 8182SOL     OW36007   2.415   3.061   7.045  0.0253 -0.1279  0.1771
 8182SOL    HW136008   2.421   3.113   7.125  2.6486 -0.6643  0.3337
 8182SOL    HW236009   2.331   3.020   7.062 -1.2958  1.5536 -2.1640
 8183SOL     OW36010   2.995   4.265   2.347 -0.2237  0.3465  1.2205
 8183SOL    HW136011   2.990   4.268   2.443  0.8209 -1.0454  1.3337
 8183SOL    HW236012   2.979   4.170   2.341 -1.7215  0.6884 -0.0707
 8184SOL     OW36013   4.273   2.534   5.512 -0.2353  0.2636 -0.0776
 8184SOL    HW136014   4.254   2.504   5.423 -0.7033 -1.9518  0.7612
 8184SOL    HW236015   4.235   2.454   5.548  2.1209 -0.3115  1.1607
 8185SOL     OW36016   3.232   1.169   1.485 -0.5676  0.2626 -0.4402
 8185SOL    HW136017   3.173   1.210   1.548  0.6202 -1.1227  1.5922
 8185SOL    HW236018   3.184   1.098   1.441  3.0017 -1.3798 -1.6459
 8186SOL     OW36019   1.067   4.084   8.259 -0.2410  0.6768  0.2313
 8186SOL    HW136020   1.135   4.133   8.305  0.6353  1.8663 -2.3586
 8186SOL    HW236021   1.115   4.035   8.192 -0.8036 -0.4708  0.6750
 8187SOL     OW36022   4.499   2.237   5.997 -0.3857  0.3069 -0.3010
 8187SOL    HW136023   4.562   2.271   5.934 -0.2973 -0.9461 -0.8763
 8187SOL    HW236024   4.548   2.162   6.031 -3.1706 -1.0791  0.6143
 8188SOL     OW36025   1.035   3.611  10.778 -0.2709  0.6233 -0.0728
 8188SOL    HW136026   1.113   3.560  10.757  0.6901  1.8105  0.6283
 8188SOL    HW236027   0.972   3.542  10.758  0.7224 -0.2248 -0.2552
 8189SOL     OW36028   3.158   3.435   6.371  0.1870 -0.1828 -0.8457
 8189SOL    HW136029   3.241   3.388   6.367  0.2833 -0.2786  2.0258
 8189SOL    HW236030   3.107   3.391   6.303 -0.3661 -1.3612  0.3193
 8190SOL     OW36031   1.727   0.421   5.953  0.4321  0.0212 -0.1887
 8190SOL    HW136032   1.644   0.404   5.908  0.9490  1.6918 -1.7814
 8190SOL    HW236033   1.701   0.473   6.030 -1.2238 -1.3161  0.1660
 8191SOL     OW36034   1.414   0.339   6.178  0.7847 -0.6406  0.1473
 8191SOL    HW136035   1.369   0.258   6.204  0.7754 -1.0502 -1.1759
 8191SOL    HW236036   1.489   0.352   6.236  0.2687 -1.7434  1.0647
 8192SOL     OW36037   1.348   0.111  17.263  0.5191 -0.2040 -0.0130
 8192SOL    HW136038   1.410   0.047  17.297  0.9523 -0.2743 -0.9357
 8192SOL    HW236039   1.389   0.194  17.290 -0.7027  0.7028 -0.9420
 8193SOL     OW36040   2.054   0.138   5.711 -0.5673  1.1128 -0.1022
 8193SOL    HW136041   2.118   0.148   5.781 -0.0688 -1.0836 -0.2223
 8193SOL    HW236042   2.114   0.159   5.639 -1.6207  1.1834 -0.9580
 8194SOL     OW36043   2.545   3.682   8.171  0.1281  0.4177 -0.6738
 8194SOL    HW136044   2.502   3.709   8.252  0.0958 -3.3813  0.5656
 8194SOL    HW236045   2.472   3.634   8.133 -1.7207  0.7139  2.5432
 8195SOL     OW36046   2.074   2.819   3.875  0.3447 -1.1860  0.8397
 8195SOL    HW136047   2.056   2.875   3.951 -0.2052 -1.1224  0.6608
 8195SOL    HW236048   2.128   2.759   3.925 -1.3197 -2.6557  0.8885
 8196SOL     OW36049   0.557   1.123   1.959 -0.1896 -0.3491 -0.2678
 8196SOL    HW136050   0.583   1.041   1.916  0.1854 -1.1073  1.4185
 8196SOL    HW236051   0.463   1.124   1.940  0.0583  0.8974 -1.4110
 8197SOL     OW36052   2.608   0.244  14.066  0.0827  0.4123  0.0385
 8197SOL    HW136053   2.684   0.280  14.112  0.5062 -0.4834  0.0380
 8197SOL    HW236054   2.640   0.156  14.045  0.3486  0.2884  1.0023
 8198SOL     OW36055   3.916   0.897   6.114  0.4651  0.3877  0.3675
 8198SOL    HW136056   3.846   0.856   6.164 -0.2031  1.6549  0.4809
 8198SOL    HW236057   3.880   0.984   6.094  0.3822 -0.0417 -1.3902
 8199SOL     OW36058   1.451   3.439  11.637  0.3782 -0.3128  0.4730
 8199SOL    HW136059   1.437   3.533  11.648  1.2260 -0.1829  0.4348
 8199SOL    HW236060   1.542   3.444  11.608  0.1828 -1.3031 -0.3093
 8200SOL     OW36061   4.351   2.007   3.371  0.8413  0.2519 -0.0245
 8200SOL    HW136062   4.418   2.040   3.311 -1.7610  1.5484 -2.1878
 8200SOL    HW236063   4.328   1.927   3.323  3.6047 -0.6721  0.1942
 8201SOL     OW36064   1.826   0.415  10.665  0.0919 -1.1513  0.0989
 8201SOL    HW136065   1.753   0.391  10.723 -0.6258 -0.6929 -0.6085
 8201SOL    HW236066   1.822   0.511  10.660 -4.1251 -1.3532 -0.5097
 8202SOL     OW36067   4.052   0.456   5.158  0.3629  0.3386  0.6644
 8202SOL    HW136068   4.043   0.541   5.200 -3.3401 -1.2192  3.0370
 8202SOL    HW236069   3.975   0.463   5.102  1.2532  0.6343 -0.5190
 8203SOL     OW36070   3.297   2.697   3.241 -0.0295  0.2004 -0.1313
 8203SOL    HW136071   3.259   2.714   3.327 -0.1696  0.4456 -0.2405
 8203SOL    HW236072   3.219   2.671   3.192  0.4303  1.3444 -1.4826
 8204SOL     OW36073   2.354   1.987   8.133  0.0191 -0.7190  0.2654
 8204SOL    HW136074   2.326   1.897   8.119  3.5319 -1.4936 -1.7866
 8204SOL    HW236075   2.331   1.992   8.226 -1.3897  0.3391 -0.1283
 8205SOL     OW36076   3.066   3.566   7.715 -0.1480 -0.2464  0.0998
 8205SOL    HW136077   3.071   3.551   7.621  2.1144 -1.8817  0.4686
 8205SOL    HW236078   3.066   3.476   7.750 -2.4206  0.3274  1.5304
 8206SOL     OW36079   1.475   4.589   7.498  0.0530  0.1226  0.4281
 8206SOL    HW136080   1.413   4.548   7.559  1.7706 -1.2801  1.2259
 8206SOL    HW236081   1.441   4.675   7.474  2.6581  1.1382  0.4249
 8207SOL     OW36082   1.473   2.570   2.050 -0.8586  0.4187  0.1496
 8207SOL    HW136083   1.413   2.598   1.982  0.6411  0.6278 -1.0827
 8207SOL    HW236084   1.418   2.577   2.128 -1.0998 -2.0885  0.2294
 8208SOL     OW36085   3.983   0.247   2.344  0.1809  0.5248  0.1245
 8208SOL    HW136086   4.070   0.286   2.348  0.5600 -0.3101  0.0709
 8208SOL    HW236087   3.942   0.307   2.282 -0.0921 -1.4041 -1.5769
 8209SOL     OW36088   1.557   3.079   9.028  0.1974  0.1789  0.1801
 8209SOL    HW136089   1.578   3.086   8.935  0.9786  1.4506  0.4515
 8209SOL    HW236090   1.591   2.993   9.053  0.9550  0.2204 -0.7012
 8210SOL     OW36091   1.862   1.069  12.178  0.6249  0.1895  0.5870
 8210SOL    HW136092   1.930   1.134  12.158  0.1219  0.3729 -0.5200
 8210SOL    HW236093   1.909   1.012  12.240 -0.6682 -0.7055  0.7380
 8211SOL     OW36094   2.480   1.808   7.258  0.4294 -0.4351  0.0115
 8211SOL    HW136095   2.511   1.718   7.249  0.5250 -0.1406 -2.6667
 8211SOL    HW236096   2.396   1.795   7.214  1.0433 -2.2276 -0.6421
 8212SOL     OW36097   2.554   0.664  17.676 -0.2446  0.2335  0.2594
 8212SOL    HW136098   2.579   0.723   0.050 -2.1612 -0.6890  1.7070
 8212SOL    HW236099   2.495   0.606   0.027  0.7919 -0.6021  0.5008
 8213SOL     OW36100   3.111   2.263   2.715  0.3338  0.1251  0.1504
 8213SOL    HW136101   3.107   2.207   2.638  1.3103  0.8279 -0.4088
 8213SOL    HW236102   3.089   2.344   2.671 -1.9159 -0.8002 -0.4028
 8214SOL     OW36103   2.919   3.907  13.150  0.2528 -0.5116  0.2105
 8214SOL    HW136104   2.932   3.907  13.055  0.3547  0.9334  0.2196
 8214SOL    HW236105   2.945   3.818  13.174  0.4507 -0.7891 -1.0403
 8215SOL     OW36106   4.720   3.118   9.970  0.0851  0.7678 -0.3364
 8215SOL    HW136107   0.011   3.081  10.057 -1.5158 -0.5783 -0.6241
 8215SOL    HW236108   4.628   3.137   9.988  0.5429  1.7251  0.9569
 8216SOL     OW36109   1.522   0.046  13.860 -0.3953  0.1378  0.3259
 8216SOL    HW136110   1.589   0.108  13.833 -1.5860  1.6013  0.7870
 8216SOL    HW236111   1.460   0.059  13.789 -0.1498 -1.2692 -0.1470
 8217SOL     OW36112   3.231   1.719  13.998 -0.1258 -0.8997  0.2102
 8217SOL    HW136113   3.156   1.710  13.940  0.4753  1.0235 -0.8493
 8217SOL    HW236114   3.219   1.636  14.044  2.6200 -1.8011 -0.7301
 8218SOL     OW36115   0.451   1.811   5.340 -0.0407 -0.2320  0.1055
 8218SOL    HW136116   0.446   1.877   5.409 -2.7194  0.4458 -0.7387
 8218SOL    HW236117   0.366   1.768   5.348 -0.8741  1.2120 -0.9044
 8219SOL     OW36118   4.323   3.639   4.808  0.6240  0.0041 -0.3667
 8219SOL    HW136119   4.347   3.612   4.897  1.4712  2.6403  0.2113
 8219SOL    HW236120   4.304   3.557   4.761  0.0315  0.9760 -1.8111
 8220SOL     OW36121   4.127   3.538   4.154  0.2988  0.2653  0.1748
 8220SOL    HW136122   4.069   3.476   4.111 -2.1500  1.8866  1.1528
 8220SOL    HW236123   4.186   3.477   4.198 -0.2688  1.3400  2.4313
 8221SOL     OW36124   2.718   1.717   3.921 -0.5198  0.0920 -0.0350
 8221SOL    HW136125   2.799   1.666   3.914  0.3921  1.0572  3.6060
 8221SOL    HW236126   2.735   1.784   3.988 -0.3123 -0.2604  0.2617
 8222SOL     OW36127   0.066   3.891   9.984  0.6747 -0.0437  0.3490
 8222SOL    HW136128   0.074   3.887   9.889  1.8654  1.0305  0.4007
 8222SOL    HW236129   0.067   3.798  10.005  1.6223 -0.2755 -0.7160
 8223SOL     OW36130   3.329   3.210   7.566  0.7475  0.1203  0.0465
 8223SOL    HW136131   3.420   3.238   7.576  0.7157  0.2298  0.0347
 8223SOL    HW236132   3.296   3.214   7.655 -3.5834  0.2623 -1.5557
 8224SOL     OW36133   3.891   3.683   6.320 -0.5840  0.0875 -0.7526
 8224SOL    HW136134   3.872   3.692   6.227  0.9944  0.3504 -1.0376
 8224SOL    HW236135   3.973   3.731   6.319 -0.3769 -0.2523  0.0792
 8225SOL     OW36136   0.918   3.057   9.426 -0.0810  0.3584  0.0104
 8225SOL    HW136137   0.974   3.129   9.457  0.8091 -0.9776  1.5581
 8225SOL    HW236138   0.951   3.028   9.341  3.6329 -0.5924  1.7390
 8226SOL     OW36139   4.473   2.596   6.986 -0.1239 -0.6149 -0.6027
 8226SOL    HW136140   4.412   2.651   7.037  0.4600  0.3628 -0.9511
 8226SOL    HW236141   4.452   2.509   7.018 -2.4245  0.0416 -0.3097
 8227SOL     OW36142   2.519   1.196   2.336 -0.2526 -0.1328  0.1647
 8227SOL    HW136143   2.496   1.197   2.429  1.3592  0.7052  0.5584
 8227SOL    HW236144   2.431   1.199   2.297 -0.6454 -0.3035  1.0393
 8228SOL     OW36145   3.433   4.080   7.116  0.1613  0.3326 -0.1400
 8228SOL    HW136146   3.448   4.166   7.155  0.6981  0.1719  0.0051
 8228SOL    HW236147   3.511   4.031   7.141 -0.1393 -0.2438 -0.3348
 8229SOL     OW36148   0.535   4.603  11.557 -0.6389  0.7187 -0.1514
 8229SOL    HW136149   0.451   4.617  11.514 -0.1602 -0.3089 -1.4109
 8229SOL    HW236150   0.519   4.589  11.651 -3.9320 -1.4340 -0.9986
 8230SOL     OW36151   2.312   2.054   5.083  0.0416  0.2922 -0.4558
 8230SOL    HW136152   2.242   2.086   5.141 -0.1644  2.9752 -2.2346
 8230SOL    HW236153   2.386   2.101   5.121  0.1706 -1.5942  1.6459
 8231SOL     OW36154   4.398   1.785   5.301 -0.0162 -0.3101 -0.2231
 8231SOL    HW136155   4.303   1.799   5.307  0.1403  0.3145  0.7205
 8231SOL    HW236156   4.420   1.752   5.387 -1.4662 -0.9894 -0.1058
 8232SOL     OW36157   4.063   0.589   4.856 -0.0903 -0.1183 -0.2567
 8232SOL    HW136158   4.051   0.494   4.846  2.5008 -0.5733  1.0790
 8232SOL    HW236159   4.152   0.602   4.823 -0.0392  0.1639 -0.0027
 8233SOL     OW36160   2.041   0.976   5.343  0.6427  0.0308 -0.4661
 8233SOL    HW136161   2.007   0.903   5.394  0.5229  0.5215  0.1585
 8233SOL    HW236162   2.024   1.043   5.409 -1.6894  0.4118 -1.4522
 8234SOL     OW36163   1.439   4.628  15.438  0.1040 -0.1585  0.0837
 8234SOL    HW136164   1.501   4.625  15.366  0.8353 -0.9481  0.7610
 8234SOL    HW236165   1.442   4.722  15.458  0.0589 -0.2791  0.6406
 8235SOL     OW36166   3.224   4.136   8.500 -0.5448  0.6211 -0.1466
 8235SOL    HW136167   3.316   4.158   8.515 -0.3797 -3.2969  4.4709
 8235SOL    HW236168   3.245   4.095   8.416 -0.1951 -1.0804  0.7841
 8236SOL     OW36169   4.494   0.222   6.429  0.5222  0.1744  0.2761
 8236SOL    HW136170   4.453   0.255   6.509  0.8835  1.6202 -0.1258
 8236SOL    HW236171   4.498   0.130   6.453  0.9400  0.1992  0.2999
 8237SOL     OW36172   4.249   1.295   5.236  1.1903 -0.5049  0.3768
 8237SOL    HW136173   4.211   1.373   5.276  0.7873 -0.2256 -0.5635
 8237SOL    HW236174   4.186   1.283   5.166  1.6953  0.8362 -0.2965
 8238SOL     OW36175   2.994   0.642   3.189  0.0975 -0.1511  0.2573
 8238SOL    HW136176   3.028   0.553   3.181  0.1753 -0.0266 -0.7684
 8238SOL    HW236177   2.956   0.634   3.276  3.3082  0.1892  1.6988
 8239SOL     OW36178   4.382   3.326   1.549  0.5223  0.0627  0.3222
 8239SOL    HW136179   4.287   3.315   1.543  0.5502 -1.0309  2.0769
 8239SOL    HW236180   4.402   3.255   1.488 -1.5935  2.1972 -2.8692
 8240SOL     OW36181   2.401   4.656   5.036  0.2033  0.2303  0.6063
 8240SOL    HW136182   2.424   0.024   5.048  0.9122  0.3242 -1.4569
 8240SOL    HW236183   2.307   4.665   5.020  0.2438  0.4453  0.4769
 8241SOL     OW36184   4.172   0.964   2.944 -0.2214  0.1808 -0.7951
 8241SOL    HW136185   4.156   0.870   2.958  0.9711  0.1837  0.5853
 8241SOL    HW236186   4.220   0.966   2.861  0.4967  2.2713 -0.3274
 8242SOL     OW36187   2.577   0.990  12.841 -0.1485 -0.0918 -0.0208
 8242SOL    HW136188   2.509   0.950  12.787 -0.3543  0.1508  0.0579
 8242SOL    HW236189   2.621   0.910  12.870  3.7942  1.3484 -2.0070
 8243SOL     OW36190   3.947   1.450   2.564  0.0409  0.1815 -0.4524
 8243SOL    HW136191   3.964   1.395   2.488 -1.1398  1.7088 -1.8264
 8243SOL    HW236192   3.874   1.501   2.530 -0.5846 -0.3462  0.1120
 8244SOL     OW36193   4.253   3.047  13.800  0.3224 -0.2013  0.0606
 8244SOL    HW136194   4.289   3.102  13.869  0.1816 -1.1686  0.9046
 8244SOL    HW236195   4.165   3.018  13.826  0.5872 -1.3265 -0.2932
 8245SOL     OW36196   2.809   0.181   5.678 -0.4227 -0.2813  0.2555
 8245SOL    HW136197   2.809   0.116   5.748  1.2102 -1.6565 -1.0239
 8245SOL    HW236198   2.858   0.257   5.709 -1.2051  0.7622 -1.0418
 8246SOL     OW36199   0.116   1.102   7.400 -0.3792 -0.3393  0.0698
 8246SOL    HW136200   0.132   1.040   7.471  0.9728  0.3834  0.4032
 8246SOL    HW236201   0.194   1.157   7.407  0.0724 -1.1120  1.0512
 8247SOL     OW36202   1.055   3.445   3.334  0.5521 -0.0797 -0.1178
 8247SOL    HW136203   1.003   3.477   3.261 -2.2952  0.2881  2.0927
 8247SOL    HW236204   1.130   3.401   3.294 -0.6098  0.2210 -2.6194
 8248SOL     OW36205   0.592   2.160   4.823  0.3608 -0.1184 -0.4240
 8248SOL    HW136206   0.586   2.102   4.747 -0.3047  1.6813 -1.7458
 8248SOL    HW236207   0.678   2.203   4.819  0.7837 -1.2980 -4.1019
 8249SOL     OW36208   1.336   0.946   2.695  0.0124  0.3711  0.5847
 8249SOL    HW136209   1.278   0.993   2.756  1.4525  0.5897  1.7738
 8249SOL    HW236210   1.280   0.931   2.618  0.6162 -0.6170  0.3440
 8250SOL     OW36211   1.288   3.741   8.388  0.2018  0.4372 -0.3324
 8250SOL    HW136212   1.236   3.672   8.430 -0.7946  2.6209  1.9640
 8250SOL    HW236213   1.327   3.776   8.468 -0.2803 -0.4759  0.3111
 8251SOL     OW36214   3.995   1.975   4.294  0.3113 -0.1686  0.2785
 8251SOL    HW136215   3.944   1.934   4.224  0.8633  0.4085 -0.4647
 8251SOL    HW236216   4.045   2.042   4.246  1.3481 -1.0700  0.0848
 8252SOL     OW36217   0.736   4.314   1.663 -0.2564 -0.5266 -0.1154
 8252SOL    HW136218   0.813   4.260   1.680  0.2647  0.5938  1.0291
 8252SOL    HW236219   0.738   4.381   1.731 -0.5978 -0.6434  0.0101
 8253SOL     OW36220   2.430   3.147   5.146  0.2538  0.2797  0.2153
 8253SOL    HW136221   2.343   3.145   5.106  0.7456  2.5946 -0.9670
 8253SOL    HW236222   2.486   3.214   5.106  0.4135 -0.1964 -0.3547
 8254SOL     OW36223   4.379   2.190   4.938  0.3258  0.4566 -0.4569
 8254SOL    HW136224   4.432   2.123   4.895 -1.7117 -2.6116  1.8387
 8254SOL    HW236225   4.422   2.199   5.023  0.3737 -0.5684 -0.3809
 8255SOL     OW36226   1.101   0.443   2.910  0.7724  0.0716 -0.2392
 8255SOL    HW136227   1.008   0.460   2.920  0.8969  0.7084 -0.1266
 8255SOL    HW236228   1.105   0.384   2.985  3.6338  1.1727  0.5113
 8256SOL     OW36229   0.805   1.858   8.519  0.4271  0.3342 -0.0190
 8256SOL    HW136230   0.864   1.801   8.470  0.1404 -1.0822  1.3012
 8256SOL    HW236231   0.868   1.903   8.576 -0.3724 -0.1058  1.1880
 8257SOL     OW36232   4.300   1.891  13.206 -0.4672  0.7936  0.2776
 8257SOL    HW136233   4.208   1.879  13.185 -0.1721  2.6395 -2.1085
 8257SOL    HW236234   4.319   1.837  13.283  0.2638  0.1822 -0.3328
 8258SOL     OW36235   0.191   2.418   1.482  0.3476  0.3231 -0.3616
 8258SOL    HW136236   0.099   2.394   1.473  0.4868 -0.8059  1.2031
 8258SOL    HW236237   0.195   2.511   1.461 -2.9983  0.7780  1.0314
 8259SOL     OW36238   2.461   4.309   5.879 -0.6731  0.0182 -0.2757
 8259SOL    HW136239   2.533   4.272   5.828 -0.5930 -1.7677  1.1117
 8259SOL    HW236240   2.422   4.361   5.809  1.2275  0.4953 -0.9871
 8260SOL     OW36241   1.618   1.553   9.321  0.8354  0.4311 -0.0716
 8260SOL    HW136242   1.669   1.603   9.258 -1.3924  0.4281 -1.8787
 8260SOL    HW236243   1.675   1.553   9.398 -1.6452  3.2303  1.7407
 8261SOL     OW36244   1.315   2.014  12.031 -0.1446 -0.0957  0.2663
 8261SOL    HW136245   1.224   2.011  12.061  0.4111  1.2127  2.0690
 8261SOL    HW236246   1.359   1.997  12.114 -1.9958  0.0989  1.2901
 8262SOL     OW36247   0.553   1.879   6.889 -0.8379  0.5518  0.1235
 8262SOL    HW136248   0.526   1.841   6.805 -1.1599  1.5621 -0.2338
 8262SOL    HW236249   0.612   1.813   6.924  0.0808  1.6123  0.5880
 8263SOL     OW36250   2.768   4.407   1.468 -0.0040 -0.0170  0.3938
 8263SOL    HW136251   2.801   4.358   1.393 -1.4389 -0.0185 -0.2556
 8263SOL    HW236252   2.776   4.335   1.530 -3.2391 -1.0756 -0.4045
 8264SOL     OW36253   1.805   2.837   6.398 -1.0199  0.1123 -0.1249
 8264SOL    HW136254   1.792   2.897   6.471 -2.8806  0.0926 -0.4495
 8264SOL    HW236255   1.887   2.800   6.431  2.1256  2.7148 -5.0120
 8265SOL     OW36256   0.914   2.908   8.407 -0.3234 -0.3412  0.2443
 8265SOL    HW136257   1.004   2.884   8.428 -0.1842  1.4293  1.6313
 8265SOL    HW236258   0.920   2.997   8.372 -0.2613 -0.6866 -0.6216
 8266SOL     OW36259   2.475   1.097   6.969  0.0659  0.1777  0.1039
 8266SOL    HW136260   2.548   1.101   6.908 -0.9119 -0.3429 -1.0935
 8266SOL    HW236261   2.526   1.104   7.050  0.3890  0.0220 -0.0884
 8267SOL     OW36262   3.252   2.105  16.665  0.5616  0.0108  0.4412
 8267SOL    HW136263   3.321   2.145  16.613  0.7038 -0.4371  0.2864
 8267SOL    HW236264   3.198   2.071  16.593 -0.1503 -1.6744  1.7572
 8268SOL     OW36265   4.374   3.446   0.943 -0.3759 -0.2255  0.5441
 8268SOL    HW136266   4.381   3.363   0.991 -2.0469 -0.6071  0.1331
 8268SOL    HW236267   4.279   3.456   0.938 -0.5296 -2.6537 -1.4258
 8269SOL     OW36268   2.801   2.617  11.837  0.2650 -0.1650 -0.3864
 8269SOL    HW136269   2.716   2.612  11.794  0.0830  0.1084 -0.0593
 8269SOL    HW236270   2.871   2.602  11.773 -0.7164 -0.2795 -1.4249
 8270SOL     OW36271   2.619   3.650   6.164 -0.0751 -0.1061 -0.0298
 8270SOL    HW136272   2.567   3.708   6.220  0.4692 -0.6652  1.0511
 8270SOL    HW236273   2.555   3.592   6.124 -0.3503  0.1848 -0.0082
 8271SOL     OW36274   3.879   2.870   6.003 -0.3789 -0.1072 -0.3028
 8271SOL    HW136275   3.923   2.845   6.085 -2.3484 -0.5192  0.6345
 8271SOL    HW236276   3.831   2.949   6.027  1.0329  1.3934 -2.4396
 8272SOL     OW36277   2.458   2.858   6.464  0.5751  0.2998 -0.3658
 8272SOL    HW136278   2.443   2.838   6.371  0.1633  0.1284 -0.2593
 8272SOL    HW236279   2.533   2.802   6.485  0.3602  0.4483  0.7977
 8273SOL     OW36280   1.817   0.924  14.744 -0.7435 -0.1501 -0.2676
 8273SOL    HW136281   1.891   0.970  14.784 -0.6860 -0.3474 -0.1439
 8273SOL    HW236282   1.739   0.976  14.762  0.1074  1.4115 -1.0272
 8274SOL     OW36283   2.401   3.398  13.346  0.1507 -0.0790  0.7349
 8274SOL    HW136284   2.354   3.404  13.263 -0.7611  2.1122  1.4011
 8274SOL    HW236285   2.330   3.426  13.404 -2.6906 -4.2333 -0.7835
 8275SOL     OW36286   0.020   2.698   3.508  0.0756 -0.1559  0.8208
 8275SOL    HW136287   4.715   2.609   3.488 -2.0221  1.0603 -1.5461
 8275SOL    HW236288   0.106   2.674   3.542  0.0202 -2.9188 -1.0007
 8276SOL     OW36289   3.261   2.624   6.884 -0.1990 -0.3405 -0.4984
 8276SOL    HW136290   3.309   2.695   6.841 -0.4371  0.8975  1.3102
 8276SOL    HW236291   3.322   2.553   6.862 -0.8878 -0.6990 -1.2759
 8277SOL     OW36292   1.747   3.119   5.355 -0.2241 -0.3862  0.5467
 8277SOL    HW136293   1.746   3.210   5.385 -1.0859  0.1975 -1.2285
 8277SOL    HW236294   1.842   3.109   5.347 -0.3263 -1.4724  0.7678
 8278SOL     OW36295   3.975   2.030   9.043  0.2944  0.1561  0.5280
 8278SOL    HW136296   4.037   2.020   9.115  0.5471  0.3054  0.3313
 8278SOL    HW236297   3.901   2.076   9.082  0.4774  1.9230 -1.1960
 8279SOL     OW36298   3.705   2.032   2.349  0.3133  0.2345 -0.2470
 8279SOL    HW136299   3.690   2.094   2.420 -2.9880  0.3562 -1.0359
 8279SOL    HW236300   3.779   2.066   2.299  0.0458  2.4436  0.8589
 8280SOL     OW36301   3.207   4.421   0.894  0.5939  0.1381  0.2150
 8280SOL    HW136302   3.208   4.481   0.820  1.2322 -0.4830 -0.2736
 8280SOL    HW236303   3.255   4.345   0.860 -0.5866 -0.6147  0.2355
 8281SOL     OW36304   0.874   1.628   3.084  0.0294 -0.0683 -0.1343
 8281SOL    HW136305   0.795   1.682   3.088  1.0393  1.1891  2.2804
 8281SOL    HW236306   0.851   1.567   3.155  0.5914 -0.2394 -0.0981
 8282SOL     OW36307   3.759   1.609   9.688  0.3993  0.8144  0.3239
 8282SOL    HW136308   3.848   1.593   9.656  0.5706  0.1641  1.1137
 8282SOL    HW236309   3.758   1.559   9.770  2.2772 -2.1543 -1.4529
 8283SOL     OW36310   3.387   3.790  16.582 -0.6000 -0.3544  0.0747
 8283SOL    HW136311   3.404   3.715  16.526 -0.7433  1.2744 -2.1584
 8283SOL    HW236312   3.338   3.751  16.654  0.2350 -1.2733  0.1345
 8284SOL     OW36313   0.020   0.029   0.190  0.3541  0.5102 -0.2503
 8284SOL    HW136314   0.012   0.120   0.162  0.8455  1.6522  3.3435
 8284SOL    HW236315   0.077   0.044   0.265  1.9192  0.7110 -1.4934
 8285SOL     OW36316   4.679   2.539   9.564  0.1898  0.1645 -0.5126
 8285SOL    HW136317   4.661   2.524   9.657 -0.1375  2.4072 -0.2123
 8285SOL    HW236318   0.032   2.485   9.547  0.4225 -0.6114  3.0372
 8286SOL     OW36319   2.222   0.731   3.401  0.4927  0.2401  0.2572
 8286SOL    HW136320   2.143   0.741   3.347 -0.0724  1.2560  1.2600
 8286SOL    HW236321   2.240   0.819   3.435 -0.6077 -0.2936  2.1770
 8287SOL     OW36322   3.497   1.874   9.353 -0.4826 -0.2147 -0.7326
 8287SOL    HW136323   3.561   1.941   9.375 -2.2893  0.1862  3.3624
 8287SOL    HW236324   3.500   1.821   9.433  0.1140 -2.4333 -2.2182
 8288SOL     OW36325   3.750   2.685   1.074  0.0902  0.0470 -0.3243
 8288SOL    HW136326   3.717   2.681   1.163  0.0278  1.9865 -0.2709
 8288SOL    HW236327   3.707   2.763   1.040  1.1077 -0.0432 -1.8549
 8289SOL     OW36328   0.666   1.299   4.633 -0.2495  0.2985 -0.5637
 8289SOL    HW136329   0.617   1.243   4.693 -0.2662  0.4251 -0.4600
 8289SOL    HW236330   0.669   1.252   4.549  0.3158 -1.0386  0.2038
 8290SOL     OW36331   3.214   4.620   3.158 -0.4369  0.2669 -0.0150
 8290SOL    HW136332   3.189   4.529   3.173  0.3466 -0.0686 -0.7652
 8290SOL    HW236333   3.309   4.611   3.156 -0.2146  2.7546 -0.8743
 8291SOL     OW36334   2.865   3.142   1.865 -0.4424 -0.1109  0.2649
 8291SOL    HW136335   2.851   3.225   1.911 -1.8804  0.0136 -0.3884
 8291SOL    HW236336   2.789   3.126   1.809 -1.5462 -0.5303  1.8786
 8292SOL     OW36337   0.832   2.272   4.314  0.3477  0.2362  0.4511
 8292SOL    HW136338   0.813   2.182   4.288 -0.7835  0.6577 -0.2012
 8292SOL    HW236339   0.755   2.286   4.369 -1.1392  1.8455 -1.9869
 8293SOL     OW36340   3.284   1.123   4.386  0.2410 -0.2803  0.1054
 8293SOL    HW136341   3.362   1.173   4.412  0.5652 -1.8232  2.1267
 8293SOL    HW236342   3.225   1.162   4.451  0.6204  3.0169 -1.5126
 8294SOL     OW36343   3.964   0.089  13.851  0.5709 -0.4879  0.0130
 8294SOL    HW136344   3.991   0.043  13.930 -0.6273 -2.8662 -0.9679
 8294SOL    HW236345   3.869   0.073  13.855  0.4313  0.3256  0.0391
 8295SOL     OW36346   1.900   4.659   4.846 -0.1980  0.1758 -0.5269
 8295SOL    HW136347   1.835   4.657   4.917 -0.0242  0.2143 -0.3664
 8295SOL    HW236348   1.860   4.714   4.779  0.7809 -0.9525 -2.0270
 8296SOL     OW36349   0.157   2.377   7.892  0.3721  0.0630 -0.2716
 8296SOL    HW136350   0.243   2.416   7.910  0.9908 -1.5634  0.2738
 8296SOL    HW236351   0.128   2.356   7.980 -1.7504 -1.5656 -1.3721
 8297SOL     OW36352   1.295   3.684   2.990  0.3110  0.4866 -0.1497
 8297SOL    HW136353   1.244   3.698   2.911  1.3810 -0.5053 -1.0160
 8297SOL    HW236354   1.271   3.756   3.048 -0.0892 -0.1252  0.4433
 8298SOL     OW36355   0.441   1.409   8.925 -0.0092 -0.5352 -0.0656
 8298SOL    HW136356   0.424   1.502   8.909  1.0032 -0.2711  0.3816
 8298SOL    HW236357   0.464   1.414   9.018 -0.0014 -1.8393  0.0000
 8299SOL     OW36358   2.796   4.424  15.035 -0.1613  0.7203 -0.1348
 8299SOL    HW136359   2.798   4.506  15.084  0.5690 -0.2140  1.3934
 8299SOL    HW236360   2.707   4.392  15.050  0.7709 -0.9929  1.6895
 8300SOL     OW36361   2.931   3.744  11.737  0.1225 -0.0043  0.0610
 8300SOL    HW136362   2.981   3.768  11.659  1.2596  0.8353  1.0451
 8300SOL    HW236363   2.855   3.709  11.691 -1.2669  0.2763  2.1615
 8301SOL     OW36364   0.970   4.500   6.476 -0.2490 -0.3809 -0.2710
 8301SOL    HW136365   0.958   4.553   6.555  1.5299 -1.8367  1.0160
 8301SOL    HW236366   0.898   4.540   6.429 -1.2906 -0.6470  1.0974
 8302SOL     OW36367   1.300   4.514   5.605  0.6667  0.2593 -0.0245
 8302SOL    HW136368   1.334   4.447   5.665 -1.5857  2.4629  3.6991
 8302SOL    HW236369   1.332   4.594   5.647  3.1541 -1.2719  1.0392
 8303SOL     OW36370   4.535   4.070   6.323  0.0876 -0.4228 -0.3829
 8303SOL    HW136371   4.442   4.048   6.323  0.3822 -1.6626 -2.2649
 8303SOL    HW236372   4.528   4.153   6.274  1.6227 -1.1314 -1.7979
 8304SOL     OW36373   3.510   3.574   2.242 -0.2432  0.2346 -0.7914
 8304SOL    HW136374   3.511   3.568   2.146 -2.0826  0.5674 -0.8458
 8304SOL    HW236375   3.538   3.486   2.265  2.6692  1.4137  0.2421
 8305SOL     OW36376   2.387   1.332   2.056 -0.1834 -0.1520 -0.1199
 8305SOL    HW136377   2.460   1.274   2.034  0.0486 -0.7431  2.1966
 8305SOL    HW236378   2.336   1.282   2.120 -1.8468  1.9693  0.2131
 8306SOL     OW36379   1.333   1.142   3.382  0.2588 -0.1909 -0.0869
 8306SOL    HW136380   1.394   1.068   3.387 -1.2798 -1.2018  3.7913
 8306SOL    HW236381   1.381   1.212   3.336  0.9191 -0.7748 -0.2937
 8307SOL     OW36382   3.797   0.230  12.513  0.1950  0.0695 -0.4141
 8307SOL    HW136383   3.762   0.141  12.519  0.4582 -0.1011 -1.4323
 8307SOL    HW236384   3.862   0.219  12.583  1.4318  0.4921 -1.5009
 8308SOL     OW36385   3.293   4.235   2.379 -0.3702  0.3975 -0.0343
 8308SOL    HW136386   3.216   4.217   2.433  0.3518 -0.2367  0.7920
 8308SOL    HW236387   3.270   4.228   2.286  1.2153  0.5749 -0.4425
 8309SOL     OW36388   1.041   2.002  12.082  0.8114  0.1872 -0.4742
 8309SOL    HW136389   0.990   2.082  12.099 -1.1454 -1.2013  0.1714
 8309SOL    HW236390   0.966   1.966  12.036  1.0536 -0.5027 -0.3272
 8310SOL     OW36391   3.534   2.974  15.211 -0.4449  0.2529  0.0965
 8310SOL    HW136392   3.513   3.054  15.258  2.2708  1.2161 -0.3367
 8310SOL    HW236393   3.588   2.920  15.269  1.6213  0.7008 -1.3833
 8311SOL     OW36394   3.678   2.554  16.304  0.1020 -0.1163 -0.4582
 8311SOL    HW136395   3.668   2.467  16.343 -0.2949  0.3459  0.4732
 8311SOL    HW236396   3.765   2.558  16.263  0.2892 -0.5016 -0.0988
 8312SOL     OW36397   4.066   1.419   8.390 -0.1541 -0.4423 -0.6057
 8312SOL    HW136398   3.984   1.413   8.340 -0.2388  3.4689 -0.9596
 8312SOL    HW236399   4.039   1.400   8.480 -0.1523 -0.2911 -0.5737
 8313SOL     OW36400   2.517   0.836   2.170  0.5323 -0.2328  0.2030
 8313SOL    HW136401   2.486   0.873   2.087  0.1708  1.1322  0.9544
 8313SOL    HW236402   2.532   0.745   2.143 -1.2195 -0.7568  1.0026
 8314SOL     OW36403   3.881   1.961  12.128  0.1582  0.4645  0.2476
 8314SOL    HW136404   3.865   1.875  12.168 -0.3531  0.3460 -0.2070
 8314SOL    HW236405   3.975   1.976  12.122  0.0985  0.6064 -0.3005
 8315SOL     OW36406   1.755   1.504   4.641 -0.1613  0.1869  0.5523
 8315SOL    HW136407   1.705   1.564   4.697 -0.3757  2.0923 -1.6676
 8315SOL    HW236408   1.750   1.551   4.558 -1.5718  0.4324  0.7873
 8316SOL     OW36409   3.902   4.603   3.595 -0.3426 -0.5238  0.0655
 8316SOL    HW136410   3.949   4.569   3.518 -0.1644 -0.2327  0.0466
 8316SOL    HW236411   3.891   4.695   3.573 -1.4651 -0.8398 -0.7088
 8317SOL     OW36412   4.412   2.891   2.464 -0.2453 -0.5923  0.0917
 8317SOL    HW136413   4.474   2.895   2.536 -0.1695  0.6656 -0.0442
 8317SOL    HW236414   4.443   2.810   2.424 -0.2176 -0.9677  0.8760
 8318SOL     OW36415   1.672   1.131   4.804  1.2502 -0.0747  0.4024
 8318SOL    HW136416   1.758   1.090   4.795  2.1806  2.2720 -1.2852
 8318SOL    HW236417   1.634   1.052   4.843  2.1848 -0.8278 -0.2220
 8319SOL     OW36418   4.242   1.003   2.680  0.1406 -0.3731  0.1654
 8319SOL    HW136419   4.286   0.963   2.605 -0.6433  1.9527 -1.5706
 8319SOL    HW236420   4.225   1.084   2.631 -0.1628  0.2029  1.2405
 8320SOL     OW36421   3.509   3.262   1.863 -0.9233 -0.2762  0.0673
 8320SOL    HW136422   3.529   3.214   1.783 -0.6239 -0.5348  0.2927
 8320SOL    HW236423   3.417   3.241   1.875 -0.9987 -0.6191 -1.1546
 8321SOL     OW36424   3.351   0.874   6.650 -0.7206 -0.3185  0.0229
 8321SOL    HW136425   3.267   0.828   6.645 -1.6591  1.1224  2.8120
 8321SOL    HW236426   3.343   0.909   6.739 -2.9779  0.3555 -0.4633
 8322SOL     OW36427   1.553   3.266   4.647 -0.9013  0.2397  0.0391
 8322SOL    HW136428   1.641   3.302   4.657 -0.8925  0.5498 -1.1311
 8322SOL    HW236429   1.543   3.238   4.738  3.2548 -1.4315 -0.0209
 8323SOL     OW36430   1.593   2.887   1.495  0.1938 -0.3828  0.1905
 8323SOL    HW136431   1.604   2.979   1.516 -3.0360 -0.4661  2.3119
 8323SOL    HW236432   1.649   2.846   1.560  0.7053  0.2593  0.1422
 8324SOL     OW36433   3.564   4.335   3.213 -0.8383  0.2778 -0.0244
 8324SOL    HW136434   3.517   4.253   3.195 -1.2878  0.1709  1.7078
 8324SOL    HW236435   3.653   4.303   3.228 -0.9111  0.7117  1.3361
 8325SOL     OW36436   0.159   1.936   1.962 -0.1300  0.3006  0.1344
 8325SOL    HW136437   0.129   1.860   2.011 -0.0368  0.3934  0.3345
 8325SOL    HW236438   0.250   1.911   1.948 -0.1034 -0.4905  1.7159
 8326SOL     OW36439   3.394   4.477   2.488 -0.0042 -0.7385 -0.4339
 8326SOL    HW136440   3.406   4.407   2.424  1.2722 -2.6022  1.8638
 8326SOL    HW236441   3.466   4.538   2.470 -0.5201 -0.2483 -0.8609
 8327SOL     OW36442   2.003   3.934   2.932 -0.0097 -0.1278 -0.1310
 8327SOL    HW136443   1.973   4.022   2.954  0.8059  0.1424 -0.1328
 8327SOL    HW236444   1.923   3.881   2.937  0.3301 -0.6785 -0.5903
 8328SOL     OW36445   3.195   3.826  13.493  0.6437 -0.1467  0.7547
 8328SOL    HW136446   3.197   3.830  13.589  1.2638  1.4049  0.6812
 8328SOL    HW236447   3.218   3.738  13.464 -3.1570 -0.5449 -1.1355
 8329SOL     OW36448   2.489   3.068  11.277  0.2565 -0.6997  1.0070
 8329SOL    HW136449   2.411   3.123  11.273  1.6450  1.2565  0.6466
 8329SOL    HW236450   2.566   3.123  11.257 -0.2430 -0.1819  0.5158
 8330SOL     OW36451   2.419   2.684   5.089  0.1775 -0.3203  0.6643
 8330SOL    HW136452   2.405   2.624   5.016  0.9270  0.0673  0.2020
 8330SOL    HW236453   2.506   2.723   5.080  0.8437 -2.3179 -1.6272
 8331SOL     OW36454   1.617   0.303   7.182 -0.1178  0.1740  0.1250
 8331SOL    HW136455   1.622   0.244   7.107  0.6228 -0.8936  1.0242
 8331SOL    HW236456   1.533   0.285   7.224  0.5115  2.1468  2.2386
 8332SOL     OW36457   0.861   0.855   6.044 -0.1397  0.8114  0.1237
 8332SOL    HW136458   0.808   0.800   6.102 -0.6585  0.1468 -0.9676
 8332SOL    HW236459   0.940   0.802   6.033 -0.9319  0.4204 -3.5224
 8333SOL     OW36460   1.844   2.503   0.541  0.3011  0.0699 -0.0832
 8333SOL    HW136461   1.860   2.409   0.549 -0.9490 -0.2933 -1.9974
 8333SOL    HW236462   1.908   2.543   0.600 -0.0832 -1.4385  1.3522
 8334SOL     OW36463   1.361   1.552   3.497  0.0699  0.0044  0.3167
 8334SOL    HW136464   1.271   1.582   3.511 -0.0355  0.6390 -1.7433
 8334SOL    HW236465   1.370   1.468   3.542  0.9681 -0.9366 -1.6202
 8335SOL     OW36466   3.996   3.684   5.381  0.3015  0.2783 -0.1155
 8335SOL    HW136467   3.982   3.655   5.291  0.9702  2.8519 -1.0501
 8335SOL    HW236468   3.986   3.599   5.426  0.0991  0.1883 -0.3310
 8336SOL     OW36469   3.476   3.300   2.282 -0.1680  0.6419  0.0977
 8336SOL    HW136470   3.543   3.291   2.351  0.7036  1.7780 -0.6044
 8336SOL    HW236471   3.481   3.209   2.252 -1.5920  0.4767  0.3665
 8337SOL     OW36472   1.452   2.839  10.542 -0.1795  0.7035  0.4517
 8337SOL    HW136473   1.499   2.827  10.625  2.8424 -3.1111 -1.8069
 8337SOL    HW236474   1.380   2.889  10.580 -0.6271 -1.3528  2.3248
 8338SOL     OW36475   0.590   2.341   4.411 -0.0187 -0.4667  0.1024
 8338SOL    HW136476   0.495   2.328   4.407  0.2849 -2.4211 -1.1969
 8338SOL    HW236477   0.587   2.409   4.477  0.9330  2.0011 -2.4044
 8339SOL     OW36478   3.041   4.180   3.182 -0.1077  0.2157  0.0237
 8339SOL    HW136479   3.119   4.235   3.170  0.0485  0.2322  1.1797
 8339SOL    HW236480   3.080   4.101   3.219  0.1744 -0.0574 -0.8540
 8340SOL     OW36481   2.193   0.644  16.894  1.1024  0.2482 -0.4259
 8340SOL    HW136482   2.224   0.608  16.977 -0.0334  1.1049  0.3497
 8340SOL    HW236483   2.185   0.738  16.909  1.9668  0.2019  0.3094
 8341SOL     OW36484   0.077   0.681   4.816  0.3199 -0.1180 -0.1139
 8341SOL    HW136485   0.169   0.665   4.838  1.0690  2.5771 -1.2522
 8341SOL    HW236486   0.035   0.667   4.900  0.2920 -4.7626 -0.8622
 8342SOL     OW36487   0.232   1.685   5.985 -0.1510  0.2506 -0.4432
 8342SOL    HW136488   0.201   1.744   6.054 -1.0604 -0.4554 -0.2492
 8342SOL    HW236489   0.305   1.736   5.949 -0.1341  2.6622  2.9332
 8343SOL     OW36490   0.047   0.362   4.087 -0.0300 -0.0132  0.2012
 8343SOL    HW136491   0.122   0.376   4.029  0.2935 -2.3666  0.0455
 8343SOL    HW236492   0.087   0.375   4.173  0.4190 -2.6191  0.4064
 8344SOL     OW36493   0.135   4.040   4.570  0.0009  0.3705 -0.3126
 8344SOL    HW136494   0.115   4.132   4.588 -1.6118  0.0408 -0.3851
 8344SOL    HW236495   0.227   4.038   4.595  0.3244 -0.4127 -1.5670
 8345SOL     OW36496   0.878   0.187   4.731  0.1220  0.2587 -0.4415
 8345SOL    HW136497   0.973   0.191   4.740 -0.0049 -2.3809  1.9202
 8345SOL    HW236498   0.866   0.147   4.645 -1.8610  0.1403 -0.1029
 8346SOL     OW36499   1.645   0.999  16.205  0.1617 -0.4500  0.0355
 8346SOL    HW136500   1.564   0.950  16.193 -0.3779 -0.0558  2.0698
 8346SOL    HW236501   1.639   1.026  16.296 -1.3444 -2.1321  0.4316
 8347SOL     OW36502   3.272   0.524   2.873  0.0382  0.0232 -0.0518
 8347SOL    HW136503   3.288   0.461   2.803  1.6304  0.5900 -0.1964
 8347SOL    HW236504   3.211   0.481   2.932  0.6867  0.4555  0.9310
 8348SOL     OW36505   2.225   2.309   6.157  0.3322  0.1224 -0.1722
 8348SOL    HW136506   2.142   2.324   6.202 -1.0179  0.1106 -2.6723
 8348SOL    HW236507   2.269   2.389   6.186 -0.9547  0.2436  1.5033
 8349SOL     OW36508   3.467   2.974   7.151  0.1480  0.0572  0.3229
 8349SOL    HW136509   3.446   2.994   7.242  0.1942 -1.7433  0.7354
 8349SOL    HW236510   3.408   3.034   7.106 -1.5786 -1.5238  0.4770
 8350SOL     OW36511   3.229   0.615   7.060  0.3151  0.4249  0.0854
 8350SOL    HW136512   3.288   0.542   7.040  0.4076  0.6037 -0.3028
 8350SOL    HW236513   3.181   0.632   6.979 -1.6401 -2.3461  0.6872
 8351SOL     OW36514   2.058   1.974   8.544  0.4791 -0.0154  0.3061
 8351SOL    HW136515   2.031   1.930   8.624  0.0992  0.3683  0.3867
 8351SOL    HW236516   2.047   1.906   8.477  1.0240  2.9820 -2.8370
 8352SOL     OW36517   3.320   3.074  15.081 -0.6146 -0.1998 -0.4101
 8352SOL    HW136518   3.341   3.167  15.079 -0.0133 -0.2910  1.4806
 8352SOL    HW236519   3.407   3.038  15.099 -0.3721  2.1374  3.2577
 8353SOL     OW36520   2.047   0.708   7.835  0.1832  0.4503 -0.1798
 8353SOL    HW136521   2.036   0.624   7.879 -0.2397 -1.1355 -3.3432
 8353SOL    HW236522   1.967   0.723   7.785 -1.0235 -1.3070  1.2414
 8354SOL     OW36523   2.544   0.738   6.972  0.3514  0.5338  0.3041
 8354SOL    HW136524   2.489   0.811   7.001  0.6191  0.7482  0.2692
 8354SOL    HW236525   2.513   0.663   7.023 -1.3775  0.2048 -1.2308
 8355SOL     OW36526   4.708   0.797   8.507 -0.3500  0.2218  0.1725
 8355SOL    HW136527   0.043   0.816   8.435  0.4385  1.2634  1.0982
 8355SOL    HW236528   0.001   0.703   8.520  2.1145  1.0148  2.5795
 8356SOL     OW36529   0.436   2.833   6.254  1.0031  0.5809 -0.2470
 8356SOL    HW136530   0.471   2.921   6.242 -0.3923  1.5378  2.8285
 8356SOL    HW236531   0.426   2.799   6.165  1.7751  1.4547 -0.6684
 8357SOL     OW36532   3.350   4.119  14.422  0.0730  1.0960 -0.1884
 8357SOL    HW136533   3.262   4.082  14.429  0.2388  0.8741  0.7424
 8357SOL    HW236534   3.350   4.171  14.502  0.3883  0.2028  0.3833
 8358SOL     OW36535   1.387   0.387   7.793  0.2868 -0.1886 -0.2088
 8358SOL    HW136536   1.314   0.341   7.835  0.7630 -0.0865  0.7281
 8358SOL    HW236537   1.433   0.317   7.747 -1.1760 -1.3722  0.1173
 8359SOL     OW36538   4.250   0.763   4.566 -0.3010  0.5820  0.3839
 8359SOL    HW136539   4.188   0.791   4.499 -1.5747  2.2214  2.2328
 8359SOL    HW236540   4.318   0.830   4.566  0.3678 -0.0936  0.5262
 8360SOL     OW36541   2.446   4.209   7.717  0.1738 -0.0792  0.7174
 8360SOL    HW136542   2.493   4.129   7.692 -2.1952 -1.7175  1.5102
 8360SOL    HW236543   2.362   4.175   7.749 -1.0706  0.0588 -2.3782
 8361SOL     OW36544   2.019   2.146   2.742  0.3125 -0.2621 -0.4582
 8361SOL    HW136545   1.953   2.214   2.752 -0.2898 -0.8620 -0.3336
 8361SOL    HW236546   1.984   2.093   2.670  0.5839  0.1688 -0.9095
 8362SOL     OW36547   2.347   3.206   4.168 -0.1693  0.0499 -0.2000
 8362SOL    HW136548   2.407   3.223   4.096  0.0362  1.5512  0.3417
 8362SOL    HW236549   2.397   3.253   4.234  0.7892 -1.4883  0.1887
 8363SOL     OW36550   3.875   0.452   6.732 -0.0537 -0.2246 -0.2492
 8363SOL    HW136551   3.788   0.464   6.770  0.8096  1.1589  1.2939
 8363SOL    HW236552   3.897   0.539   6.698  0.4354 -0.7725 -1.3539
 8364SOL     OW36553   0.257   4.528   7.458  0.0959  0.6941 -0.1887
 8364SOL    HW136554   0.218   4.563   7.378  2.4641 -0.0983 -1.6793
 8364SOL    HW236555   0.215   4.442   7.465 -0.0117  0.8927  1.5990
 8365SOL     OW36556   4.663   0.757  11.367  0.0456 -0.0208  0.1436
 8365SOL    HW136557   4.586   0.771  11.423  0.2711  0.5783  0.3009
 8365SOL    HW236558   4.628   0.701  11.297 -0.7699 -1.9559  2.1033
 8366SOL     OW36559   4.524   2.017   7.350  0.2046  0.5233 -0.3840
 8366SOL    HW136560   4.532   2.046   7.259  0.5291  0.7408 -0.2853
 8366SOL    HW236561   4.584   2.076   7.395 -0.5253  1.6415 -0.9064
 8367SOL     OW36562   3.510   0.015  14.721  0.1659 -0.3657  0.3545
 8367SOL    HW136563   3.441   4.675  14.743  0.1569 -0.0627  1.1936
 8367SOL    HW236564   3.553   0.025  14.806 -0.1218  0.9772  0.3476
 8368SOL     OW36565   0.340   0.206   3.642 -0.1269  0.2409  0.0486
 8368SOL    HW136566   0.405   0.274   3.626  0.1436  0.8691  3.6180
 8368SOL    HW236567   0.393   0.133   3.673  0.8580  0.1433 -1.8678
 8369SOL     OW36568   0.267   2.917   8.220 -0.3319 -0.0475  0.3446
 8369SOL    HW136569   0.323   2.989   8.250  0.4634 -1.0253  1.1882
 8369SOL    HW236570   0.206   2.965   8.163  0.0017 -0.6866 -0.5402
 8370SOL     OW36571   1.751   1.954   5.973  0.0536  0.5031  0.2774
 8370SOL    HW136572   1.814   1.883   5.976 -1.5634 -0.9699 -0.2692
 8370SOL    HW236573   1.676   1.907   6.010 -0.4231 -0.1824 -1.5624
 8371SOL     OW36574   4.455   1.874   2.701 -0.4062 -0.3522  0.3015
 8371SOL    HW136575   4.385   1.812   2.681  1.7329 -2.1401 -1.5931
 8371SOL    HW236576   4.533   1.819   2.691  0.4521  1.3583 -2.4423
 8372SOL     OW36577   0.218   3.092  16.350  0.6781  0.1503  0.4036
 8372SOL    HW136578   0.177   3.149  16.285 -0.8007  0.1588  1.3339
 8372SOL    HW236579   0.293   3.056  16.304 -0.9357 -0.3832 -1.8316
 8373SOL     OW36580   4.319   0.019   5.076 -0.0806  0.8093  0.6988
 8373SOL    HW136581   4.295   0.019   5.168 -1.6250  0.9036  0.3054
 8373SOL    HW236582   4.321   0.115   5.074  1.0875  0.7503 -1.1601
 8374SOL     OW36583   2.728   2.448   7.513  0.0364 -0.4056 -0.1504
 8374SOL    HW136584   2.783   2.509   7.463 -0.0145 -0.0653  0.2066
 8374SOL    HW236585   2.768   2.450   7.600 -0.2275 -0.5267 -0.0260
 8375SOL     OW36586   0.567   0.117   5.772  0.3620 -0.1006 -0.3052
 8375SOL    HW136587   0.507   0.150   5.839 -2.8748 -2.0135 -2.2090
 8375SOL    HW236588   0.591   0.199   5.729  1.4837 -1.6518 -2.6158
 8376SOL     OW36589   4.242   3.135   4.826  0.1468 -0.4570  0.2150
 8376SOL    HW136590   4.315   3.197   4.833  0.0436 -0.3505  0.3552
 8376SOL    HW236591   4.168   3.193   4.842  0.9574  0.2119  1.6819
 8377SOL     OW36592   0.888   1.579  14.878 -0.5252 -0.7764  0.0330
 8377SOL    HW136593   0.962   1.568  14.937 -1.0785 -0.1813  0.8371
 8377SOL    HW236594   0.819   1.515  14.899 -2.1615  0.8344 -0.4353
 8378SOL     OW36595   2.054   4.143   1.929  0.5186  0.2901  0.2642
 8378SOL    HW136596   2.145   4.116   1.930  0.7547  1.0027 -1.0073
 8378SOL    HW236597   2.064   4.231   1.966  1.6193  0.5170 -0.5683
 8379SOL     OW36598   1.480   4.340  12.978  0.1780 -0.1327  0.1385
 8379SOL    HW136599   1.439   4.426  12.989 -0.3107 -0.2757 -0.6080
 8379SOL    HW236600   1.550   4.357  12.915 -0.4080 -2.7763 -1.2129
 8380SOL     OW36601   1.703   2.059   5.255 -0.2677 -0.4316 -0.0492
 8380SOL    HW136602   1.710   2.006   5.175  0.8726 -0.3786  0.0075
 8380SOL    HW236603   1.795   2.058   5.283  0.2650  3.7707 -1.7720
 8381SOL     OW36604   0.365   4.303  12.258 -0.1494 -0.1398 -0.0047
 8381SOL    HW136605   0.305   4.302  12.183  1.5844 -0.7043 -1.3864
 8381SOL    HW236606   0.364   4.393  12.289 -1.3994 -1.5475  3.9525
 8382SOL     OW36607   3.195   1.521  14.977  0.3134 -0.2180 -0.0813
 8382SOL    HW136608   3.174   1.439  15.021  0.1455 -0.3517 -0.4085
 8382SOL    HW236609   3.271   1.499  14.923  0.7314  0.7981  0.0927
 8383SOL     OW36610   2.627   0.022  16.176  0.3877 -0.5505  0.3012
 8383SOL    HW136611   2.669   4.722  16.093 -1.8827  1.0955 -1.2988
 8383SOL    HW236612   2.679   0.100  16.197 -1.2278  1.1505 -1.9280
 8384SOL     OW36613   3.799   3.938   7.502 -0.2076  0.1074 -0.3458
 8384SOL    HW136614   3.862   3.893   7.446 -0.6500  1.9075 -2.2880
 8384SOL    HW236615   3.849   3.953   7.582 -1.5588  0.4317  0.4480
 8385SOL     OW36616   1.990   0.792   3.661 -0.0677 -0.1866 -0.0137
 8385SOL    HW136617   2.000   0.861   3.726 -0.8831 -0.1642  0.0865
 8385SOL    HW236618   2.076   0.751   3.669  0.3888  0.2793 -2.4765
 8386SOL     OW36619   3.266   1.476   2.957 -0.1655  0.8230 -0.1950
 8386SOL    HW136620   3.229   1.458   2.871 -1.0417  1.3751  0.0676
 8386SOL    HW236621   3.296   1.566   2.940  0.8781  0.4502 -0.3082
 8387SOL     OW36622   4.245   2.652   2.311 -0.4223 -0.1496  0.7745
 8387SOL    HW136623   4.327   2.604   2.320 -0.9056 -1.1786 -0.3198
 8387SOL    HW236624   4.264   2.707   2.234  0.0323 -4.2999 -2.0696
 8388SOL     OW36625   2.259   0.495   4.170  0.0029 -0.4400 -0.1650
 8388SOL    HW136626   2.230   0.522   4.083 -1.3108  0.3719  0.5362
 8388SOL    HW236627   2.291   0.574   4.213  0.9988 -1.6001  1.2091
 8389SOL     OW36628   3.881   1.402  10.003  0.6051  0.3177  0.2982
 8389SOL    HW136629   3.914   1.359  10.082 -0.0918 -2.3703 -0.8982
 8389SOL    HW236630   3.938   1.480  10.005  1.9468 -0.7151  3.0896
 8390SOL     OW36631   1.221   3.120   4.318 -0.3479  0.6095  0.0656
 8390SOL    HW136632   1.243   3.088   4.230  2.3998  0.6569  0.7518
 8390SOL    HW236633   1.214   3.213   4.297  0.7738  0.5855 -0.4153
 8391SOL     OW36634   3.871   0.718  16.392  0.1325 -0.2790  0.0709
 8391SOL    HW136635   3.862   0.623  16.398  0.2670 -0.3300 -0.5134
 8391SOL    HW236636   3.955   0.745  16.429  1.7937 -2.2168 -2.3267
 8392SOL     OW36637   1.313   3.758   1.953  0.2108 -0.5735  0.4202
 8392SOL    HW136638   1.288   3.681   2.005  0.0652 -1.1530 -0.4887
 8392SOL    HW236639   1.252   3.761   1.879  0.9988  1.8794 -0.1129
 8393SOL     OW36640   3.427   0.818   5.414 -0.9340  0.0275 -0.2940
 8393SOL    HW136641   3.394   0.811   5.503 -0.0941 -1.9353 -0.1428
 8393SOL    HW236642   3.400   0.733   5.378  1.0684  0.1222 -2.0581
 8394SOL     OW36643   3.464   0.371   5.511  0.5856  0.0877 -0.2542
 8394SOL    HW136644   3.429   0.347   5.596 -1.5793  0.4122 -1.0477
 8394SOL    HW236645   3.393   0.419   5.469  0.4721 -0.8229 -1.1029
 8395SOL     OW36646   4.058   1.293   9.557 -0.1079  0.0355 -0.1254
 8395SOL    HW136647   3.977   1.291   9.608  0.0682  4.9142  0.2793
 8395SOL    HW236648   4.118   1.272   9.629 -1.2612  0.2512  0.9040
 8396SOL     OW36649   0.867   4.705  16.536  0.1813 -0.4397 -0.5702
 8396SOL    HW136650   0.812   0.021  16.604  1.4226  1.4407 -0.6887
 8396SOL    HW236651   0.818   4.622  16.538 -0.0722 -0.2696  0.1956
 8397SOL     OW36652   2.327   0.203  14.326 -0.8301  0.3314 -0.1932
 8397SOL    HW136653   2.293   0.115  14.341 -0.3418  0.0933 -0.4854
 8397SOL    HW236654   2.414   0.193  14.365 -0.7420 -0.3621 -0.5728
 8398SOL     OW36655   3.302   3.373   4.290  0.6326  0.6011 -0.5771
 8398SOL    HW136656   3.240   3.305   4.316  1.9908 -0.1909  0.5814
 8398SOL    HW236657   3.244   3.445   4.263  2.1843  1.9729 -0.2682
 8399SOL     OW36658   1.421   1.409   8.352  0.3654  0.4300 -0.2014
 8399SOL    HW136659   1.376   1.458   8.421 -1.5573 -0.1820 -1.0203
 8399SOL    HW236660   1.348   1.363   8.311  1.1856  0.0143 -1.2127
 8400SOL     OW36661   3.649   2.349   9.638  0.5034  0.0941  0.3471
 8400SOL    HW136662   3.562   2.319   9.611  0.7116  1.1752 -1.5644
 8400SOL    HW236663   3.641   2.324   9.730 -1.1772  0.3554  0.2793
 8401SOL     OW36664   3.378   0.570   8.602  0.4814  0.5266 -0.4011
 8401SOL    HW136665   3.339   0.499   8.551 -2.7051  0.6399  1.8679
 8401SOL    HW236666   3.442   0.514   8.645  0.6470 -0.5245 -2.0035
 8402SOL     OW36667   0.756   2.502   1.659 -0.5610 -0.5447  0.1513
 8402SOL    HW136668   0.721   2.591   1.647  2.0556  0.5201  0.4454
 8402SOL    HW236669   0.717   2.458   1.584  0.0146 -0.3659 -0.2477
 8403SOL     OW36670   2.873   3.382  13.212  0.5229 -0.4067 -0.1377
 8403SOL    HW136671   2.826   3.302  13.187 -0.1185  0.0799 -0.4982
 8403SOL    HW236672   2.813   3.402  13.283  0.5904 -1.0649  0.1063
 8404SOL     OW36673   1.912   2.098   7.310  0.0244 -0.2660 -0.9722
 8404SOL    HW136674   1.939   2.112   7.219  2.4257 -0.1463 -0.2372
 8404SOL    HW236675   1.820   2.072   7.303 -0.4547  1.2127 -0.1572
 8405SOL     OW36676   3.035   4.542   8.485  0.3549 -0.6820 -0.2793
 8405SOL    HW136677   3.012   4.473   8.423 -0.0157 -1.4695  0.7184
 8405SOL    HW236678   3.020   4.622   8.436  1.3025 -1.0811 -1.2288
 8406SOL     OW36679   4.175   4.562   8.591  0.4283 -1.3766 -0.0320
 8406SOL    HW136680   4.232   4.492   8.624  2.0210 -0.0570  0.0230
 8406SOL    HW236681   4.107   4.512   8.547 -0.9042  1.0757 -0.7646
 8407SOL     OW36682   1.552   3.606   2.935  0.1018 -0.4307  0.0562
 8407SOL    HW136683   1.479   3.629   2.992  3.0712  0.2311  3.5660
 8407SOL    HW236684   1.552   3.511   2.948  2.0003 -0.5593 -0.8029
 8408SOL     OW36685   2.184   2.280   2.904  0.0770  0.0098  0.2477
 8408SOL    HW136686   2.090   2.297   2.900  0.0459  0.0211  1.0700
 8408SOL    HW236687   2.189   2.230   2.822 -5.1818 -0.2336  0.1033
 8409SOL     OW36688   3.967   2.542   6.228 -0.0081 -0.1529 -0.0434
 8409SOL    HW136689   4.019   2.462   6.219 -0.6011 -0.4045 -1.2500
 8409SOL    HW236690   3.996   2.587   6.149 -0.2715  0.6935  0.3490
 8410SOL     OW36691   3.578   2.488   4.977 -0.6239 -0.5858 -0.1218
 8410SOL    HW136692   3.556   2.488   5.070 -0.4879 -3.1531 -0.0924
 8410SOL    HW236693   3.552   2.579   4.961 -0.5050 -0.4959  0.1921
 8411SOL     OW36694   3.509   4.462  11.772  0.0808 -0.3602  0.4072
 8411SOL    HW136695   3.604   4.468  11.760  0.0615 -1.0094 -0.1423
 8411SOL    HW236696   3.483   4.421  11.689 -1.5509 -2.3303  1.8741
 8412SOL     OW36697   1.639   3.130  10.645 -0.3024  0.7088  0.0653
 8412SOL    HW136698   1.620   3.224  10.641 -2.4992  0.2055 -1.4286
 8412SOL    HW236699   1.733   3.134  10.626 -0.5547 -1.8882 -1.7572
 8413SOL     OW36700   0.754   1.915   2.223  0.4493  0.6179 -0.4903
 8413SOL    HW136701   0.694   1.984   2.194  0.8627  0.5792 -1.4422
 8413SOL    HW236702   0.823   1.926   2.158 -0.1184  0.4216 -1.1257
 8414SOL     OW36703   3.660   1.817  13.406  0.0201 -0.2987 -0.0696
 8414SOL    HW136704   3.579   1.767  13.402 -1.6786  2.4759  0.0579
 8414SOL    HW236705   3.701   1.815  13.319 -2.3168  0.4390 -1.1883
 8415SOL     OW36706   3.849   0.152   7.974  0.4087 -0.5286 -0.1039
 8415SOL    HW136707   3.867   0.103   8.054 -0.1760  1.9505  1.5301
 8415SOL    HW236708   3.929   0.167   7.925 -0.8315 -2.0690 -2.5972
 8416SOL     OW36709   0.886   1.542   6.844 -0.0539 -0.4162  0.4068
 8416SOL    HW136710   0.933   1.522   6.763 -0.4654 -0.4546  0.1768
 8416SOL    HW236711   0.808   1.579   6.803 -0.6201  0.3258  2.1614
 8417SOL     OW36712   3.290   3.849   8.966  0.0031 -0.4148  0.0850
 8417SOL    HW136713   3.213   3.886   9.010  0.3720  0.1914  0.2114
 8417SOL    HW236714   3.291   3.764   9.010 -0.1730 -1.5000 -1.9965
 8418SOL     OW36715   1.527   1.404   7.602 -0.2220 -0.3190 -0.0475
 8418SOL    HW136716   1.577   1.400   7.521 -1.6212  2.8840 -1.1037
 8418SOL    HW236717   1.439   1.434   7.577  0.0832  2.7056  2.5008
 8419SOL     OW36718   3.279   3.581  13.409 -0.0223 -0.1871 -0.0484
 8419SOL    HW136719   3.256   3.493  13.377 -0.4011  0.5473 -1.8174
 8419SOL    HW236720   3.373   3.586  13.390  0.5928 -1.2168  2.7944
 8420SOL     OW36721   1.311   4.106   2.803  0.1160  0.1748 -0.5607
 8420SOL    HW136722   1.233   4.067   2.843  0.1231  0.9300  0.2039
 8420SOL    HW236723   1.381   4.041   2.804 -0.4495 -0.4360 -1.0201
 8421SOL     OW36724   2.251   0.468   9.806 -0.0725  0.1915 -0.5253
 8421SOL    HW136725   2.228   0.519   9.884 -0.5925 -0.3651 -0.3158
 8421SOL    HW236726   2.345   0.459   9.820 -0.7150 -0.9637  3.1633
 8422SOL     OW36727   4.586   1.060   3.870  0.5846  0.1186 -0.2307
 8422SOL    HW136728   4.661   1.095   3.919  0.7168 -0.6398  0.1111
 8422SOL    HW236729   4.528   1.135   3.885 -0.6955 -0.8166 -0.6201
 8423SOL     OW36730   3.667   0.452  10.780 -0.1756  0.2002 -0.4125
 8423SOL    HW136731   3.678   0.366  10.738 -0.4053 -1.3695  2.7282
 8423SOL    HW236732   3.732   0.445  10.850 -0.1104  2.4511 -0.2686
 8424SOL     OW36733   3.776   0.185   6.228  0.0768 -0.1628 -0.2620
 8424SOL    HW136734   3.783   0.249   6.300  0.5959  0.2940 -0.7211
 8424SOL    HW236735   3.841   0.119   6.251  0.3512  0.3357  0.3802
 8425SOL     OW36736   3.325   4.294  10.967  0.0310 -0.2417  0.3988
 8425SOL    HW136737   3.271   4.339  10.902 -0.6763  0.2433  1.3178
 8425SOL    HW236738   3.372   4.229  10.914 -1.1288  0.6220 -1.7024
 8426SOL     OW36739   4.172   3.481   9.074 -0.6509 -0.2593  0.2835
 8426SOL    HW136740   4.086   3.456   9.108 -1.5315  1.8100 -0.4130
 8426SOL    HW236741   4.228   3.404   9.090  2.8182  2.1796 -0.1807
 8427SOL     OW36742   2.710   0.470   0.164 -0.3517  0.2050  0.0114
 8427SOL    HW136743   2.772   0.520   0.112  1.7572  1.1365  3.4035
 8427SOL    HW236744   2.645   0.537   0.185  0.5199  0.4713  1.9205
 8428SOL     OW36745   4.123   4.094   5.413 -0.0380  0.1605  0.0496
 8428SOL    HW136746   4.117   4.145   5.333  2.2184  1.0204  0.4398
 8428SOL    HW236747   4.182   4.028   5.378  1.9295  1.6025  0.7036
 8429SOL     OW36748   2.341   0.270   4.996 -0.6234  0.2742 -0.0406
 8429SOL    HW136749   2.425   0.309   5.016  0.1962 -1.1288 -0.7215
 8429SOL    HW236750   2.357   0.220   4.916  1.7360  1.3466 -0.2377
 8430SOL     OW36751   0.045   1.120  10.106  0.4438  0.4129  0.0560
 8430SOL    HW136752   0.102   1.074  10.044 -1.1756 -2.5731  0.7907
 8430SOL    HW236753   4.707   1.168  10.052  0.4472  0.0686 -0.2598
 8431SOL     OW36754   1.121   3.140   2.230 -0.0646  0.2111  0.3196
 8431SOL    HW136755   1.065   3.143   2.153  0.7831  1.7207 -0.2171
 8431SOL    HW236756   1.069   3.089   2.292 -0.2689  0.0393  0.0074
 8432SOL     OW36757   2.468   1.488   2.689  0.5420  0.5081  0.5309
 8432SOL    HW136758   2.466   1.582   2.673  0.2774  0.5213  0.6449
 8432SOL    HW236759   2.428   1.490   2.776 -0.1900  0.4022  0.1946
 8433SOL     OW36760   1.803   0.621  10.344  0.1626 -0.2526 -0.1289
 8433SOL    HW136761   1.794   0.661  10.431  1.7687 -0.8445  0.2944
 8433SOL    HW236762   1.752   0.540  10.351 -0.6642  0.4854  2.7211
 8434SOL     OW36763   0.955   1.985   2.003  0.6992  0.1829  0.2911
 8434SOL    HW136764   1.020   1.994   2.073  0.1992  0.5546  0.7053
 8434SOL    HW236765   1.007   1.986   1.922  1.5089 -1.8841  0.7855
 8435SOL     OW36766   1.713   3.729   2.753 -0.1701  0.2278 -1.0323
 8435SOL    HW136767   1.803   3.700   2.770 -0.6041 -1.1069 -0.9729
 8435SOL    HW236768   1.679   3.674   2.824  1.3108 -1.7273 -1.8348
 8436SOL     OW36769   3.497   0.367  13.316 -0.2613 -0.3018  0.0311
 8436SOL    HW136770   3.526   0.277  13.330  0.5356 -0.3819 -2.0197
 8436SOL    HW236771   3.421   0.369  13.374 -0.1279  0.1129  0.1893
 8437SOL     OW36772   1.614   2.235   6.273 -0.3716  0.1420  0.1086
 8437SOL    HW136773   1.648   2.231   6.362  0.3372 -0.8224 -0.2116
 8437SOL    HW236774   1.686   2.184   6.235 -0.4552  0.3371 -0.3146
 8438SOL     OW36775   3.724   3.838   1.297  0.4331  0.2391 -0.2998
 8438SOL    HW136776   3.744   3.770   1.233 -1.6173 -2.6340  2.1250
 8438SOL    HW236777   3.762   3.818   1.382 -3.3092  0.2443  1.3724
 8439SOL     OW36778   1.349   2.426   7.981 -0.3829  0.6001  0.1107
 8439SOL    HW136779   1.340   2.391   8.070  1.5740  0.3282  0.1985
 8439SOL    HW236780   1.345   2.520   7.999 -0.5141  0.7315 -0.5933
 8440SOL     OW36781   4.342   2.671  15.503  0.0184 -0.1158 -0.6773
 8440SOL    HW136782   4.280   2.743  15.511 -0.1462 -0.4074  0.7452
 8440SOL    HW236783   4.351   2.637  15.592 -1.4885 -2.2263 -1.3362
 8441SOL     OW36784   3.162   1.165   4.152  0.0457  0.3366 -0.1037
 8441SOL    HW136785   3.207   1.138   4.232 -1.4555  0.6168  0.8341
 8441SOL    HW236786   3.166   1.102   4.080  1.0353  1.5362 -1.0858
 8442SOL     OW36787   1.094   0.187  17.427 -0.1487  0.3077 -0.2872
 8442SOL    HW136788   1.023   0.245  17.397 -0.0764  0.1753 -0.7145
 8442SOL    HW236789   1.085   0.111  17.369  1.7332  1.4313 -2.0299
 8443SOL     OW36790   0.316   2.059   3.418  0.6330 -0.1980  0.4572
 8443SOL    HW136791   0.301   2.065   3.512  2.1668  0.7387  0.6458
 8443SOL    HW236792   0.223   2.057   3.394  0.9845 -2.5135 -0.7225
 8444SOL     OW36793   2.485   4.417   1.412  0.4225  0.2205 -0.1669
 8444SOL    HW136794   2.428   4.489   1.439 -2.3650 -2.2824  0.5511
 8444SOL    HW236795   2.575   4.449   1.413  1.1421 -1.8242  1.7383
 8445SOL     OW36796   3.135   3.527  10.652 -0.4018  0.3166  0.2002
 8445SOL    HW136797   3.177   3.448  10.687 -2.5863 -0.5969  0.7556
 8445SOL    HW236798   3.140   3.583  10.729 -3.4765  0.0589  0.6023
 8446SOL     OW36799   1.623   0.444   9.651 -0.0799  0.0249 -0.2289
 8446SOL    HW136800   1.648   0.516   9.709  0.1646 -0.0212 -0.2791
 8446SOL    HW236801   1.617   0.489   9.567 -2.9179 -0.8487 -0.4943
 8447SOL     OW36802   3.029   1.799  17.433  0.1311 -0.3785  0.3349
 8447SOL    HW136803   3.010   1.847  17.514 -0.1170  0.0532  0.0243
 8447SOL    HW236804   3.011   1.870  17.371  2.2449  0.2505  0.4540
 8448SOL     OW36805   2.092   3.229  16.610  0.4190  0.4341 -0.1434
 8448SOL    HW136806   2.105   3.180  16.691 -0.1548  3.3203  1.6682
 8448SOL    HW236807   2.020   3.283  16.642  0.0859 -0.0382 -0.0937
 8449SOL     OW36808   0.749   4.030  10.150 -0.3986 -0.3410 -0.0338
 8449SOL    HW136809   0.771   4.120  10.175 -1.4047 -0.0901 -0.0387
 8449SOL    HW236810   0.668   4.050  10.104  2.5345  2.2294 -4.1493
 8450SOL     OW36811   1.251   4.237  10.901 -0.2824 -0.7580  0.4005
 8450SOL    HW136812   1.195   4.287  10.959  0.0486  1.1065 -0.8762
 8450SOL    HW236813   1.314   4.304  10.871 -0.4199 -1.3517 -1.2381
 8451SOL     OW36814   0.151   4.294   7.527 -0.1320  0.4163 -0.1407
 8451SOL    HW136815   0.163   4.236   7.452  0.2762  1.2137 -0.6877
 8451SOL    HW236816   0.061   4.268   7.550  0.1423  2.2551  2.9217
 8452SOL     OW36817   1.476   3.009  15.328 -0.2743  0.2249 -0.5304
 8452SOL    HW136818   1.571   3.011  15.339 -0.1721 -1.8361 -1.1545
 8452SOL    HW236819   1.455   2.925  15.288 -1.0739 -0.8074  2.0818
 8453SOL     OW36820   3.671   0.000  12.351  0.1755 -0.4634  0.5750
 8453SOL    HW136821   3.612   4.654  12.326 -1.7216  1.3267  0.0394
 8453SOL    HW236822   3.615   0.071  12.383 -0.8462 -2.4375  3.0885
 8454SOL     OW36823   1.938   1.203  10.025  0.4025  0.2369  0.1677
 8454SOL    HW136824   2.000   1.137  10.054 -0.1758 -0.4344 -0.1420
 8454SOL    HW236825   1.976   1.280  10.067 -2.4299  1.1961  1.0069
 8455SOL     OW36826   0.466   1.305   8.663 -0.0510  0.1781 -0.4479
 8455SOL    HW136827   0.561   1.300   8.670 -0.0001 -0.8220 -2.0399
 8455SOL    HW236828   0.437   1.296   8.754  1.9543 -0.9875  0.0799
 8456SOL     OW36829   2.866   3.303  10.546  0.4060  0.0184  0.3595
 8456SOL    HW136830   2.878   3.225  10.599  0.9758  1.3368  2.1878
 8456SOL    HW236831   2.949   3.291  10.499  1.1278 -1.0050  1.9049
 8457SOL     OW36832   2.725   4.365   4.284 -0.8604  0.0176 -0.5718
 8457SOL    HW136833   2.715   4.405   4.371  2.9011  0.3452 -0.2943
 8457SOL    HW236834   2.814   4.396   4.270 -1.4990  2.0931 -0.1177
 8458SOL     OW36835   4.153   3.013  10.166  0.3812  0.3597 -0.1300
 8458SOL    HW136836   4.226   2.954  10.151  1.2200  1.0447  1.2870
 8458SOL    HW236837   4.184   3.057  10.245  2.2542 -1.5292  0.1743
 8459SOL     OW36838   1.730   2.812   4.164 -0.8108 -1.2287 -0.1508
 8459SOL    HW136839   1.823   2.833   4.155 -1.2820  0.9117  0.0611
 8459SOL    HW236840   1.721   2.732   4.215 -1.6633 -0.7876  0.3957
 8460SOL     OW36841   1.189   0.024  15.536  0.2641 -0.1375 -0.1870
 8460SOL    HW136842   1.200   0.013  15.631  0.8945  3.5909  0.1607
 8460SOL    HW236843   1.278   0.058  15.524 -0.0022  1.3319  1.9562
 8461SOL     OW36844   2.845   0.220   3.998  0.7827 -0.0719 -0.0165
 8461SOL    HW136845   2.930   0.253   4.029  0.9877  0.7082 -1.4091
 8461SOL    HW236846   2.838   0.260   3.911 -0.5930  1.2116  0.6794
 8462SOL     OW36847   3.205   1.050   3.266  0.8046  0.5649  0.1001
 8462SOL    HW136848   3.219   1.110   3.193  0.3280 -0.4561 -0.8291
 8462SOL    HW236849   3.200   0.970   3.214 -1.0907  0.2718  0.7352
 8463SOL     OW36850   4.606   4.085   2.070 -0.1925 -0.5744  0.5084
 8463SOL    HW136851   4.657   4.144   2.126  0.7341  1.3555 -2.3364
 8463SOL    HW236852   4.668   4.034   2.019  0.5838  0.6794  0.1848
 8464SOL     OW36853   2.278   3.166   1.658  0.1673  0.4239  0.1806
 8464SOL    HW136854   2.319   3.110   1.724  0.5850  1.0573  0.4514
 8464SOL    HW236855   2.299   3.115   1.580  1.0748  0.3796  0.4583
 8465SOL     OW36856   2.135   3.238  11.379 -0.1577  0.2219 -0.4503
 8465SOL    HW136857   2.227   3.260  11.360 -0.6046  0.6952 -2.0486
 8465SOL    HW236858   2.133   3.234  11.474  0.7996  0.3578 -0.4205
 8466SOL     OW36859   2.460   0.681   3.283 -0.2483  0.2193 -0.2755
 8466SOL    HW136860   2.493   0.713   3.367 -1.7256  0.6054  0.1575
 8466SOL    HW236861   2.365   0.678   3.298 -0.2897 -0.9764 -0.7506
 8467SOL     OW36862   2.657   3.612   2.241  0.2148 -0.3730 -0.5238
 8467SOL    HW136863   2.638   3.523   2.213 -2.8380  0.1420 -0.0660
 8467SOL    HW236864   2.570   3.651   2.234 -0.1430 -1.2388 -0.8870
 8468SOL     OW36865   3.255   3.229   3.145  0.0238 -0.4786 -0.2758
 8468SOL    HW136866   3.214   3.155   3.101 -1.5028  0.3126 -0.1644
 8468SOL    HW236867   3.342   3.191   3.156 -1.5209 -3.1096  2.7967
 8469SOL     OW36868   3.910   3.952  15.064  0.4292  0.1603  0.4108
 8469SOL    HW136869   3.842   3.914  15.009  0.1756  0.3825  0.5726
 8469SOL    HW236870   3.991   3.925  15.020 -0.7443 -0.5592 -1.3017
 8470SOL     OW36871   0.093   0.083   3.452 -0.1243  0.2176  0.0125
 8470SOL    HW136872   0.182   0.101   3.421 -0.0377  1.4575  0.9816
 8470SOL    HW236873   0.041   0.159   3.427 -0.2005  0.0188 -0.4266
 8471SOL     OW36874   0.828   3.807  10.810  0.2291 -0.2861 -0.2599
 8471SOL    HW136875   0.884   3.732  10.792  1.3683  0.7908 -1.2173
 8471SOL    HW236876   0.888   3.882  10.805  1.6720 -1.3468  1.1468
 8472SOL     OW36877   3.638   1.550   6.036  0.4772 -0.2367  0.0063
 8472SOL    HW136878   3.668   1.576   5.949  1.5745  1.1830  0.7898
 8472SOL    HW236879   3.699   1.590   6.098  0.2550 -0.3423  0.2941
 8473SOL     OW36880   1.465   1.074   4.263 -0.1242 -0.3299 -0.6451
 8473SOL    HW136881   1.464   1.152   4.207 -1.1771  0.2489  0.1966
 8473SOL    HW236882   1.414   1.113   4.333  2.2261  0.7346  0.4537
 8474SOL     OW36883   3.891   0.667  10.795 -0.2353  0.1260  0.4219
 8474SOL    HW136884   3.913   0.632  10.882 -0.3574 -1.5439 -0.2228
 8474SOL    HW236885   3.882   0.762  10.806  1.0476  0.1459  1.3720
 8475SOL     OW36886   0.809   4.515   5.360  0.5311  0.0143 -0.3365
 8475SOL    HW136887   0.861   4.581   5.406 -0.6941  1.0893 -0.4845
 8475SOL    HW236888   0.858   4.433   5.367 -1.6640 -1.2614  0.0055
 8476SOL     OW36889   3.306   1.296   5.778  0.0171  0.1486 -0.3561
 8476SOL    HW136890   3.236   1.275   5.840 -1.0308  0.1420 -1.5435
 8476SOL    HW236891   3.251   1.340   5.713  0.1122 -0.0007 -0.5362
 8477SOL     OW36892   3.898   0.089   5.835  0.4205  0.7351 -0.4757
 8477SOL    HW136893   3.916   0.149   5.762  0.9560  3.6847  2.0951
 8477SOL    HW236894   3.985   0.076   5.872  0.5485  1.1963 -0.6085
 8478SOL     OW36895   4.717   1.223   2.697 -0.0440  0.4930 -0.3237
 8478SOL    HW136896   4.665   1.238   2.618 -1.4270 -0.4398  0.4131
 8478SOL    HW236897   0.061   1.167   2.660 -0.4284 -0.5712  0.5749
 8479SOL     OW36898   2.217   3.427   2.649  0.2460 -0.7209 -0.3336
 8479SOL    HW136899   2.281   3.406   2.582 -0.2807 -1.3309 -0.6421
 8479SOL    HW236900   2.260   3.386   2.725  0.1283  0.4521  0.3561
 8480SOL     OW36901   0.489   0.425   6.647  0.0809 -0.8779  0.0824
 8480SOL    HW136902   0.461   0.507   6.688  0.7468  0.0266 -1.2780
 8480SOL    HW236903   0.530   0.455   6.566 -2.0579  0.0598 -0.6561
 8481SOL     OW36904   3.004   4.245   2.083 -0.5690  0.6060 -0.1807
 8481SOL    HW136905   2.989   4.240   2.177  0.3773  0.1919 -0.0558
 8481SOL    HW236906   2.938   4.189   2.042  0.4248 -0.8460  0.2403
 8482SOL     OW36907   4.595   3.028   1.787  0.3705  0.0689 -0.3988
 8482SOL    HW136908   4.516   2.981   1.815 -0.1951  0.8920 -0.6160
 8482SOL    HW236909   4.655   2.959   1.814  0.5311  0.5217  0.3948
 8483SOL     OW36910   0.573   0.669   3.035  0.5867  0.4803  0.3509
 8483SOL    HW136911   0.479   0.653   3.031  0.8376 -0.5816 -1.4159
 8483SOL    HW236912   0.603   0.628   2.954  3.8234  1.2536  1.1511
 8484SOL     OW36913   2.751   3.413   4.809 -0.4463  0.0667 -0.1391
 8484SOL    HW136914   2.759   3.479   4.741  0.4141 -0.4446 -0.5313
 8484SOL    HW236915   2.842   3.388   4.825 -0.9771 -0.9642  1.3502
 8485SOL     OW36916   3.352   4.133   7.380  0.4775  0.3830  0.1771
 8485SOL    HW136917   3.416   4.070   7.413 -0.4956 -0.2446  0.8695
 8485SOL    HW236918   3.283   4.069   7.363 -0.5093  2.0226 -1.8442
 8486SOL     OW36919   0.544   1.716   5.927 -0.0548  0.1603 -0.1247
 8486SOL    HW136920   0.520   1.627   5.901  2.2201 -0.5201  0.0965
 8486SOL    HW236921   0.595   1.701   6.006  0.4025  1.7701 -0.1097
 8487SOL     OW36922   0.961   2.292   7.674  0.0441 -0.2463 -0.1184
 8487SOL    HW136923   1.015   2.306   7.752 -0.5564  0.1884  0.2193
 8487SOL    HW236924   0.894   2.359   7.683  0.0744  0.0026 -1.7717
 8488SOL     OW36925   3.781   0.315   6.491 -0.3858 -0.2198 -0.1137
 8488SOL    HW136926   3.824   0.384   6.541  0.3218 -0.8757  0.1788
 8488SOL    HW236927   3.841   0.242   6.506 -0.7670 -1.0015 -2.3505
 8489SOL     OW36928   2.952   3.276   0.367 -1.2409 -0.1951  0.0635
 8489SOL    HW136929   2.979   3.204   0.310  1.0630  0.2169  0.6239
 8489SOL    HW236930   2.894   3.334   0.317 -0.1735  1.4131  0.6815
 8490SOL     OW36931   4.225   4.380  13.438  0.0230 -0.0836  0.3425
 8490SOL    HW136932   4.230   4.345  13.527 -0.3177  0.0822  0.4280
 8490SOL    HW236933   4.288   4.452  13.434  0.1155 -0.1551  0.4796
 8491SOL     OW36934   1.349   2.012   4.335 -0.3184 -0.2196 -0.1960
 8491SOL    HW136935   1.361   2.093   4.286 -2.2210 -0.5030 -1.1318
 8491SOL    HW236936   1.397   1.946   4.285 -0.0351  0.4386 -0.7982
 8492SOL     OW36937   0.640   1.878   1.465  0.1168  0.4435  1.0407
 8492SOL    HW136938   0.601   1.954   1.422  0.3701 -0.6793 -1.1740
 8492SOL    HW236939   0.569   1.823   1.500  1.0033 -1.6177 -0.4516
 8493SOL     OW36940   1.452   3.870   9.943  0.4663 -0.2660 -0.4966
 8493SOL    HW136941   1.432   3.959   9.973 -0.2325 -1.2826  2.0569
 8493SOL    HW236942   1.419   3.818  10.016 -0.6426  1.0563 -0.0552
 8494SOL     OW36943   3.662   2.388  15.237  0.7516 -0.1213 -0.3718
 8494SOL    HW136944   3.747   2.414  15.200 -0.1199  3.3964  0.0800
 8494SOL    HW236945   3.617   2.469  15.262  2.8883  0.5127  1.4234
 8495SOL     OW36946   0.018   0.966  13.681  0.3856 -0.3456 -0.5267
 8495SOL    HW136947   0.069   0.901  13.633  0.7189 -0.4123 -0.0853
 8495SOL    HW236948   0.028   1.040  13.622  0.1350  1.1268  1.2670
 8496SOL     OW36949   2.236   3.293   6.882 -0.5523  0.3822 -0.3079
 8496SOL    HW136950   2.183   3.218   6.909  0.1035 -0.3854 -1.1573
 8496SOL    HW236951   2.316   3.254   6.847 -1.8928 -0.0293 -2.9154
 8497SOL     OW36952   2.359   2.876   8.635 -0.5136  0.2471 -0.3859
 8497SOL    HW136953   2.445   2.836   8.619 -0.4586  0.3546 -0.3633
 8497SOL    HW236954   2.395   2.947   8.690 -0.8100  1.4315 -1.7298
 8498SOL     OW36955   0.076   1.936   0.666 -0.0272  0.2369 -0.1945
 8498SOL    HW136956   0.030   1.929   0.749  0.8910 -1.2601  0.1891
 8498SOL    HW236957   0.147   1.873   0.678 -1.9339 -2.1399 -1.3907
 8499SOL     OW36958   0.622   0.738  11.253  0.2079  0.1440  0.2650
 8499SOL    HW136959   0.537   0.755  11.294  0.8787 -2.3404  2.7342
 8499SOL    HW236960   0.605   0.670  11.188  0.9069  0.6436 -0.4434
 8500SOL     OW36961   1.316   0.672   8.258  0.2151 -0.5593  0.4643
 8500SOL    HW136962   1.278   0.585   8.242 -0.0907  0.0734 -2.3238
 8500SOL    HW236963   1.264   0.696   8.335  2.8600  0.3202  1.9564
 8501SOL     OW36964   0.809   0.206   5.613 -0.2206 -0.2306 -0.3491
 8501SOL    HW136965   0.840   0.186   5.702 -2.0406 -1.7756 -0.0453
 8501SOL    HW236966   0.811   0.301   5.610  2.4118 -0.2632  0.0917
 8502SOL     OW36967   0.512   0.817   2.069 -0.2034  0.0802 -0.3877
 8502SOL    HW136968   0.480   0.811   1.979  1.7393  1.4334 -1.1562
 8502SOL    HW236969   0.592   0.866   2.049  1.5334 -0.9127  4.2712
 8503SOL     OW36970   0.703   1.162   9.632  0.0661  0.0229 -0.2660
 8503SOL    HW136971   0.733   1.237   9.582  1.8607 -0.8546 -0.5303
 8503SOL    HW236972   0.786   1.114   9.624  0.5662  0.6792  0.9088
 8504SOL     OW36973   3.077   2.148   9.008  0.3993 -0.1919 -0.2230
 8504SOL    HW136974   3.031   2.204   9.071  0.3038 -0.3524 -0.1509
 8504SOL    HW236975   3.095   2.067   9.056  2.5064 -0.3118 -1.2147
 8505SOL     OW36976   3.808   2.910   5.613 -0.2688  0.5159  0.4639
 8505SOL    HW136977   3.735   2.902   5.674  0.1502  1.3271  1.0695
 8505SOL    HW236978   3.810   2.821   5.577 -0.7105 -0.5605  3.1574
 8506SOL     OW36979   0.618   2.780   4.607  0.1864 -0.5983  0.2852
 8506SOL    HW136980   0.646   2.845   4.671  1.9116 -1.4863  0.4222
 8506SOL    HW236981   0.697   2.777   4.553  2.1701  2.4868  3.0219
 8507SOL     OW36982   1.600   1.033   6.073  0.0114 -0.3683  0.6511
 8507SOL    HW136983   1.631   1.085   5.999 -1.0285  2.3578  2.1407
 8507SOL    HW236984   1.648   0.951   6.060 -0.7369 -0.7223  0.1242
 8508SOL     OW36985   1.547   0.327   5.740  0.3538 -0.0023 -0.5218
 8508SOL    HW136986   1.528   0.258   5.804  0.4864  1.1178  0.7424
 8508SOL    HW236987   1.624   0.296   5.692  1.1071  1.1693 -0.0809
 8509SOL     OW36988   0.354   0.222   8.775 -0.8747  0.4769  0.6571
 8509SOL    HW136989   0.266   0.185   8.787 -1.0776  0.3822 -1.1163
 8509SOL    HW236990   0.405   0.182   8.845 -0.6082  0.0648  0.2253
 8510SOL     OW36991   4.064   0.871   0.056  0.0961 -0.5336  0.3596
 8510SOL    HW136992   3.978   0.895   0.092 -0.7027  0.7412 -2.4137
 8510SOL    HW236993   4.050   0.859  17.659 -1.2267 -0.4248  0.5378
 8511SOL     OW36994   4.639   2.877   7.561 -0.5049 -0.6359 -0.0269
 8511SOL    HW136995   4.647   2.947   7.626  2.5796 -0.8250 -0.2314
 8511SOL    HW236996   4.667   2.797   7.605 -0.9856 -1.4038 -1.1244
 8512SOL     OW36997   2.489   2.779   7.461  0.0334  0.0541 -0.2751
 8512SOL    HW136998   2.433   2.842   7.507  0.9874  0.3834  0.4304
 8512SOL    HW236999   2.507   2.819   7.376  2.3123  1.4362  0.8602
 8513SOL     OW37000   1.138   4.039   3.649 -0.7626 -0.8498 -0.1473
 8513SOL    HW137001   1.224   4.065   3.618 -1.1933 -0.4733 -1.0301
 8513SOL    HW237002   1.082   4.079   3.582  1.4303 -0.4626 -1.7127
 8514SOL     OW37003   2.644   1.719   1.224 -0.4993  0.5491 -0.6566
 8514SOL    HW137004   2.633   1.627   1.249  0.8599  0.6179  0.1774
 8514SOL    HW237005   2.701   1.708   1.147  2.0151 -1.1976  1.4511
 8515SOL     OW37006   2.908   1.755  14.009  0.0518  0.0660 -0.3590
 8515SOL    HW137007   2.895   1.762  14.104 -0.0476 -1.0134 -0.2950
 8515SOL    HW237008   2.892   1.661  14.001 -1.9857  0.4264 -0.5238
 8516SOL     OW37009   4.207   2.750   4.272 -0.1301 -0.4166  0.1936
 8516SOL    HW137010   4.136   2.713   4.323  0.3858  0.1157  1.2947
 8516SOL    HW237011   4.274   2.742   4.340 -0.2284 -2.9249  0.0120
 8517SOL     OW37012   3.018   3.696  13.295  0.5377  0.1108 -0.3721
 8517SOL    HW137013   3.087   3.663  13.353 -1.8177 -1.2261  1.7238
 8517SOL    HW237014   3.017   3.629  13.227 -3.1631 -0.1859 -0.0661
 8518SOL     OW37015   0.864   3.718   3.678 -0.0001  0.1225  0.3504
 8518SOL    HW137016   0.851   3.711   3.584  0.5103  1.3057  0.1974
 8518SOL    HW237017   0.951   3.758   3.679 -0.6174  1.4842 -0.1455
 8519SOL     OW37018   1.228   0.867  13.526 -0.2955  0.4363  0.2081
 8519SOL    HW137019   1.315   0.872  13.567 -0.9374  0.1361  1.6215
 8519SOL    HW237020   1.191   0.784  13.556 -1.2903  0.6223 -0.4933
 8520SOL     OW37021   1.728   1.106   5.846 -0.8232  0.5917 -0.2894
 8520SOL    HW137022   1.783   1.041   5.804  0.7503  1.2465  0.7661
 8520SOL    HW237023   1.792   1.136   5.910 -1.3425  0.4914  0.2854
 8521SOL     OW37024   2.318   4.023   6.187  0.4932  0.3255  0.0402
 8521SOL    HW137025   2.332   4.028   6.093  0.8921 -0.1485  0.0693
 8521SOL    HW237026   2.224   4.033   6.199  0.0665 -1.9524 -1.4331
 8522SOL     OW37027   2.513   2.687   9.928  0.3804  0.2251  0.0050
 8522SOL    HW137028   2.454   2.763   9.933 -0.4359 -0.3367 -1.2600
 8522SOL    HW237029   2.469   2.625   9.871  1.1358 -0.8415  0.5793
 8523SOL     OW37030   2.599   3.154   5.377  0.3247  0.1572 -0.6319
 8523SOL    HW137031   2.535   3.192   5.317  0.8396  1.4881 -0.3509
 8523SOL    HW237032   2.679   3.139   5.325  2.1003  2.0625  1.5347
 8524SOL     OW37033   4.064   2.265   8.832  0.7275  0.0776 -0.2042
 8524SOL    HW137034   4.134   2.309   8.882 -1.0636  1.4848  1.0728
 8524SOL    HW237035   4.045   2.188   8.885  1.2462  0.8534  1.1252
 8525SOL     OW37036   0.392   2.600  10.499  0.1207 -0.1692 -0.1743
 8525SOL    HW137037   0.409   2.512  10.532  0.1267  0.5614  1.7786
 8525SOL    HW237038   0.481   2.616  10.468  0.0343  0.4752 -0.0907
 8526SOL     OW37039   0.756   0.816   4.471  0.2566 -0.0737 -0.2588
 8526SOL    HW137040   0.763   0.738   4.526 -1.1704  0.3102  0.4697
 8526SOL    HW237041   0.667   0.801   4.438 -0.0269  0.3264  0.3135
 8527SOL     OW37042   2.695   4.367   2.553 -0.4295 -0.2896 -0.0467
 8527SOL    HW137043   2.649   4.284   2.541 -0.7621  0.3802 -3.3332
 8527SOL    HW237044   2.776   4.334   2.591 -0.4024  0.4036  0.5144
 8528SOL     OW37045   4.673   2.109  13.629  0.0933  0.2429 -0.5426
 8528SOL    HW137046   4.598   2.094  13.686  1.2278  1.0344  1.1923
 8528SOL    HW237047   4.661   2.201  13.607  0.9251  1.4592  4.0274
 8529SOL     OW37048   1.957   1.453   8.348 -0.2953 -0.6896 -0.3043
 8529SOL    HW137049   1.931   1.528   8.400  0.9485  0.0841 -0.8069
 8529SOL    HW237050   2.051   1.460   8.328 -0.2191  2.2562  1.1265
 8530SOL     OW37051   2.973   4.539  12.398  0.1774  0.3081 -0.2834
 8530SOL    HW137052   2.987   4.568  12.488  0.2220 -1.2367  0.1992
 8530SOL    HW237053   2.956   4.613  12.340  1.5947  1.1611  0.4041
 8531SOL     OW37054   0.436   4.660   5.279  0.2024 -0.4844  0.2490
 8531SOL    HW137055   0.451   4.566   5.264  3.6785  0.1223 -0.1312
 8531SOL    HW237056   0.514   4.674   5.333  1.0173 -0.5398 -0.8988
 8532SOL     OW37057   1.914   1.807  12.221 -0.1746 -0.3304  0.4953
 8532SOL    HW137058   1.822   1.783  12.216  0.4874 -2.4012 -1.5341
 8532SOL    HW237059   1.943   1.777  12.135 -0.8523  0.9321 -0.1583
 8533SOL     OW37060   2.849   1.223   3.319  0.4201 -0.2995 -0.7440
 8533SOL    HW137061   2.829   1.316   3.319  0.6702 -0.2436 -1.5935
 8533SOL    HW237062   2.765   1.181   3.300  0.0341 -0.4248  1.2987
 8534SOL     OW37063   3.362   2.436   8.453  0.5018 -0.0494  0.3687
 8534SOL    HW137064   3.315   2.426   8.536 -1.9630 -0.8395 -1.1339
 8534SOL    HW237065   3.389   2.348   8.426 -0.6512 -0.9340  2.0931
 8535SOL     OW37066   1.690   1.352   5.008 -0.1780  0.0658  0.1830
 8535SOL    HW137067   1.693   1.294   4.932 -2.8551  0.5070 -0.2495
 8535SOL    HW237068   1.748   1.297   5.061 -0.0597 -1.2411 -1.3288
 8536SOL     OW37069   3.375   2.702   5.950  0.0611 -0.0922  0.3823
 8536SOL    HW137070   3.379   2.707   6.045  1.1781  0.5879  0.2943
 8536SOL    HW237071   3.335   2.617   5.930 -0.9445  0.3782  0.3666
 8537SOL     OW37072   1.938   0.716  12.095  0.1530 -0.5222 -0.3167
 8537SOL    HW137073   2.009   0.780  12.087 -0.3379 -0.1191 -1.3843
 8537SOL    HW237074   1.877   0.755  12.033  2.8430 -0.1115 -2.6920
 8538SOL     OW37075   3.073   2.658   2.330  0.1137 -0.2508 -0.6691
 8538SOL    HW137076   2.986   2.623   2.315 -1.0781  3.6162 -2.6660
 8538SOL    HW237077   3.123   2.629   2.253  0.7795  1.4182 -0.8559
 8539SOL     OW37078   2.936   0.417   5.731 -0.3118 -0.0847 -0.0377
 8539SOL    HW137079   3.031   0.433   5.728 -0.2072 -0.0934  3.4439
 8539SOL    HW237080   2.918   0.511   5.738 -0.2854  0.0331 -1.5359
 8540SOL     OW37081   1.099   3.427   7.679  0.1916  0.0135  0.2459
 8540SOL    HW137082   1.110   3.344   7.726  1.7832  0.1989  0.1975
 8540SOL    HW237083   1.034   3.397   7.616  1.5002 -2.3044  0.0058
 8541SOL     OW37084   3.003   3.982   8.605  0.0279  0.3161  0.1177
 8541SOL    HW137085   3.030   4.070   8.580  0.5501 -0.2979 -1.4875
 8541SOL    HW237086   3.018   3.981   8.699 -0.0308  0.7842  0.1303
 8542SOL     OW37087   0.638   2.293   6.063 -0.3137  0.4210  0.1326
 8542SOL    HW137088   0.714   2.261   6.014 -1.0923 -1.9596  0.4446
 8542SOL    HW237089   0.663   2.380   6.092  2.0978 -0.8279  1.8119
 8543SOL     OW37090   1.362   2.201   7.073 -0.4502 -0.1985  0.3005
 8543SOL    HW137091   1.384   2.141   7.144  1.8412 -0.7988 -0.9141
 8543SOL    HW237092   1.318   2.275   7.115  0.7927  1.4249 -1.2292
 8544SOL     OW37093   0.600   1.461  13.835 -0.4479  0.3779  0.7113
 8544SOL    HW137094   0.561   1.533  13.785  1.1982 -0.1879 -1.3729
 8544SOL    HW237095   0.689   1.463  13.799 -1.6143  1.4317 -2.1114
 8545SOL     OW37096   3.755   4.200  11.870 -0.2931 -0.2537 -0.7383
 8545SOL    HW137097   3.737   4.293  11.858 -0.5582 -0.2362 -0.1872
 8545SOL    HW237098   3.715   4.185  11.956 -0.1283 -1.0014 -0.7958
 8546SOL     OW37099   4.066   3.533   6.870 -0.0190  0.2443  0.0049
 8546SOL    HW137100   4.138   3.571   6.920  0.0421 -0.1004  0.1783
 8546SOL    HW237101   4.046   3.607   6.813 -2.6936 -0.6155 -0.1755
 8547SOL     OW37102   2.505   0.914   5.164 -0.0408  0.2324 -0.2849
 8547SOL    HW137103   2.501   0.992   5.220  0.7438  0.7883 -1.0035
 8547SOL    HW237104   2.469   0.850   5.225 -0.3862  1.5397  0.8932
 8548SOL     OW37105   3.466   0.177  12.334 -0.0118 -0.2965  0.3152
 8548SOL    HW137106   3.447   0.207  12.245  1.3451 -1.1392 -0.2700
 8548SOL    HW237107   3.480   0.254  12.390 -1.3322  1.3517 -1.6407
 8549SOL     OW37108   2.775   2.691   7.870  0.4273 -0.6833  0.0412
 8549SOL    HW137109   2.804   2.605   7.840  0.7089 -0.5149 -0.1788
 8549SOL    HW237110   2.706   2.701   7.805  0.1712 -1.8223  0.1446
 8550SOL     OW37111   4.407   2.746  12.827 -0.2223 -0.2886  0.5057
 8550SOL    HW137112   4.400   2.813  12.758 -1.4823 -0.4242  0.4859
 8550SOL    HW237113   4.361   2.670  12.790  1.1246 -0.1187 -1.5284
 8551SOL     OW37114   1.702   3.827  16.875 -0.0110 -0.0011 -0.6003
 8551SOL    HW137115   1.703   3.873  16.959 -0.5139 -0.2006 -0.4839
 8551SOL    HW237116   1.721   3.899  16.816 -3.0536 -0.0145 -1.6169
 8552SOL     OW37117   0.003   2.445   1.234 -0.7008  0.0885 -0.5195
 8552SOL    HW137118   4.693   2.392   1.306 -1.8649  0.9627 -0.4124
 8552SOL    HW237119   0.015   2.376   1.169  0.2192  0.3817 -0.6613
 8553SOL     OW37120   4.306   3.732   7.304  0.1758  0.0627 -0.1077
 8553SOL    HW137121   4.276   3.775   7.384  0.3500 -1.6177  0.8482
 8553SOL    HW237122   4.285   3.644   7.334 -1.2557  1.0997  1.9207
 8554SOL     OW37123   3.638   0.607   7.471  0.7094  0.5666 -0.6536
 8554SOL    HW137124   3.604   0.582   7.385  0.0701 -1.7739  0.2617
 8554SOL    HW237125   3.592   0.539   7.520 -0.1229  1.4449 -0.1963
 8555SOL     OW37126   3.125   0.439  10.253 -0.4049  0.2648  0.1074
 8555SOL    HW137127   3.128   0.354  10.298 -0.1254 -0.1098 -0.6093
 8555SOL    HW237128   3.035   0.464  10.273 -0.5954  0.1920 -0.6444
 8556SOL     OW37129   3.588   0.865  14.578  0.3488 -0.5664  0.2782
 8556SOL    HW137130   3.528   0.818  14.636  0.2074  1.2288  1.5874
 8556SOL    HW237131   3.672   0.828  14.605 -0.2189 -1.0454  1.3864
 8557SOL     OW37132   2.274   2.685  16.663  0.3749 -0.4977 -0.0264
 8557SOL    HW137133   2.327   2.731  16.728 -2.0956 -0.8179  2.2509
 8557SOL    HW237134   2.305   2.598  16.687  0.6367  0.1859  2.1803
 8558SOL     OW37135   1.951   0.190   1.960  0.2689 -0.6129  0.1947
 8558SOL    HW137136   1.884   0.123   1.950  0.1969 -0.0684 -2.9231
 8558SOL    HW237137   2.025   0.149   2.004  1.9363  1.5369 -0.5979
 8559SOL     OW37138   4.587   1.322  12.395  0.2843 -0.2240 -0.5684
 8559SOL    HW137139   4.597   1.331  12.490  0.5209  1.4475 -0.7334
 8559SOL    HW237140   4.592   1.228  12.379  2.8221  0.1423 -2.0759
 8560SOL     OW37141   3.952   2.902   1.505  0.5947  0.0481  0.1923
 8560SOL    HW137142   3.885   2.968   1.522  0.5173  0.1581 -0.5467
 8560SOL    HW237143   3.919   2.826   1.553  1.2577 -1.9482 -2.5160
 8561SOL     OW37144   3.768   0.753  14.322  0.3845  0.5066 -0.0927
 8561SOL    HW137145   3.829   0.726  14.390  2.5841  2.1028 -1.4385
 8561SOL    HW237146   3.805   0.696  14.255 -0.6282 -0.6483  0.3309
 8562SOL     OW37147   4.492   2.973   0.804 -0.4754  0.7593  0.2499
 8562SOL    HW137148   4.533   3.016   0.880  1.7743 -0.8229 -0.1038
 8562SOL    HW237149   4.440   3.048   0.774 -2.4541 -1.3499 -1.4935
 8563SOL     OW37150   4.389   1.875   4.298 -0.6131  0.2209 -0.1920
 8563SOL    HW137151   4.467   1.909   4.255 -0.1262  0.5989  1.0082
 8563SOL    HW237152   4.343   1.953   4.330 -1.2330 -0.7851  1.3694
 8564SOL     OW37153   0.399   2.244   2.014  0.0431  0.6695  0.2385
 8564SOL    HW137154   0.361   2.329   1.992  1.6055  1.1781 -0.4750
 8564SOL    HW237155   0.336   2.187   1.969  1.4303 -1.9294  1.5631
 8565SOL     OW37156   2.216   2.605   3.510 -0.2791  0.1669 -0.2105
 8565SOL    HW137157   2.295   2.628   3.559  0.0886 -2.3737  0.3975
 8565SOL    HW237158   2.153   2.660   3.557  0.3381  1.1537 -0.5628
 8566SOL     OW37159   2.230   2.194  17.414 -0.6194  0.2321  0.5627
 8566SOL    HW137160   2.234   2.127  17.483  0.4778 -0.2841  0.0081
 8566SOL    HW237161   2.257   2.158  17.329  0.9186 -1.1067  1.6034
 8567SOL     OW37162   1.881   1.625  13.808 -0.1008  0.0013 -0.2186
 8567SOL    HW137163   1.804   1.680  13.817 -1.0084 -1.3026 -0.0587
 8567SOL    HW237164   1.923   1.679  13.740 -0.1535  2.1768  1.4545
 8568SOL     OW37165   4.602   1.343   3.498  0.5227  0.2950  0.8391
 8568SOL    HW137166   4.535   1.409   3.514 -0.9865 -0.9195 -0.5614
 8568SOL    HW237167   4.602   1.337   3.403 -0.0841  0.4760  0.8292
 8569SOL     OW37168   3.592   0.623   9.837 -0.4232  0.1140 -0.6114
 8569SOL    HW137169   3.511   0.633   9.787 -1.6600 -0.8483  1.1785
 8569SOL    HW237170   3.554   0.622   9.925 -0.4226  0.5752 -0.6045
 8570SOL     OW37171   3.380   4.233   6.744  0.7305 -0.2762 -0.2432
 8570SOL    HW137172   3.384   4.242   6.648  0.1373  0.5130 -0.1902
 8570SOL    HW237173   3.474   4.218   6.757  0.8008  1.2875  1.0300
 8571SOL     OW37174   0.676   3.102   8.417  0.1777  0.6091 -0.2116
 8571SOL    HW137175   0.647   3.129   8.330  0.8305  0.5450 -0.4473
 8571SOL    HW237176   0.733   3.025   8.412 -0.8300 -0.3623  2.9600
 8572SOL     OW37177   2.622   3.807  15.764  0.3006  0.0575 -0.0525
 8572SOL    HW137178   2.527   3.805  15.752  0.1746  0.7414  0.8162
 8572SOL    HW237179   2.641   3.900  15.752 -0.1163  0.2679  0.8936
 8573SOL     OW37180   2.512   2.708  17.639 -0.5074 -0.5944 -0.4897
 8573SOL    HW137181   2.600   2.747  17.635 -0.5848 -0.2643  0.7108
 8573SOL    HW237182   2.533   2.641   0.008  0.4780  1.6365  1.4880
 8574SOL     OW37183   1.464   3.412   1.830 -0.1003 -0.1794 -1.1802
 8574SOL    HW137184   1.501   3.330   1.861  2.2150  0.9333 -1.0138
 8574SOL    HW237185   1.527   3.474   1.866 -2.3828  0.5227  1.6023
 8575SOL     OW37186   1.485   2.674  15.784  1.0195 -0.8065  0.0342
 8575SOL    HW137187   1.452   2.681  15.694 -1.8993 -0.5448  1.0938
 8575SOL    HW237188   1.446   2.758  15.810  0.6456 -1.9020  2.9771
 8576SOL     OW37189   0.131   3.445   4.314 -0.2337  0.1509 -0.3408
 8576SOL    HW137190   0.180   3.455   4.233  1.5937 -3.1129  0.3484
 8576SOL    HW237191   0.093   3.533   4.310  2.1179  1.0919 -1.4848
 8577SOL     OW37192   0.978   4.219   0.958  0.5424 -0.7359 -0.7997
 8577SOL    HW137193   0.969   4.130   0.992  1.2114 -0.9355 -1.1480
 8577SOL    HW237194   1.047   4.209   0.892  0.5092  0.3154 -0.9977
 8578SOL     OW37195   1.982   0.732  11.422 -0.8208 -0.2264 -0.4945
 8578SOL    HW137196   1.910   0.690  11.469 -0.7152  1.0591  0.8528
 8578SOL    HW237197   2.060   0.698  11.465 -0.2034 -0.1700 -1.5774
 8579SOL     OW37198   1.809   1.688   3.103 -0.0584  0.2588  0.5331
 8579SOL    HW137199   1.800   1.773   3.060 -1.7174 -0.9144 -1.3850
 8579SOL    HW237200   1.887   1.663   3.053  0.3604  1.0307  0.7937
 8580SOL     OW37201   3.750   3.043   1.582 -0.0515 -0.9908  0.6674
 8580SOL    HW137202   3.808   3.115   1.607  0.2794 -1.7226  2.0133
 8580SOL    HW237203   3.661   3.071   1.600 -0.2774 -2.0531  1.1958
 8581SOL     OW37204   1.278   2.414   2.976  0.1714  0.2146 -0.5043
 8581SOL    HW137205   1.198   2.441   3.021  0.0079 -1.6764  0.3820
 8581SOL    HW237206   1.341   2.478   3.008  0.9559 -1.5840  1.6064
 8582SOL     OW37207   2.766   1.405   1.089  0.5732  0.1171 -0.2215
 8582SOL    HW137208   2.844   1.365   1.128  1.7174  0.4006 -2.1942
 8582SOL    HW237209   2.708   1.415   1.164 -1.2559 -0.5648 -1.5484
 8583SOL     OW37210   1.429   0.453   6.500 -0.1094  0.3605  0.0837
 8583SOL    HW137211   1.474   0.476   6.581  0.6081  0.7329 -0.4165
 8583SOL    HW237212   1.510   0.434   6.453 -1.2423  3.1044 -2.9787
 8584SOL     OW37213   2.136   2.602   3.210 -0.3583 -0.0177  0.0764
 8584SOL    HW137214   2.194   2.613   3.286 -0.7585 -0.6699  0.4759
 8584SOL    HW237215   2.048   2.621   3.244 -0.5703 -0.4181 -0.2509
 8585SOL     OW37216   2.469   2.587   4.656 -0.2634  0.3223  0.2369
 8585SOL    HW137217   2.380   2.579   4.692  0.5144 -2.6656  1.4756
 8585SOL    HW237218   2.524   2.581   4.734 -1.2952 -0.9444  0.8668
 8586SOL     OW37219   0.492   0.966   4.218 -0.4022 -0.1818  0.4597
 8586SOL    HW137220   0.407   0.927   4.237 -1.3721  0.8847 -1.7126
 8586SOL    HW237221   0.483   0.990   4.126 -0.4455  1.7528  0.9719
 8587SOL     OW37222   1.568   1.168  15.612  0.0623 -0.1898  0.3084
 8587SOL    HW137223   1.486   1.176  15.564  0.8916 -2.0641 -1.4525
 8587SOL    HW237224   1.538   1.093  15.664 -1.0926 -1.3755 -2.0650
 8588SOL     OW37225   4.355   3.828  14.865 -0.2151  0.1015  0.0416
 8588SOL    HW137226   4.375   3.922  14.873  0.0450  0.1079 -0.6621
 8588SOL    HW237227   4.265   3.831  14.833 -0.1324  2.7182  0.0355
 8589SOL     OW37228   3.682   0.044   5.332  0.4196 -0.2246 -0.1867
 8589SOL    HW137229   3.743   0.062   5.403 -1.5377 -0.0308  1.4536
 8589SOL    HW237230   3.618   0.000   5.389  1.4383 -0.8646  0.4624
 8590SOL     OW37231   3.586   0.561   6.204  0.0379  0.8811 -0.1664
 8590SOL    HW137232   3.561   0.483   6.253  0.5588  1.3371  0.8252
 8590SOL    HW237233   3.617   0.520   6.124 -1.0712 -0.9717  0.3455
 8591SOL     OW37234   2.107   3.072   6.937  0.2327 -0.3845  0.0352
 8591SOL    HW137235   2.031   3.069   6.995  1.0535 -1.8229  1.0255
 8591SOL    HW237236   2.067   3.029   6.861 -0.8578 -2.1036  1.6050
 8592SOL     OW37237   1.610   4.655  10.633 -0.1950 -0.4265 -0.1994
 8592SOL    HW137238   1.680   4.674  10.695  0.4001 -0.5759 -0.8284
 8592SOL    HW237239   1.541   4.719  10.650 -0.7207 -1.2214  0.6788
 8593SOL     OW37240   0.201   2.957   9.615 -0.2780 -0.0681 -0.1772
 8593SOL    HW137241   0.227   3.040   9.576  0.9182 -1.1023 -1.5665
 8593SOL    HW237242   0.143   2.990   9.684  1.4827 -2.5591  2.4501
 8594SOL     OW37243   1.082   0.187   3.982  0.2181 -0.1884  0.4236
 8594SOL    HW137244   1.056   0.272   3.946 -2.4994 -1.8760 -1.5683
 8594SOL    HW237245   1.119   0.202   4.069 -1.2879  0.4908  0.9514
 8595SOL     OW37246   2.485   2.941  12.939 -0.1489  0.0883  0.0891
 8595SOL    HW137247   2.449   2.895  13.015 -0.3482 -1.9036 -1.1881
 8595SOL    HW237248   2.579   2.934  12.954 -0.3581  1.1610  1.7796
 8596SOL     OW37249   2.336   1.509   5.838 -0.2054 -0.1255 -0.2192
 8596SOL    HW137250   2.242   1.523   5.848 -0.0768  0.0896  0.6463
 8596SOL    HW237251   2.358   1.598   5.810 -1.6984  0.8479  1.7205
 8597SOL     OW37252   3.211   0.649  16.510  0.4135  0.0336 -0.0035
 8597SOL    HW137253   3.293   0.667  16.465 -0.4883  2.3105 -0.7440
 8597SOL    HW237254   3.168   0.730  16.483  1.8976  0.2691 -1.6464
 8598SOL     OW37255   0.768   1.374  10.096  0.4285 -0.0513 -0.4910
 8598SOL    HW137256   0.854   1.415  10.092  0.8610 -1.0183 -1.1115
 8598SOL    HW237257   0.786   1.303  10.035 -1.2229 -0.1366 -0.8806
 8599SOL     OW37258   0.469   1.155   4.809  0.1795  0.1073 -0.9369
 8599SOL    HW137259   0.396   1.170   4.749 -1.4012 -2.7227  0.2797
 8599SOL    HW237260   0.454   1.061   4.803  1.0421 -0.1011  0.0916
 8600SOL     OW37261   1.832   0.764   7.628 -0.1117 -0.1430  0.1135
 8600SOL    HW137262   1.860   0.855   7.632 -2.6979  0.6221  1.0391
 8600SOL    HW237263   1.887   0.731   7.557 -1.7152 -1.5049 -0.4922
 8601SOL     OW37264   1.667   4.117   2.944 -0.4163 -0.3687 -0.2079
 8601SOL    HW137265   1.618   4.101   3.025 -2.4322  0.8587 -1.1876
 8601SOL    HW237266   1.608   4.068   2.887 -1.2096 -1.9788  1.9751
 8602SOL     OW37267   1.156   1.430  16.210 -0.3572  0.4302 -0.0316
 8602SOL    HW137268   1.114   1.437  16.296 -2.3883 -2.0381 -0.8431
 8602SOL    HW237269   1.238   1.383  16.227 -1.1622 -1.1519 -0.5504
 8603SOL     OW37270   0.075   0.380   5.669 -1.1245 -0.3606  0.1769
 8603SOL    HW137271   0.041   0.465   5.641 -1.1550 -0.4421 -0.0375
 8603SOL    HW237272   4.721   0.325   5.669 -0.6729 -1.0087 -0.1661
 8604SOL     OW37273   3.808   3.072  10.538  0.8039 -0.3430  0.9313
 8604SOL    HW137274   3.878   3.014  10.566  2.4555  1.9471  1.6011
 8604SOL    HW237275   3.845   3.160  10.549  1.6031 -0.3414 -1.7720
 8605SOL     OW37276   3.728   0.187  10.666 -0.4667 -0.3668 -0.4553
 8605SOL    HW137277   3.726   0.124  10.594 -3.1724 -1.3345  0.4372
 8605SOL    HW237278   3.821   0.209  10.666 -0.5492 -0.0109  0.0825
 8606SOL     OW37279   2.679   4.606   2.436 -0.2121 -0.0916  0.0545
 8606SOL    HW137280   2.605   4.637   2.488 -1.1177 -0.5919 -0.9320
 8606SOL    HW237281   2.682   4.522   2.482  3.5358  1.0159  1.8447
 8607SOL     OW37282   4.255   4.381   5.485 -0.7559  0.1984  0.7282
 8607SOL    HW137283   4.176   4.416   5.443 -0.3143 -0.5742 -0.7458
 8607SOL    HW237284   4.267   4.288   5.467 -0.5216  0.5835 -1.0742
 8608SOL     OW37285   1.062   0.361   7.295 -0.0007 -0.0279  0.2408
 8608SOL    HW137286   1.006   0.426   7.252  0.4601 -1.1966 -2.1253
 8608SOL    HW237287   1.100   0.412   7.367  0.3814  0.0321 -0.0056
 8609SOL     OW37288   3.617   1.847   7.454  0.0471  0.2754 -0.3075
 8609SOL    HW137289   3.700   1.804   7.433 -0.7070 -1.0073 -0.6510
 8609SOL    HW237290   3.639   1.929   7.409 -1.0647 -0.3241 -1.9441
 8610SOL     OW37291   0.913   1.448  16.085 -0.4215 -0.2297  0.0478
 8610SOL    HW137292   0.858   1.391  16.139 -1.7899  0.6058 -0.4440
 8610SOL    HW237293   0.999   1.449  16.127 -0.5734 -0.8214  0.3709
 8611SOL     OW37294   1.976   3.820  13.774 -0.2942 -0.0054  0.8343
 8611SOL    HW137295   1.889   3.783  13.793 -1.8215  2.7730 -0.7311
 8611SOL    HW237296   1.987   3.866  13.858 -1.1782 -0.9177  1.4465
 8612SOL     OW37297   2.115   4.278   2.415  0.3877 -0.2324  0.4149
 8612SOL    HW137298   2.054   4.335   2.368 -1.2274 -1.2117  1.3386
 8612SOL    HW237299   2.099   4.189   2.383  0.6420 -0.2501  0.3322
 8613SOL     OW37300   4.253   2.357  10.662 -0.0127 -0.4240  0.2975
 8613SOL    HW137301   4.212   2.280  10.624  0.2696 -1.0367  1.2300
 8613SOL    HW237302   4.180   2.414  10.688  0.7412 -0.1000  1.7162
 8614SOL     OW37303   4.426   1.985   2.980 -0.2317 -0.0006  0.2674
 8614SOL    HW137304   4.435   1.957   2.889  1.2543  0.9953  0.1097
 8614SOL    HW237305   4.403   1.902   3.020  1.2620 -0.9762 -0.8728
 8615SOL     OW37306   0.632   3.772   2.353  0.0289 -0.4601  0.2905
 8615SOL    HW137307   0.643   3.678   2.367  2.1661 -0.4797 -1.4849
 8615SOL    HW237308   0.590   3.776   2.267  2.1969 -1.4488 -0.8207
 8616SOL     OW37309   3.036   1.036  13.894 -0.1118  0.3571  0.2956
 8616SOL    HW137310   2.969   1.063  13.831  0.5745  0.0096 -0.5790
 8616SOL    HW237311   3.028   0.941  13.893 -0.4831  0.4044 -0.7089
 8617SOL     OW37312   4.276   3.989   6.270  0.3498 -0.4535 -0.0473
 8617SOL    HW137313   4.248   3.912   6.221  1.6648 -0.2408 -1.1122
 8617SOL    HW237314   4.284   3.949   6.357  0.0448  1.4721  0.8825
 8618SOL     OW37315   4.315   0.801   4.206 -0.0502  0.0097  0.3006
 8618SOL    HW137316   4.263   0.878   4.182  1.4947  1.0327  0.2535
 8618SOL    HW237317   4.384   0.849   4.251 -1.9559  1.5359  1.6224
 8619SOL     OW37318   0.543   0.150  11.778 -0.2695 -0.2167 -0.5115
 8619SOL    HW137319   0.487   0.212  11.825 -0.4879  1.1085 -2.5411
 8619SOL    HW237320   0.568   0.093  11.851  0.8990 -1.6151 -2.0128
 8620SOL     OW37321   2.137   4.268  15.460 -0.0224  0.0948  0.5281
 8620SOL    HW137322   2.200   4.286  15.530  2.8040  2.4131 -2.6473
 8620SOL    HW237323   2.192   4.206  15.412  0.0987 -0.3421  1.2165
 8621SOL     OW37324   4.653   1.693  17.022  0.1403  0.6946  0.7474
 8621SOL    HW137325   4.638   1.667  17.113  0.0062 -2.3980 -0.1570
 8621SOL    HW237326   0.009   1.646  16.999 -0.7947  0.6089 -2.2163
 8622SOL     OW37327   3.806   2.364  13.486 -0.3909  0.3214  0.5493
 8622SOL    HW137328   3.780   2.443  13.439  0.5104 -1.2810 -2.6468
 8622SOL    HW237329   3.873   2.391  13.549 -1.0383 -1.8989  2.2088
 8623SOL     OW37330   1.041   4.349   0.453  0.1477  0.2876  0.9109
 8623SOL    HW137331   0.963   4.403   0.464 -0.5047 -0.4094 -0.2284
 8623SOL    HW237332   1.033   4.287   0.525 -2.0218  0.7027  1.0141
 8624SOL     OW37333   1.198   3.003   9.370 -0.2904 -0.1196  0.1311
 8624SOL    HW137334   1.137   2.945   9.324  1.4340 -0.2700 -1.9464
 8624SOL    HW237335   1.278   2.958   9.345  0.1848 -0.1668  1.7431
 8625SOL     OW37336   0.630   4.077   2.081  0.5873  0.0719 -0.8158
 8625SOL    HW137337   0.634   4.016   2.155 -2.0744  0.3924 -0.3767
 8625SOL    HW237338   0.718   4.112   2.076  0.7985 -0.3987 -0.3634
 8626SOL     OW37339   0.940   1.551   1.015  0.1963 -0.7076 -0.2439
 8626SOL    HW137340   0.965   1.480   1.074  0.5442 -0.7821 -0.4855
 8626SOL    HW237341   0.848   1.564   1.041  1.0235  1.1665  1.7637
 8627SOL     OW37342   2.750   1.707  17.691 -0.0765  0.2788  0.0571
 8627SOL    HW137343   2.823   1.728  17.633  0.1543  0.2186  0.3274
 8627SOL    HW237344   2.688   1.764  17.645 -1.1028 -0.4335  0.5714
 8628SOL     OW37345   4.031   3.757   9.099 -0.8354 -0.1775  0.1547
 8628SOL    HW137346   4.011   3.732   9.009  2.8913 -1.4020 -0.3520
 8628SOL    HW237347   4.069   3.676   9.134 -0.0518  0.5384  0.9579
 8629SOL     OW37348   3.664   2.064   7.272 -0.0841 -0.2741 -0.8953
 8629SOL    HW137349   3.626   2.146   7.305  0.2697 -0.4090 -0.1501
 8629SOL    HW237350   3.753   2.089   7.247 -0.5099  0.6565 -1.4902
 8630SOL     OW37351   2.968   2.328   9.266  0.2834 -0.1620  0.0892
 8630SOL    HW137352   3.007   2.404   9.222 -1.3805  0.3535 -0.4967
 8630SOL    HW237353   2.877   2.331   9.237 -0.8115  0.7370  3.6785
 8631SOL     OW37354   0.101   0.158  15.167  0.3266 -0.4069  0.0936
 8631SOL    HW137355   0.170   0.161  15.101  0.1835  0.1553 -0.0339
 8631SOL    HW237356   0.090   0.064  15.182  0.3042 -0.5207 -0.6760
 8632SOL     OW37357   0.046   2.080   3.360  0.6223 -0.4624  0.0019
 8632SOL    HW137358   4.704   2.124   3.307  0.1319 -0.6797  0.4258
 8632SOL    HW237359   0.014   1.990   3.352 -3.8518  0.8991  2.8966
 8633SOL     OW37360   0.637   4.390   6.844 -0.3202 -0.1475  0.0623
 8633SOL    HW137361   0.618   4.324   6.777 -0.3404 -1.5743  1.4512
 8633SOL    HW237362   0.728   4.418   6.836 -0.6956  0.9283 -0.4360
 8634SOL     OW37363   2.264   3.242   9.856 -0.2598 -0.1047  0.4267
 8634SOL    HW137364   2.353   3.230   9.890 -0.1969  1.8126  0.9716
 8634SOL    HW237365   2.218   3.267   9.936  0.5773 -0.4355  1.0142
 8635SOL     OW37366   3.522   1.309   6.512 -0.0344 -0.9484  0.6870
 8635SOL    HW137367   3.432   1.336   6.494 -0.4323 -2.0289  1.0643
 8635SOL    HW237368   3.544   1.367   6.585 -0.3404 -1.6309  1.3176
 8636SOL     OW37369   3.207   2.718   7.263 -0.4193  0.7467 -0.2145
 8636SOL    HW137370   3.201   2.790   7.326  1.4643  2.8466 -2.4118
 8636SOL    HW237371   3.162   2.752   7.186 -2.5817  0.6731  1.0090
 8637SOL     OW37372   2.368   4.041   5.160 -0.0358  0.2115 -0.0669
 8637SOL    HW137373   2.402   4.031   5.071  0.7516 -2.8061  0.5679
 8637SOL    HW237374   2.278   4.013   5.143 -0.1643 -0.0053  1.0189
 8638SOL     OW37375   4.270   4.628   7.532 -0.2800 -0.3146  0.1880
 8638SOL    HW137376   4.340   4.659   7.476  0.4606 -2.7319 -0.2237
 8638SOL    HW237377   4.319   4.565   7.584  0.8415  0.0635 -0.4159
 8639SOL     OW37378   4.315   3.949   9.596 -0.1899 -0.0962 -0.3409
 8639SOL    HW137379   4.322   3.856   9.618  0.2233  0.0153 -0.0069
 8639SOL    HW237380   4.304   3.947   9.501  0.9073  1.6794 -0.4900
 8640SOL     OW37381   3.358   1.446  11.062  0.0351 -0.2339 -0.1167
 8640SOL    HW137382   3.413   1.475  11.135  0.5577  1.1572 -1.0844
 8640SOL    HW237383   3.314   1.528  11.038 -1.2057 -0.2224  2.1437
 8641SOL     OW37384   1.451   4.476   4.737  0.2846 -0.0638 -0.0180
 8641SOL    HW137385   1.541   4.450   4.756 -0.1582 -1.7610 -0.2090
 8641SOL    HW237386   1.440   4.567   4.761  0.2876 -0.1036  0.1301
 8642SOL     OW37387   1.866   2.087   6.178 -0.4057  0.4694 -0.3351
 8642SOL    HW137388   1.878   2.007   6.229 -3.2414 -1.0275 -2.0491
 8642SOL    HW237389   1.831   2.043   6.101 -1.0017 -0.6130  0.5657
 8643SOL     OW37390   4.155   2.873  16.837  0.1591 -0.2045 -0.2334
 8643SOL    HW137391   4.114   2.802  16.787  1.1187 -1.6583  1.0504
 8643SOL    HW237392   4.096   2.885  16.912  0.1062 -2.2602  0.0396
 8644SOL     OW37393   4.291   1.199   6.501 -0.3663 -0.1499 -0.0551
 8644SOL    HW137394   4.235   1.276   6.499 -0.1246  0.0108 -0.5592
 8644SOL    HW237395   4.245   1.122   6.468 -0.0953  0.0267 -0.8433
 8645SOL     OW37396   0.648   2.520   6.635 -0.3795  0.5800  0.0227
 8645SOL    HW137397   0.743   2.517   6.623 -0.2468 -0.9375  1.4638
 8645SOL    HW237398   0.615   2.580   6.568 -1.4708 -0.4516 -0.3729
 8646SOL     OW37399   1.343   2.387  11.053 -0.4201 -0.6589  0.4025
 8646SOL    HW137400   1.401   2.351  10.985  0.1101  1.0531 -0.0834
 8646SOL    HW237401   1.277   2.432  10.999  0.4510 -2.0687 -1.8532
 8647SOL     OW37402   3.764   0.418  14.387  0.1031 -0.0721  0.3099
 8647SOL    HW137403   3.788   0.506  14.415  1.1260 -0.4497  0.6052
 8647SOL    HW237404   3.746   0.433  14.295  1.1473  1.8541  0.4226
 8648SOL     OW37405   4.461   3.154   8.939  0.6212 -0.2332 -0.2166
 8648SOL    HW137406   4.403   3.084   8.909  1.7587 -1.1218 -0.3463
 8648SOL    HW237407   4.530   3.149   8.872 -0.7822  1.3585 -1.8011
 8649SOL     OW37408   4.162   0.174  12.504 -0.2813  0.1047  0.6958
 8649SOL    HW137409   4.090   0.194  12.564 -0.6658  0.1321  0.2234
 8649SOL    HW237410   4.233   0.187  12.567 -0.3853  1.9410  0.4347
 8650SOL     OW37411   2.996   4.122   7.150 -0.4508  0.0609 -0.3464
 8650SOL    HW137412   2.910   4.103   7.186  0.1281 -0.4521  0.7689
 8650SOL    HW237413   2.961   4.144   7.064  1.7865 -1.0869 -1.5479
 8651SOL     OW37414   0.311   2.407  14.791  0.2065  0.4582 -0.0508
 8651SOL    HW137415   0.277   2.320  14.812 -0.3338  0.4397 -0.9755
 8651SOL    HW237416   0.244   2.460  14.835  0.7347  0.9187  0.1982
 8652SOL     OW37417   2.044   3.085  12.198 -0.2810 -0.2928 -0.0545
 8652SOL    HW137418   2.118   3.081  12.137 -0.1515 -2.5304  0.2483
 8652SOL    HW237419   2.024   2.993  12.214  0.8113 -0.0700  2.6546
 8653SOL     OW37420   2.677   2.680   6.510 -0.1168 -0.3518  0.3139
 8653SOL    HW137421   2.772   2.665   6.514 -0.5299 -2.7494  1.3598
 8653SOL    HW237422   2.645   2.590   6.516 -0.5106 -0.1510  1.2872
 8654SOL     OW37423   1.345   4.100   3.333  0.2445  0.0222 -0.1366
 8654SOL    HW137424   1.261   4.146   3.322  0.6223  0.9460  0.8387
 8654SOL    HW237425   1.373   4.138   3.417 -1.0067 -2.0917  1.2470
 8655SOL     OW37426   2.028   1.171   8.525 -0.3556 -0.0060 -0.5133
 8655SOL    HW137427   2.004   1.231   8.455 -1.3804  0.4536  0.2345
 8655SOL    HW237428   2.080   1.105   8.479  0.1636 -0.5029  0.7775
 8656SOL     OW37429   0.817   2.707   6.837 -0.2397  0.3557  0.1037
 8656SOL    HW137430   0.741   2.765   6.833 -0.9092 -0.5278 -0.0024
 8656SOL    HW237431   0.777   2.622   6.854 -0.1955  0.1057 -1.0269
 8657SOL     OW37432   4.315   3.901  13.201 -0.1429  0.5785 -0.2021
 8657SOL    HW137433   4.320   3.851  13.282 -0.3549  0.9490  0.0440
 8657SOL    HW237434   4.305   3.983  13.250 -2.6484  0.4358 -0.4700
 8658SOL     OW37435   2.769   1.694  10.517 -0.0009 -0.6412  0.0501
 8658SOL    HW137436   2.707   1.638  10.564 -3.0501  0.3278 -2.7916
 8658SOL    HW237437   2.720   1.777  10.518  1.1339  0.0218 -0.7897
 8659SOL     OW37438   2.302   4.537  10.133  0.0168 -0.1902  0.4399
 8659SOL    HW137439   2.397   4.541  10.126 -0.1859  1.0142 -1.7473
 8659SOL    HW237440   2.281   4.596  10.060 -1.4867 -0.4795  0.6406
 8660SOL     OW37441   3.292   2.766  14.753 -0.3744 -0.2140 -0.5221
 8660SOL    HW137442   3.253   2.680  14.737 -1.5572  0.7466 -2.7036
 8660SOL    HW237443   3.343   2.758  14.672  1.0926  1.4495  0.2423
 8661SOL     OW37444   4.266   2.307   7.993 -0.8515 -0.6318 -0.2591
 8661SOL    HW137445   4.288   2.222   7.955 -0.7490  0.2100 -2.0387
 8661SOL    HW237446   4.195   2.279   8.051  0.9495  0.7634  2.6041
 8662SOL     OW37447   0.180   1.167   5.492  0.4719 -0.3293 -0.0867
 8662SOL    HW137448   0.269   1.140   5.515  0.7459 -0.9411 -1.8420
 8662SOL    HW237449   0.192   1.176   5.397 -4.6359 -0.0944 -0.7138
 8663SOL     OW37450   1.377   4.330   6.914  0.5747 -0.2558  0.1354
 8663SOL    HW137451   1.457   4.284   6.887  0.4004 -0.1011 -0.6225
 8663SOL    HW237452   1.355   4.378   6.835  0.0116 -0.0257  0.4341
 8664SOL     OW37453   2.152   1.022   6.594 -0.2228  0.3147 -0.3456
 8664SOL    HW137454   2.214   1.096   6.587 -0.8584  0.7060 -1.8638
 8664SOL    HW237455   2.168   0.998   6.685 -1.6064 -0.8095 -0.4020
 8665SOL     OW37456   3.022   4.191   5.221  0.6199 -0.2633  0.4067
 8665SOL    HW137457   2.976   4.109   5.241 -0.3694  0.0403 -0.6355
 8665SOL    HW237458   3.111   4.165   5.243  1.1833  1.4472  0.1001
 8666SOL     OW37459   4.354   1.724   1.063  0.2130  0.1232  0.4272
 8666SOL    HW137460   4.370   1.638   1.025 -0.6349  0.5996 -1.0081
 8666SOL    HW237461   4.289   1.702   1.130  0.4877 -0.0930  0.6203
 8667SOL     OW37462   3.519   1.390  12.418 -0.4442  0.0828 -0.0199
 8667SOL    HW137463   3.491   1.433  12.337 -1.8417 -0.4494  0.1767
 8667SOL    HW237464   3.575   1.324  12.379  1.0222  1.0493  0.4498
 8668SOL     OW37465   4.392   4.356   7.848 -0.3626  0.0040  0.3147
 8668SOL    HW137466   4.362   4.350   7.757 -1.2439  1.8519  0.4976
 8668SOL    HW237467   4.456   4.427   7.847 -0.5139  0.1326 -0.4039
 8669SOL     OW37468   2.314   3.203   8.670 -0.3177 -0.1519 -0.5863
 8669SOL    HW137469   2.237   3.176   8.719 -0.6026  2.3102  0.3490
 8669SOL    HW237470   2.315   3.294   8.700  3.0784 -0.4807  0.3036
 8670SOL     OW37471   0.937   2.812   2.110  0.5809  0.0219  0.4608
 8670SOL    HW137472   0.850   2.833   2.144  0.0939 -1.2137 -0.0185
 8670SOL    HW237473   0.975   2.894   2.081  0.0189  0.4528  0.9526
 8671SOL     OW37474   0.702   3.409   6.554 -0.3411 -0.3226  0.1631
 8671SOL    HW137475   0.617   3.451   6.568  0.6878  1.0260  2.4701
 8671SOL    HW237476   0.710   3.382   6.463 -0.6099 -0.2357  0.1136
 8672SOL     OW37477   1.241   2.782  13.651  0.2564 -0.5890  0.5881
 8672SOL    HW137478   1.177   2.781  13.722 -1.0800 -2.5728 -0.6399
 8672SOL    HW237479   1.307   2.848  13.672  0.7802 -0.8366 -0.2727
 8673SOL     OW37480   0.560   2.368   7.707  0.6504 -0.1483 -0.0971
 8673SOL    HW137481   0.638   2.411   7.742 -0.1506  1.4780 -0.3100
 8673SOL    HW237482   0.496   2.386   7.776  0.5034 -2.4209  0.3619
 8674SOL     OW37483   3.808   1.045   4.868  0.6212  1.0321 -0.1496
 8674SOL    HW137484   3.854   0.973   4.826 -0.8187  0.2056 -0.2979
 8674SOL    HW237485   3.750   1.063   4.794 -1.1018  2.2406  1.4695
 8675SOL     OW37486   3.897   1.822   5.094  0.5563 -0.1296  0.3878
 8675SOL    HW137487   3.864   1.869   5.018  0.9234 -0.9486 -0.2744
 8675SOL    HW237488   3.857   1.735   5.085  2.6734 -0.7212 -3.2728
 8676SOL     OW37489   2.316   4.138   0.713 -0.0849 -0.0388 -0.1437
 8676SOL    HW137490   2.369   4.193   0.655 -0.8953 -0.3057 -1.1317
 8676SOL    HW237491   2.268   4.216   0.740 -0.6513 -0.9339  1.4418
 8677SOL     OW37492   1.285   2.949  14.540  0.4723  0.0792  0.0452
 8677SOL    HW137493   1.237   2.961  14.458 -1.5444 -4.6714  0.5306
 8677SOL    HW237494   1.374   2.971  14.515 -0.8176  3.6357 -1.4481
 8678SOL     OW37495   1.346   3.803   6.044 -0.2739 -0.1618  0.1912
 8678SOL    HW137496   1.362   3.712   6.070 -0.6451 -0.5648 -0.9587
 8678SOL    HW237497   1.417   3.829   5.986  1.1199 -1.7426  1.1975
 8679SOL     OW37498   0.008   0.529   9.561 -0.2941  0.2723 -0.0994
 8679SOL    HW137499   4.679   0.449   9.565  1.0646 -0.6525 -0.7643
 8679SOL    HW237500   0.040   0.529   9.471  1.6507 -1.8537  0.5814
 8680SOL     OW37501   2.652   2.474  12.997 -0.5941 -0.4109 -0.1647
 8680SOL    HW137502   2.746   2.471  13.015 -0.6450  1.9160  0.4776
 8680SOL    HW237503   2.631   2.383  13.019  1.3421 -1.0340 -0.8212
 8681SOL     OW37504   2.726   0.402   0.533 -0.1647  0.4018  0.1979
 8681SOL    HW137505   2.755   0.482   0.490  0.8193  0.4937  1.0380
 8681SOL    HW237506   2.643   0.393   0.486  0.2849  0.7682 -0.6704
 8682SOL     OW37507   0.836   0.089  12.335 -0.0492  0.2935 -0.4614
 8682SOL    HW137508   0.906   0.150  12.358  0.1200 -0.3541  0.7461
 8682SOL    HW237509   0.876   0.049  12.257  1.7825  0.6479  0.2993
 8683SOL     OW37510   0.412   2.334   3.807  0.3902 -0.3770  1.0266
 8683SOL    HW137511   0.461   2.410   3.777 -3.4899  1.4233 -0.6435
 8683SOL    HW237512   0.338   2.332   3.747  0.4157 -0.8229  1.0086
 8684SOL     OW37513   0.039   2.492   4.143  0.1216 -0.1404  0.2218
 8684SOL    HW137514   0.102   2.563   4.142 -0.2623  0.2355  2.1330
 8684SOL    HW237515   0.044   2.453   4.230  1.0549 -1.6924 -0.5119
 8685SOL     OW37516   4.341   4.469   5.984  0.6273  0.5444 -0.3187
 8685SOL    HW137517   4.358   4.426   5.900 -1.0310  2.1442 -1.4677
 8685SOL    HW237518   4.248   4.469   6.006  1.5828 -2.4115  3.7101
 8686SOL     OW37519   4.065   0.762   2.672  0.2797  0.1601  0.2600
 8686SOL    HW137520   4.049   0.759   2.577  0.4965  3.6327  0.1246
 8686SOL    HW237521   4.102   0.849   2.686  0.2646  0.1407  0.4224
 8687SOL     OW37522   0.590   3.038   8.932  0.2064  0.4742  0.0726
 8687SOL    HW137523   0.597   2.973   8.863 -0.5978  0.4616  0.0036
 8687SOL    HW237524   0.495   3.040   8.945  0.0982 -0.5951 -0.6070
 8688SOL     OW37525   1.623   0.485   0.559 -0.1195 -0.5604 -0.3342
 8688SOL    HW137526   1.632   0.560   0.501 -0.8500  0.0548  0.3541
 8688SOL    HW237527   1.567   0.523   0.626  0.4311 -0.9474  0.3494
 8689SOL     OW37528   2.575   2.596  12.747  0.3152 -0.3678  0.1597
 8689SOL    HW137529   2.601   2.530  12.683  0.0009 -0.0245 -0.3195
 8689SOL    HW237530   2.597   2.550  12.828  2.0015  0.1628  0.0146
 8690SOL     OW37531   1.866   0.969   5.140 -0.1416  0.5317 -0.0281
 8690SOL    HW137532   1.853   1.063   5.134 -0.9265  0.4432  0.3167
 8690SOL    HW237533   1.922   0.965   5.218 -0.1150 -2.7991 -0.2080
 8691SOL     OW37534   1.949   0.422  11.875 -0.4741 -0.3151 -0.0975
 8691SOL    HW137535   1.979   0.367  11.803 -1.3820  0.8151 -1.3396
 8691SOL    HW237536   1.861   0.441  11.843 -0.9392 -0.5832  1.0345
 8692SOL     OW37537   1.341   3.039   8.336  0.2451 -0.4493  0.0242
 8692SOL    HW137538   1.363   3.132   8.338  0.7903 -0.5529 -0.8477
 8692SOL    HW237539   1.425   2.994   8.347  1.6391  2.1783  0.1808
 8693SOL     OW37540   0.454   1.260   6.848 -0.0920  0.5373  0.1737
 8693SOL    HW137541   0.374   1.312   6.853  0.5839  1.7326 -1.4513
 8693SOL    HW237542   0.406   1.177   6.848 -0.5943  0.8262  0.4651
 8694SOL     OW37543   0.299   4.366   4.366 -0.4167 -0.3798 -0.4200
 8694SOL    HW137544   0.217   4.412   4.352  1.2379  1.8128 -2.7849
 8694SOL    HW237545   0.335   4.417   4.439 -1.8393 -2.3047  1.6397
 8695SOL     OW37546   2.917   4.272  12.617 -0.5097  0.3289 -0.0717
 8695SOL    HW137547   2.971   4.257  12.539 -1.0123 -0.6315 -0.2188
 8695SOL    HW237548   2.871   4.352  12.590 -1.1392  0.0679  0.2462
 8696SOL     OW37549   3.905   2.274   7.840 -0.2014 -0.1794 -0.1817
 8696SOL    HW137550   3.915   2.337   7.911 -3.8958 -1.0633  1.1099
 8696SOL    HW237551   3.914   2.191   7.889  1.1306  0.0370 -0.0549
 8697SOL     OW37552   3.641   0.392   3.009 -0.0708  0.8653 -0.4302
 8697SOL    HW137553   3.712   0.398   3.073 -0.2745  2.0695 -0.3156
 8697SOL    HW237554   3.638   0.300   2.980  1.3673  0.7869 -0.3195
 8698SOL     OW37555   4.345   2.840   1.500 -0.4313 -0.1405 -0.4016
 8698SOL    HW137556   4.290   2.764   1.483  1.6111 -1.6045 -0.5536
 8698SOL    HW237557   4.413   2.822   1.434 -1.8354 -1.3830 -1.5044
 8699SOL     OW37558   2.925   4.596   5.365  0.1959 -0.1452 -0.4469
 8699SOL    HW137559   2.908   4.687   5.391 -1.2358  0.4058 -3.2527
 8699SOL    HW237560   2.838   4.564   5.339  0.0049  1.1534 -1.4489
 8700SOL     OW37561   0.766   3.308   2.192  0.3416 -0.1422 -0.1147
 8700SOL    HW137562   0.788   3.218   2.214  2.6968  0.6332  0.7356
 8700SOL    HW237563   0.706   3.286   2.121  1.8504 -0.6327 -1.2377
 8701SOL     OW37564   1.422   0.807   2.289 -0.1780  0.4526 -0.7224
 8701SOL    HW137565   1.374   0.748   2.231 -0.7836 -1.2706  1.4973
 8701SOL    HW237566   1.424   0.754   2.369  0.1549  1.5090 -0.0333
 8702SOL     OW37567   0.578   4.098   2.379  0.4770  0.5755 -0.6107
 8702SOL    HW137568   0.581   4.180   2.428 -0.8985  1.3559 -1.8380
 8702SOL    HW237569   0.485   4.079   2.365  0.4110  0.0697  0.4588
 8703SOL     OW37570   1.115   3.601   5.371 -0.2654  0.2227  0.2575
 8703SOL    HW137571   1.021   3.610   5.386  0.2314 -0.4298  3.7526
 8703SOL    HW237572   1.164   3.601   5.454  1.0572 -0.5783 -0.5211
 8704SOL     OW37573   1.411   2.545  16.763 -0.7162  0.0753  0.0934
 8704SOL    HW137574   1.390   2.548  16.857  1.1872 -2.1355  0.5733
 8704SOL    HW237575   1.506   2.544  16.774 -0.6203  0.4173 -0.7099
 8705SOL     OW37576   3.395   4.358   1.099 -0.1703  0.3947  0.0113
 8705SOL    HW137577   3.310   4.361   1.056 -0.1521  0.3443 -0.0285
 8705SOL    HW237578   3.449   4.361   1.020 -1.3477  2.0639 -0.7232
 8706SOL     OW37579   1.849   4.483  10.969 -0.4286  0.1738 -0.3921
 8706SOL    HW137580   1.871   4.409  10.912  0.3890 -0.3660  0.6301
 8706SOL    HW237581   1.762   4.451  10.993 -0.7149 -0.0448 -1.7337
 8707SOL     OW37582   1.572   0.903   4.874 -0.0345 -0.3179 -0.0631
 8707SOL    HW137583   1.616   0.845   4.812  1.5865  0.3306  0.4948
 8707SOL    HW237584   1.480   0.897   4.849  0.4858  1.8726 -2.5307
 8708SOL     OW37585   3.737   4.638  17.437 -0.4747  0.2893  0.2230
 8708SOL    HW137586   3.722   4.666  17.527  1.1899 -1.9671  1.1947
 8708SOL    HW237587   3.832   4.637  17.445 -0.5002  0.0808  0.4791
 8709SOL     OW37588   2.419   3.635   4.167 -0.2399  0.3779  0.6412
 8709SOL    HW137589   2.414   3.696   4.094 -1.0650  1.0003  1.2174
 8709SOL    HW237590   2.391   3.696   4.235 -2.0889  2.5339 -2.1170
 8710SOL     OW37591   3.848   4.217   4.989  0.3676  0.0283  0.0445
 8710SOL    HW137592   3.933   4.252   4.964  1.0887 -2.2158 -0.5959
 8710SOL    HW237593   3.796   4.231   4.910  0.6175  1.5033  0.1302
 8711SOL     OW37594   3.454   3.411   3.301  0.0028  0.1720 -0.2630
 8711SOL    HW137595   3.477   3.456   3.220 -0.7897  0.7835 -0.1511
 8711SOL    HW237596   3.489   3.327   3.271 -1.0104 -0.8186  1.3235
 8712SOL     OW37597   4.398   4.203   9.626  0.2408  0.3978 -0.9710
 8712SOL    HW137598   4.382   4.111   9.648  1.1192  0.5696  0.3763
 8712SOL    HW237599   4.423   4.189   9.534 -0.2674 -0.8100 -0.9219
 8713SOL     OW37600   0.996   4.005   8.506 -0.0837  0.1296  0.6112
 8713SOL    HW137601   1.015   4.022   8.414  0.3353 -0.5167  0.5747
 8713SOL    HW237602   0.909   4.045   8.517  0.3216  1.0782  0.3197
 8714SOL     OW37603   3.486   1.811   5.676 -0.0655  0.3094  0.0543
 8714SOL    HW137604   3.412   1.766   5.717 -0.6177  1.2974  0.1378
 8714SOL    HW237605   3.451   1.848   5.596 -2.1815 -2.4939 -0.3068
 8715SOL     OW37606   3.956   0.812   8.804 -0.6125 -0.7069 -0.0467
 8715SOL    HW137607   3.996   0.727   8.821  0.4127  0.0947  1.5813
 8715SOL    HW237608   3.867   0.776   8.803 -1.6201  1.8028 -0.7843
 8716SOL     OW37609   1.900   3.439   7.185 -0.7253  0.6089  0.4782
 8716SOL    HW137610   1.979   3.405   7.226 -0.6322 -0.4906 -0.6035
 8716SOL    HW237611   1.888   3.383   7.107 -0.0168  0.1699  0.6857
 8717SOL     OW37612   2.014   2.433   5.271  0.3380 -0.2551  0.2460
 8717SOL    HW137613   2.025   2.493   5.345 -0.2719  0.2186 -0.0397
 8717SOL    HW237614   1.922   2.442   5.247  0.3743 -1.5284 -0.3304
 8718SOL     OW37615   3.095   2.631   8.048  0.3632 -0.1953  0.0548
 8718SOL    HW137616   3.183   2.639   8.085  1.2003 -1.4533 -1.6815
 8718SOL    HW237617   3.097   2.545   8.006 -3.4417 -0.2499  0.0112
 8719SOL     OW37618   2.065   2.317   5.910  0.2761 -0.5454  0.0392
 8719SOL    HW137619   1.993   2.325   5.972  0.9381 -1.0722  0.8867
 8719SOL    HW237620   2.138   2.301   5.970 -1.0191  0.5223  1.8997
 8720SOL     OW37621   2.491   2.294   4.048  0.1663  0.0246 -0.2730
 8720SOL    HW137622   2.400   2.300   4.078 -0.3589 -1.8826 -1.5232
 8720SOL    HW237623   2.487   2.258   3.960 -1.8587 -1.1372  0.3002
 8721SOL     OW37624   3.026   2.806  15.122  0.5892 -0.0308  0.7795
 8721SOL    HW137625   3.061   2.851  15.199  0.7373  0.4218  0.4447
 8721SOL    HW237626   3.036   2.865  15.048 -0.4693  0.2450  0.8570
 8722SOL     OW37627   2.044   4.568   6.360  0.3277  0.5731 -0.2761
 8722SOL    HW137628   2.115   4.554   6.298 -1.1930 -0.2249 -1.8474
 8722SOL    HW237629   2.039   4.477   6.389  0.8718  1.0557  1.3357
 8723SOL     OW37630   0.289   0.156  10.379 -0.8026  0.7365 -0.3665
 8723SOL    HW137631   0.245   0.186  10.459 -0.5005 -0.7685  0.3572
 8723SOL    HW237632   0.239   0.190  10.304 -2.8619 -0.3332  0.5388
 8724SOL     OW37633   3.181   3.592  13.048  0.4655  0.6922  0.3008
 8724SOL    HW137634   3.268   3.614  13.083  0.8763  0.6294 -0.6766
 8724SOL    HW237635   3.184   3.619  12.956 -0.6966 -1.9173 -0.5173
 8725SOL     OW37636   0.447   1.908   3.159 -0.7238 -0.1550 -0.6119
 8725SOL    HW137637   0.361   1.886   3.123 -1.2365  0.4647  0.2397
 8725SOL    HW237638   0.439   1.864   3.244  0.6089 -1.0929 -0.9886
 8726SOL     OW37639   3.547   1.509   2.589 -0.4101  0.3697  0.2970
 8726SOL    HW137640   3.480   1.476   2.529  1.1689 -0.5497 -0.9573
 8726SOL    HW237641   3.530   1.455   2.666  0.2503  1.1674  1.0037
 8727SOL     OW37642   3.334   1.693   6.546 -0.4909 -0.0066 -0.0578
 8727SOL    HW137643   3.283   1.744   6.483 -1.1365 -1.0202 -0.3627
 8727SOL    HW237644   3.344   1.619   6.486 -0.5626  0.4288 -0.6057
 8728SOL     OW37645   1.772   1.897   5.043 -1.0463 -0.0819  0.5587
 8728SOL    HW137646   1.815   1.815   5.022 -0.6199  0.5985 -1.2493
 8728SOL    HW237647   1.687   1.881   5.002  0.0368  0.6797 -2.0239
 8729SOL     OW37648   4.613   4.459  10.484 -0.1870  0.4875  0.2999
 8729SOL    HW137649   4.542   4.499  10.433 -0.8988 -2.2714 -0.9011
 8729SOL    HW237650   4.691   4.493  10.439 -0.3998 -0.5344 -0.8556
 8730SOL     OW37651   3.888   2.388   8.458  0.3059  0.4980 -0.1145
 8730SOL    HW137652   3.841   2.384   8.541  0.9993  1.9583  0.3506
 8730SOL    HW237653   3.824   2.450   8.422 -0.6000 -0.9458 -1.0275
 8731SOL     OW37654   4.031   0.297   6.144 -0.1092 -0.3242 -0.5060
 8731SOL    HW137655   3.948   0.253   6.128  0.4362 -2.2655  2.0233
 8731SOL    HW237656   4.005   0.381   6.183  1.2395  0.0047 -0.3098
 8732SOL     OW37657   2.502   1.082   2.601 -0.7377 -0.1497 -0.0374
 8732SOL    HW137658   2.561   1.027   2.653  0.4157  0.4941 -0.6466
 8732SOL    HW237659   2.449   1.026   2.544  0.3165  0.2719 -1.4399
 8733SOL     OW37660   1.208   2.154  10.912  0.2399  0.4397  0.0213
 8733SOL    HW137661   1.289   2.129  10.867 -1.0508  0.4035 -2.2460
 8733SOL    HW237662   1.142   2.090  10.886  0.3837 -0.5364  2.0177
 8734SOL     OW37663   4.274   2.363   6.527  0.2495  0.1491  0.0624
 8734SOL    HW137664   4.351   2.307   6.518  2.9206  3.7027  0.8969
 8734SOL    HW237665   4.199   2.305   6.513 -0.3144  0.9533 -0.2332
 8735SOL     OW37666   4.678   2.961   1.245  0.0151 -0.4864 -0.0829
 8735SOL    HW137667   4.687   2.866   1.256  0.7501 -0.5407 -1.1627
 8735SOL    HW237668   4.664   2.999   1.332  0.7507  0.4334 -0.3718
 8736SOL     OW37669   1.039   2.605   9.042  0.4181 -0.5189  0.3007
 8736SOL    HW137670   0.973   2.673   9.026  0.2178 -0.7697  0.0674
 8736SOL    HW237671   1.119   2.649   9.014  1.2451 -2.0814  0.2147
 8737SOL     OW37672   1.793   4.597   8.205 -0.0572 -0.2494  0.1269
 8737SOL    HW137673   1.707   4.627   8.231 -0.5237 -1.0905 -0.4471
 8737SOL    HW237674   1.848   4.654   8.259 -1.5565 -0.1363  1.5293
 8738SOL     OW37675   1.731   3.078   4.268 -0.2398 -0.2570  0.0183
 8738SOL    HW137676   1.724   2.992   4.227  1.3670 -0.3341 -0.0896
 8738SOL    HW237677   1.779   3.118   4.195 -0.3550  0.6296  0.4254
 8739SOL     OW37678   2.323   0.272   3.311  0.0608 -0.3798  0.1068
 8739SOL    HW137679   2.245   0.325   3.299  0.5880  0.2089 -0.6939
 8739SOL    HW237680   2.338   0.237   3.223 -1.7577 -0.4288 -0.1711
 8740SOL     OW37681   1.710   3.903   1.396  0.0856 -0.5100 -0.0659
 8740SOL    HW137682   1.792   3.854   1.397  1.2909  1.5467  1.2336
 8740SOL    HW237683   1.654   3.850   1.339 -0.2763  0.3857 -0.5403
 8741SOL     OW37684   3.183   4.376   7.287  0.1379  0.2013 -0.3100
 8741SOL    HW137685   3.233   4.436   7.232  0.4970  0.1160 -0.0756
 8741SOL    HW237686   3.210   4.290   7.254  0.5935 -0.1674  1.0166
 8742SOL     OW37687   3.421   2.752   6.245  0.2016  0.1807 -0.1884
 8742SOL    HW137688   3.515   2.768   6.250  0.7239 -2.4972 -1.4154
 8742SOL    HW237689   3.380   2.765   6.330  2.0724  0.3603  0.6769
 8743SOL     OW37690   2.043   0.522   1.777 -0.0956 -0.4883 -0.1093
 8743SOL    HW137691   1.990   0.443   1.780 -1.0723  0.2132  1.0982
 8743SOL    HW237692   2.016   0.546   1.688  0.0178 -0.4720 -0.1397
 8744SOL     OW37693   0.734   1.352   0.867  0.2970 -0.1629  0.0827
 8744SOL    HW137694   0.781   1.342   0.950 -1.4866  1.5909  1.3017
 8744SOL    HW237695   0.805   1.328   0.807 -1.5598 -1.9684 -1.3734
 8745SOL     OW37696   0.862   3.501   8.438 -0.2380  0.8671  0.4063
 8745SOL    HW137697   0.919   3.517   8.363 -2.1400  1.1482 -0.9651
 8745SOL    HW237698   0.860   3.590   8.472 -3.3036 -0.0002  2.5098
 8746SOL     OW37699   2.862   0.231   6.876  0.0103  0.0509  0.5019
 8746SOL    HW137700   2.896   0.278   6.952 -0.3288  2.0007 -0.5495
 8746SOL    HW237701   2.782   0.190   6.908 -0.4463  1.3581  1.0684
 8747SOL     OW37702   0.666   1.788  11.604 -0.6889  0.3524  0.3767
 8747SOL    HW137703   0.661   1.709  11.657  3.0211  1.1874  1.9476
 8747SOL    HW237704   0.647   1.760  11.514 -0.1012  2.3290 -0.3804
 8748SOL     OW37705   2.219   4.343   5.016  0.3065  0.4510  0.4470
 8748SOL    HW137706   2.284   4.292   4.968 -0.6706 -1.0037  0.6969
 8748SOL    HW237707   2.153   4.355   4.948  0.3744  0.5439  0.3971
 8749SOL     OW37708   3.972   3.281  10.328 -0.3765  0.4348 -0.2836
 8749SOL    HW137709   4.004   3.299  10.240 -0.4726  0.6823 -0.2664
 8749SOL    HW237710   4.050   3.246  10.371 -0.9978  1.2731  1.5508
 8750SOL     OW37711   1.239   4.585   8.713  0.2742  0.4243  0.1507
 8750SOL    HW137712   1.176   4.592   8.784  0.1885 -0.9335  0.1925
 8750SOL    HW237713   1.310   4.643   8.742  0.5493 -0.2074  0.7229
 8751SOL     OW37714   1.504   3.726   1.570  0.1296  0.4554  0.2318
 8751SOL    HW137715   1.565   3.659   1.536  3.0874  2.9807  0.5747
 8751SOL    HW237716   1.447   3.667   1.619 -1.0032 -1.2549 -3.1355
 8752SOL     OW37717   4.255   1.605   8.221  0.0408  0.2359  0.3277
 8752SOL    HW137718   4.181   1.563   8.266 -0.6766  0.3420 -0.7623
 8752SOL    HW237719   4.327   1.552   8.255 -0.2835  0.5023  1.4550
 8753SOL     OW37720   2.270   2.230   7.072  0.0223 -0.3881 -0.0574
 8753SOL    HW137721   2.260   2.276   6.989 -0.8495  2.5788  1.7147
 8753SOL    HW237722   2.211   2.278   7.130  1.0135 -0.0027  0.6429
 8754SOL     OW37723   1.723   1.760   2.186  0.7251 -0.5872  0.0325
 8754SOL    HW137724   1.652   1.700   2.162  0.0076  0.5551 -0.6662
 8754SOL    HW237725   1.739   1.798   2.100 -0.1660 -0.2556  0.0161
 8755SOL     OW37726   3.224   1.596   7.182 -0.4423  0.0091  0.7774
 8755SOL    HW137727   3.246   1.522   7.239 -1.0764 -0.9683 -0.2459
 8755SOL    HW237728   3.295   1.655   7.208  2.2529 -2.8230 -0.2694
 8756SOL     OW37729   4.505   3.784   6.206 -0.7740 -0.3813 -0.2325
 8756SOL    HW137730   4.583   3.833   6.178 -0.4127 -0.0519  1.3759
 8756SOL    HW237731   4.435   3.796   6.141 -0.5719  0.8171 -0.2183
 8757SOL     OW37732   2.297   3.423   9.454 -0.0618  0.5374 -0.0439
 8757SOL    HW137733   2.304   3.416   9.359 -0.8084  1.3436 -0.1643
 8757SOL    HW237734   2.306   3.518   9.460  2.8573  0.0957  2.4576
 8758SOL     OW37735   0.349   4.345  13.382 -0.4206 -0.4591  0.1496
 8758SOL    HW137736   0.284   4.283  13.415  0.0907 -1.6432 -1.0500
 8758SOL    HW237737   0.418   4.294  13.339 -1.7822 -2.5019  0.4130
 8759SOL     OW37738   0.969   0.304   3.460 -0.0309 -0.2543 -1.0326
 8759SOL    HW137739   1.007   0.220   3.485 -0.1648  0.6061  2.1313
 8759SOL    HW237740   1.041   0.361   3.486 -0.2074 -1.0535  1.1678
 8760SOL     OW37741   3.259   0.266   1.170  0.2131  0.3828  0.2231
 8760SOL    HW137742   3.178   0.214   1.172 -0.5627  1.5262 -1.0543
 8760SOL    HW237743   3.217   0.352   1.175 -0.5197 -0.0713  1.7614
 8761SOL     OW37744   3.473   0.354   3.817 -0.7775 -0.0082 -0.2013
 8761SOL    HW137745   3.497   0.271   3.776 -0.6628 -0.3664  0.5923
 8761SOL    HW237746   3.453   0.341   3.910 -0.9755  1.9532  0.0373
 8762SOL     OW37747   0.557   2.133   1.342 -0.5175 -0.5842  0.5960
 8762SOL    HW137748   0.477   2.180   1.318  0.0913 -1.0147 -2.2359
 8762SOL    HW237749   0.606   2.133   1.260 -3.0180 -3.1524 -0.8538
 8763SOL     OW37750   2.647   3.940   5.588  0.0501  0.2080 -0.3586
 8763SOL    HW137751   2.650   3.998   5.512  3.3139  1.8872  1.0734
 8763SOL    HW237752   2.715   3.969   5.648  1.2437 -3.3238 -0.0132
 8764SOL     OW37753   1.078   1.869   4.365  0.0065  0.0098  0.5079
 8764SOL    HW137754   1.167   1.899   4.347 -0.5320  0.7209 -0.9810
 8764SOL    HW237755   1.079   1.788   4.313  0.3347  0.1352  0.3195
 8765SOL     OW37756   4.615   1.096   1.187  0.0735  0.2447 -0.0125
 8765SOL    HW137757   4.646   1.018   1.141 -0.9959  1.1780 -2.3220
 8765SOL    HW237758   4.699   1.142   1.184  0.2932 -0.0618  1.4349
 8766SOL     OW37759   4.014   4.332   7.147 -0.1129  0.4069 -0.0376
 8766SOL    HW137760   4.045   4.414   7.185  0.5625 -0.2891  0.9101
 8766SOL    HW237761   3.998   4.367   7.060  1.4907  1.4204  0.0734
 8767SOL     OW37762   2.936   1.591   7.811 -0.3462  0.0804  0.0763
 8767SOL    HW137763   2.878   1.663   7.836 -1.0408 -1.4124  2.7579
 8767SOL    HW237764   2.881   1.523   7.772 -1.0897  0.8418 -0.1896
 8768SOL     OW37765   1.805   3.986   1.650 -0.2085  0.2250 -0.4244
 8768SOL    HW137766   1.887   3.938   1.658  0.7375  2.2686  1.8980
 8768SOL    HW237767   1.762   3.941   1.577  1.4063 -2.5371  0.3365
 8769SOL     OW37768   0.045   3.047  12.842 -0.1694  0.4104 -0.1577
 8769SOL    HW137769   4.690   3.002  12.872  0.9589 -0.7385  1.1106
 8769SOL    HW237770   0.074   2.988  12.773 -0.1218  2.4191 -1.8305
 8770SOL     OW37771   1.345   3.489   1.593  0.4119 -0.5225 -0.0228
 8770SOL    HW137772   1.385   3.436   1.662 -0.2422 -0.5746  0.3120
 8770SOL    HW237773   1.262   3.498   1.638  0.7601  1.4225  0.2246
 8771SOL     OW37774   0.700   1.793  12.246 -0.2661  0.1111 -0.3968
 8771SOL    HW137775   0.663   1.772  12.331 -1.8032 -0.4642 -1.2098
 8771SOL    HW237776   0.622   1.830  12.206  0.7243  1.4723 -1.0569
 8772SOL     OW37777   2.938   3.501  14.107  0.1451  0.0675  0.2199
 8772SOL    HW137778   2.950   3.592  14.077  2.4591 -0.5053 -0.5635
 8772SOL    HW237779   3.011   3.484  14.166 -0.0498  3.0738  1.3472
 8773SOL     OW37780   2.045   1.683   3.863 -0.1098  0.0201 -0.2091
 8773SOL    HW137781   2.107   1.671   3.791 -0.0978 -2.8668  0.2960
 8773SOL    HW237782   1.961   1.649   3.833 -0.5897  0.3954  0.6899
 8774SOL     OW37783   0.048   4.281   4.037  0.3811  0.4087 -0.2187
 8774SOL    HW137784   0.088   4.362   4.005  0.5718  0.6887  0.7280
 8774SOL    HW237785   4.708   4.320   4.097 -0.9544 -0.9250 -0.7698
 8775SOL     OW37786   2.156   1.529  17.156  0.1912 -0.1091  0.0465
 8775SOL    HW137787   2.171   1.621  17.179 -2.9313  0.7869 -1.4112
 8775SOL    HW237788   2.242   1.496  17.180  0.0141 -0.5116  0.1249
 8776SOL     OW37789   1.526   2.321  11.799  0.0753  0.0233 -0.0796
 8776SOL    HW137790   1.566   2.382  11.736  2.6773 -0.4322  1.1443
 8776SOL    HW237791   1.592   2.328  11.868 -0.2887 -3.3882  0.5989
 8777SOL     OW37792   4.532   0.516   8.313  0.2446  0.2916 -0.5621
 8777SOL    HW137793   4.504   0.426   8.331  2.3924 -0.1075  0.7102
 8777SOL    HW237794   4.463   0.549   8.255 -1.2057  0.3148  1.1636
 8778SOL     OW37795   2.664   1.466   5.373 -0.4776 -0.1020 -0.3931
 8778SOL    HW137796   2.669   1.557   5.345 -0.7816 -0.4241 -1.4678
 8778SOL    HW237797   2.615   1.469   5.456  1.0535 -0.6416  0.5253
 8779SOL     OW37798   2.623   1.643   7.486  0.6803  0.1334 -0.4807
 8779SOL    HW137799   2.716   1.628   7.506  0.0543 -0.7293  1.7156
 8779SOL    HW237800   2.611   1.567   7.428  0.0326  0.5598 -0.8989
 8780SOL     OW37801   0.464   2.307   5.795 -0.4763 -0.3473  0.2493
 8780SOL    HW137802   0.493   2.398   5.787  0.2251 -0.6109 -0.2506
 8780SOL    HW237803   0.547   2.267   5.769 -0.5240 -1.5343  1.9277
 8781SOL     OW37804   3.942   1.127   8.839 -0.6243  0.0766  0.0579
 8781SOL    HW137805   3.932   1.105   8.931  0.4954 -1.0449 -0.0824
 8781SOL    HW237806   3.863   1.180   8.831 -0.9359 -0.2788  0.7953
 8782SOL     OW37807   2.954   1.645   2.086  0.2733  0.2019  0.1902
 8782SOL    HW137808   2.974   1.644   2.179 -0.4975 -2.6958  0.3494
 8782SOL    HW237809   3.045   1.659   2.059  0.2315  0.3436  0.1272
 8783SOL     OW37810   0.604   2.701   1.575 -0.1511  0.3576  0.2375
 8783SOL    HW137811   0.669   2.744   1.520 -1.0482  0.9846 -0.3234
 8783SOL    HW237812   0.559   2.775   1.616 -1.1323  0.1247 -0.4094
 8784SOL     OW37813   1.280   2.165   6.817  0.1135 -0.0995  0.1455
 8784SOL    HW137814   1.283   2.191   6.909  1.2411  2.9779 -0.7630
 8784SOL    HW237815   1.320   2.245   6.784 -0.1494  0.6898  1.7187
 8785SOL     OW37816   0.928   2.945   8.059 -0.4211  0.0917  0.6603
 8785SOL    HW137817   0.921   3.029   8.014 -1.5246 -0.1622  0.3490
 8785SOL    HW237818   1.011   2.949   8.105 -0.1210 -0.8348  0.1947
 8786SOL     OW37819   3.675   0.791   6.296 -0.2158  0.0727  0.0566
 8786SOL    HW137820   3.585   0.822   6.301  0.4712  1.6904  2.5183
 8786SOL    HW237821   3.670   0.704   6.256 -1.0403  0.5411 -0.8493
 8787SOL     OW37822   2.488   4.210   6.301  0.3048 -0.1552 -0.3214
 8787SOL    HW137823   2.433   4.289   6.303 -0.3111 -0.5912  0.1232
 8787SOL    HW237824   2.424   4.142   6.279  0.3918  0.3459 -2.0749
 8788SOL     OW37825   0.720   4.561   1.173  0.3753 -0.2229  0.0218
 8788SOL    HW137826   0.693   4.533   1.261  4.9447 -0.8611  1.2387
 8788SOL    HW237827   0.641   4.601   1.139 -0.0781 -1.3592 -0.2574
 8789SOL     OW37828   0.132   0.997   7.663  0.2201 -0.2457 -0.5978
 8789SOL    HW137829   0.086   0.945   7.730 -0.4791 -1.6851 -2.1801
 8789SOL    HW237830   0.223   1.001   7.692  0.5830 -0.9692 -1.6555
 8790SOL     OW37831   3.693   1.325   5.253 -0.0614  1.0748 -0.3555
 8790SOL    HW137832   3.669   1.307   5.162 -1.8073 -2.4575  0.8133
 8790SOL    HW237833   3.778   1.368   5.243  0.3808  0.4743  0.8395
 8791SOL     OW37834   2.852   0.131  15.332 -0.8173  0.3010 -0.2234
 8791SOL    HW137835   2.892   0.199  15.385 -2.2002  2.1510 -1.5537
 8791SOL    HW237836   2.923   0.067  15.322 -0.1586  0.7053  1.9146
 8792SOL     OW37837   2.354   0.994  12.514  1.0764  0.0168 -0.2964
 8792SOL    HW137838   2.327   1.081  12.483 -1.1926 -0.3730  0.5788
 8792SOL    HW237839   2.321   0.939  12.443 -0.5117  1.0330 -0.3476
 8793SOL     OW37840   3.291   4.687   4.845  0.2575 -0.0767  0.1862
 8793SOL    HW137841   3.307   0.027   4.915 -3.3870 -1.4831  2.3317
 8793SOL    HW237842   3.341   4.608   4.866  1.9540  1.0482  0.3945
 8794SOL     OW37843   0.069   3.659   6.534  0.4826  0.5254 -0.6642
 8794SOL    HW137844   4.711   3.623   6.499  0.7141 -0.4706 -0.1577
 8794SOL    HW237845   0.140   3.600   6.509 -0.2101 -0.5660 -0.0360
 8795SOL     OW37846   3.529   0.199  10.446  0.0752 -0.0148 -0.4896
 8795SOL    HW137847   3.612   0.238  10.421  0.2766  0.8049  1.4702
 8795SOL    HW237848   3.536   0.183  10.540  1.0262 -0.1753 -0.5897
 8796SOL     OW37849   2.074   3.012   9.195  0.2712 -0.5235 -0.3869
 8796SOL    HW137850   2.036   3.013   9.283 -0.9643 -1.1639 -0.9108
 8796SOL    HW237851   2.005   3.058   9.148 -0.1909 -1.1633 -0.3270
 8797SOL     OW37852   1.784   2.197   3.005  0.6318  0.0261 -0.1058
 8797SOL    HW137853   1.819   2.220   3.091 -1.3455 -1.5259  1.1094
 8797SOL    HW237854   1.716   2.263   2.999  0.2503 -0.2951  0.7810
 8798SOL     OW37855   4.491   3.083   6.086 -0.4713  0.1165  0.5555
 8798SOL    HW137856   4.550   3.091   6.011  0.1302 -0.1401  0.9998
 8798SOL    HW237857   4.499   2.991   6.110  0.0337 -0.5221 -2.0583
 8799SOL     OW37858   4.276   1.205  14.820  0.5256 -0.0910  0.0010
 8799SOL    HW137859   4.334   1.261  14.872 -0.1560 -1.3362  2.1110
 8799SOL    HW237860   4.342   1.160  14.769 -0.4849  0.3547 -1.7027
 8800SOL     OW37861   0.543   2.163   3.165 -0.3943 -0.2450 -0.2301
 8800SOL    HW137862   0.543   2.067   3.172 -0.8904  0.0345  3.2620
 8800SOL    HW237863   0.542   2.190   3.257 -1.7241  1.4426 -0.7492
 8801SOL     OW37864   1.851   3.964  11.016 -0.1309  0.0139 -0.2926
 8801SOL    HW137865   1.765   3.922  11.006  1.0498 -2.4034 -0.4912
 8801SOL    HW237866   1.816   4.053  11.021  0.3271  0.0971  1.4202
 8802SOL     OW37867   1.581   1.648   4.799 -0.2359 -0.4247 -0.3860
 8802SOL    HW137868   1.575   1.740   4.776 -0.1567 -0.1364  0.7552
 8802SOL    HW237869   1.510   1.643   4.863  1.3445  0.1073  1.4316
 8803SOL     OW37870   2.784   4.455   4.964 -0.4704 -0.2898 -0.0933
 8803SOL    HW137871   2.864   4.506   4.951 -1.7214  1.6622 -0.1300
 8803SOL    HW237872   2.750   4.438   4.876 -1.5046  0.8129  0.1000
 8804SOL     OW37873   1.967   0.744   6.191  0.5942 -0.2873  0.2611
 8804SOL    HW137874   1.984   0.727   6.284 -1.8614  2.4499  1.2328
 8804SOL    HW237875   1.886   0.694   6.180  0.5927 -0.1750 -0.2446
 8805SOL     OW37876   3.262   2.864   7.498 -1.0203 -0.1190  0.6521
 8805SOL    HW137877   3.255   2.811   7.577 -1.5380  0.9888  1.3502
 8805SOL    HW237878   3.337   2.818   7.461 -1.1204 -0.9298  1.4684
 8806SOL     OW37879   1.005   2.604   8.576 -0.1477 -0.2309  0.2158
 8806SOL    HW137880   1.057   2.592   8.497 -2.7078 -1.2564 -1.3340
 8806SOL    HW237881   1.066   2.648   8.634 -0.4084  0.3275  0.0702
 8807SOL     OW37882   2.920   1.670   9.676  0.1710 -0.5498 -0.2562
 8807SOL    HW137883   2.970   1.612   9.618  2.1848  0.0473  0.8808
 8807SOL    HW237884   2.986   1.719   9.724 -0.0795 -0.5418  0.0826
 8808SOL     OW37885   0.753   0.914   9.141 -0.1231  0.3388 -0.0913
 8808SOL    HW137886   0.769   0.873   9.226  2.1794  2.2931  0.4397
 8808SOL    HW237887   0.735   1.003   9.172 -0.3119  1.3220 -3.0680
 8809SOL     OW37888   2.330   0.234   8.412 -0.1993  0.3312  0.1300
 8809SOL    HW137889   2.275   0.309   8.431 -2.8967 -1.7447  0.5328
 8809SOL    HW237890   2.380   0.228   8.494 -0.2711  0.7080  0.1985
 8810SOL     OW37891   1.512   1.578   7.956  0.2774  0.2688  0.1414
 8810SOL    HW137892   1.425   1.588   7.917  0.3730  2.2250  0.4594
 8810SOL    HW237893   1.518   1.672   7.969  0.8369  0.0517  1.4359
 8811SOL     OW37894   3.109   2.712   8.471 -0.1283  0.4354  0.5472
 8811SOL    HW137895   3.107   2.808   8.470 -3.2729  0.2713 -4.1995
 8811SOL    HW237896   3.174   2.695   8.403 -0.8079  0.9893 -0.2261
 8812SOL     OW37897   1.040   0.528  15.944  0.0256  0.6437 -0.2329
 8812SOL    HW137898   0.970   0.466  15.967  0.0367  0.0881 -1.6827
 8812SOL    HW237899   1.009   0.545  15.855 -0.0909 -0.7572 -0.4609
 8813SOL     OW37900   4.718   0.168   4.445 -0.1960  0.0193  0.4586
 8813SOL    HW137901   0.048   0.133   4.374 -0.2672 -0.3779  0.5974
 8813SOL    HW237902   4.643   0.199   4.393 -0.7531  0.7670  1.7037
 8814SOL     OW37903   2.168   1.108  12.276 -0.6514  0.4067  0.2436
 8814SOL    HW137904   2.179   1.015  12.293  0.3662  0.6021  0.6464
 8814SOL    HW237905   2.113   1.130  12.352 -0.4083  0.3714  0.4307
 8815SOL     OW37906   3.586   2.807  11.502  0.0789 -0.7502  0.9274
 8815SOL    HW137907   3.523   2.870  11.536  0.2403 -0.3444  0.4735
 8815SOL    HW237908   3.600   2.848  11.417  0.7776 -0.3651  1.2326
 8816SOL     OW37909   4.398   4.513   2.768 -0.4167 -0.0041  0.3252
 8816SOL    HW137910   4.456   4.444   2.802 -0.0155  0.4249  0.5266
 8816SOL    HW237911   4.447   4.563   2.704 -0.0710 -0.2972  0.3559
 8817SOL     OW37912   3.172   2.481   4.478 -0.0348 -0.2986 -0.2493
 8817SOL    HW137913   3.086   2.441   4.490 -0.5762  1.0021  0.2028
 8817SOL    HW237914   3.162   2.546   4.408 -0.8459 -1.6978 -1.4386
 8818SOL     OW37915   4.585   1.602  13.493  0.2815 -0.0374 -0.3239
 8818SOL    HW137916   4.640   1.678  13.473 -1.0902  1.0160 -0.0714
 8818SOL    HW237917   4.608   1.598  13.586 -0.5014 -0.9923 -0.1728
 8819SOL     OW37918   1.072   1.135   5.717  0.6485  0.0716  0.3238
 8819SOL    HW137919   1.067   1.230   5.730 -0.8635  0.2833 -1.6984
 8819SOL    HW237920   0.982   1.124   5.686  0.3274  0.9282  0.9328
 8820SOL     OW37921   0.328   3.569   4.618  0.5400  0.2076 -0.0975
 8820SOL    HW137922   0.276   3.633   4.570  1.4510  0.8721 -0.2093
 8820SOL    HW237923   0.288   3.483   4.602 -0.0430  0.7168 -1.3831
 8821SOL     OW37924   4.496   2.959   8.517  0.3902  0.3880 -0.0921
 8821SOL    HW137925   4.457   3.045   8.500  0.7084  0.3336 -1.1338
 8821SOL    HW237926   4.589   2.980   8.506  1.0112 -0.6676  3.4137
 8822SOL     OW37927   2.451   4.438  11.734 -0.0540 -0.4648  0.2930
 8822SOL    HW137928   2.475   4.406  11.821  1.1040 -0.7394 -0.1198
 8822SOL    HW237929   2.530   4.413  11.686 -0.7716 -0.7662 -0.7415
 8823SOL     OW37930   1.354   3.245  15.106 -0.3761  0.0261  0.6420
 8823SOL    HW137931   1.260   3.261  15.115 -0.4619 -0.2943  0.3319
 8823SOL    HW237932   1.383   3.295  15.182  1.7137 -3.3691  2.0391
 8824SOL     OW37933   4.131   0.702   2.998 -0.4506 -0.4064 -0.2829
 8824SOL    HW137934   4.039   0.689   2.974  0.0421 -2.9325 -0.8480
 8824SOL    HW237935   4.148   0.632   3.061  1.5884 -0.5372 -0.9690
 8825SOL     OW37936   0.529   1.734   0.749  0.1071  0.1974  0.3952
 8825SOL    HW137937   0.534   1.675   0.824  0.6910  0.5898  0.6679
 8825SOL    HW237938   0.436   1.756   0.743  0.4911  1.5695 -0.5609
 8826SOL     OW37939   3.405   2.406  17.115 -0.1070  0.2722  0.3176
 8826SOL    HW137940   3.364   2.445  17.192  0.7154  0.8001  0.4827
 8826SOL    HW237941   3.397   2.475  17.049  3.6244 -0.1095 -0.5574
 8827SOL     OW37942   1.895   0.324  11.424  0.4500  0.4476  0.0077
 8827SOL    HW137943   1.896   0.390  11.355 -2.7275  1.3196  0.8170
 8827SOL    HW237944   1.813   0.275  11.422  1.5123 -1.3532  0.0350
 8828SOL     OW37945   0.955   1.747  12.339  0.5849  0.2911  0.2421
 8828SOL    HW137946   0.956   1.671  12.398  3.7680  0.2231  0.1056
 8828SOL    HW237947   0.866   1.750  12.306 -0.2940  1.9039  2.8163
 8829SOL     OW37948   0.765   3.463   4.174  0.4948 -0.5025 -0.2072
 8829SOL    HW137949   0.738   3.552   4.154 -2.4405 -1.7195 -1.6854
 8829SOL    HW237950   0.734   3.450   4.263 -0.4357  3.0796 -0.0485
 8830SOL     OW37951   4.665   3.741   3.366  0.3655  0.2084  0.1565
 8830SOL    HW137952   4.598   3.700   3.311  0.1227 -0.1198  0.6963
 8830SOL    HW237953   4.651   3.835   3.350 -2.5192 -0.4729 -1.2992
 8831SOL     OW37954   1.879   1.615  16.854 -0.1241 -0.9336 -0.2999
 8831SOL    HW137955   1.883   1.705  16.887  0.7185 -1.2501  0.4334
 8831SOL    HW237956   1.901   1.637  16.764  0.0312  0.6606  0.1362
 8832SOL     OW37957   3.076   0.425   7.466  0.4820 -0.0662  0.2713
 8832SOL    HW137958   3.095   0.459   7.554  0.2389  3.6326 -1.1236
 8832SOL    HW237959   3.014   0.361   7.502  0.4519  0.7028  1.5930
 8833SOL     OW37960   2.624   2.871  12.655 -0.3963  0.5662 -0.1079
 8833SOL    HW137961   2.683   2.915  12.716  1.7952 -0.4940 -1.4703
 8833SOL    HW237962   2.603   2.794  12.707 -1.4782  0.9223 -0.0030
 8834SOL     OW37963   4.057   0.106   4.433  0.8665 -0.3295  0.5146
 8834SOL    HW137964   3.968   0.095   4.467  0.7881  0.2981  0.5048
 8834SOL    HW237965   4.062   0.199   4.454  0.0992 -0.5969  1.9164
 8835SOL     OW37966   1.364   1.162   5.575  0.0766 -0.2505  0.2411
 8835SOL    HW137967   1.383   1.205   5.659  0.0770 -1.4117  0.8471
 8835SOL    HW237968   1.278   1.124   5.597  0.1484 -0.3351  0.3764
 8836SOL     OW37969   4.082   3.539   4.989  0.5310 -0.1256  0.0278
 8836SOL    HW137970   4.123   3.508   5.070 -1.1304  0.0514  0.9492
 8836SOL    HW237971   4.078   3.455   4.943  0.1758 -0.2286  0.2437
 8837SOL     OW37972   0.551   0.997   6.270  0.2276 -0.1324  0.3407
 8837SOL    HW137973   0.620   0.975   6.333 -0.5989 -1.5041  0.7794
 8837SOL    HW237974   0.486   1.045   6.322 -0.0447  0.4255 -0.5246
 8838SOL     OW37975   4.417   3.546   6.371 -0.0335  0.0046  0.1012
 8838SOL    HW137976   4.462   3.467   6.340  0.4904 -0.1127  1.1502
 8838SOL    HW237977   4.479   3.607   6.333  1.0072 -0.2636  1.3555
 8839SOL     OW37978   3.055   3.910   8.178 -0.9885 -0.0777  0.5412
 8839SOL    HW137979   3.014   3.990   8.146  2.0461  0.7303 -1.3332
 8839SOL    HW237980   3.055   3.854   8.100  3.1339  1.4476 -0.5950
 8840SOL     OW37981   1.455   2.582  15.490  0.5533 -0.1408 -0.5362
 8840SOL    HW137982   1.505   2.501  15.480  0.9337  0.3342 -2.3712
 8840SOL    HW237983   1.370   2.541  15.511  0.4409 -0.5166 -1.7214
 8841SOL     OW37984   2.031   2.557   6.960  0.3470  0.4817 -0.1683
 8841SOL    HW137985   2.022   2.606   7.041 -0.6184  1.7266 -1.0475
 8841SOL    HW237986   1.938   2.550   6.941  0.2463  0.7410  0.2320
 8842SOL     OW37987   0.135   0.958   4.057 -0.0801  0.3166  0.7142
 8842SOL    HW137988   0.223   0.928   4.037 -0.4691 -0.2909 -0.0796
 8842SOL    HW237989   0.141   1.046   4.019 -2.4551  0.0535 -0.2781
 8843SOL     OW37990   0.176   2.055   8.067 -0.4293  0.0442  0.2006
 8843SOL    HW137991   0.202   2.007   8.145  0.4267  0.6955  0.3108
 8843SOL    HW237992   0.188   2.145   8.098  0.3205  0.7515 -2.1536
 8844SOL     OW37993   4.525   1.664   0.285 -0.5168 -0.1255 -0.5265
 8844SOL    HW137994   4.550   1.729   0.351  2.1940  0.9025 -2.5639
 8844SOL    HW237995   4.479   1.719   0.223  0.0174  0.7862 -0.1259
 8845SOL     OW37996   0.773   3.716   8.745 -0.6883 -0.5130  0.5097
 8845SOL    HW137997   0.812   3.759   8.821  0.0461  0.8737 -0.6584
 8845SOL    HW237998   0.716   3.646   8.777 -0.1265 -1.9180 -1.5955
 8846SOL     OW37999   3.882   0.246   4.063 -0.4744 -0.3752 -0.1334
 8846SOL    HW138000   3.940   0.313   4.101  1.6444 -1.7629 -0.8846
 8846SOL    HW238001   3.940   0.172   4.085  0.0456  0.1064  0.1180
 8847SOL     OW38002   3.022   2.920  10.651 -0.1134  0.8104 -0.2452
 8847SOL    HW138003   3.115   2.942  10.643 -0.3004  1.4238 -0.7209
 8847SOL    HW238004   2.996   3.003  10.691 -2.4824  1.0608 -2.3512
 8848SOL     OW38005   3.200   2.371   8.630  0.4340 -0.2424 -0.3983
 8848SOL    HW138006   3.187   2.399   8.721  1.5471  1.4842 -0.7828
 8848SOL    HW238007   3.121   2.322   8.608 -0.3299  1.1461 -0.7290
 8849SOL     OW38008   1.362   2.497   8.570  0.6137 -0.4867  0.2020
 8849SOL    HW138009   1.294   2.548   8.613  0.7220 -0.6206  0.5376
 8849SOL    HW238010   1.313   2.418   8.546  1.1263 -0.0317 -2.2602
 8850SOL     OW38011   3.745   0.225   7.701 -0.0610  0.1373  0.5512
 8850SOL    HW138012   3.801   0.261   7.769  0.5456 -2.5622  1.4809
 8850SOL    HW238013   3.746   0.131   7.718  1.7279  0.0944  0.2138
 8851SOL     OW38014   0.252   0.413   5.233 -0.2494 -0.3974  0.3673
 8851SOL    HW138015   0.241   0.404   5.327 -0.9546  0.9444  0.4122
 8851SOL    HW238016   0.282   0.324   5.212  0.4561 -0.1530  0.3422
 8852SOL     OW38017   3.632   3.688   6.535  0.5193 -0.1718  0.3774
 8852SOL    HW138018   3.701   3.754   6.538  1.6229 -1.2688 -0.8245
 8852SOL    HW238019   3.573   3.720   6.603  0.9461 -0.8528  1.0566
 8853SOL     OW38020   2.249   3.867   4.338 -0.1490 -0.2842 -0.1359
 8853SOL    HW138021   2.224   3.870   4.246  3.3269 -1.1325 -1.1312
 8853SOL    HW238022   2.322   3.929   4.338  0.1369 -0.6115  0.3254
 8854SOL     OW38023   1.364   2.062   7.758  0.4384  0.4995 -0.4260
 8854SOL    HW138024   1.307   2.126   7.717 -1.9566  1.4282  4.3357
 8854SOL    HW238025   1.442   2.110   7.733 -0.7797  0.8485 -3.6052
 8855SOL     OW38026   2.876   4.016   1.471 -0.0150 -0.0318 -0.7828
 8855SOL    HW138027   2.845   3.931   1.441 -1.6101 -0.9022  3.2907
 8855SOL    HW238028   2.798   4.051   1.513 -1.2158  0.2162 -3.2556
 8856SOL     OW38029   4.033   2.896   8.996  0.5911 -0.5044 -0.7393
 8856SOL    HW138030   3.957   2.873   8.943 -0.9965 -0.0574  1.3438
 8856SOL    HW238031   4.039   2.991   9.005  1.0794 -0.5139 -0.9651
 8857SOL     OW38032   4.429   3.846   7.664 -0.4522  0.1369  0.1735
 8857SOL    HW138033   4.362   3.794   7.709  0.7329 -0.8172  0.8134
 8857SOL    HW238034   4.374   3.872   7.590 -0.9806  0.5957  0.7200
 8858SOL     OW38035   3.388   2.638  16.180  0.1497 -0.0284  0.2834
 8858SOL    HW138036   3.439   2.594  16.113  0.1129  0.0491  0.2048
 8858SOL    HW238037   3.457   2.641  16.246  0.8814  1.1554 -0.5475
 8859SOL     OW38038   0.368   4.155   1.403  0.5028  0.0677  0.0823
 8859SOL    HW138039   0.390   4.178   1.493  0.3822 -0.7622  0.3200
 8859SOL    HW238040   0.374   4.060   1.405  2.4822  0.1695 -1.4328
 8860SOL     OW38041   1.282   1.839  11.027  0.0816  0.3136  0.2552
 8860SOL    HW138042   1.220   1.843  10.954 -1.2691  2.5675  1.5348
 8860SOL    HW238043   1.365   1.817  10.983  0.6718  3.0779 -0.0384
 8861SOL     OW38044   3.272   3.196   7.091  0.2460  0.1561 -0.0010
 8861SOL    HW138045   3.284   3.291   7.100  0.1353  0.0846  0.9161
 8861SOL    HW238046   3.246   3.177   7.181 -1.4743 -0.8719 -0.7153
 8862SOL     OW38047   3.404   2.832   5.577  0.3949  0.2055 -0.1579
 8862SOL    HW138048   3.323   2.808   5.533  0.2430 -2.4546  1.6011
 8862SOL    HW238049   3.456   2.881   5.513 -1.1436  0.0806 -1.4864
 8863SOL     OW38050   0.939   0.643   5.025  0.3021 -0.1526  0.1443
 8863SOL    HW138051   0.918   0.622   5.116  1.3686 -2.4090 -0.1199
 8863SOL    HW238052   1.004   0.712   5.038 -0.1235  0.2199  0.3077
 8864SOL     OW38053   4.472   2.618   4.065  0.0235 -0.3757 -0.5519
 8864SOL    HW138054   4.442   2.634   3.976 -0.2578  0.6522 -0.2725
 8864SOL    HW238055   4.550   2.674   4.067 -0.0427 -0.2193 -2.0411
 8865SOL     OW38056   3.185   0.499   4.457 -0.0200  0.3175 -0.1067
 8865SOL    HW138057   3.133   0.448   4.395  0.0855  1.8370 -1.4561
 8865SOL    HW238058   3.274   0.468   4.441 -0.2705 -0.9880  1.0810
 8866SOL     OW38059   0.668   4.118  15.042  0.3732 -0.2451  0.2817
 8866SOL    HW138060   0.594   4.127  14.982  1.1158  2.6137 -0.2417
 8866SOL    HW238061   0.707   4.206  15.043  0.4551 -0.2771 -0.0585
 8867SOL     OW38062   3.424   0.962   6.408 -0.2812 -0.4612 -0.2247
 8867SOL    HW138063   3.353   1.022   6.386  2.0878  2.9157  1.4097
 8867SOL    HW238064   3.408   0.937   6.499 -4.4315  0.9231 -0.5623
 8868SOL     OW38065   0.676   2.520   4.112  0.0908  0.2050  0.2859
 8868SOL    HW138066   0.596   2.471   4.091  0.5109 -0.0478 -0.7383
 8868SOL    HW238067   0.734   2.444   4.112  0.1871  0.2800  0.8171
 8869SOL     OW38068   3.544   2.744   8.696  0.1288  0.4278 -0.3119
 8869SOL    HW138069   3.619   2.726   8.753  0.6464 -0.1537 -1.1731
 8869SOL    HW238070   3.474   2.701   8.745 -0.1198 -0.1652 -1.1757
 8870SOL     OW38071   3.886   1.289  15.763 -0.1985 -0.1817 -0.5450
 8870SOL    HW138072   3.800   1.256  15.789 -0.9361  1.1704 -1.2420
 8870SOL    HW238073   3.905   1.234  15.688  1.4627 -0.6294  0.1968
 8871SOL     OW38074   0.147   0.985   2.241 -0.0370 -0.3832  0.2562
 8871SOL    HW138075   0.226   1.026   2.275 -0.8566  0.9855  0.5450
 8871SOL    HW238076   0.165   0.893   2.258  0.2011 -0.6423 -1.3349
 8872SOL     OW38077   1.213   3.338  11.950  0.3938  0.0551  0.1382
 8872SOL    HW138078   1.171   3.424  11.952 -0.8510 -0.6150  3.2595
 8872SOL    HW238079   1.302   3.372  11.949 -0.1186  1.4359  0.6134
 8873SOL     OW38080   4.498   4.582   4.785  0.0381 -0.3545 -0.3009
 8873SOL    HW138081   4.480   4.676   4.793 -1.9155 -0.6628 -1.0787
 8873SOL    HW238082   4.500   4.574   4.689 -0.6105 -0.5730 -0.2923
 8874SOL     OW38083   4.711   4.168  15.320  0.0365 -0.4469  0.0517
 8874SOL    HW138084   4.683   4.258  15.304  0.8141  0.1003  1.7764
 8874SOL    HW238085   4.674   4.122  15.245 -0.5417 -2.5585  1.6472
 8875SOL     OW38086   3.057   0.677   4.871 -0.1695 -0.0095 -0.0997
 8875SOL    HW138087   2.967   0.704   4.855 -0.2634  0.2594  0.8507
 8875SOL    HW238088   3.094   0.678   4.782  0.4857 -2.4838  0.1601
 8876SOL     OW38089   1.696   1.188   6.716  0.1577  0.3422  0.6497
 8876SOL    HW138090   1.790   1.201   6.727 -0.1657  0.4613  3.2926
 8876SOL    HW238091   1.666   1.264   6.766 -0.3977  0.5113  0.0626
 8877SOL     OW38092   3.074   3.183   1.628  0.1498 -0.0246  0.0933
 8877SOL    HW138093   3.046   3.275   1.626 -1.6071 -0.5313  0.7233
 8877SOL    HW238094   3.015   3.157   1.699  0.3923 -2.9273 -0.7804
 8878SOL     OW38095   1.186   1.022  10.203 -0.3507  0.7491 -0.3395
 8878SOL    HW138096   1.156   0.934  10.183 -1.2185  0.8768  0.4075
 8878SOL    HW238097   1.183   1.063  10.116 -1.9787  0.7520 -0.2813
 8879SOL     OW38098   0.743   2.455   1.132 -0.6507 -0.7130 -0.5308
 8879SOL    HW138099   0.838   2.461   1.132 -0.5529 -2.1876 -2.2365
 8879SOL    HW238100   0.733   2.422   1.042 -0.8623 -0.2899 -0.6669
 8880SOL     OW38101   3.516   1.866   3.492  0.3271 -0.0449  0.0736
 8880SOL    HW138102   3.483   1.840   3.578 -0.5492  1.2546  0.1321
 8880SOL    HW238103   3.534   1.779   3.457 -0.2474 -0.3394  0.5279
 8881SOL     OW38104   4.115   3.828  15.973  0.2523 -0.1592 -0.1304
 8881SOL    HW138105   4.076   3.775  16.042  1.5715  1.3062  1.7308
 8881SOL    HW238106   4.077   3.789  15.894  0.1025 -0.1447 -0.0653
 8882SOL     OW38107   4.089   3.841  15.254 -0.0805  0.0120  0.2899
 8882SOL    HW138108   4.007   3.872  15.215 -0.4124  0.4858  1.3954
 8882SOL    HW238109   4.121   3.921  15.295  0.7632 -0.0638 -0.2165
 8883SOL     OW38110   2.308   4.033   7.880 -0.6421 -0.6275 -0.0301
 8883SOL    HW138111   2.250   4.018   7.955 -2.2706 -1.8888 -1.5054
 8883SOL    HW238112   2.327   3.939   7.874 -0.7024 -0.6278 -0.2259
 8884SOL     OW38113   2.856   1.749   7.079 -0.1454 -0.0797  0.0574
 8884SOL    HW138114   2.894   1.672   7.037  1.1653  0.4864  0.2050
 8884SOL    HW238115   2.928   1.782   7.132  1.0695 -0.1216 -1.5801
 8885SOL     OW38116   3.921   2.425  16.177 -0.6670 -0.2297  0.2981
 8885SOL    HW138117   3.968   2.389  16.252  1.0785  1.3103 -0.0488
 8885SOL    HW238118   3.978   2.496  16.147  0.2007 -1.1277 -0.1554
 8886SOL     OW38119   1.515   1.877  15.506 -0.2515 -0.2229  0.0425
 8886SOL    HW138120   1.445   1.909  15.450 -1.5772 -0.9976  1.2713
 8886SOL    HW238121   1.475   1.801  15.547  2.7747 -1.7712  0.1787
 8887SOL     OW38122   3.684   2.420   3.244 -0.0878 -0.3630  0.2935
 8887SOL    HW138123   3.756   2.452   3.298 -1.3850 -1.5166  2.7065
 8887SOL    HW238124   3.613   2.430   3.308  0.4565 -2.7241  1.2643
 8888SOL     OW38125   0.818   1.233   1.926 -0.3003 -0.4991  0.2522
 8888SOL    HW138126   0.812   1.273   2.013 -0.9175 -0.4466  0.1825
 8888SOL    HW238127   0.747   1.169   1.929 -0.7769  0.1765  3.0917
 8889SOL     OW38128   2.798   1.513   0.702 -0.3569 -0.8845  0.2962
 8889SOL    HW138129   2.739   1.551   0.637 -0.2792  0.8378  1.2421
 8889SOL    HW238130   2.879   1.493   0.655 -0.3218  1.8787 -0.8647
 8890SOL     OW38131   0.631   2.003   6.002 -0.2084  0.4701 -0.5889
 8890SOL    HW138132   0.577   2.082   6.002 -2.0596 -0.8026 -2.8143
 8890SOL    HW238133   0.569   1.931   5.990 -1.1671  1.5525 -2.0838
 8891SOL     OW38134   1.632   1.401   8.152 -0.0581 -0.1337 -0.5014
 8891SOL    HW138135   1.570   1.390   8.224 -0.1029 -1.6808 -0.7721
 8891SOL    HW238136   1.602   1.480   8.107  0.7418  0.1543 -0.5279
 8892SOL     OW38137   2.355   1.639   7.531 -0.4444  0.2578  0.5276
 8892SOL    HW138138   2.354   1.734   7.523 -1.5107  0.2791  0.8918
 8892SOL    HW238139   2.433   1.616   7.480 -0.2302  3.4360 -0.5693
 8893SOL     OW38140   3.176   3.780   7.563  0.3192  0.3338 -0.5940
 8893SOL    HW138141   3.121   3.834   7.506 -2.2170 -1.1652  0.4683
 8893SOL    HW238142   3.127   3.778   7.645  1.6287  0.7388  0.2020
 8894SOL     OW38143   1.994   4.231   5.866 -0.0230  0.4092 -0.2253
 8894SOL    HW138144   2.024   4.321   5.854 -0.5986  0.3756 -1.7997
 8894SOL    HW238145   2.074   4.194   5.906  0.7212  1.7812 -0.4679
 8895SOL     OW38146   3.186   4.033   4.597  0.3041  0.0078  0.0741
 8895SOL    HW138147   3.231   3.951   4.616  2.0442  0.6417 -1.2843
 8895SOL    HW238148   3.189   4.084   4.677 -1.9937 -1.8129  1.3269
 8896SOL     OW38149   1.336   0.277  10.037 -0.2002  0.0610 -0.0968
 8896SOL    HW138150   1.427   0.256  10.017 -0.0511  0.4211  0.2109
 8896SOL    HW238151   1.288   0.204   9.999 -0.6709 -1.0354  2.5680
 8897SOL     OW38152   1.066   0.515   7.787  0.3038 -0.1250  0.6666
 8897SOL    HW138153   1.103   0.596   7.823  2.0732 -0.6460  0.0471
 8897SOL    HW238154   1.128   0.449   7.818 -0.0084 -1.3849 -1.4018
 8898SOL     OW38155   4.551   0.548   4.092  0.0144  0.7179  0.1854
 8898SOL    HW138156   4.503   0.514   4.016  0.6540  2.1457 -0.8494
 8898SOL    HW238157   4.623   0.485   4.088 -2.0064 -1.5706 -0.7921
 8899SOL     OW38158   3.831   3.903   4.956 -0.5472 -0.2231  0.4394
 8899SOL    HW138159   3.905   3.962   4.966  1.2723 -2.5340  0.7264
 8899SOL    HW238160   3.873   3.858   4.883  1.4471 -0.2502  1.5960
 8900SOL     OW38161   3.492   3.174  12.802  0.4194 -0.1234 -0.0018
 8900SOL    HW138162   3.422   3.158  12.739 -1.3141  0.0505  1.8886
 8900SOL    HW238163   3.461   3.146  12.888  2.5634  1.8532  1.3944
 8901SOL     OW38164   2.164   3.151   2.888  0.3208 -0.4550  0.2720
 8901SOL    HW138165   2.128   3.235   2.916  0.8852 -0.3989  0.8459
 8901SOL    HW238166   2.086   3.116   2.847 -0.1904  1.1713 -0.1400
 8902SOL     OW38167   4.160   3.202   3.632 -0.5660 -0.4766 -0.5527
 8902SOL    HW138168   4.114   3.255   3.697  0.1707 -1.2459  0.5854
 8902SOL    HW238169   4.234   3.259   3.612  1.1024 -1.8497  1.7893
 8903SOL     OW38170   4.279   3.250   7.576 -0.1513 -0.0350  0.7516
 8903SOL    HW138171   4.301   3.277   7.487 -0.9095  1.7601  1.1299
 8903SOL    HW238172   4.226   3.173   7.554  1.5467 -0.7190 -0.9402
 8904SOL     OW38173   4.013   0.499   8.074 -0.3265  0.1950  0.5003
 8904SOL    HW138174   4.030   0.465   7.986  0.8126  0.3658  0.6564
 8904SOL    HW238175   3.950   0.568   8.054 -0.6140 -0.9255 -2.5077
 8905SOL     OW38176   4.067   4.219   5.181  0.4617  0.1691  0.2003
 8905SOL    HW138177   3.989   4.209   5.126 -0.7032  3.2897  1.2443
 8905SOL    HW238178   4.121   4.256   5.112 -0.0645 -1.4698 -1.0738
 8906SOL     OW38179   3.073   3.098   5.380  0.5086  0.2068  0.3510
 8906SOL    HW138180   3.048   3.105   5.472 -0.1098  1.5639  0.0790
 8906SOL    HW238181   2.993   3.124   5.333  0.5581 -1.4832 -0.6879
 8907SOL     OW38182   4.159   4.051   3.187 -0.1186  0.5088  0.3181
 8907SOL    HW138183   4.157   3.968   3.233  0.5674 -1.2665 -2.8603
 8907SOL    HW238184   4.097   4.026   3.118 -1.7393  0.2222  1.9021
 8908SOL     OW38185   3.539   2.322  17.452  0.2023  0.5311 -0.4767
 8908SOL    HW138186   3.453   2.294  17.420 -0.3492  1.3286  0.3123
 8908SOL    HW238187   3.600   2.250  17.437  0.5445  0.4075  1.4145
 8909SOL     OW38188   4.680   4.644   5.055  0.3147  0.2195  0.4966
 8909SOL    HW138189   4.659   4.718   5.113 -1.9003  0.6878 -0.9107
 8909SOL    HW238190   4.677   4.688   4.970  0.3930 -0.5016  0.1192
 8910SOL     OW38191   4.556   1.028   8.562  0.3509 -0.7618  0.3128
 8910SOL    HW138192   4.614   0.953   8.549  0.0642 -0.9207 -0.0531
 8910SOL    HW238193   4.476   0.990   8.598  0.2271 -0.3896  0.4207
 8911SOL     OW38194   0.223   1.722   2.283 -0.2637 -0.1790  0.1096
 8911SOL    HW138195   0.268   1.657   2.230 -0.2491  1.8014 -2.3478
 8911SOL    HW238196   0.157   1.744   2.217  1.8581  2.1630 -1.2240
 8912SOL     OW38197   2.129   0.029   1.338 -0.5107 -0.6983 -0.1752
 8912SOL    HW138198   2.194   0.095   1.364 -1.5163  0.9522 -1.8196
 8912SOL    HW238199   2.180   4.691   1.287 -0.8721 -0.5408 -0.7261
 8913SOL     OW38200   0.294   2.689  15.056 -0.3068  0.4808  0.2803
 8913SOL    HW138201   0.216   2.643  15.025  1.8005 -2.8784 -0.0312
 8913SOL    HW238202   0.339   2.704  14.973 -0.1268 -2.3993 -0.1379
 8914SOL     OW38203   1.329   1.541   9.154 -0.2079 -0.0401  0.3953
 8914SOL    HW138204   1.368   1.523   9.240  2.9094 -2.3271 -1.4580
 8914SOL    HW238205   1.303   1.632   9.168 -1.0528 -0.2388  0.0511
 8915SOL     OW38206   2.132   2.426   2.448  0.2966 -0.9815  0.1748
 8915SOL    HW138207   2.112   2.519   2.460  2.5755 -0.5434  0.5735
 8915SOL    HW238208   2.080   2.396   2.374  0.6312 -1.2650  0.0527
 8916SOL     OW38209   4.270   0.813   6.314  0.0282  0.0773 -0.0472
 8916SOL    HW138210   4.198   0.877   6.317  0.4156  0.5346 -0.5163
 8916SOL    HW238211   4.349   0.867   6.310  1.5330 -2.1102  0.2505
 8917SOL     OW38212   0.465   3.330  16.072 -0.2254  0.7771  0.0943
 8917SOL    HW138213   0.478   3.349  15.979  3.8685 -1.8802  0.1324
 8917SOL    HW238214   0.436   3.239  16.073 -2.1017  1.3782  1.6494
 8918SOL     OW38215   0.264   0.020   4.599 -0.0009 -0.1853  0.1040
 8918SOL    HW138216   0.296   0.042   4.512  2.9609  1.0253  1.5026
 8918SOL    HW238217   0.174   4.721   4.575  0.1445  0.4591 -1.0469
 8919SOL     OW38218   2.921   3.251   8.960 -0.1907 -0.2765  0.0876
 8919SOL    HW138219   2.916   3.178   8.899  2.9734 -0.3196 -0.0924
 8919SOL    HW238220   2.878   3.203   9.031 -1.6373 -0.2304 -0.7552
 8920SOL     OW38221   1.719   0.396   1.045  0.5012  0.6874  0.8306
 8920SOL    HW138222   1.703   0.470   0.986 -0.3319 -0.3541 -0.2441
 8920SOL    HW238223   1.628   0.365   1.044 -0.0647  2.2453  2.7421
 8921SOL     OW38224   3.988   3.794   7.289  0.1026  0.3723  0.2755
 8921SOL    HW138225   4.006   3.715   7.340  0.6749  1.6148  2.0391
 8921SOL    HW238226   3.960   3.750   7.209  1.5841 -0.1958  0.0773
 8922SOL     OW38227   0.482   1.402   9.171  0.1205  0.2101  0.4693
 8922SOL    HW138228   0.429   1.335   9.214 -1.0758  0.7068 -0.2393
 8922SOL    HW238229   0.497   1.468   9.240 -1.2302 -0.9705  1.8890
 8923SOL     OW38230   3.948   2.022   5.459  0.0430 -0.0909  0.2241
 8923SOL    HW138231   3.984   2.111   5.462  1.2316 -0.4707 -2.7839
 8923SOL    HW238232   3.972   1.994   5.547  0.1668  0.3607  0.3380
 8924SOL     OW38233   2.855   1.615   2.951  0.1510 -0.4720  0.0433
 8924SOL    HW138234   2.913   1.588   3.022 -1.1438 -2.7608  0.2367
 8924SOL    HW238235   2.841   1.544   2.888  0.8042  0.7444 -1.4754
 8925SOL     OW38236   4.328   1.618   8.715  0.0453  0.1940  0.4337
 8925SOL    HW138237   4.236   1.632   8.735 -0.1270  1.7580 -1.3682
 8925SOL    HW238238   4.344   1.713   8.717 -2.9405  0.7286 -1.1811
 8926SOL     OW38239   4.037   1.749  12.891  0.1050 -0.6333 -0.0491
 8926SOL    HW138240   4.018   1.789  12.976  1.3741 -0.0789 -0.0314
 8926SOL    HW238241   4.123   1.710  12.902  0.2480  0.2088  1.7231
 8927SOL     OW38242   0.744   2.752  15.435  0.3383  0.1184 -0.4560
 8927SOL    HW138243   0.803   2.756  15.360  0.6539  0.3218 -0.1935
 8927SOL    HW238244   0.799   2.779  15.508 -0.9299  1.6067 -0.0308
 8928SOL     OW38245   3.387   2.861   4.037 -0.2628  0.1900 -0.0188
 8928SOL    HW138246   3.467   2.889   3.991  0.6197 -1.2672  0.6292
 8928SOL    HW238247   3.330   2.938   4.045  0.5492  0.6209  1.5050
 8929SOL     OW38248   4.175   2.652  13.583 -0.1683  0.0814  0.1462
 8929SOL    HW138249   4.101   2.703  13.615  1.2565  2.1300  0.1612
 8929SOL    HW238250   4.131   2.582  13.534 -0.5363  0.7667 -0.4958
 8930SOL     OW38251   3.420   0.467  16.058 -0.1618  0.1842 -0.0861
 8930SOL    HW138252   3.398   0.468  16.151  1.4927  2.1224  0.2726
 8930SOL    HW238253   3.363   0.542  16.043 -0.9421 -0.4627 -0.3794
 8931SOL     OW38254   2.829   3.860   6.309  0.1706 -0.3805 -0.5759
 8931SOL    HW138255   2.849   3.883   6.399  0.5735 -0.4917 -0.6380
 8931SOL    HW238256   2.825   3.946   6.268 -0.1381  0.8865  2.1670
 8932SOL     OW38257   2.476   1.967   5.412 -0.5357 -0.1177  0.3044
 8932SOL    HW138258   2.438   2.053   5.429 -0.6632 -0.6860  2.9216
 8932SOL    HW238259   2.559   1.972   5.458 -0.3068 -0.2006 -0.0982
 8933SOL     OW38260   2.549   2.533   2.367 -0.0095  0.1593  0.2255
 8933SOL    HW138261   2.554   2.498   2.456 -1.2266  2.9018  1.3656
 8933SOL    HW238262   2.484   2.469   2.339  0.3957 -1.0006  1.9660
 8934SOL     OW38263   0.857   1.712   1.390 -0.1339  0.2487  0.0631
 8934SOL    HW138264   0.807   1.640   1.428  3.2807 -3.1200 -1.8979
 8934SOL    HW238265   0.790   1.779   1.402  0.1336  1.0657 -3.1161
 8935SOL     OW38266   1.199   3.189   5.661  0.2279  0.2512  0.1765
 8935SOL    HW138267   1.266   3.225   5.719  1.8001 -0.6012 -1.1059
 8935SOL    HW238268   1.116   3.197   5.708 -0.2319 -0.0992 -0.5768
 8936SOL     OW38269   3.433   0.766   3.289  0.6281 -0.3034  0.3449
 8936SOL    HW138270   3.510   0.783   3.235 -0.7978  1.3510 -1.1849
 8936SOL    HW238271   3.360   0.802   3.238  1.4762 -1.5907 -1.7740
 8937SOL     OW38272   3.788   1.129   6.104 -0.2437 -0.4201 -0.1826
 8937SOL    HW138273   3.748   1.189   6.041  1.6467  1.2532  0.2259
 8937SOL    HW238274   3.721   1.122   6.172 -0.3747  0.4195 -0.2280
 8938SOL     OW38275   4.667   3.046   1.509  0.3035  0.1555 -0.5128
 8938SOL    HW138276   4.612   3.037   1.587 -0.7586 -1.3780 -1.4269
 8938SOL    HW238277   4.690   2.953   1.502 -0.5419 -0.1847  1.0974
 8939SOL     OW38278   0.962   0.366  12.581 -0.5477 -0.1541 -0.2252
 8939SOL    HW138279   0.905   0.294  12.607 -1.8953  1.6639  1.9204
 8939SOL    HW238280   1.002   0.331  12.501  0.2397 -2.4821  1.1915
 8940SOL     OW38281   2.913   0.196   9.475  0.0299  0.4821 -0.3524
 8940SOL    HW138282   2.891   0.288   9.461 -1.4226  0.2243  0.2651
 8940SOL    HW238283   2.900   0.163   9.386 -2.2833 -0.8159  0.4679
 8941SOL     OW38284   1.285   3.726   3.404  0.4127 -0.3089 -0.1762
 8941SOL    HW138285   1.367   3.732   3.453 -0.4364  0.0180  1.1952
 8941SOL    HW238286   1.225   3.718   3.478  2.6220  1.3708  1.7971
 8942SOL     OW38287   1.265   4.521   1.802 -0.4222  0.2655 -0.0422
 8942SOL    HW138288   1.224   4.463   1.738  0.5551 -0.9996  0.4673
 8942SOL    HW238289   1.290   4.599   1.754 -0.6762 -0.5407 -1.4663
 8943SOL     OW38290   3.553   4.666   8.577  0.5459 -0.8533 -0.0254
 8943SOL    HW138291   3.523   4.665   8.667 -0.2034  0.2915 -0.2639
 8943SOL    HW238292   3.470   4.656   8.531 -0.4836 -1.6785  2.0520
 8944SOL     OW38293   0.696   3.253   7.826  1.0257  0.4994 -0.0068
 8944SOL    HW138294   0.615   3.299   7.804  1.2937  0.7303 -0.5202
 8944SOL    HW238295   0.692   3.177   7.768 -0.6185  1.1544 -0.7566
 8945SOL     OW38296   1.148   2.271   3.686 -0.4070  0.7268 -0.0956
 8945SOL    HW138297   1.074   2.262   3.746 -1.0134  0.8644 -0.8144
 8945SOL    HW238298   1.115   2.331   3.619 -0.0176  0.8946 -0.1358
 8946SOL     OW38299   3.506   2.460   3.041  0.4718 -0.5200 -0.3239
 8946SOL    HW138300   3.570   2.459   3.112 -0.6283 -0.8440  0.6600
 8946SOL    HW238301   3.432   2.416   3.082  0.7722 -1.7127 -1.0774
 8947SOL     OW38302   1.873   4.143   1.349 -0.6978 -0.4117  0.6352
 8947SOL    HW138303   1.959   4.105   1.330 -0.6752  1.3222 -2.6036
 8947SOL    HW238304   1.829   4.063   1.377 -1.4648 -0.1288  0.2267
 8948SOL     OW38305   1.834   2.196  10.806 -0.4495  0.0470  0.7278
 8948SOL    HW138306   1.812   2.103  10.815  3.7713 -1.1858 -1.3859
 8948SOL    HW238307   1.926   2.188  10.832 -0.8616 -1.1201  1.8118
 8949SOL     OW38308   2.451   0.056   3.071 -0.3888  0.1542  0.1928
 8949SOL    HW138309   2.483   0.144   3.055  1.6647 -0.9568 -1.7686
 8949SOL    HW238310   2.506   0.010   3.007 -2.0229  0.6535 -1.5493
 8950SOL     OW38311   2.163   4.214  16.473  0.0682  0.2166  0.2722
 8950SOL    HW138312   2.236   4.171  16.517  0.8261  0.4525 -0.7614
 8950SOL    HW238313   2.173   4.190  16.381  1.0949  0.3375  0.3553
 8951SOL     OW38314   3.150   3.714   7.985  0.2442 -0.5966 -0.0517
 8951SOL    HW138315   3.104   3.652   8.041  0.3717 -1.7583 -1.2182
 8951SOL    HW238316   3.156   3.665   7.903  1.0557 -1.3002  0.4353
 8952SOL     OW38317   2.258   4.336  11.972 -0.1468 -0.5691 -0.3281
 8952SOL    HW138318   2.222   4.247  11.975 -3.5403  0.7722 -0.6957
 8952SOL    HW238319   2.350   4.313  11.980  0.3012  1.1500 -0.5924
 8953SOL     OW38320   2.684   1.735   5.323  0.5838  0.2218 -0.4146
 8953SOL    HW138321   2.742   1.790   5.270  1.7794 -1.6175 -1.0168
 8953SOL    HW238322   2.704   1.759   5.413  1.1326 -0.4648 -0.3536
 8954SOL     OW38323   3.465   1.060   5.823  0.4014 -0.2985  0.1692
 8954SOL    HW138324   3.422   1.133   5.778  2.0947  1.2307  0.9834
 8954SOL    HW238325   3.544   1.107   5.854 -0.9036  1.0271  1.5008
 8955SOL     OW38326   0.289   2.773   1.668 -0.2397 -0.8706  0.2474
 8955SOL    HW138327   0.325   2.728   1.592 -0.3172 -0.3241 -0.1170
 8955SOL    HW238328   0.356   2.835   1.697 -1.2300  0.3029  0.0446
 8956SOL     OW38329   4.473   2.669   5.275 -1.0082  0.3525 -0.3163
 8956SOL    HW138330   4.470   2.730   5.348 -0.2644 -1.2030  1.0254
 8956SOL    HW238331   4.382   2.660   5.248 -0.8500  1.9919 -1.3459
 8957SOL     OW38332   0.703   0.355  17.574 -0.1361 -0.3355  0.3289
 8957SOL    HW138333   0.797   0.364  17.562 -0.0073 -1.5895  0.4162
 8957SOL    HW238334   0.702   0.260  17.562 -2.6482 -0.6225  2.7924
 8958SOL     OW38335   3.562   0.116   7.932  0.2177 -0.3554 -0.1515
 8958SOL    HW138336   3.535   0.079   7.847  3.2324 -2.1404 -0.3332
 8958SOL    HW238337   3.657   0.128   7.921  0.0600  0.4719 -0.6710
 8959SOL     OW38338   2.281   4.232   8.514 -0.0294  0.8669 -0.3959
 8959SOL    HW138339   2.316   4.254   8.428 -1.3752  0.9633 -0.9163
 8959SOL    HW238340   2.355   4.183   8.548 -0.3956  0.0101 -0.8454
 8960SOL     OW38341   3.165   0.868   2.388 -0.1600 -0.0416  0.0014
 8960SOL    HW138342   3.147   0.790   2.440 -0.0487 -0.4839 -0.6220
 8960SOL    HW238343   3.128   0.857   2.300  1.8513 -0.0763 -0.8274
 8961SOL     OW38344   1.706   2.049  17.017  0.1006  0.7015  0.2947
 8961SOL    HW138345   1.794   2.066  17.051  0.5639 -1.7400  0.3069
 8961SOL    HW238346   1.649   2.110  17.064  0.8376  0.6979  1.1924
 8962SOL     OW38347   1.269   2.336   1.250 -1.1085  0.2845  0.1844
 8962SOL    HW138348   1.322   2.412   1.274  0.6157 -0.4791 -1.2314
 8962SOL    HW238349   1.335   2.270   1.231 -1.5211 -0.1540  0.2791
 8963SOL     OW38350   3.967   4.589   5.123 -0.2131 -0.1079  0.4708
 8963SOL    HW138351   4.008   4.673   5.102 -0.8858  0.2905  0.7472
 8963SOL    HW238352   3.875   4.616   5.126  0.0321  0.6685  1.1839
 8964SOL     OW38353   2.596   0.471   4.086  0.1565 -0.3095 -0.3989
 8964SOL    HW138354   2.583   0.421   4.167 -1.5181 -0.7104 -0.9155
 8964SOL    HW238355   2.604   0.552   4.137  2.8191  0.1863 -1.6167
 8965SOL     OW38356   3.950   2.553   0.901 -0.1727  0.3643 -0.0772
 8965SOL    HW138357   3.873   2.607   0.918 -0.8925 -0.0862 -1.8616
 8965SOL    HW238358   3.927   2.468   0.938  1.1718 -0.1931 -0.5228
 8966SOL     OW38359   0.409   3.201   4.238  0.2909  0.2244 -0.3877
 8966SOL    HW138360   0.423   3.281   4.290 -0.0774 -0.3578  0.6042
 8966SOL    HW238361   0.483   3.207   4.177 -0.4447 -1.7077 -1.4601
 8967SOL     OW38362   4.253   1.907  17.173  0.2366  0.1794 -0.0627
 8967SOL    HW138363   4.209   1.962  17.109 -0.7064  0.5555  0.9133
 8967SOL    HW238364   4.316   1.866  17.114 -0.2871  1.8602 -1.7963
 8968SOL     OW38365   2.897   3.747   7.460 -0.0606 -0.4512 -0.0593
 8968SOL    HW138366   2.829   3.730   7.395 -2.7955 -1.7058  3.1489
 8968SOL    HW238367   2.953   3.670   7.453 -0.9303 -0.8187 -3.0800
 8969SOL     OW38368   1.273   0.781   3.732  0.3347 -0.0716  0.2937
 8969SOL    HW138369   1.346   0.738   3.688 -0.2291 -0.1909 -0.5420
 8969SOL    HW238370   1.326   0.830   3.795 -0.5919 -0.4700  1.3702
 8970SOL     OW38371   2.425   2.533   8.414  0.0062 -0.0507 -0.1282
 8970SOL    HW138372   2.422   2.628   8.402  0.6892 -0.0417 -0.1941
 8970SOL    HW238373   2.470   2.522   8.498  0.7237 -0.2680 -0.5477
 8971SOL     OW38374   4.590   1.212   9.861 -0.3047 -0.2729 -0.3482
 8971SOL    HW138375   4.629   1.124   9.857  0.7572  0.1672  0.1083
 8971SOL    HW238376   4.616   1.233   9.772 -0.4247 -2.3190 -0.8644
 8972SOL     OW38377   1.485   3.168   4.880 -0.3139 -0.2028  0.3110
 8972SOL    HW138378   1.538   3.180   4.959  1.0497  0.3121 -0.6895
 8972SOL    HW238379   1.401   3.163   4.927 -0.1367  1.3875  0.8027
 8973SOL     OW38380   3.213   1.244  11.392 -0.1318  0.5325 -0.1240
 8973SOL    HW138381   3.229   1.272  11.302  2.1136  0.7844  0.3517
 8973SOL    HW238382   3.118   1.231  11.403  0.0464  0.5860  1.5320
 8974SOL     OW38383   2.628   2.402   7.146  0.8336  0.2408 -0.2107
 8974SOL    HW138384   2.551   2.423   7.197  0.8408  1.2747 -0.6371
 8974SOL    HW238385   2.685   2.478   7.153 -1.5913  2.0903 -0.6714
 8975SOL     OW38386   3.884   3.008   5.360 -0.1178 -0.0446  0.0370
 8975SOL    HW138387   3.868   2.995   5.454  3.9658 -0.6679  0.6261
 8975SOL    HW238388   3.926   2.924   5.339 -1.0483 -0.7512  0.9847
 8976SOL     OW38389   0.645   4.404   1.421 -0.3910 -0.5727 -0.6956
 8976SOL    HW138390   0.561   4.435   1.454 -0.8348 -1.7467 -0.6998
 8976SOL    HW238391   0.681   4.371   1.504 -0.1226  0.0634 -0.5591
 8977SOL     OW38392   4.484   0.896   5.480 -0.1815  0.0835 -0.1598
 8977SOL    HW138393   4.504   0.881   5.388  1.8577 -1.0301  0.4707
 8977SOL    HW238394   4.540   0.972   5.495 -0.4345  0.0364  1.0590
 8978SOL     OW38395   0.250   1.999  16.667 -0.1692 -0.5096 -0.5816
 8978SOL    HW138396   0.288   2.051  16.739 -1.3675  0.8169 -0.9099
 8978SOL    HW238397   0.312   1.936  16.630  0.5716 -1.0340  1.5533
 8979SOL     OW38398   2.430   0.408   1.626 -0.5355 -0.3946  0.2748
 8979SOL    HW138399   2.387   0.323   1.612  0.3436 -1.0843  1.8129
 8979SOL    HW238400   2.362   0.470   1.651  0.2010 -0.8448  3.3319
 8980SOL     OW38401   4.331   4.435  13.114 -0.6536 -0.1094  0.2922
 8980SOL    HW138402   4.345   4.349  13.074 -2.4752  0.7052 -2.1195
 8980SOL    HW238403   4.286   4.405  13.193  2.0260  0.8061  2.1710
 8981SOL     OW38404   0.807   0.981   2.405 -0.1274  0.3157 -0.4391
 8981SOL    HW138405   0.745   0.945   2.469 -1.1847  0.3935 -1.3996
 8981SOL    HW238406   0.753   1.020   2.335 -1.2379  0.1278  0.3076
 8982SOL     OW38407   1.309   3.697  11.030  0.4550  0.7093 -0.5324
 8982SOL    HW138408   1.390   3.650  11.008 -0.7105 -2.1520  1.3059
 8982SOL    HW238409   1.287   3.720  10.939 -0.1810 -1.8021 -1.0256
 8983SOL     OW38410   2.969   3.274   4.576 -0.0682 -0.1464  0.0142
 8983SOL    HW138411   2.973   3.340   4.644  1.7703 -0.9952  0.7207
 8983SOL    HW238412   2.878   3.246   4.573  0.0278 -0.4013 -0.6885
 8984SOL     OW38413   0.247   1.463   6.817 -0.3577  0.0700 -0.5325
 8984SOL    HW138414   0.189   1.537   6.800  1.2173  1.0454 -1.6135
 8984SOL    HW238415   0.314   1.506   6.870 -1.7381  1.0111  0.4546
 8985SOL     OW38416   2.046   4.112   7.572 -0.5159 -0.4318 -0.4519
 8985SOL    HW138417   2.108   4.167   7.620 -1.4960  1.5342 -1.4336
 8985SOL    HW238418   2.103   4.036   7.580  0.3199  0.4202  1.6062
 8986SOL     OW38419   1.665   2.591   6.364  0.0457  0.5626  0.4430
 8986SOL    HW138420   1.672   2.622   6.274 -1.7939 -1.2339 -0.3346
 8986SOL    HW238421   1.706   2.664   6.411  0.0991  0.3805  0.6776
 8987SOL     OW38422   0.975   2.204   3.892  0.3484 -0.8594 -0.1577
 8987SOL    HW138423   0.913   2.138   3.925  2.0471 -2.1920  0.3429
 8987SOL    HW238424   1.002   2.230   3.980  1.6921  1.2796 -1.1959
 8988SOL     OW38425   0.452   1.060  15.590 -0.1337  0.0814  0.2796
 8988SOL    HW138426   0.438   1.008  15.511 -0.9823  1.1420 -0.2617
 8988SOL    HW238427   0.470   1.150  15.565  0.5073 -0.4511 -1.1590
 8989SOL     OW38428   1.962   1.418  17.031 -0.4409  0.2010  0.2023
 8989SOL    HW138429   2.035   1.466  17.069 -1.7319  1.9424  0.5064
 8989SOL    HW238430   1.936   1.475  16.958  1.9288  0.1354 -0.6732
 8990SOL     OW38431   1.974   3.619   5.165 -0.2452  0.1455 -0.0809
 8990SOL    HW138432   1.955   3.705   5.129  1.4404  0.4595 -0.1960
 8990SOL    HW238433   2.033   3.580   5.100 -1.4439 -0.2752 -0.9188
 8991SOL     OW38434   0.756   4.023   0.378  0.3179 -0.1019 -0.2770
 8991SOL    HW138435   0.764   4.118   0.364 -0.8805 -0.1514 -1.2815
 8991SOL    HW238436   0.663   4.019   0.357 -0.3308  0.1705  2.6124
 8992SOL     OW38437   1.209   4.058  15.743  0.0591 -0.2039 -0.1871
 8992SOL    HW138438   1.177   4.075  15.655 -1.3996 -0.8558  0.1937
 8992SOL    HW238439   1.128   4.030  15.787  0.9315  0.7901  2.0377
 8993SOL     OW38440   4.464   0.840  11.515 -0.6663  0.2679  0.0978
 8993SOL    HW138441   4.376   0.811  11.538 -1.1665  0.2884 -1.8374
 8993SOL    HW238442   4.461   0.933  11.536 -0.9301  0.0154  1.1798
 8994SOL     OW38443   2.535   0.617   5.769  0.0145  0.4173 -0.2563
 8994SOL    HW138444   2.523   0.566   5.849 -1.5292 -0.4295 -1.0361
 8994SOL    HW238445   2.451   0.660   5.750 -0.4248  0.3313  1.5454
 8995SOL     OW38446   1.365   0.890   7.705 -0.3933 -0.6412  0.5231
 8995SOL    HW138447   1.353   0.982   7.728  1.0436 -0.2240 -0.3598
 8995SOL    HW238448   1.396   0.848   7.786  4.4032  1.2733 -0.3450
 8996SOL     OW38449   3.361   1.603   5.426  0.0162  0.0993  0.6011
 8996SOL    HW138450   3.390   1.516   5.398  1.0071  0.4525  0.5191
 8996SOL    HW238451   3.446   1.647   5.417 -0.5524  0.6451 -2.0133
 8997SOL     OW38452   2.655   4.173   2.822  0.1261 -0.1266  0.1548
 8997SOL    HW138453   2.589   4.241   2.835 -0.9929 -0.5849 -2.9875
 8997SOL    HW238454   2.608   4.099   2.782 -0.2869 -0.4298  1.2250
 8998SOL     OW38455   0.774   2.707   2.733 -0.3107  0.2165 -0.6593
 8998SOL    HW138456   0.786   2.614   2.716 -1.0588  0.3625 -1.9716
 8998SOL    HW238457   0.860   2.721   2.772 -0.0601 -0.6725 -0.8972
 8999SOL     OW38458   0.264   4.493   9.078 -0.7303 -0.1505  0.5831
 8999SOL    HW138459   0.192   4.557   9.071 -0.3655  0.2512  0.5083
 8999SOL    HW238460   0.246   4.443   9.158  0.5627 -0.1081  0.8873
 9000SOL     OW38461   3.883   3.859   4.537 -0.0325  0.6026 -0.7803
 9000SOL    HW138462   3.903   3.811   4.618 -1.7192 -0.0048 -0.7066
 9000SOL    HW238463   3.873   3.784   4.478  1.0634 -0.5989  0.5788
 9001SOL     OW38464   3.621   0.571   8.316 -0.3457 -0.0083  0.2594
 9001SOL    HW138465   3.657   0.507   8.256 -0.2117 -0.6874  1.0622
 9001SOL    HW238466   3.531   0.563   8.286  0.8602  1.1915 -3.7438
 9002SOL     OW38467   3.039   2.134   2.969 -0.1361  0.3412 -0.5467
 9002SOL    HW138468   3.078   2.169   2.888  0.8209 -0.6584 -0.5149
 9002SOL    HW238469   3.046   2.040   2.956 -1.3429  0.2556 -0.5496
 9003SOL     OW38470   1.794   3.521   8.906 -0.4739 -0.2256  0.0480
 9003SOL    HW138471   1.777   3.472   8.986  2.8435 -1.9508 -0.3160
 9003SOL    HW238472   1.812   3.601   8.955  0.8305 -0.1259 -0.5969
 9004SOL     OW38473   3.823   0.398   7.102 -0.2273 -0.1107  0.0625
 9004SOL    HW138474   3.815   0.390   7.007  1.6612 -1.5142  0.0160
 9004SOL    HW238475   3.916   0.414   7.118 -0.6764  2.1598  0.3988
 9005SOL     OW38476   1.533   3.836  15.033  0.2955  0.3056 -0.0945
 9005SOL    HW138477   1.477   3.898  14.985 -0.6934 -1.4026 -1.1737
 9005SOL    HW238478   1.581   3.896  15.090 -0.1945  2.2716 -1.7338
 9006SOL     OW38479   2.252   2.423   4.411  0.2430  0.4240  0.2108
 9006SOL    HW138480   2.241   2.455   4.501 -1.4400  2.3403 -0.6831
 9006SOL    HW238481   2.342   2.390   4.409  0.6388  1.6876 -1.8486
 9007SOL     OW38482   0.787   0.013   2.487 -0.2834 -0.5778 -0.0326
 9007SOL    HW138483   0.865   4.682   2.490  0.3533  0.2100 -2.0378
 9007SOL    HW238484   0.823   0.102   2.494  1.9201 -1.5360  0.7380
 9008SOL     OW38485   4.207   3.062  14.859  0.4294  0.1957 -0.2817
 9008SOL    HW138486   4.183   2.971  14.840  0.9392  0.2595 -1.2392
 9008SOL    HW238487   4.163   3.113  14.791  1.9493  0.0911 -1.3717
 9009SOL     OW38488   3.038   4.057   1.192  0.1662 -0.0908 -0.1010
 9009SOL    HW138489   3.032   4.115   1.116  2.3094  0.8932  0.4661
 9009SOL    HW238490   2.958   4.008   1.175 -0.5022  1.4765 -1.4099
 9010SOL     OW38491   0.141   3.241  14.358 -0.0446  0.1565  0.2912
 9010SOL    HW138492   0.219   3.231  14.303  0.0399  0.4737  0.3537
 9010SOL    HW238493   0.093   3.306  14.307 -0.8477  0.0032  0.8694
 9011SOL     OW38494   4.191   1.803   4.127 -0.3709 -0.1426  0.9372
 9011SOL    HW138495   4.151   1.808   4.213 -1.8158 -0.0594  0.2658
 9011SOL    HW238496   4.278   1.832   4.155 -0.3398  0.2834  0.4172
 9012SOL     OW38497   3.215   3.021  10.320  0.0410 -0.2750  0.2667
 9012SOL    HW138498   3.210   2.953  10.253  0.6592 -0.7777  0.7367
 9012SOL    HW238499   3.190   2.979  10.402 -2.7478 -2.4372 -1.6866
 9013SOL     OW38500   3.331   0.275  11.510 -0.0300  0.1688  0.1984
 9013SOL    HW138501   3.264   0.302  11.448 -0.5255  1.4432  1.2691
 9013SOL    HW238502   3.389   0.349  11.530 -0.2601  0.2589  0.5376
 9014SOL     OW38503   3.776   4.017   6.907 -0.1403  0.6655 -0.2710
 9014SOL    HW138504   3.722   4.050   6.978  0.2622 -2.2788  1.3905
 9014SOL    HW238505   3.713   3.960   6.864  0.5243  0.0360 -0.4098
 9015SOL     OW38506   2.753   3.149  13.124  0.3133 -0.6453  0.4325
 9015SOL    HW138507   2.657   3.152  13.130  0.2333 -2.6800  0.0783
 9015SOL    HW238508   2.762   3.104  13.040  0.1077  1.1708 -0.5573
 9016SOL     OW38509   0.858   3.688   5.258  0.5565  0.3414 -0.3029
 9016SOL    HW138510   0.763   3.678   5.269  0.7249 -2.5532 -1.5086
 9016SOL    HW238511   0.882   3.779   5.270 -0.7313  0.5727  0.6261
 9017SOL     OW38512   2.137   2.721  11.386 -0.7605 -0.1189 -0.1760
 9017SOL    HW138513   2.045   2.743  11.401 -1.1879 -0.9535 -1.5805
 9017SOL    HW238514   2.150   2.653  11.452  2.1151  0.3172 -0.3227
 9018SOL     OW38515   2.772   0.542   3.020  0.2348  0.3146 -0.1025
 9018SOL    HW138516   2.692   0.593   3.008  0.0802  0.5546  1.9292
 9018SOL    HW238517   2.819   0.571   3.098 -0.9599  0.6661  0.4930
 9019SOL     OW38518   2.576   3.879   1.143  0.6988  0.3248  0.1811
 9019SOL    HW138519   2.544   3.834   1.222  0.9000  1.4529  0.8978
 9019SOL    HW238520   2.552   3.809   1.082  0.4043 -0.3924  1.1180
 9020SOL     OW38521   0.645   0.616   1.855 -0.2248  0.1842  0.1783
 9020SOL    HW138522   0.591   0.689   1.825 -0.7067  1.0634  3.2732
 9020SOL    HW238523   0.673   0.563   1.780 -0.5539 -2.4347  1.8943
 9021SOL     OW38524   3.921   1.499   5.194 -0.1892 -0.9965  0.0007
 9021SOL    HW138525   3.972   1.496   5.275 -1.1551  0.8440  0.6775
 9021SOL    HW238526   3.994   1.494   5.132  1.3456  2.6375  1.5586
 9022SOL     OW38527   3.091   2.912  16.712  0.0020  0.5746  0.0764
 9022SOL    HW138528   3.088   2.912  16.808  0.6784  0.8653  0.1003
 9022SOL    HW238529   3.005   2.949  16.694 -0.3648 -0.7967 -0.9666
 9023SOL     OW38530   4.579   4.325  10.721 -0.4143  1.2726 -0.0917
 9023SOL    HW138531   4.500   4.288  10.681 -0.5101  2.9763 -1.4373
 9023SOL    HW238532   4.610   4.388  10.657 -2.8266  0.7193 -1.8200
 9024SOL     OW38533   2.865   3.197   1.432 -0.1567  0.1361  0.3919
 9024SOL    HW138534   2.943   3.195   1.487 -0.1739  2.1436  0.4965
 9024SOL    HW238535   2.855   3.104   1.412 -1.3308  0.3365  0.0560
 9025SOL     OW38536   3.310   3.475   7.097  0.0058  0.3862  0.1980
 9025SOL    HW138537   3.292   3.550   7.154 -0.8901 -0.9874  1.7274
 9025SOL    HW238538   3.401   3.455   7.115 -0.5937 -0.3895  2.3133
 9026SOL     OW38539   4.347   1.895   8.717  0.0858 -0.1750 -0.3442
 9026SOL    HW138540   4.340   1.920   8.809  2.2531 -1.2091  0.1036
 9026SOL    HW238541   4.408   1.962   8.689  1.1899 -1.1928 -0.3873
 9027SOL     OW38542   4.385   4.570   3.080 -0.2148  0.0076  0.7245
 9027SOL    HW138543   4.478   4.549   3.069 -0.6689 -2.2806  1.2397
 9027SOL    HW238544   4.353   4.492   3.126  1.6130 -1.2453 -0.1101
 9028SOL     OW38545   1.822   1.186  17.142  0.1338 -0.0226 -0.4558
 9028SOL    HW138546   1.869   1.262  17.107  0.4174 -0.0687 -0.1739
 9028SOL    HW238547   1.892   1.141  17.189 -0.2772 -0.1286  0.0615
 9029SOL     OW38548   2.278   3.461  12.453 -0.3967 -0.4777  0.1785
 9029SOL    HW138549   2.264   3.398  12.524 -1.9096 -1.9384 -1.4061
 9029SOL    HW238550   2.249   3.426  12.369 -0.6729  1.6364 -0.6055
 9030SOL     OW38551   4.693   2.839   7.030 -0.4720 -0.2617 -0.3159
 9030SOL    HW138552   4.672   2.751   6.998  1.4502 -0.2523 -1.6437
 9030SOL    HW238553   4.680   2.824   7.124  0.9877  2.1001  0.2593
 9031SOL     OW38554   3.752   2.458   7.456  0.0274 -0.1346 -0.6290
 9031SOL    HW138555   3.816   2.442   7.525  0.6514  0.6759 -1.0161
 9031SOL    HW238556   3.688   2.386   7.460 -1.1337  1.0793  2.9113
 9032SOL     OW38557   2.479   2.598   1.829 -0.2726  0.1002  0.2628
 9032SOL    HW138558   2.439   2.588   1.915  1.6326 -0.1222  1.1414
 9032SOL    HW238559   2.522   2.683   1.840 -2.2104  1.0928  0.0595
 9033SOL     OW38560   4.708   1.894   0.918 -0.3416 -0.6566 -0.6060
 9033SOL    HW138561   4.720   1.985   0.890  0.2786 -0.2844  0.8772
 9033SOL    HW238562   4.667   1.909   1.003 -1.5781  0.7670 -1.4570
 9034SOL     OW38563   1.953   3.399   8.384 -0.3595 -0.2741  0.3481
 9034SOL    HW138564   1.905   3.323   8.350 -0.8820  0.8376 -1.3670
 9034SOL    HW238565   1.974   3.360   8.469 -0.2857 -1.0263 -0.0130
 9035SOL     OW38566   0.581   1.597   9.338  0.8607  0.1073 -0.0561
 9035SOL    HW138567   0.544   1.656   9.403  2.3621  0.4390  0.5038
 9035SOL    HW238568   0.600   1.652   9.262 -2.6225  1.2613 -0.0785
 9036SOL     OW38569   2.524   2.758  11.009 -0.3690  0.0595  0.0066
 9036SOL    HW138570   2.499   2.680  10.960  1.0142  0.0864 -0.7397
 9036SOL    HW238571   2.436   2.785  11.037 -0.4811 -0.9203  0.5930
 9037SOL     OW38572   1.308   0.665   1.097 -0.2417  0.2161  0.1668
 9037SOL    HW138573   1.320   0.626   1.184 -0.3405 -0.0749  0.0504
 9037SOL    HW238574   1.275   0.585   1.055 -1.6500  0.4849  0.7326
 9038SOL     OW38575   1.513   2.016   1.535  0.0155 -0.3541  0.4960
 9038SOL    HW138576   1.604   2.006   1.507 -0.4514 -0.7723 -0.8449
 9038SOL    HW238577   1.495   1.931   1.575 -0.8406  0.5629  2.0651
 9039SOL     OW38578   0.251   4.478  13.621 -0.2155  0.0138  0.3237
 9039SOL    HW138579   0.311   4.449  13.690  1.1302  1.0856 -0.3983
 9039SOL    HW238580   0.290   4.435  13.545 -0.1373  0.4655  0.1073
 9040SOL     OW38581   3.325   1.270  10.004  0.2861 -0.3395 -0.5466
 9040SOL    HW138582   3.393   1.221  10.049  1.6287  0.7062 -1.4579
 9040SOL    HW238583   3.334   1.357  10.042  0.1853 -0.2376 -0.7531
 9041SOL     OW38584   1.623   0.628   9.888  0.1360  0.5115  0.0203
 9041SOL    HW138585   1.676   0.552   9.910 -1.4680 -0.6425 -0.1436
 9041SOL    HW238586   1.662   0.699   9.939  1.5960 -1.0575  1.0670
 9042SOL     OW38587   1.562   3.565  12.488  0.5092 -0.5066  0.0047
 9042SOL    HW138588   1.655   3.560  12.512  0.5963  1.5079  0.0237
 9042SOL    HW238589   1.569   3.556  12.393 -1.2584  0.3488 -0.2005
 9043SOL     OW38590   0.344   0.718   8.297 -0.4105 -0.2860  0.2813
 9043SOL    HW138591   0.272   0.782   8.296  0.5312  0.7876  3.7546
 9043SOL    HW238592   0.323   0.664   8.220  0.7020  0.8290 -0.8076
 9044SOL     OW38593   2.971   3.403   0.872 -0.0944  0.7189 -0.0692
 9044SOL    HW138594   2.961   3.498   0.879  0.7087  0.8038 -0.1005
 9044SOL    HW238595   3.049   3.419   0.819  2.0085 -0.3261  2.7662
 9045SOL     OW38596   3.526   1.544   6.324 -0.4786  0.3312  0.2782
 9045SOL    HW138597   3.449   1.491   6.305  0.6165 -1.7419  1.6030
 9045SOL    HW238598   3.602   1.494   6.296 -0.1386  0.3158  1.2162
 9046SOL     OW38599   1.231   1.405   5.434  0.6969 -0.2940  0.9022
 9046SOL    HW138600   1.276   1.414   5.349  0.2412  1.4874  0.8535
 9046SOL    HW238601   1.182   1.326   5.412  0.0121  0.1819  0.7237
 9047SOL     OW38602   2.333   0.948   1.741 -0.0808 -0.1970  0.2001
 9047SOL    HW138603   2.372   0.992   1.665 -2.1423  1.2822  0.0218
 9047SOL    HW238604   2.246   0.933   1.704  0.4939 -3.3815  0.0570
 9048SOL     OW38605   0.579   2.838   2.889 -0.7954 -0.5581  1.2579
 9048SOL    HW138606   0.509   2.803   2.834 -0.6944  0.2886  0.5711
 9048SOL    HW238607   0.642   2.782   2.843 -1.0097  0.8791 -0.8020
 9049SOL     OW38608   0.548   3.892  11.114 -0.2416 -0.3512 -0.3715
 9049SOL    HW138609   0.632   3.874  11.156 -0.9173 -3.5251 -0.3670
 9049SOL    HW238610   0.566   3.879  11.021  1.2413 -0.0270 -0.1339
 9050SOL     OW38611   0.376   3.256  17.647  0.6784  0.4174  0.1387
 9050SOL    HW138612   0.382   3.271  17.552  1.4080  0.5064  0.1948
 9050SOL    HW238613   0.439   3.320  17.680  1.5453 -0.0229 -0.6434
 9051SOL     OW38614   2.230   4.381  13.056  0.0878 -0.2013 -0.0031
 9051SOL    HW138615   2.154   4.348  13.103  0.5611  2.5202  2.6411
 9051SOL    HW238616   2.258   4.306  13.003  0.2797 -1.0091  1.2286
 9052SOL     OW38617   0.883   4.692  16.198  0.2061  0.3926  0.2725
 9052SOL    HW138618   0.923   0.052  16.175  0.8582 -0.3851 -1.3896
 9052SOL    HW238619   0.960   4.636  16.193 -1.8131 -2.3319  0.0521
 9053SOL     OW38620   4.484   0.521   5.042  0.3170 -1.0947 -1.3437
 9053SOL    HW138621   4.557   0.518   5.104  0.1349 -2.5498 -1.1888
 9053SOL    HW238622   4.532   0.496   4.963  0.1709 -0.7592 -1.5397
 9054SOL     OW38623   2.477   1.583   7.833 -0.2723 -0.0505  0.0463
 9054SOL    HW138624   2.407   1.525   7.806  1.0134 -2.1214  1.1147
 9054SOL    HW238625   2.440   1.668   7.809  0.4785  0.2794  0.0253
 9055SOL     OW38626   0.308   3.699  11.548 -0.3534  0.2995  0.4475
 9055SOL    HW138627   0.318   3.719  11.455  0.7199  1.3055  0.7795
 9055SOL    HW238628   0.365   3.621  11.555 -0.7333  0.1767  2.0072
 9056SOL     OW38629   1.380   4.155  17.277 -0.8012  0.3223 -0.0313
 9056SOL    HW138630   1.451   4.200  17.324 -0.6322  0.0170  0.0054
 9056SOL    HW238631   1.436   4.119  17.208 -0.8654 -0.6831  0.4411
 9057SOL     OW38632   3.383   2.768  13.597 -0.7050  0.2537  0.6426
 9057SOL    HW138633   3.454   2.821  13.560 -0.1290 -1.6321 -0.9249
 9057SOL    HW238634   3.379   2.800  13.687  0.0098 -0.4214  0.9036
 9058SOL     OW38635   3.770   3.547   4.748 -0.0146  0.3321 -0.1048
 9058SOL    HW138636   3.857   3.574   4.777 -0.4988 -0.1574  1.7756
 9058SOL    HW238637   3.778   3.452   4.742 -1.4424  0.0044  3.4158
 9059SOL     OW38638   2.339   2.859   6.156 -0.0908 -0.1563 -0.3270
 9059SOL    HW138639   2.261   2.914   6.141  0.4242  0.8646  0.6887
 9059SOL    HW238640   2.362   2.831   6.068  0.6577  2.1745 -0.8767
 9060SOL     OW38641   4.070   4.629   2.352  0.0780 -0.5814 -0.0524
 9060SOL    HW138642   4.132   4.660   2.286  0.6224 -0.4367  0.5254
 9060SOL    HW238643   4.092   4.536   2.351 -2.0486 -1.0716  0.0542
 9061SOL     OW38644   3.316   4.617   8.476 -0.7101  0.0198  0.0201
 9061SOL    HW138645   3.225   4.587   8.476 -0.8854  0.5398  1.6357
 9061SOL    HW238646   3.358   4.545   8.428 -0.5181  0.2833 -0.2072
 9062SOL     OW38647   3.919   3.468  11.596 -0.4852 -0.2568 -0.4871
 9062SOL    HW138648   3.915   3.546  11.652  0.7909 -0.2199 -0.4654
 9062SOL    HW238649   4.003   3.495  11.559 -0.4583  1.3313  0.7225
 9063SOL     OW38650   2.695   1.315   4.231  0.3978 -0.0053  0.1881
 9063SOL    HW138651   2.717   1.240   4.175  3.9588  0.4923  0.9470
 9063SOL    HW238652   2.787   1.341   4.237 -0.1438  1.6830  0.9467
 9064SOL     OW38653   1.306   4.690  10.783  0.0821 -0.4957  0.6658
 9064SOL    HW138654   1.299   4.682  10.688  0.0736 -0.5489  0.6712
 9064SOL    HW238655   1.307   4.597  10.805  0.2611 -0.5867  0.2782
 9065SOL     OW38656   1.767   4.049   7.081 -0.3686 -0.3909 -0.3368
 9065SOL    HW138657   1.841   3.989   7.076 -0.4737 -0.5126 -0.4347
 9065SOL    HW238658   1.710   3.997   7.138 -0.0683 -3.0257 -2.4492
 9066SOL     OW38659   2.719   1.056   3.690  0.5199 -0.2375  0.3113
 9066SOL    HW138660   2.784   1.122   3.712 -0.0740  0.6690 -0.6569
 9066SOL    HW238661   2.694   1.092   3.605 -0.8303  1.2725  1.3393
 9067SOL     OW38662   1.798   4.314   2.407 -0.5120 -1.1829 -0.4702
 9067SOL    HW138663   1.780   4.258   2.332  0.5963 -1.3102 -0.6421
 9067SOL    HW238664   1.710   4.327   2.441  1.1852  1.9085  2.9192
 9068SOL     OW38665   3.206   3.969   1.465  0.3932  0.0283 -0.2886
 9068SOL    HW138666   3.228   3.960   1.558 -0.2985  2.7089  0.1405
 9068SOL    HW238667   3.295   3.984   1.433  0.8434  1.8979  1.8330
 9069SOL     OW38668   0.558   4.205   5.016 -0.1518  0.2366 -0.1604
 9069SOL    HW138669   0.518   4.163   4.940  0.9544  0.4725 -0.8608
 9069SOL    HW238670   0.636   4.240   4.974 -0.9477  1.2990 -0.7332
 9070SOL     OW38671   2.837   2.859   2.992  0.5226 -0.3473 -0.1128
 9070SOL    HW138672   2.838   2.764   3.003  0.5560 -0.5494 -1.7467
 9070SOL    HW238673   2.925   2.879   3.024  0.5906  0.1181 -0.5872
 9071SOL     OW38674   1.372   2.744   1.870 -0.4714  0.4001  0.1802
 9071SOL    HW138675   1.353   2.832   1.838 -2.9072 -0.3037 -0.2834
 9071SOL    HW238676   1.358   2.703   1.785 -1.9911 -1.4696  1.3297
 9072SOL     OW38677   1.399   2.830   5.906  0.4994  0.0188  0.3961
 9072SOL    HW138678   1.394   2.892   5.833  0.2090 -0.3825  0.0809
 9072SOL    HW238679   1.476   2.780   5.880  0.9334  0.6683  0.4035
 9073SOL     OW38680   4.295   0.805   1.963 -0.2361  0.1270 -0.0402
 9073SOL    HW138681   4.230   0.797   1.893 -1.2346 -2.2491  1.1642
 9073SOL    HW238682   4.250   0.873   2.014 -1.7119 -1.5325  0.8725
 9074SOL     OW38683   2.115   1.074  14.852 -0.2373  0.0587  0.5608
 9074SOL    HW138684   2.144   1.109  14.768 -1.6675 -0.5916 -0.2082
 9074SOL    HW238685   2.189   1.070  14.913 -0.7037 -3.1584  0.8966
 9075SOL     OW38686   1.941   0.374   3.437  0.3513  0.3500 -0.2812
 9075SOL    HW138687   1.920   0.466   3.449  1.7916  1.1480 -3.8300
 9075SOL    HW238688   1.994   0.382   3.358 -0.7792 -0.3139 -1.1040
 9076SOL     OW38689   3.600   3.283  11.773  0.4159  0.0270  0.5781
 9076SOL    HW138690   3.692   3.298  11.794  0.3813 -2.1662  2.2659
 9076SOL    HW238691   3.568   3.284  11.864  0.1914  0.2976  0.4974
 9077SOL     OW38692   0.198   2.380   3.633 -0.0285  0.0503  0.5017
 9077SOL    HW138693   0.214   2.366   3.539 -0.1062  1.1068  0.3297
 9077SOL    HW238694   0.122   2.322   3.633 -0.9638  1.2617 -0.3587
 9078SOL     OW38695   1.753   0.636   2.781 -0.2012  0.0828 -0.6515
 9078SOL    HW138696   1.667   0.661   2.815  0.6457 -2.6800  3.5752
 9078SOL    HW238697   1.760   0.658   2.688 -1.7020 -1.5478 -1.1339
 9079SOL     OW38698   4.697   2.233   3.718  0.1412  0.1256  0.1463
 9079SOL    HW138699   4.633   2.176   3.675  0.9525 -0.6929  0.0423
 9079SOL    HW238700   4.718   2.186   3.799 -0.1820 -0.1280  0.0874
 9080SOL     OW38701   4.389   1.093   9.573 -0.3646  0.1946  0.3143
 9080SOL    HW138702   4.323   1.046   9.522  1.3804  0.2881 -2.0482
 9080SOL    HW238703   4.345   1.102   9.658 -0.8790 -3.5058  0.4595
 9081SOL     OW38704   3.856   3.363   0.921 -0.0743 -0.0832 -0.2443
 9081SOL    HW138705   3.873   3.457   0.911  0.7980 -0.0042  1.9551
 9081SOL    HW238706   3.764   3.360   0.894  0.3029  2.2683 -1.8378
 9082SOL     OW38707   2.305   4.437   8.727 -0.2575  0.1088  0.1091
 9082SOL    HW138708   2.319   4.404   8.638 -1.1004 -0.4126  0.1695
 9082SOL    HW238709   2.389   4.479   8.747 -1.8247  3.2665 -0.0310
 9083SOL     OW38710   3.009   4.328   5.765 -0.1762 -0.2447  0.5277
 9083SOL    HW138711   2.976   4.239   5.752 -1.1014  0.3627 -1.3537
 9083SOL    HW238712   2.948   4.372   5.706  2.7639  0.6025 -1.8727
 9084SOL     OW38713   2.966   1.281   1.211  0.1520 -0.2227 -0.0224
 9084SOL    HW138714   3.052   1.315   1.187  0.2811 -1.4299 -1.2821
 9084SOL    HW238715   3.003   1.193   1.223 -2.1941 -1.0639  0.9830
 9085SOL     OW38716   3.970   2.294   1.748  0.0966 -0.0530  0.5034
 9085SOL    HW138717   3.991   2.378   1.709  0.8809 -0.9971 -1.1011
 9085SOL    HW238718   3.931   2.247   1.675 -1.0259 -0.0888  1.1210
 9086SOL     OW38719   1.849   3.863   3.349  0.0386  0.0024 -0.4953
 9086SOL    HW138720   1.794   3.937   3.377  2.1966  1.0081  1.0741
 9086SOL    HW238721   1.865   3.825   3.436  0.7713 -0.1898 -0.7191
 9087SOL     OW38722   0.608   1.422   7.741  1.0408 -0.3935  0.3722
 9087SOL    HW138723   0.682   1.379   7.783  0.8371 -1.7027 -0.6001
 9087SOL    HW238724   0.604   1.383   7.654 -0.9087 -0.9278  0.6956
 9088SOL     OW38725   1.332   2.633  13.219 -0.5971 -0.3220  0.1256
 9088SOL    HW138726   1.376   2.691  13.157  2.0991 -3.2806 -0.7040
 9088SOL    HW238727   1.320   2.692  13.293  0.3554 -0.2716  0.2382
 9089SOL     OW38728   4.132   0.475  16.020  0.7791  0.3390  0.6088
 9089SOL    HW138729   4.162   0.564  15.999  2.1142  0.0232  1.1858
 9089SOL    HW238730   4.048   0.479  16.065 -0.6139 -2.8524 -1.7371
 9090SOL     OW38731   2.372   4.110   6.563 -0.2718 -0.3726 -0.6441
 9090SOL    HW138732   2.410   4.068   6.486  2.9536 -0.7745  1.1527
 9090SOL    HW238733   2.310   4.043   6.594  0.7894 -0.8779  0.3914
 9091SOL     OW38734   2.398   0.924   2.394 -0.9612 -0.1470  0.5529
 9091SOL    HW138735   2.441   0.887   2.317 -0.3410  0.7462  0.4697
 9091SOL    HW238736   2.309   0.928   2.360 -0.0464 -1.9908 -2.1035
 9092SOL     OW38737   2.139   1.291   8.803  0.1289  0.6369 -0.1929
 9092SOL    HW138738   2.214   1.236   8.779 -0.1550 -0.5757  1.6429
 9092SOL    HW238739   2.100   1.293   8.715 -2.1979 -0.6123  0.8072
 9093SOL     OW38740   1.587   4.133  12.008  0.2448 -0.6938 -0.1900
 9093SOL    HW138741   1.646   4.193  11.962  0.3079 -0.5048  0.1391
 9093SOL    HW238742   1.629   4.050  11.987 -1.4308 -1.3473 -0.9770
 9094SOL     OW38743   2.395   2.908  14.262  0.5626 -0.0335  0.6978
 9094SOL    HW138744   2.320   2.863  14.300  2.2528 -1.1900  2.6680
 9094SOL    HW238745   2.440   2.837  14.215  0.0029  0.3612 -0.4536
 9095SOL     OW38746   1.185   1.271   8.303 -0.2090 -0.3367  0.4250
 9095SOL    HW138747   1.218   1.181   8.305 -1.6447 -0.8091  2.4712
 9095SOL    HW238748   1.135   1.263   8.385  2.0543 -2.4665  1.6116
 9096SOL     OW38749   1.874   3.125   9.046 -0.2469  0.6087  0.1739
 9096SOL    HW138750   1.787   3.127   9.007 -0.7145  1.5583  1.2734
 9096SOL    HW238751   1.860   3.156   9.136  1.8493  1.1702  0.3180
 9097SOL     OW38752   1.896   4.015  17.632  0.3024  0.3151  0.1795
 9097SOL    HW138753   1.903   3.980   0.024  1.2563 -0.3452 -0.1613
 9097SOL    HW238754   1.825   3.961  17.597 -2.5141  4.1314  0.0321
 9098SOL     OW38755   3.411   2.732   2.136 -0.3530 -0.2042 -0.2960
 9098SOL    HW138756   3.391   2.785   2.213  0.4029  0.5860 -0.6342
 9098SOL    HW238757   3.334   2.676   2.139 -1.9491  1.9843  0.0267
 9099SOL     OW38758   2.533   0.653  16.652 -0.0420 -0.0175  0.1709
 9099SOL    HW138759   2.622   0.665  16.683  0.4607  0.7832 -1.5789
 9099SOL    HW238760   2.544   0.697  16.568  1.2258 -0.3312  0.1782
 9100SOL     OW38761   0.840   2.511   3.392 -0.6143 -0.0417 -0.2286
 9100SOL    HW138762   0.745   2.514   3.399 -0.5737  0.7630 -0.0100
 9100SOL    HW238763   0.867   2.600   3.369 -4.2773  0.9798 -0.5568
 9101SOL     OW38764   3.026   4.639   2.827  0.2668 -0.2676 -0.3573
 9101SOL    HW138765   3.071   4.555   2.830 -1.3291 -1.1078 -0.2431
 9101SOL    HW238766   2.984   4.630   2.742  0.5131  1.8255 -0.6978
 9102SOL     OW38767   1.601   2.902   3.128  0.1741 -0.2728  0.1275
 9102SOL    HW138768   1.632   2.872   3.042 -0.9861  0.5436 -0.5656
 9102SOL    HW238769   1.517   2.945   3.116  0.7427  0.2727 -1.8757
 9103SOL     OW38770   0.538   1.525   3.537  0.3270 -0.0410 -0.2338
 9103SOL    HW138771   0.568   1.437   3.514  0.0847 -0.6025  1.6252
 9103SOL    HW238772   0.489   1.507   3.617  1.0019 -3.3339 -0.5704
 9104SOL     OW38773   0.457   1.539   1.623  0.2009 -0.1127 -0.2114
 9104SOL    HW138774   0.396   1.612   1.629 -0.2030 -0.5187  0.6232
 9104SOL    HW238775   0.435   1.496   1.541 -0.0205 -0.9394  0.2794
 9105SOL     OW38776   2.364   0.455   2.984  0.6175 -0.1683  0.3153
 9105SOL    HW138777   2.397   0.530   2.934  1.7208 -1.5878 -1.0979
 9105SOL    HW238778   2.277   0.489   3.006  0.3949 -1.8903  2.1466
 9106SOL     OW38779   4.330   4.297  15.478  0.2909  0.1378  0.5354
 9106SOL    HW138780   4.259   4.233  15.478  0.4824 -0.0663  2.7034
 9106SOL    HW238781   4.277   4.371  15.508 -0.8877 -1.0901  1.4949
 9107SOL     OW38782   3.499   4.064   9.529 -0.7358  0.0330  0.0565
 9107SOL    HW138783   3.488   4.019   9.613  1.0611 -0.3500  0.0922
 9107SOL    HW238784   3.595   4.056   9.526 -0.6876  1.2347 -1.0813
 9108SOL     OW38785   1.044   2.825  13.857  0.3837  0.2837 -0.1339
 9108SOL    HW138786   1.081   2.898  13.905  2.0978 -0.7952  0.2036
 9108SOL    HW238787   0.960   2.805  13.899  0.8473 -1.4368 -0.0009
 9109SOL     OW38788   2.002   0.396   2.974  0.0588  0.2304  0.1589
 9109SOL    HW138789   1.920   0.443   2.958 -0.5801 -0.9997 -0.1219
 9109SOL    HW238790   2.054   0.427   2.900 -1.7585  0.6218 -0.9541
 9110SOL     OW38791   4.060   3.913   7.988 -0.4642 -0.0270 -0.2741
 9110SOL    HW138792   4.076   3.869   8.072 -0.9165 -1.3112 -0.8719
 9110SOL    HW238793   4.142   3.962   7.975 -1.9153  1.6493 -2.9414
 9111SOL     OW38794   1.638   2.315  16.587 -0.0179 -0.0849  0.2306
 9111SOL    HW138795   1.629   2.410  16.591  0.2837 -0.0136 -0.7624
 9111SOL    HW238796   1.584   2.279  16.657 -0.7951  0.8051  0.0776
 9112SOL     OW38797   4.658   3.958   5.421  0.2610 -0.0943 -0.3138
 9112SOL    HW138798   4.631   3.966   5.330  1.0949  0.3625 -0.5179
 9112SOL    HW238799   0.028   3.969   5.406  0.7316 -0.7896  2.0115
 9113SOL     OW38800   4.400   2.347   7.139 -0.3939  0.2822 -0.2889
 9113SOL    HW138801   4.384   2.272   7.196 -0.6330  0.5239 -0.0395
 9113SOL    HW238802   4.458   2.307   7.074 -0.6941 -0.2347 -0.2371
 9114SOL     OW38803   3.775   0.607  13.526  0.0579  0.1164 -0.3689
 9114SOL    HW138804   3.686   0.636  13.508  0.1155  0.4133 -0.1904
 9114SOL    HW238805   3.800   0.661  13.601 -0.8171  1.9118 -1.3716
 9115SOL     OW38806   3.260   3.287  10.206  0.0265 -0.3008  0.1279
 9115SOL    HW138807   3.349   3.262  10.182 -0.7633 -0.5260 -2.5512
 9115SOL    HW238808   3.229   3.209  10.253  1.1110 -0.6573  0.2434
 9116SOL     OW38809   2.150   1.120   9.118  0.0135  0.3681 -0.3520
 9116SOL    HW138810   2.126   1.063   9.045  1.2660 -1.2583  0.5086
 9116SOL    HW238811   2.225   1.168   9.083 -1.0795  3.0344  0.9922
 9117SOL     OW38812   4.299   3.533   2.070  0.1603 -0.3310  0.2101
 9117SOL    HW138813   4.289   3.449   2.025  0.6911  0.1501 -0.8253
 9117SOL    HW238814   4.390   3.533   2.100  0.1668  0.6885  0.2054
 9118SOL     OW38815   3.057   1.331   4.793 -0.0746 -0.1397  0.2451
 9118SOL    HW138816   3.129   1.294   4.844 -0.4904 -2.6680 -0.9988
 9118SOL    HW238817   2.991   1.344   4.861  0.2422 -2.4640  1.0062
 9119SOL     OW38818   3.561   1.327   2.245 -0.2318  0.0481  0.8961
 9119SOL    HW138819   3.527   1.273   2.315  1.1185 -0.3660  1.2236
 9119SOL    HW238820   3.519   1.283   2.171  0.6415  1.6023 -0.5143
 9120SOL     OW38821   1.665   0.576   6.164  0.6559  0.0896  0.2510
 9120SOL    HW138822   1.693   0.587   6.255 -0.7002  0.2480  0.6479
 9120SOL    HW238823   1.574   0.546   6.167  0.0864  2.0442  2.0100
 9121SOL     OW38824   0.970   1.328   1.700  0.1640 -0.4797 -0.6899
 9121SOL    HW138825   0.909   1.307   1.770  0.2358 -1.3215 -0.8877
 9121SOL    HW238826   0.918   1.399   1.663  1.1263  0.2907 -0.5848
 9122SOL     OW38827   2.607   3.207   0.061  0.6650 -0.3751  0.3365
 9122SOL    HW138828   2.611   3.274  17.690  1.0284 -0.2281  0.4994
 9122SOL    HW238829   2.691   3.160   0.063  0.9487  0.1168 -0.0587
 9123SOL     OW38830   0.897   1.207   6.951 -0.6333  0.0637 -0.0966
 9123SOL    HW138831   0.982   1.231   6.987 -0.9782  3.4592 -1.5679
 9123SOL    HW238832   0.903   1.246   6.864  2.7093  0.0585  0.1383
 9124SOL     OW38833   2.284   2.496   7.714  0.5124 -0.1915  0.4890
 9124SOL    HW138834   2.358   2.464   7.765  0.9605 -2.4596 -1.5653
 9124SOL    HW238835   2.262   2.416   7.667 -1.9927  0.9137 -0.2562
 9125SOL     OW38836   4.575   0.916   2.839  0.1030  0.2768  0.1861
 9125SOL    HW138837   4.514   0.851   2.874 -1.8562  3.1360  2.1243
 9125SOL    HW238838   4.532   0.993   2.878 -1.7556 -0.7344  0.1573
 9126SOL     OW38839   3.779   1.141   4.412 -0.1920 -0.3321 -0.1463
 9126SOL    HW138840   3.766   1.064   4.356 -0.4280 -1.2048  1.0981
 9126SOL    HW238841   3.869   1.161   4.439  0.0378  0.1552 -1.2775
 9127SOL     OW38842   1.662   3.468   2.088  0.3045 -0.3565  0.0628
 9127SOL    HW138843   1.623   3.550   2.057 -0.3569 -0.2809  1.1297
 9127SOL    HW238844   1.598   3.451   2.156  2.8102 -1.1820  2.2089
 9128SOL     OW38845   2.672   0.238   8.279 -0.0338 -0.0162 -0.1148
 9128SOL    HW138846   2.758   0.199   8.262  0.1547  0.3544 -0.0144
 9128SOL    HW238847   2.698   0.304   8.343 -0.5966 -0.1316  0.2347
 9129SOL     OW38848   4.210   1.198   8.312  0.2117 -0.1132  0.1292
 9129SOL    HW138849   4.294   1.212   8.355  0.4901  2.2388 -1.1401
 9129SOL    HW238850   4.162   1.279   8.332 -0.6492 -0.7744  0.7778
 9130SOL     OW38851   2.373   1.168   6.573 -0.0685  0.4768  0.0887
 9130SOL    HW138852   2.406   1.191   6.486  0.3408  2.0354  0.6620
 9130SOL    HW238853   2.388   1.245   6.627 -1.7152  0.1146  1.0485
 9131SOL     OW38854   3.423   2.379   6.430 -0.4768  0.2347 -0.1145
 9131SOL    HW138855   3.503   2.431   6.426 -1.3291  1.5539 -0.0115
 9131SOL    HW238856   3.437   2.321   6.355  0.9910  0.4384  0.0058
 9132SOL     OW38857   4.575   3.811  12.900 -0.0253 -0.8163  0.2254
 9132SOL    HW138858   4.573   3.722  12.865 -3.2540 -1.2433  1.5006
 9132SOL    HW238859   4.625   3.800  12.981  0.1877  0.6383  0.2945
 9133SOL     OW38860   0.162   3.289   6.805  0.4282  0.6890 -0.6450
 9133SOL    HW138861   0.157   3.195   6.824  0.4344  0.1442 -3.3874
 9133SOL    HW238862   0.255   3.305   6.825  0.6983 -1.1568 -0.4047
 9134SOL     OW38863   2.558   3.076   6.598  0.4135  0.0266 -0.2999
 9134SOL    HW138864   2.509   3.020   6.538 -1.5472  1.3234  0.0916
 9134SOL    HW238865   2.647   3.046   6.577  0.5070  2.2728 -3.0190
 9135SOL     OW38866   3.411   2.847   1.833  0.3813 -0.1566  0.0405
 9135SOL    HW138867   3.372   2.933   1.816 -2.5774 -1.7267 -1.2266
 9135SOL    HW238868   3.373   2.813   1.914 -2.3766  1.1272 -0.7059
 9136SOL     OW38869   1.466   4.480   9.004  0.0157  0.1738  0.1280
 9136SOL    HW138870   1.540   4.447   8.954  0.6152  1.2210  0.3348
 9136SOL    HW238871   1.446   4.569   8.975  1.2165  0.8752  1.4370
 9137SOL     OW38872   4.044   3.860   2.369 -0.1203  0.2269  0.7056
 9137SOL    HW138873   3.951   3.870   2.389  0.4071 -0.1840  3.4907
 9137SOL    HW238874   4.063   3.770   2.342  0.2003  1.1761 -2.1652
 9138SOL     OW38875   3.216   2.589   4.870 -0.2872 -0.5568 -0.4877
 9138SOL    HW138876   3.159   2.526   4.825  0.3589 -0.4283 -1.4764
 9138SOL    HW238877   3.300   2.543   4.867 -1.1891 -2.3060  1.1136
 9139SOL     OW38878   1.692   2.171  15.941 -0.5665  0.2093 -0.1305
 9139SOL    HW138879   1.607   2.187  15.899 -0.2967  1.8576 -0.0371
 9139SOL    HW238880   1.687   2.075  15.937 -1.8003  0.3138 -1.1749
 9140SOL     OW38881   4.276   4.488   9.504 -0.2093 -0.2451 -0.2005
 9140SOL    HW138882   4.292   4.413   9.561  1.0957  0.1289 -0.0786
 9140SOL    HW238883   4.354   4.483   9.449  0.9016 -0.5021  1.4165
 9141SOL     OW38884   2.327   0.733   2.572  0.9960 -0.1072 -0.0999
 9141SOL    HW138885   2.365   0.794   2.509  0.8274  1.5966  1.4432
 9141SOL    HW238886   2.332   0.646   2.534  1.0676 -0.3037  0.3665
 9142SOL     OW38887   4.477   4.565   7.072 -0.4631  0.0028  0.4646
 9142SOL    HW138888   4.440   4.574   6.984  0.8234 -1.7043 -0.2463
 9142SOL    HW238889   4.515   4.477   7.073 -1.1447 -0.2880  0.7338
 9143SOL     OW38890   2.823   3.656   4.655  0.7331 -0.1127  1.3662
 9143SOL    HW138891   2.898   3.648   4.714  0.9888 -0.8944  0.9305
 9143SOL    HW238892   2.871   3.661   4.573  0.4557  0.1756  1.2195
 9144SOL     OW38893   2.439   0.477  14.283 -0.3166 -0.0176  0.4278
 9144SOL    HW138894   2.448   0.383  14.265  0.2699  0.5175 -2.1444
 9144SOL    HW238895   2.357   0.478  14.331 -1.1395  0.4560 -0.9908
 9145SOL     OW38896   1.253   4.310   8.469  0.3364 -0.0552 -0.1751
 9145SOL    HW138897   1.161   4.316   8.497  0.3466 -0.2482 -0.0976
 9145SOL    HW238898   1.292   4.282   8.552  3.8771 -0.8832 -2.1387
 9146SOL     OW38899   3.158   4.559   2.144 -0.0273 -0.3470  0.1847
 9146SOL    HW138900   3.225   4.533   2.081 -0.8615 -0.5841 -0.6034
 9146SOL    HW238901   3.084   4.521   2.095  0.7095 -1.2040 -0.2661
 9147SOL     OW38902   3.703   0.215   8.652  0.8372 -0.3003 -0.3034
 9147SOL    HW138903   3.678   0.124   8.635 -0.1099 -0.0251 -0.4030
 9147SOL    HW238904   3.729   0.250   8.567  1.2675  0.2475  0.0496
 9148SOL     OW38905   0.099   3.726  10.766  0.2934  0.0269  0.0692
 9148SOL    HW138906   0.066   3.813  10.745  0.9015 -0.0884 -1.3166
 9148SOL    HW238907   0.027   3.690  10.819 -1.4925  1.0452 -1.6741
 9149SOL     OW38908   4.562   2.466   0.048 -0.0009  0.7624  0.3087
 9149SOL    HW138909   4.561   2.554   0.008 -0.9343 -0.1418 -1.7021
 9149SOL    HW238910   4.586   2.426  17.661 -1.3037  1.0625 -0.2229
 9150SOL     OW38911   3.317   3.893  13.791  0.0065 -0.2765 -0.0275
 9150SOL    HW138912   3.242   3.953  13.781 -0.2277 -0.1900  2.2291
 9150SOL    HW238913   3.372   3.928  13.861  2.2462 -1.1074 -1.3899
 9151SOL     OW38914   3.844   0.269  15.365  0.5138 -0.9489  0.4555
 9151SOL    HW138915   3.884   0.184  15.383  0.4623 -0.7822  1.3546
 9151SOL    HW238916   3.785   0.272  15.441  0.2158  1.4483  0.1078
 9152SOL     OW38917   1.105   0.787   4.754 -0.4621  0.2450 -0.7904
 9152SOL    HW138918   1.110   0.760   4.662 -1.0103  0.5667 -0.9169
 9152SOL    HW238919   1.080   0.706   4.799  0.1492  0.6169  0.2073
 9153SOL     OW38920   3.183   3.384   8.015 -0.3018  0.5537 -0.1357
 9153SOL    HW138921   3.164   3.335   7.935  0.4643 -2.2338  1.3774
 9153SOL    HW238922   3.096   3.414   8.039  0.4074  0.4882  2.4708
 9154SOL     OW38923   2.183   1.462   2.667  0.2283 -0.3656  0.1676
 9154SOL    HW138924   2.200   1.368   2.674  1.4949 -0.2753 -1.4534
 9154SOL    HW238925   2.269   1.501   2.686 -0.7973  2.7432 -1.4651
 9155SOL     OW38926   2.766   1.295  11.256  0.4919 -0.3140  0.1052
 9155SOL    HW138927   2.757   1.200  11.256 -0.1436 -0.2454 -0.8548
 9155SOL    HW238928   2.849   1.302  11.304  1.5104  0.6525 -1.8135
 9156SOL     OW38929   0.036   2.124   8.844  0.3511  0.4166  0.2310
 9156SOL    HW138930   0.102   2.192   8.857  0.5490  0.2102  0.2956
 9156SOL    HW238931   0.082   2.040   8.839  0.6979  0.5755  0.7809
 9157SOL     OW38932   4.590   1.726   9.094  0.1264 -0.0799 -0.7539
 9157SOL    HW138933   4.656   1.692   9.034  0.8874 -0.7999  0.4773
 9157SOL    HW238934   4.650   1.781   9.146  1.3892 -0.6461 -1.6019
 9158SOL     OW38935   0.027   0.942   6.383  0.0804 -0.1499 -0.0770
 9158SOL    HW138936   4.709   0.986   6.457 -1.3521  1.1225 -1.6182
 9158SOL    HW238937   0.019   1.006   6.311 -1.7971 -1.4086 -0.9762
 9159SOL     OW38938   2.467   0.754   4.007  0.8279  0.1188  0.2520
 9159SOL    HW138939   2.401   0.758   4.075  0.1924 -0.7172 -0.3100
 9159SOL    HW238940   2.430   0.690   3.946  0.5200  0.5983 -0.0683
 9160SOL     OW38941   1.653   3.082   2.659  0.0514  0.1641 -0.1008
 9160SOL    HW138942   1.620   3.154   2.606 -1.9684 -0.9858 -0.3929
 9160SOL    HW238943   1.674   3.017   2.592 -0.0664  0.6478 -0.6034
 9161SOL     OW38944   2.278   2.529  16.112 -0.1905 -0.0920  0.1235
 9161SOL    HW138945   2.293   2.577  16.193  1.0509 -0.0468 -0.1348
 9161SOL    HW238946   2.309   2.589  16.043 -1.3530  1.2464  0.7683
 9162SOL     OW38947   1.713   3.486   7.863  0.3350 -0.2660 -0.1102
 9162SOL    HW138948   1.726   3.521   7.951 -2.0707  1.1638 -0.3068
 9162SOL    HW238949   1.617   3.481   7.870  0.3987 -2.6595 -0.9771
 9163SOL     OW38950   2.274   3.368  13.100 -0.6087 -0.4309 -0.4066
 9163SOL    HW138951   2.274   3.456  13.063 -1.4823 -0.7336 -1.1338
 9163SOL    HW238952   2.179   3.361  13.092 -0.5450 -0.3616 -1.1948
 9164SOL     OW38953   3.962   2.269   2.584 -0.3690 -0.2811  0.0329
 9164SOL    HW138954   3.930   2.299   2.669  3.6404  2.8888  0.4235
 9164SOL    HW238955   3.995   2.181   2.601  0.3751  0.5216  2.8610
 9165SOL     OW38956   3.644   1.936   1.688  1.0402 -0.0107  0.1222
 9165SOL    HW138957   3.631   1.844   1.667 -2.8283  0.3202  1.1374
 9165SOL    HW238958   3.642   1.982   1.604 -2.6592 -1.4300 -0.5819
 9166SOL     OW38959   4.703   0.785   3.475  0.5593  0.2068  0.4065
 9166SOL    HW138960   4.625   0.743   3.511  0.8294 -2.9904 -2.7381
 9166SOL    HW238961   4.689   0.879   3.482 -0.3875  0.0935  0.0480
 9167SOL     OW38962   2.887   3.394   6.998  0.3112 -0.1056 -0.2229
 9167SOL    HW138963   2.975   3.431   6.990  1.0183 -1.4511  1.3203
 9167SOL    HW238964   2.860   3.402   6.907  1.8908 -1.1042 -0.7699
 9168SOL     OW38965   4.313   3.864  17.055 -0.1365  0.0331  0.3807
 9168SOL    HW138966   4.328   3.938  16.996 -0.8930  0.3464  0.5782
 9168SOL    HW238967   4.398   3.859  17.098 -0.0616  2.0379  0.4585
 9169SOL     OW38968   2.358   3.887   0.152 -0.4959  0.0920 -0.0693
 9169SOL    HW138969   2.270   3.878   0.189 -0.5718  0.8705 -0.0707
 9169SOL    HW238970   2.398   3.951   0.210  1.9232  0.2866 -1.9515
 9170SOL     OW38971   1.030   3.873   2.075  0.1028 -0.5951 -0.1175
 9170SOL    HW138972   1.055   3.894   1.985 -0.6470 -2.1753 -0.6938
 9170SOL    HW238973   0.975   3.795   2.071 -0.9483 -0.0755  4.2106
 9171SOL     OW38974   4.228   3.711   8.439  0.0691 -0.3767  0.3939
 9171SOL    HW138975   4.243   3.738   8.530  2.4972 -1.9072  0.4561
 9171SOL    HW238976   4.284   3.633   8.437  1.5361  0.6449  1.5978
 9172SOL     OW38977   3.184   3.774   9.341  0.1268  0.3498  0.4070
 9172SOL    HW138978   3.191   3.695   9.288  2.1829  1.4938 -1.0042
 9172SOL    HW238979   3.120   3.820   9.287 -0.1235  0.8657  1.1473
 9173SOL     OW38980   1.814   4.685   1.879  0.0160  0.0281  0.5004
 9173SOL    HW138981   1.873   4.625   1.835  0.7720  1.3009 -0.2103
 9173SOL    HW238982   1.747   4.691   1.811 -0.5830  0.4163  1.1202
 9174SOL     OW38983   3.373   2.714  14.513  0.0460  0.0262 -0.3842
 9174SOL    HW138984   3.458   2.694  14.474 -0.0624 -1.6116  0.2293
 9174SOL    HW238985   3.321   2.697  14.434  0.9550 -1.7064 -0.6035
 9175SOL     OW38986   1.184   4.575  12.448  0.2747 -0.2111  0.1824
 9175SOL    HW138987   1.232   4.494  12.429  1.0314  0.2546  0.1089
 9175SOL    HW238988   1.211   4.595  12.537  0.3576 -1.1036  0.3537
 9176SOL     OW38989   3.629   4.112   2.793 -0.3943  0.0679 -0.0945
 9176SOL    HW138990   3.574   4.124   2.716  2.3104 -1.5300 -2.3101
 9176SOL    HW238991   3.687   4.039   2.770 -0.9183 -0.5296  0.4972
 9177SOL     OW38992   0.376   3.538   9.128  0.6002 -0.0401  0.2053
 9177SOL    HW138993   0.382   3.443   9.136  2.7796 -0.0489 -1.3890
 9177SOL    HW238994   0.364   3.572   9.217 -0.1955  1.0298 -0.3140
 9178SOL     OW38995   3.604   4.229   8.461  0.6993  0.2966 -0.0660
 9178SOL    HW138996   3.686   4.200   8.420 -1.1525 -1.6965 -2.3365
 9178SOL    HW238997   3.603   4.180   8.543 -0.7905 -0.5708 -0.6245
 9179SOL     OW38998   1.203   3.397  15.328 -0.1954 -0.8739 -0.3043
 9179SOL    HW138999   1.163   3.470  15.376  1.1196  0.7987 -1.7526
 9179SOL    HW239000   1.142   3.388  15.255 -1.5163  2.0644  0.4626
 9180SOL     OW39001   1.017   4.185   0.649 -0.2263 -0.6002 -0.3297
 9180SOL    HW139002   0.973   4.110   0.688  2.2719 -2.6566 -1.4469
 9180SOL    HW239003   1.099   4.145   0.619 -0.8726 -1.4468 -0.9574
 9181SOL     OW39004   2.447   0.527  12.545 -0.1469  0.0662  0.2886
 9181SOL    HW139005   2.381   0.493  12.484  0.1047 -1.8052  1.0668
 9181SOL    HW239006   2.398   0.598  12.587  2.3787  2.0351 -0.1290
 9182SOL     OW39007   1.566   3.904   6.582 -0.7731  0.2320  0.3926
 9182SOL    HW139008   1.483   3.859   6.594 -0.6320  0.4293  2.1558
 9182SOL    HW239009   1.627   3.834   6.558  0.1578  1.9242 -2.2906
 9183SOL     OW39010   4.143   3.058   7.468  0.7813  0.1252  0.6921
 9183SOL    HW139011   4.217   2.998   7.475  1.7200  1.2282  0.1990
 9183SOL    HW239012   4.078   3.012   7.522  0.4438  1.7346  1.6643
 9184SOL     OW39013   4.643   0.655   2.519  0.0484 -0.0214  0.2160
 9184SOL    HW139014   4.595   0.608   2.587  1.0356 -0.4755  0.6022
 9184SOL    HW239015   4.600   0.740   2.530  1.2083  0.7592 -1.3636
 9185SOL     OW39016   2.067   0.028   6.565 -0.7754  0.2229 -0.3284
 9185SOL    HW139017   2.094   0.110   6.523 -1.4340  1.4098  1.5997
 9185SOL    HW239018   2.049   4.685   6.499  0.5256 -0.2493 -0.2068
 9186SOL     OW39019   2.237   0.311   8.017 -0.2012 -0.3706  0.4270
 9186SOL    HW139020   2.165   0.300   8.078 -0.4564  0.8857  0.3589
 9186SOL    HW239021   2.297   0.355   8.078  0.3454 -3.8661  2.3722
 9187SOL     OW39022   2.766   3.742   8.005  0.2422 -0.1785 -0.4756
 9187SOL    HW139023   2.689   3.742   8.062 -0.9756  1.3748 -2.1460
 9187SOL    HW239024   2.790   3.650   7.998  1.2356  0.1072 -0.7807
 9188SOL     OW39025   3.569   3.481   7.691 -0.6656 -0.3203  0.0311
 9188SOL    HW139026   3.529   3.469   7.777 -1.3323 -0.0576 -0.2393
 9188SOL    HW239027   3.510   3.538   7.642  0.3786 -1.1100 -2.1217
 9189SOL     OW39028   3.177   0.225   7.114  0.6141 -0.7418  0.0527
 9189SOL    HW139029   3.200   0.157   7.051  0.7450 -0.7658  0.1278
 9189SOL    HW239030   3.256   0.278   7.107  1.4011 -1.9467 -0.1174
 9190SOL     OW39031   2.996   0.695   6.902  0.2018 -0.2434  0.1621
 9190SOL    HW139032   2.923   0.758   6.895  1.7230  1.5121  0.0862
 9190SOL    HW239033   2.943   0.638   6.958 -0.4545  2.7459  2.6483
 9191SOL     OW39034   3.664   1.459   6.709 -0.0604 -0.3509  0.0931
 9191SOL    HW139035   3.719   1.384   6.730  3.4512  1.3446 -3.2356
 9191SOL    HW239036   3.611   1.475   6.787  1.6936  0.0019  1.2135
 9192SOL     OW39037   2.837   4.712   5.904  0.3711  0.4639  0.0608
 9192SOL    HW139038   2.760   4.656   5.913  0.5322  0.0115 -1.3698
 9192SOL    HW239039   2.818   0.063   5.961 -0.1015 -0.5605  1.2505
 9193SOL     OW39040   1.829   0.423   4.428  0.0404 -0.3332  0.3487
 9193SOL    HW139041   1.878   0.505   4.425 -0.4370 -0.0629  0.0379
 9193SOL    HW239042   1.880   0.364   4.372  2.8010  3.1297 -0.8161
 9194SOL     OW39043   2.782   0.809   5.087  0.5768  0.0902  0.6839
 9194SOL    HW139044   2.862   0.841   5.128  1.9959  0.4836 -2.3478
 9194SOL    HW239045   2.716   0.873   5.111  1.6729  1.0680  1.0537
 9195SOL     OW39046   4.572   4.502   8.804  0.2066  0.5605  0.3043
 9195SOL    HW139047   4.507   4.572   8.805  0.8651  1.1912 -0.8662
 9195SOL    HW239048   4.525   4.442   8.862  1.5699  0.5052  1.3416
 9196SOL     OW39049   2.268   3.401  16.851  0.5219 -0.3120 -0.2724
 9196SOL    HW139050   2.273   3.382  16.944  0.9061 -1.7023 -0.5767
 9196SOL    HW239051   2.173   3.407  16.840  0.4003  0.2449  1.1018
 9197SOL     OW39052   2.217   0.989   3.236 -0.4170  0.0093 -0.0829
 9197SOL    HW139053   2.266   1.070   3.220  1.2891 -1.0466 -0.1389
 9197SOL    HW239054   2.197   0.998   3.329 -0.4672 -0.7236 -0.0242
 9198SOL     OW39055   4.573   0.851   5.786 -0.4774  0.2637  0.7958
 9198SOL    HW139056   4.657   0.822   5.821 -0.5997  0.0673  0.9284
 9198SOL    HW239057   4.595   0.922   5.725 -0.7238  1.9491  2.6468
 9199SOL     OW39058   3.449   3.536   5.229  0.0753  0.3852 -0.5345
 9199SOL    HW139059   3.533   3.491   5.236 -1.3780 -2.4752 -1.3531
 9199SOL    HW239060   3.410   3.501   5.309  1.9313  1.5466  0.8567
 9200SOL     OW39061   0.197   1.156   8.752  0.1297 -0.7610  0.4370
 9200SOL    HW139062   0.257   1.220   8.714 -3.3284  0.6905 -2.5684
 9200SOL    HW239063   0.214   1.080   8.697 -1.2331 -0.5862 -0.2494
 9201SOL     OW39064   1.814   1.589   4.962  0.0131  0.3744  0.0736
 9201SOL    HW139065   1.774   1.503   4.976 -0.4991  0.6634  0.3874
 9201SOL    HW239066   1.758   1.626   4.894  1.1763  0.4059 -0.8604
 9202SOL     OW39067   3.014   1.533   3.160  0.4647 -0.1861 -0.1062
 9202SOL    HW139068   3.058   1.616   3.176  0.6155 -0.5293  1.1976
 9202SOL    HW239069   3.041   1.473   3.229 -0.8051 -0.4520  0.1695
 9203SOL     OW39070   0.318   0.352   6.366  0.1167  0.1565 -0.1992
 9203SOL    HW139071   0.225   0.373   6.360  0.2153  1.2418  1.8771
 9203SOL    HW239072   0.330   0.372   6.459 -2.2630  1.1562 -0.1048
 9204SOL     OW39073   2.670   1.859   8.672 -0.4529  0.0743  0.3954
 9204SOL    HW139074   2.635   1.850   8.584 -0.9012 -4.4144  1.0208
 9204SOL    HW239075   2.622   1.795   8.725 -3.3620 -1.5249 -4.1907
 9205SOL     OW39076   4.294   3.119   9.730 -0.5155 -0.1194  0.3057
 9205SOL    HW139077   4.328   3.203   9.698  1.0701 -0.6219  0.6586
 9205SOL    HW239078   4.223   3.148   9.788 -0.7274 -1.6024  0.7862
 9206SOL     OW39079   2.065   0.911   8.072 -0.3444 -0.0005 -0.1426
 9206SOL    HW139080   2.073   0.861   7.991  0.0516 -1.1442  0.5904
 9206SOL    HW239081   2.002   0.976   8.042 -0.4315 -0.9758 -2.0570
 9207SOL     OW39082   3.084   1.130   9.659 -0.3274 -0.2235  0.2231
 9207SOL    HW139083   3.005   1.083   9.632 -0.5382  0.3604 -0.1719
 9207SOL    HW239084   3.066   1.136   9.753 -0.5490 -0.4936  0.1975
 9208SOL     OW39085   4.582   1.783   8.288  0.0006 -0.1518 -0.7187
 9208SOL    HW139086   4.674   1.760   8.302  0.2702  2.3760  1.7343
 9208SOL    HW239087   4.547   1.759   8.374  2.0076  0.6935  0.3546
 9209SOL     OW39088   4.111   4.037  12.235  0.5022  0.4767 -0.0605
 9209SOL    HW139089   4.152   4.123  12.247  2.1105 -0.2901 -0.0438
 9209SOL    HW239090   4.021   4.064  12.219  0.0113 -1.1900 -0.1344
 9210SOL     OW39091   3.909   1.848  12.677 -0.2358 -0.0492 -0.3962
 9210SOL    HW139092   3.852   1.910  12.722 -0.1582  0.1532 -0.5759
 9210SOL    HW239093   3.944   1.800  12.752 -0.2924 -0.4622 -0.6349
 9211SOL     OW39094   3.289   0.941   3.965 -0.6203 -0.1933  0.5934
 9211SOL    HW139095   3.198   0.913   3.959 -0.2454 -0.7995 -2.1114
 9211SOL    HW239096   3.326   0.856   3.939 -1.9396  0.2509 -2.6988
 9212SOL     OW39097   3.346   1.101   5.392  0.3565 -0.1558 -0.2248
 9212SOL    HW139098   3.390   1.022   5.424 -0.1181  0.8193  2.8315
 9212SOL    HW239099   3.261   1.059   5.384  0.4155 -0.4249  0.5935
 9213SOL     OW39100   0.052   1.415   4.869  0.2082 -0.5440 -0.3864
 9213SOL    HW139101   4.688   1.380   4.883 -0.9120  1.5170 -2.2942
 9213SOL    HW239102   0.067   1.456   4.954  1.5105 -1.9204  0.0443
 9214SOL     OW39103   0.410   4.493   4.576 -0.0450 -1.1924 -0.1365
 9214SOL    HW139104   0.392   4.477   4.668 -2.2310 -0.8281 -0.4989
 9214SOL    HW239105   0.373   4.582   4.572  2.2834 -0.2129  0.4445
 9215SOL     OW39106   4.177   1.998   9.242  0.1902  0.4870  0.9639
 9215SOL    HW139107   4.139   2.054   9.309 -1.0206 -0.9334  1.4581
 9215SOL    HW239108   4.264   1.989   9.281  0.5429  2.0149  0.5405
 9216SOL     OW39109   0.063   4.064   7.353  0.1291  0.4286 -0.0119
 9216SOL    HW139110   0.017   4.029   7.277  0.6019 -1.8598  0.7558
 9216SOL    HW239111   0.005   4.024   7.418 -0.3154  1.8703  0.4923
 9217SOL     OW39112   1.963   3.073  13.541 -0.3637 -0.5229  0.0336
 9217SOL    HW139113   1.981   3.154  13.494  1.8632 -2.0833 -1.8474
 9217SOL    HW239114   1.928   3.026  13.466  0.5436 -0.5322 -0.3841
 9218SOL     OW39115   1.871   2.767   2.288 -0.0101  0.6582 -0.0402
 9218SOL    HW139116   1.793   2.756   2.234  1.0309  0.2377 -1.4637
 9218SOL    HW239117   1.858   2.859   2.311  0.5213  0.7069  0.0692
 9219SOL     OW39118   0.391   3.329   8.943  0.4507 -0.4248 -0.9229
 9219SOL    HW139119   0.403   3.268   9.016 -1.3262  0.3762  0.0354
 9219SOL    HW239120   0.318   3.284   8.900 -2.2170  1.5081  1.6249
 9220SOL     OW39121   4.419   1.019   5.961  0.6839 -0.1986 -0.1862
 9220SOL    HW139122   4.441   0.946   5.904  0.6496  0.0983 -0.5766
 9220SOL    HW239123   4.483   1.086   5.939 -0.3080  0.0170 -2.3507
 9221SOL     OW39124   3.673   3.015   6.304  0.3690 -0.2417  0.2846
 9221SOL    HW139125   3.610   3.087   6.302  0.8993  0.2267  0.2144
 9221SOL    HW239126   3.684   2.996   6.211 -1.6653  0.8089 -0.1702
 9222SOL     OW39127   2.468   4.478  11.372  0.1062 -0.5863 -0.2159
 9222SOL    HW139128   2.469   4.445  11.283  1.9901 -0.2557 -0.3085
 9222SOL    HW239129   2.417   4.558  11.368 -0.4934 -1.0456 -1.6577
 9223SOL     OW39130   2.431   2.795   3.323  0.0015 -0.1577 -0.2888
 9223SOL    HW139131   2.491   2.733   3.281 -1.1120 -0.8506 -0.8679
 9223SOL    HW239132   2.404   2.737   3.395 -4.0626  1.6686 -0.3614
 9224SOL     OW39133   0.691   4.493   4.574  0.1080  0.1778 -0.1821
 9224SOL    HW139134   0.711   4.435   4.501 -1.4438 -1.9125  1.0692
 9224SOL    HW239135   0.596   4.494   4.564 -0.2604 -0.1317  3.1887
 9225SOL     OW39136   0.652   3.480   3.040  0.1527 -0.5429 -0.0369
 9225SOL    HW139137   0.626   3.463   3.131 -1.3194  0.9009 -0.1885
 9225SOL    HW239138   0.567   3.519   3.019 -0.5990 -1.2770  1.6430
 9226SOL     OW39139   4.455   3.647   3.570  0.6291  0.0343 -0.2659
 9226SOL    HW139140   4.539   3.677   3.535 -0.1204 -1.0318 -2.9967
 9226SOL    HW239141   4.398   3.712   3.528 -0.5621 -0.3217  0.7920
 9227SOL     OW39142   4.267   0.132   2.517  0.6229 -0.3004 -0.0278
 9227SOL    HW139143   4.342   0.148   2.459  1.5692 -0.4342  1.1480
 9227SOL    HW239144   4.224   0.059   2.473  1.4866 -0.3755 -0.7471
 9228SOL     OW39145   1.073   2.545   0.470 -0.7952  0.2501 -0.2926
 9228SOL    HW139146   1.154   2.508   0.504 -0.1413  2.3335  0.3922
 9228SOL    HW239147   1.106   2.634   0.459  1.5075 -0.6737 -0.8362
 9229SOL     OW39148   3.194   3.940   7.067 -0.6882 -0.0338  0.1143
 9229SOL    HW139149   3.278   3.985   7.074 -0.4636 -0.4190 -0.1029
 9229SOL    HW239150   3.133   4.004   7.105 -0.9231  1.1691 -2.2992
 9230SOL     OW39151   1.160   2.925  10.302 -0.0286  0.2266  0.2716
 9230SOL    HW139152   1.154   2.887  10.390  1.7679 -2.0615 -0.5936
 9230SOL    HW239153   1.249   2.899  10.279  0.3621  0.1531  1.8618
 9231SOL     OW39154   3.095   1.307   7.032 -0.2809  0.0355 -0.3176
 9231SOL    HW139155   3.090   1.212   7.027  1.5427 -0.2293  2.5588
 9231SOL    HW239156   3.186   1.322   7.005 -0.7333  1.2337 -1.1993
 9232SOL     OW39157   1.409   4.342   6.436 -0.0606  0.3513  0.4330
 9232SOL    HW139158   1.426   4.248   6.445  0.1598  0.1986 -1.6414
 9232SOL    HW239159   1.491   4.376   6.401  0.4497 -0.3196  0.9684
 9233SOL     OW39160   1.727   2.224   2.568  0.0881  0.5217 -0.1375
 9233SOL    HW139161   1.672   2.158   2.608  0.6951 -1.2271 -2.1793
 9233SOL    HW239162   1.800   2.166   2.548 -1.5049 -1.8464  0.9592
 9234SOL     OW39163   0.262   0.822   4.288 -0.1148  0.1234 -0.1403
 9234SOL    HW139164   0.228   0.871   4.363  0.2801  1.2782 -0.7095
 9234SOL    HW239165   0.176   0.811   4.248  0.2574  0.7547 -1.1114
 9235SOL     OW39166   1.870   0.310   6.660  0.4178  0.1507 -0.3127
 9235SOL    HW139167   1.883   0.402   6.685 -2.0261  0.3201  0.3927
 9235SOL    HW239168   1.883   0.314   6.565  2.8985 -0.3976  0.0237
 9236SOL     OW39169   3.454   1.015  15.930 -0.0750 -0.5819  0.1134
 9236SOL    HW139170   3.363   0.985  15.936 -0.4797  0.2630 -1.6223
 9236SOL    HW239171   3.492   0.951  15.869  0.7078 -1.8097  1.8943
 9237SOL     OW39172   4.586   1.155   4.714  0.1274  0.2533  0.1531
 9237SOL    HW139173   4.497   1.173   4.682 -0.7146 -0.7844  1.9001
 9237SOL    HW239174   4.592   1.062   4.695 -3.7239 -0.4713  2.4029
 9238SOL     OW39175   2.162   2.946   2.018 -0.1383 -0.3685  0.1078
 9238SOL    HW139176   2.109   2.888   1.963 -0.2080 -1.3364  1.1758
 9238SOL    HW239177   2.155   3.030   1.974  2.2728 -0.7982 -1.0581
 9239SOL     OW39178   3.871   1.982  14.886  0.0302  0.0130 -0.0544
 9239SOL    HW139179   3.792   1.985  14.940 -1.1046 -1.5903 -1.5814
 9239SOL    HW239180   3.897   2.073  14.875 -0.6165  0.2925  0.6993
 9240SOL     OW39181   0.993   3.788   4.887 -0.0851 -0.2697  0.0630
 9240SOL    HW139182   1.073   3.830   4.857  0.0526  0.6151  1.6604
 9240SOL    HW239183   0.936   3.863   4.903  0.2127  0.2655 -1.4153
 9241SOL     OW39184   2.994   0.440  17.573 -0.6478  0.6394 -0.2411
 9241SOL    HW139185   3.010   0.528  17.538 -0.9847 -0.0871 -2.1885
 9241SOL    HW239186   2.902   0.437  17.598 -0.1287  1.0109  1.7519
 9242SOL     OW39187   1.218   0.932   2.427  0.0636 -0.3169  0.0904
 9242SOL    HW139188   1.289   0.899   2.373  0.1689 -1.3140  0.8297
 9242SOL    HW239189   1.170   0.850   2.441 -0.0475 -0.2199  0.2848
 9243SOL     OW39190   3.165   1.905  15.523 -1.0395  0.4223  0.0897
 9243SOL    HW139191   3.202   1.872  15.441  0.2359  2.1156 -0.0004
 9243SOL    HW239192   3.111   1.976  15.489  0.9047  2.2276  0.7491
 9244SOL     OW39193   1.206   1.853  16.819 -0.4806  0.2735 -0.0464
 9244SOL    HW139194   1.299   1.855  16.843 -0.4553 -0.3736 -0.0681
 9244SOL    HW239195   1.198   1.785  16.751  1.6005  1.3512 -1.3765
 9245SOL     OW39196   2.385   4.210   7.035  0.5984 -0.3613 -0.1033
 9245SOL    HW139197   2.355   4.135   6.984  0.5220 -2.5191  3.1274
 9245SOL    HW239198   2.461   4.234   6.982  2.0932 -1.0229  1.7518
 9246SOL     OW39199   3.970   1.029  13.622  0.2311  0.1078  0.4015
 9246SOL    HW139200   3.968   1.107  13.677 -3.0270 -1.3834  2.3584
 9246SOL    HW239201   3.933   1.053  13.537  0.7337  1.4172  0.5521
 9247SOL     OW39202   2.862   2.307   6.037  0.6754 -0.2588  0.1548
 9247SOL    HW139203   2.811   2.341   6.110  0.8136  0.5346 -0.1228
 9247SOL    HW239204   2.846   2.214   6.052  0.0325 -0.0499  0.7638
 9248SOL     OW39205   2.079   4.118   8.057 -0.6833 -0.6783  0.3359
 9248SOL    HW139206   2.086   4.145   8.149  1.5357  0.1796 -0.0860
 9248SOL    HW239207   2.122   4.032   8.059  0.4637 -0.1092  0.0812
 9249SOL     OW39208   0.705   1.256   7.491  0.9726  0.1175  0.1032
 9249SOL    HW139209   0.736   1.201   7.563  0.7042 -0.6743 -0.3878
 9249SOL    HW239210   0.667   1.194   7.429 -0.1991 -0.9281  1.8759
 9250SOL     OW39211   2.654   2.976  14.377  0.4631 -0.3494 -0.1246
 9250SOL    HW139212   2.573   2.937  14.344 -1.3134  3.1425  0.0031
 9250SOL    HW239213   2.636   3.070  14.365  1.0403  0.0284  1.9587
 9251SOL     OW39214   3.826   1.893   2.730 -0.3392  0.0229  0.4976
 9251SOL    HW139215   3.777   1.927   2.804 -1.9875 -1.6302  0.1464
 9251SOL    HW239216   3.846   1.806   2.764  0.9276 -0.0160 -0.3228
 9252SOL     OW39217   2.968   2.582  12.058 -0.3265 -0.0845  0.0367
 9252SOL    HW139218   2.901   2.584  11.989 -1.1321 -0.2211  0.8178
 9252SOL    HW239219   3.040   2.551  12.003  0.1903  3.4224 -1.2419
 9253SOL     OW39220   4.404   4.016  11.532 -0.2233  0.0130  0.2178
 9253SOL    HW139221   4.485   3.977  11.563  0.9669  1.5319 -1.0221
 9253SOL    HW239222   4.431   4.054  11.449 -2.9639 -1.7015 -1.4781
 9254SOL     OW39223   3.146   2.691   5.085 -0.1222  0.2487 -0.2916
 9254SOL    HW139224   3.170   2.777   5.052  0.9948  0.6841  1.7084
 9254SOL    HW239225   3.163   2.651   4.999 -0.1380 -0.5578  0.0774
 9255SOL     OW39226   2.516   0.426   6.961  0.1778 -0.4557  0.1609
 9255SOL    HW139227   2.526   0.467   6.875 -0.0256 -0.2358  0.2432
 9255SOL    HW239228   2.514   0.335   6.931 -0.5202 -0.7180  1.0309
 9256SOL     OW39229   0.545   3.492   5.941 -0.0858  0.0005 -0.0107
 9256SOL    HW139230   0.554   3.562   6.006 -2.6330  0.4586 -0.1796
 9256SOL    HW239231   0.581   3.526   5.859 -1.9811 -1.5594 -1.4783
 9257SOL     OW39232   3.797   2.623   5.587  0.2868 -0.6810 -0.0150
 9257SOL    HW139233   3.751   2.574   5.519 -1.6880 -0.8250  1.4198
 9257SOL    HW239234   3.743   2.608   5.665 -0.2557  1.3739  0.0044
 9258SOL     OW39235   3.005   3.167   5.652 -0.3013  0.2079  0.0274
 9258SOL    HW139236   2.996   3.138   5.743  1.9861  0.6956  0.4047
 9258SOL    HW239237   2.968   3.255   5.655 -1.3496 -0.1828 -1.5215
 9259SOL     OW39238   1.442   0.325  17.391  0.1795  0.6197 -0.4620
 9259SOL    HW139239   1.499   0.331  17.467  0.9721 -3.5918 -0.7142
 9259SOL    HW239240   1.394   0.408  17.386  0.1253  0.6824  1.1424
 9260SOL     OW39241   2.306   3.934   5.651  0.0322 -0.2589  0.0434
 9260SOL    HW139242   2.305   3.844   5.618  1.8029  0.0132 -0.7655
 9260SOL    HW239243   2.240   3.981   5.599 -0.6307  0.2592  1.3748
 9261SOL     OW39244   1.555   1.306   8.654 -0.2792  0.5627  0.5076
 9261SOL    HW139245   1.576   1.249   8.728  3.9993  0.8923 -0.4807
 9261SOL    HW239246   1.462   1.323   8.671  0.1177  1.1735  2.0377
 9262SOL     OW39247   4.093   2.674   5.695  0.7208  0.3714  0.1547
 9262SOL    HW139248   4.179   2.677   5.652  1.1319 -1.9193  0.7906
 9262SOL    HW239249   4.077   2.765   5.720  0.9452  0.7356 -0.9973
 9263SOL     OW39250   1.747   4.306   1.182  0.0191 -0.6052  0.4506
 9263SOL    HW139251   1.684   4.240   1.152 -0.4805 -0.1423  0.4661
 9263SOL    HW239252   1.779   4.250   1.252  2.3652  0.6115  0.3457
 9264SOL     OW39253   0.501   0.185   3.998 -0.1796 -0.1094 -0.0899
 9264SOL    HW139254   0.457   0.227   4.072 -0.4188  1.0730 -0.9082
 9264SOL    HW239255   0.555   0.120   4.043 -0.8422  0.0784  0.9663
 9265SOL     OW39256   4.288   3.705   5.993  0.2861  0.6337  0.1251
 9265SOL    HW139257   4.210   3.757   5.971 -0.2848 -0.6346 -0.8380
 9265SOL    HW239258   4.273   3.636   5.928  1.0626 -0.2653  0.9162
 9266SOL     OW39259   0.823   1.512   0.068 -0.1814  0.0487 -0.3224
 9266SOL    HW139260   0.833   1.583   0.130 -1.3630 -1.2214  1.3178
 9266SOL    HW239261   0.840   1.544  17.676 -1.4169 -0.3920 -0.7209
 9267SOL     OW39262   3.363   1.711   4.728 -0.9011 -0.1221 -0.7840
 9267SOL    HW139263   3.269   1.690   4.731 -1.1559  0.9492 -1.4270
 9267SOL    HW239264   3.355   1.781   4.792 -0.3166 -0.6603 -0.1228
 9268SOL     OW39265   4.283   2.497  13.273  0.4593  0.4258 -0.5745
 9268SOL    HW139266   4.377   2.489  13.288  0.0204 -0.9459  1.4610
 9268SOL    HW239267   4.273   2.560  13.201  0.3009  1.0787  0.0105
 9269SOL     OW39268   3.028   2.558   0.753  0.2822  0.1252 -0.1475
 9269SOL    HW139269   3.014   2.516   0.838  2.7861 -0.8128 -0.2143
 9269SOL    HW239270   2.938   2.551   0.720 -0.3898 -0.3265  1.7462
 9270SOL     OW39271   3.936   2.386   4.545 -0.4064 -0.0636  0.7699
 9270SOL    HW139272   3.864   2.400   4.482 -0.9652 -2.5380  0.8384
 9270SOL    HW239273   4.002   2.385   4.476  1.2342 -2.1302  2.3816
 9271SOL     OW39274   3.548   0.303   9.789  0.0076  0.2840  0.0926
 9271SOL    HW139275   3.587   0.315   9.702  0.6647  1.6280  0.5754
 9271SOL    HW239276   3.573   0.210   9.793 -0.3130  0.2031  0.1700
 9272SOL     OW39277   0.247   0.240   1.006 -0.1682  0.2057 -0.4434
 9272SOL    HW139278   0.280   0.164   0.958 -1.0461 -0.5377  0.1315
 9272SOL    HW239279   0.157   0.212   0.994 -1.2140  2.2859  2.5441
 9273SOL     OW39280   3.260   4.151   2.101  0.4054 -0.3120 -0.1247
 9273SOL    HW139281   3.182   4.202   2.081  0.5368 -0.0316  0.0765
 9273SOL    HW239282   3.313   4.175   2.025  0.3118 -2.3859 -0.8380
 9274SOL     OW39283   2.590   4.607   7.261  0.5199  0.2785  0.4202
 9274SOL    HW139284   2.561   4.670   7.326  2.2504  0.0466  1.4202
 9274SOL    HW239285   2.681   4.634   7.248  0.3567  0.3093 -0.6605
 9275SOL     OW39286   3.378   4.227   0.277  0.0971 -0.1563  0.4194
 9275SOL    HW139287   3.302   4.173   0.297 -1.1374  1.5061  0.2511
 9275SOL    HW239288   3.350   4.297   0.217  1.5853  0.2811  0.2338
 9276SOL     OW39289   4.592   2.425   2.854  0.4233 -0.2968  0.2292
 9276SOL    HW139290   4.657   2.385   2.911 -0.3304  0.9695  1.9688
 9276SOL    HW239291   4.511   2.388   2.890 -0.1173 -0.2719 -0.9533
 9277SOL     OW39292   4.008   4.166  15.638 -0.2995 -0.6829  0.0530
 9277SOL    HW139293   3.962   4.118  15.707  0.0320 -0.8983  0.1214
 9277SOL    HW239294   4.058   4.230  15.689  2.0747 -2.3576 -0.2136
 9278SOL     OW39295   3.491   4.344   8.066 -0.6477 -0.0403 -0.2820
 9278SOL    HW139296   3.521   4.271   8.013 -0.2715  2.0412 -2.9480
 9278SOL    HW239297   3.451   4.406   8.005  0.8604  1.3096  0.1023
 9279SOL     OW39298   1.762   4.174   0.357  0.9901  0.0974 -1.0041
 9279SOL    HW139299   1.677   4.137   0.381  0.4845  1.3511 -0.8872
 9279SOL    HW239300   1.790   4.112   0.289  4.2427  1.5136 -0.9176
 9280SOL     OW39301   2.823   0.015   7.276  0.4426  0.6412  0.1627
 9280SOL    HW139302   2.883   4.667   7.297 -1.6189 -0.9900  0.5562
 9280SOL    HW239303   2.864   0.036   7.192  0.6267 -1.0058 -0.1671
 9281SOL     OW39304   3.261   4.151  11.428  0.3353 -0.1958  0.2534
 9281SOL    HW139305   3.214   4.139  11.346  1.8619 -1.4032 -0.4439
 9281SOL    HW239306   3.274   4.057  11.442  0.9655 -0.3068 -1.1106
 9282SOL     OW39307   4.291   1.845   1.969  0.2078  0.8015  0.2015
 9282SOL    HW139308   4.230   1.807   2.032 -1.3273  0.1873 -1.6332
 9282SOL    HW239309   4.236   1.908   1.922 -0.5275 -1.1744 -1.6124
 9283SOL     OW39310   3.997   3.238   3.305  0.0748 -0.1949 -0.6477
 9283SOL    HW139311   4.092   3.228   3.314  0.2033  0.9922 -0.6031
 9283SOL    HW239312   3.984   3.182   3.381  2.1551 -0.5360 -0.5367
 9284SOL     OW39313   1.966   1.441   1.759 -0.0970  0.0610 -0.8935
 9284SOL    HW139314   1.900   1.372   1.748 -0.6880  0.6984 -1.3671
 9284SOL    HW239315   2.041   1.402   1.803 -0.3165 -1.4745 -1.8469
 9285SOL     OW39316   1.002   2.638  14.479  0.5881  0.0394 -0.2010
 9285SOL    HW139317   1.038   2.551  14.493  0.5186  0.0342 -0.0569
 9285SOL    HW239318   1.049   2.684  14.549  0.3417  0.6006 -0.4025
 9286SOL     OW39319   3.334   1.112  12.128 -0.3653 -0.0050  0.3129
 9286SOL    HW139320   3.269   1.142  12.065 -1.0104  0.4806  1.2223
 9286SOL    HW239321   3.408   1.093  12.069 -0.4304 -2.0619  0.9034
 9287SOL     OW39322   4.508   3.182   4.414 -0.1253  0.3492 -0.3473
 9287SOL    HW139323   4.559   3.210   4.337 -0.1708  0.8539 -0.1915
 9287SOL    HW239324   4.575   3.190   4.482 -1.1019 -3.3546  1.0686
 9288SOL     OW39325   3.187   0.271   6.005  0.1628 -0.2273 -0.5378
 9288SOL    HW139326   3.146   0.185   6.000  0.8436 -0.7754  3.1734
 9288SOL    HW239327   3.166   0.311   6.090 -2.8584  0.3147 -1.5488
 9289SOL     OW39328   0.209   2.016   7.486 -0.7388  0.5223 -0.1615
 9289SOL    HW139329   0.194   2.052   7.399  1.6435  1.2460 -0.2827
 9289SOL    HW239330   0.271   2.081   7.519  1.3342 -0.9952 -1.0767
 9290SOL     OW39331   2.607   2.503   9.554  0.0370 -0.1187  0.2093
 9290SOL    HW139332   2.623   2.413   9.522 -0.2041 -0.3496  0.7510
 9290SOL    HW239333   2.698   2.523   9.577  0.8161 -1.5659 -1.5413
 9291SOL     OW39334   1.902   0.914  14.438  0.0253 -0.4323  0.2566
 9291SOL    HW139335   1.977   0.863  14.468 -0.0365 -2.0075 -2.2895
 9291SOL    HW239336   1.829   0.871  14.483 -1.6162  0.1064 -1.8948
 9292SOL     OW39337   2.392   3.749   8.386 -0.1383  0.0794 -0.3761
 9292SOL    HW139338   2.409   3.684   8.453 -1.1835  1.3564  1.1200
 9292SOL    HW239339   2.297   3.752   8.394 -0.2284 -1.0062 -1.0480
 9293SOL     OW39340   0.364   1.688   8.236  0.0363 -0.0355 -0.1340
 9293SOL    HW139341   0.419   1.722   8.306 -1.6222  1.0696  0.6495
 9293SOL    HW239342   0.371   1.753   8.165  0.5554  0.9274  0.8091
 9294SOL     OW39343   4.676   4.436   5.231  0.0058  0.2783 -0.1578
 9294SOL    HW139344   4.668   4.498   5.158  3.0682 -0.1942 -0.9157
 9294SOL    HW239345   4.587   4.401   5.227  0.8240 -1.8207  0.3720
 9295SOL     OW39346   0.859   1.702   4.559 -0.0296  0.1510 -0.3201
 9295SOL    HW139347   0.908   1.626   4.527  1.5032  0.5626  1.0774
 9295SOL    HW239348   0.914   1.768   4.517  1.5853 -1.6356 -1.0348
 9296SOL     OW39349   3.067   3.256   6.591 -0.0331 -0.2884  0.4491
 9296SOL    HW139350   2.979   3.253   6.629 -0.2370 -0.4755 -0.0389
 9296SOL    HW239351   3.110   3.326   6.640 -0.1850 -1.6796  2.6142
 9297SOL     OW39352   3.418   3.810   0.408  0.1399 -0.2544  0.2187
 9297SOL    HW139353   3.501   3.772   0.438  0.2128 -1.0902 -1.0358
 9297SOL    HW239354   3.451   3.892   0.372  0.9119 -0.5654  0.2039
 9298SOL     OW39355   2.198   2.689   8.902 -0.4739  0.1784  0.1875
 9298SOL    HW139356   2.294   2.681   8.903 -0.4157  0.9376  0.8852
 9298SOL    HW239357   2.178   2.602   8.868 -0.0878 -0.3608  1.3445
 9299SOL     OW39358   1.884   2.324  15.548  0.6332 -0.2542 -0.1057
 9299SOL    HW139359   1.836   2.242  15.554 -0.7085  0.5490  0.0737
 9299SOL    HW239360   1.966   2.298  15.590  0.9211 -0.0320 -0.5263
 9300SOL     OW39361   3.038   2.774   4.020 -0.1201  0.3537  0.1826
 9300SOL    HW139362   2.968   2.839   4.021  0.1729  0.6868 -0.7324
 9300SOL    HW239363   3.059   2.785   4.113  1.8828  0.6069 -0.2993
 9301SOL     OW39364   0.297   1.502   3.272  0.2844  0.1001 -1.0948
 9301SOL    HW139365   0.217   1.547   3.244 -2.3137 -1.9825  2.8530
 9301SOL    HW239366   0.374   1.552   3.247  0.8213  0.5432  1.4270
 9302SOL     OW39367   0.897   1.411   2.396 -0.0640 -0.2878  0.4744
 9302SOL    HW139368   0.979   1.460   2.390  0.0954 -0.5588  0.4376
 9302SOL    HW239369   0.944   1.339   2.440  1.3954  0.2135 -0.2597
 9303SOL     OW39370   4.356   0.717   8.114  0.1090 -0.2283  0.3167
 9303SOL    HW139371   4.297   0.692   8.184 -0.1705  1.1697  0.5741
 9303SOL    HW239372   4.289   0.730   8.047  0.9889  0.0202 -0.5093
 9304SOL     OW39373   2.118   3.436   8.175 -0.2134  0.1253  0.2710
 9304SOL    HW139374   2.097   3.529   8.175  0.2009  0.2198  0.4472
 9304SOL    HW239375   2.067   3.412   8.252 -0.5916  1.2878  0.3830
 9305SOL     OW39376   3.023   2.801  15.844 -0.1495  0.4307  0.5906
 9305SOL    HW139377   3.111   2.762  15.842 -0.9630 -1.3352 -0.9039
 9305SOL    HW239378   2.981   2.747  15.911 -0.0918 -0.5637 -0.1750
 9306SOL     OW39379   0.275   0.303   6.827 -0.1478  0.0030  0.1159
 9306SOL    HW139380   0.359   0.300   6.781 -1.0957 -1.0115 -1.5607
 9306SOL    HW239381   0.222   0.289   6.748 -0.5336  1.0423  0.1843
 9307SOL     OW39382   3.679   1.286   4.993 -0.2816 -0.3583  0.6500
 9307SOL    HW139383   3.732   1.223   4.944  0.1944  0.9622 -0.5314
 9307SOL    HW239384   3.718   1.366   4.958 -2.6124  0.6322  0.3182
 9308SOL     OW39385   1.537   0.891   9.659 -0.6330 -0.1284  0.4298
 9308SOL    HW139386   1.630   0.873   9.670 -0.6277 -1.3475 -1.5379
 9308SOL    HW239387   1.515   0.956   9.726 -1.4644  2.0390 -1.9424
 9309SOL     OW39388   2.178   3.025   2.265  0.4085 -0.1372  0.4380
 9309SOL    HW139389   2.248   2.966   2.295  0.2047 -0.0160  1.1386
 9309SOL    HW239390   2.151   2.980   2.185  1.4466 -0.3075  0.1847
 9310SOL     OW39391   1.632   4.215   1.533 -0.3957 -0.1203  0.1039
 9310SOL    HW139392   1.634   4.146   1.599  0.2023 -2.1103 -2.0162
 9310SOL    HW239393   1.687   4.178   1.465 -1.1315 -2.4688  0.8003
 9311SOL     OW39394   3.360   4.309  14.193  0.0846 -0.2563 -0.2488
 9311SOL    HW139395   3.383   4.254  14.268  0.4893  0.9275  0.5059
 9311SOL    HW239396   3.446   4.320  14.153  0.3542 -0.6275  0.2227
 9312SOL     OW39397   1.661   4.596   5.945  0.1846 -0.0604 -0.1075
 9312SOL    HW139398   1.630   4.672   5.995  0.4922  0.9118 -1.4039
 9312SOL    HW239399   1.737   4.637   5.902 -0.6571 -0.3222 -1.8278
 9313SOL     OW39400   0.620   0.049   0.850  0.0538  0.5066  0.6694
 9313SOL    HW139401   0.622   0.132   0.803  2.3659  1.1078  1.8069
 9313SOL    HW239402   0.703   0.007   0.826  0.4033  1.0468  0.9428
 9314SOL     OW39403   0.210   3.048   3.741  0.2408 -0.1685  0.6612
 9314SOL    HW139404   0.283   3.074   3.797 -1.7344  0.6958  2.8357
 9314SOL    HW239405   0.192   2.960   3.774  0.9899 -0.3914  0.4679
 9315SOL     OW39406   1.960   2.470   7.346 -0.9291  0.2311 -0.4292
 9315SOL    HW139407   1.920   2.434   7.425  1.1084 -0.5946  0.2154
 9315SOL    HW239408   1.967   2.388   7.298 -0.4438  0.2951 -0.4674
 9316SOL     OW39409   3.005   0.585   1.986  1.1026  0.1589  0.2124
 9316SOL    HW139410   3.059   0.625   2.054  0.2680  2.1940 -0.3223
 9316SOL    HW239411   3.076   0.531   1.950  1.2160  0.4189  0.0489
 9317SOL     OW39412   1.179   4.070   5.871 -0.3475 -0.2176 -0.0900
 9317SOL    HW139413   1.211   3.997   5.818 -0.0540  0.0704 -0.3138
 9317SOL    HW239414   1.156   4.136   5.805 -1.8192 -1.9474 -1.2972
 9318SOL     OW39415   0.390   3.051  13.057 -0.4102 -0.3704 -0.1068
 9318SOL    HW139416   0.356   3.137  13.036 -0.9169 -0.6421 -0.3972
 9318SOL    HW239417   0.437   3.068  13.139  1.0148  1.1746 -1.2577
 9319SOL     OW39418   0.064   2.323   9.792 -0.6176 -0.5429 -0.0532
 9319SOL    HW139419   0.051   2.416   9.814 -0.0940 -0.5094  0.1075
 9319SOL    HW239420   4.711   2.278   9.827 -0.0362 -1.3851  0.1442
 9320SOL     OW39421   3.449   3.031  11.199 -0.4523 -0.3121  0.4235
 9320SOL    HW139422   3.403   2.955  11.236  0.4459 -0.1386  1.8863
 9320SOL    HW239423   3.511   3.062  11.265 -0.2224  2.2403 -0.9926
 9321SOL     OW39424   3.618   3.691   0.521 -0.6259 -0.7349  0.6232
 9321SOL    HW139425   3.681   3.630   0.559 -0.8160 -0.0885  1.9811
 9321SOL    HW239426   3.673   3.767   0.505 -1.5119 -0.3381 -0.5633
 9322SOL     OW39427   0.537   3.241   5.625 -0.1611  0.3884 -0.1111
 9322SOL    HW139428   0.530   3.244   5.530 -1.5114 -2.4855 -0.1028
 9322SOL    HW239429   0.615   3.295   5.640 -1.4681  1.2620  3.5450
 9323SOL     OW39430   0.548   2.698   6.452  0.1192  0.2104  0.1334
 9323SOL    HW139431   0.480   2.700   6.520  1.7801 -0.9002  1.8204
 9323SOL    HW239432   0.501   2.756   6.392  1.9795  1.1532 -0.4213
 9324SOL     OW39433   2.223   0.523   8.420 -0.2333 -0.2491  0.2275
 9324SOL    HW139434   2.168   0.522   8.342 -0.6679  2.3519  0.4978
 9324SOL    HW239435   2.153   0.516   8.485 -2.0364 -0.7118 -1.7389
 9325SOL     OW39436   3.847   3.052   7.261 -0.0260 -0.3469 -0.3534
 9325SOL    HW139437   3.927   3.062   7.209  0.7285  1.1562  1.0863
 9325SOL    HW239438   3.891   3.069   7.345  2.3997  1.5637 -2.0069
 9326SOL     OW39439   4.697   4.305   8.148  0.2827 -0.6725  0.6209
 9326SOL    HW139440   4.626   4.328   8.208 -0.1654 -0.0919 -0.1276
 9326SOL    HW239441   0.051   4.327   8.199 -0.2363  1.7455  0.3826
 9327SOL     OW39442   1.546   3.269   2.936  0.3431 -0.2968  0.2649
 9327SOL    HW139443   1.615   3.274   3.002 -0.3885 -1.5874  1.1398
 9327SOL    HW239444   1.598   3.271   2.856 -1.7195 -1.7087 -1.1280
 9328SOL     OW39445   3.760   0.544   3.746  0.4582 -0.3145 -0.1835
 9328SOL    HW139446   3.760   0.481   3.673  1.3957  3.1853 -3.1900
 9328SOL    HW239447   3.775   0.626   3.700  1.5674  0.6244  1.8626
 9329SOL     OW39448   0.621   0.046   7.382 -0.1457 -0.2521 -0.4246
 9329SOL    HW139449   0.533   0.033   7.417 -0.0879 -0.2927 -0.2939
 9329SOL    HW239450   0.618   0.140   7.367  1.8358  0.0549  1.1651
 9330SOL     OW39451   2.510   3.972   0.380 -0.2247  0.1667  0.0347
 9330SOL    HW139452   2.504   3.957   0.475  0.6051  2.1127  0.3958
 9330SOL    HW239453   2.560   4.053   0.378 -0.0367  0.0448 -0.1681
 9331SOL     OW39454   4.013   0.259   5.676  0.2820  0.2301  0.1557
 9331SOL    HW139455   4.069   0.294   5.745 -0.7023 -1.3881  1.7704
 9331SOL    HW239456   4.016   0.330   5.612 -0.8992  1.3031  1.3164
 9332SOL     OW39457   2.552   0.300  16.896 -0.2949  0.1299  0.0964
 9332SOL    HW139458   2.489   0.314  16.967 -2.7002 -1.4705 -1.7337
 9332SOL    HW239459   2.636   0.297  16.942 -0.3310 -3.0444 -0.0062
 9333SOL     OW39460   4.498   0.267   4.326  0.0924 -0.2345  0.1451
 9333SOL    HW139461   4.417   0.238   4.285  1.3636 -2.7129 -0.5799
 9333SOL    HW239462   4.514   0.354   4.288 -0.2781 -0.5093 -0.6442
 9334SOL     OW39463   4.602   3.520   6.881  0.2238 -0.0291  0.4247
 9334SOL    HW139464   4.618   3.447   6.941 -1.3155  0.6728  1.7008
 9334SOL    HW239465   4.684   3.569   6.875  0.8483 -0.7858  2.6586
 9335SOL     OW39466   3.242   0.988   5.077 -0.1686  0.0500 -0.0319
 9335SOL    HW139467   3.332   1.001   5.107  0.1514 -1.3650 -0.3644
 9335SOL    HW239468   3.251   0.983   4.981 -0.6800 -0.3689 -0.0579
 9336SOL     OW39469   2.368   0.130   6.070  0.2193  0.1301 -0.2590
 9336SOL    HW139470   2.318   0.209   6.089 -0.5879  0.3149 -3.1550
 9336SOL    HW239471   2.378   0.128   5.974  3.2114 -0.6178  0.0521
 9337SOL     OW39472   0.763   4.005  17.139  0.0867  0.1951  0.0766
 9337SOL    HW139473   0.801   4.079  17.092  0.2720 -0.4370 -0.7724
 9337SOL    HW239474   0.680   4.006  17.092  0.4012  1.4538 -0.4579
 9338SOL     OW39475   1.518   2.814   3.490  0.1697 -0.2975 -0.3174
 9338SOL    HW139476   1.502   2.894   3.440  1.3324  0.8502  1.1476
 9338SOL    HW239477   1.564   2.849   3.566 -1.3525  0.5255  0.2199
 9339SOL     OW39478   1.931   0.078   0.508  0.0731  0.7179  0.3061
 9339SOL    HW139479   1.910   0.170   0.492 -1.2867  0.5161  0.9334
 9339SOL    HW239480   1.938   0.036   0.422 -3.0095  0.2999  0.2407
 9340SOL     OW39481   3.976   0.702   3.919 -0.4357  0.6973 -0.2391
 9340SOL    HW139482   4.056   0.667   3.956 -0.1701  0.1774 -1.3015
 9340SOL    HW239483   3.947   0.630   3.862 -0.1420 -2.0519  3.1003
 9341SOL     OW39484   2.047   4.507   2.259 -0.1142 -0.1827  0.5748
 9341SOL    HW139485   2.061   4.571   2.328  0.2606 -0.3503  0.6544
 9341SOL    HW239486   1.969   4.534   2.211 -0.0326 -0.9180  0.0264
 9342SOL     OW39487   3.692   3.903  11.774  0.5985  0.5042 -0.1170
 9342SOL    HW139488   3.654   3.947  11.698 -1.4917 -0.7630  0.2035
 9342SOL    HW239489   3.686   3.977  11.834  1.1924  0.7854 -0.4005
 9343SOL     OW39490   0.892   3.385  17.593  0.2650  0.2072 -0.0495
 9343SOL    HW139491   0.900   3.472  17.555  0.0821  1.0541  1.8386
 9343SOL    HW239492   0.845   3.343  17.522  0.7419  0.4707 -0.5155
 9344SOL     OW39493   3.096   0.520  13.308 -0.3286  0.9572  0.1690
 9344SOL    HW139494   3.070   0.549  13.220  0.2630 -0.1786 -0.3751
 9344SOL    HW239495   3.105   0.603  13.355 -0.1744  2.0845 -1.8390
 9345SOL     OW39496   3.072   3.077  12.966 -0.3634 -0.6454  0.3840
 9345SOL    HW139497   3.029   3.117  12.891  0.0751  1.0428  1.0312
 9345SOL    HW239498   3.130   3.149  12.992 -0.2795 -1.1558  1.6096
 9346SOL     OW39499   4.245   2.032   1.666  0.5378  0.0003 -0.0437
 9346SOL    HW139500   4.209   2.067   1.748  0.7975 -0.6717  0.3617
 9346SOL    HW239501   4.169   2.000   1.617  0.5371 -1.1441  0.7010
 9347SOL     OW39502   0.225   2.075  13.739  0.2185  0.2496 -0.4974
 9347SOL    HW139503   0.230   2.170  13.753 -0.4807  0.5946 -2.5733
 9347SOL    HW239504   0.140   2.061  13.697  0.2088  1.0913 -0.7754
 9348SOL     OW39505   2.626   3.632  11.717 -0.0074  0.0251  0.2458
 9348SOL    HW139506   2.535   3.648  11.741  0.1939  1.0806  0.2756
 9348SOL    HW239507   2.650   3.676  11.636 -0.7828 -2.5635 -1.4026
 9349SOL     OW39508   3.623   4.038  11.544 -0.1934  0.1022  0.1508
 9349SOL    HW139509   3.655   3.961  11.497  0.8038  0.2063  0.6513
 9349SOL    HW239510   3.700   4.095  11.540 -0.1941  0.2467  2.2258
 9350SOL     OW39511   3.134   3.150   9.649  0.0657 -0.4784  0.4645
 9350SOL    HW139512   3.199   3.080   9.641 -0.0344 -0.3066 -1.9939
 9350SOL    HW239513   3.055   3.097   9.637 -0.1260 -0.6053  2.4206
 9351SOL     OW39514   4.366   1.909   5.597 -0.1812  0.1059 -0.3299
 9351SOL    HW139515   4.459   1.931   5.583 -0.2163  0.3723 -0.1483
 9351SOL    HW239516   4.380   1.864   5.680 -0.8368  2.2304  0.9404
 9352SOL     OW39517   4.206   0.195  13.061 -0.2481 -0.3283  0.2145
 9352SOL    HW139518   4.272   0.126  13.053  1.2365  0.9814  1.2209
 9352SOL    HW239519   4.125   0.165  13.019 -1.3558  2.0400  0.6481
 9353SOL     OW39520   1.017   1.026   8.124  0.3414  0.8185  0.0357
 9353SOL    HW139521   1.020   0.933   8.099 -0.9191  1.0432 -0.9819
 9353SOL    HW239522   1.095   1.016   8.178  0.9735 -1.7425 -1.3481
 9354SOL     OW39523   1.805   0.168  13.361 -0.1375  0.1257 -0.0459
 9354SOL    HW139524   1.734   0.152  13.424 -2.4286 -0.1648 -2.6606
 9354SOL    HW239525   1.796   0.257  13.328 -1.3484 -0.3195 -0.9184
 9355SOL     OW39526   4.104   4.213   6.190  0.1474  0.3472  0.2631
 9355SOL    HW139527   4.046   4.239   6.261 -2.0459  0.1435 -1.4504
 9355SOL    HW239528   4.161   4.154   6.240 -1.9501 -0.7614  1.3448
 9356SOL     OW39529   4.550   3.874   9.118 -0.1293  0.0322  0.6945
 9356SOL    HW139530   4.549   3.779   9.130 -0.3708 -0.1870 -1.0938
 9356SOL    HW239531   4.605   3.884   9.041 -1.9680  1.2614 -0.4837
 9357SOL     OW39532   0.764   0.916   2.005 -0.1922 -0.2301 -0.0961
 9357SOL    HW139533   0.832   0.892   2.068 -2.0183 -0.8874  1.6232
 9357SOL    HW239534   0.816   0.903   1.925  0.4441 -0.0406  0.2824
 9358SOL     OW39535   3.441   3.946   5.968 -0.5905  0.0640  0.2624
 9358SOL    HW139536   3.531   3.933   5.998 -0.6893  0.1914  0.6170
 9358SOL    HW239537   3.454   4.028   5.920 -0.7879 -0.9650 -1.5245
 9359SOL     OW39538   3.011   0.462   4.060  0.4106 -0.2473  0.5936
 9359SOL    HW139539   3.089   0.488   4.011  0.0589  1.7273  1.0634
 9359SOL    HW239540   2.940   0.492   4.003  1.7426  1.7953  0.0238
 9360SOL     OW39541   3.096   4.215  12.045 -0.0169 -0.6153 -0.4056
 9360SOL    HW139542   3.145   4.283  12.091 -2.6215  0.5168  0.7190
 9360SOL    HW239543   3.048   4.173  12.117 -1.1167 -2.3330 -2.1324
 9361SOL     OW39544   4.147   2.559   3.478 -0.0158  0.3285  0.0911
 9361SOL    HW139545   4.204   2.504   3.426  2.2197  1.3310  1.4720
 9361SOL    HW239546   4.198   2.638   3.499 -0.0623  0.3509  0.1209
 9362SOL     OW39547   3.955   2.399   1.209 -0.3451 -0.3829  0.2026
 9362SOL    HW139548   3.985   2.485   1.179 -1.2339 -0.8630 -1.9951
 9362SOL    HW239549   3.945   2.423   1.301 -0.3068  1.6234 -0.2979
 9363SOL     OW39550   1.344   3.200  11.637 -0.2151  0.8003 -0.3522
 9363SOL    HW139551   1.387   3.286  11.640  0.2192  0.4489  3.3472
 9363SOL    HW239552   1.372   3.171  11.551  3.9067  1.2421  0.8265
 9364SOL     OW39553   4.613   0.592   5.519 -0.4655 -0.2846 -0.2382
 9364SOL    HW139554   4.701   0.628   5.533 -0.7321  0.3635 -0.2533
 9364SOL    HW239555   4.604   0.618   5.427 -1.5464  2.4915  0.6739
 9365SOL     OW39556   2.586   1.575   4.210  0.5000  0.1986  0.1404
 9365SOL    HW139557   2.610   1.483   4.217 -1.0532 -0.1106  1.3227
 9365SOL    HW239558   2.598   1.590   4.116  2.6910 -0.9077  0.2383
 9366SOL     OW39559   3.566   0.127   2.925  0.5693 -0.0055  1.0652
 9366SOL    HW139560   3.630   0.058   2.943  0.7040  0.0052  0.6275
 9366SOL    HW239561   3.492   0.067   2.924  1.6289 -1.2973  1.0129
 9367SOL     OW39562   1.616   2.465   2.499  0.3033  0.7513 -0.4642
 9367SOL    HW139563   1.676   2.391   2.514  1.0457  1.6137  0.8389
 9367SOL    HW239564   1.567   2.448   2.580  1.3825  1.7375  0.4025
 9368SOL     OW39565   1.806   3.174   2.237 -0.0458  0.0275 -0.0093
 9368SOL    HW139566   1.851   3.232   2.175 -0.1717  0.2769  0.1295
 9368SOL    HW239567   1.856   3.192   2.316  0.1605 -1.2339  0.1320
 9369SOL     OW39568   1.753   2.055   3.630  0.3141  0.3466 -0.2489
 9369SOL    HW139569   1.804   2.078   3.707 -0.3982 -1.7426  0.8491
 9369SOL    HW239570   1.695   2.131   3.634 -3.2642 -2.2524 -2.4626
 9370SOL     OW39571   2.741   0.534   8.137  0.0891  0.4561 -0.4020
 9370SOL    HW139572   2.826   0.506   8.171 -0.4731 -0.7530  0.0136
 9370SOL    HW239573   2.771   0.596   8.071 -1.2399 -1.6715 -2.9854
 9371SOL     OW39574   1.594   4.155   4.116  0.7170  0.3710  0.0749
 9371SOL    HW139575   1.560   4.119   4.198  0.4090 -0.1506 -0.2837
 9371SOL    HW239576   1.595   4.245   4.150  2.5647  1.7312 -3.5043
 9372SOL     OW39577   0.947   4.465   7.074  0.2046 -0.1956  0.0483
 9372SOL    HW139578   0.956   4.474   7.169  0.9326  0.0726 -0.0444
 9372SOL    HW239579   0.904   4.549   7.056  3.9536  1.5359 -0.8466
 9373SOL     OW39580   4.706   0.953  14.087 -0.1167  0.0820 -0.4710
 9373SOL    HW139581   0.046   0.989  14.025 -1.4693  2.4949 -0.4982
 9373SOL    HW239582   4.626   0.984  14.045  1.1526 -1.6807 -4.1771
 9374SOL     OW39583   0.183   2.172   1.859  0.4253  0.1699  0.0501
 9374SOL    HW139584   0.150   2.088   1.893 -0.5515  0.9445  1.0055
 9374SOL    HW239585   0.101   2.218   1.846 -0.1075  0.0618  2.9700
 9375SOL     OW39586   4.500   4.463   2.368 -0.4545 -0.2164  0.3046
 9375SOL    HW139587   4.494   4.472   2.273  0.2074  0.9281  0.3689
 9375SOL    HW239588   4.473   4.376   2.397 -0.1634  0.0047  1.2304
 9376SOL     OW39589   1.284   3.635   9.206  0.4321 -0.0286  0.2689
 9376SOL    HW139590   1.274   3.681   9.290 -1.3647 -0.8637  0.5067
 9376SOL    HW239591   1.227   3.691   9.152  0.8035  0.1445  0.0594
 9377SOL     OW39592   1.762   3.606   0.258 -0.4601  0.3277 -0.7640
 9377SOL    HW139593   1.733   3.521   0.289  0.7322  0.3893  0.5099
 9377SOL    HW239594   1.689   3.625   0.198 -0.7014 -0.0662 -0.5901
 9378SOL     OW39595   1.292   3.276   9.414 -0.0665  0.6018 -0.1219
 9378SOL    HW139596   1.258   3.188   9.398  1.7808 -0.2190  0.4594
 9378SOL    HW239597   1.248   3.321   9.342 -0.7529  0.9703  0.5231
 9379SOL     OW39598   0.933   3.201   7.998  0.1841  0.6163 -0.3678
 9379SOL    HW139599   0.960   3.278   8.047  0.9330  0.0793  0.0554
 9379SOL    HW239600   0.859   3.239   7.950  1.1750  2.0645 -0.7529
 9380SOL     OW39601   2.920   4.429   0.658  0.3463  0.2353  0.0922
 9380SOL    HW139602   2.837   4.451   0.615  0.2480  2.5510  1.4813
 9380SOL    HW239603   2.899   4.435   0.751  2.3058  0.3511  0.5159
 9381SOL     OW39604   0.926   2.348   9.767  0.4756  0.3198 -0.1975
 9381SOL    HW139605   0.892   2.437   9.775 -4.9509 -1.7988  0.5029
 9381SOL    HW239606   0.870   2.318   9.695  0.7777  1.2469 -0.8315
 9382SOL     OW39607   3.102   3.941   5.892 -0.2113  0.0515  0.5268
 9382SOL    HW139608   3.137   3.852   5.898 -2.1166 -0.6353  1.2525
 9382SOL    HW239609   3.109   3.974   5.981 -0.7820 -0.3919  0.7319
 9383SOL     OW39610   0.630   3.241   6.812  0.0507  0.1648  0.5317
 9383SOL    HW139611   0.638   3.309   6.745 -2.0303 -0.3981 -0.3028
 9383SOL    HW239612   0.722   3.219   6.822 -0.2250 -1.0397  0.3979
 9384SOL     OW39613   1.090   3.750   9.058  0.1361  0.1983  0.1811
 9384SOL    HW139614   1.008   3.798   9.052 -0.2200 -0.3172  0.8663
 9384SOL    HW239615   1.095   3.732   8.964  0.3770 -1.3303  0.4888
 9385SOL     OW39616   1.814   1.569   3.774 -0.3672 -0.0117  0.2177
 9385SOL    HW139617   1.828   1.475   3.764  0.0369  0.2417 -1.4469
 9385SOL    HW239618   1.771   1.583   3.690 -0.0408  0.7209  0.1775
 9386SOL     OW39619   3.326   1.619  14.624 -0.0097 -0.6171  0.0771
 9386SOL    HW139620   3.340   1.580  14.538  0.9342  0.1246 -0.1037
 9386SOL    HW239621   3.359   1.708  14.613  1.1238 -0.9332  0.8949
 9387SOL     OW39622   0.335   0.398  17.671  0.0103  0.1790  0.3221
 9387SOL    HW139623   0.353   0.309  17.641  2.9402  0.6222  0.7630
 9387SOL    HW239624   0.298   0.376   0.060 -2.0153  3.0591  0.2252
 9388SOL     OW39625   0.783   2.501   7.790  0.3654 -1.3072 -0.3233
 9388SOL    HW139626   0.851   2.551   7.836  1.5004 -2.5281 -0.6673
 9388SOL    HW239627   0.717   2.555   7.833  2.3472  0.0672  0.9977
 9389SOL     OW39628   0.171   2.216   4.189  0.1763 -0.1887 -0.1981
 9389SOL    HW139629   0.089   2.248   4.227 -0.3225 -0.3510 -1.1435
 9389SOL    HW239630   0.197   2.137   4.236  1.3953  1.2971  1.6291
 9390SOL     OW39631   4.313   4.370   4.378 -0.1335 -0.5863 -0.1605
 9390SOL    HW139632   4.262   4.446   4.406  1.1403 -0.4224  1.6828
 9390SOL    HW239633   4.249   4.299   4.373 -1.4135  0.5738 -0.3682
 9391SOL     OW39634   3.966   3.924  11.648 -1.1649 -0.2720  0.1441
 9391SOL    HW139635   3.908   3.881  11.585  0.1498 -1.4566 -0.2341
 9391SOL    HW239636   3.967   3.862  11.722 -0.8794 -1.3478 -0.7607
 9392SOL     OW39637   1.296   1.354   8.782 -0.0191  0.8206  0.4441
 9392SOL    HW139638   1.219   1.343   8.838 -0.9995  0.1148 -1.0471
 9392SOL    HW239639   1.362   1.376   8.848  1.6920 -0.3530 -0.8820
 9393SOL     OW39640   3.606   1.363   2.849  0.1340  0.2791  0.1349
 9393SOL    HW139641   3.570   1.284   2.809 -0.4628  1.3811 -1.4794
 9393SOL    HW239642   3.592   1.342   2.942  0.0178  1.9638  0.4989
 9394SOL     OW39643   2.320   3.593  14.728 -0.4196 -0.2380  0.0204
 9394SOL    HW139644   2.400   3.645  14.723 -0.0280 -0.8089  0.2767
 9394SOL    HW239645   2.348   3.509  14.766  0.9770  0.1423 -0.2030
 9395SOL     OW39646   3.381   1.504   8.431 -0.0606 -0.1717 -0.6682
 9395SOL    HW139647   3.338   1.586   8.408 -1.6674 -0.2059  2.1326
 9395SOL    HW239648   3.467   1.537   8.457 -0.1336  0.3293 -1.0649
 9396SOL     OW39649   1.859   3.639   4.903 -0.2184 -0.3213 -0.0977
 9396SOL    HW139650   1.791   3.706   4.892  0.9865  0.6114 -1.9064
 9396SOL    HW239651   1.811   3.558   4.915  0.9688 -1.3089 -2.0733
 9397SOL     OW39652   2.398   1.297   1.608  0.1448 -0.2522 -0.0164
 9397SOL    HW139653   2.309   1.260   1.606 -0.1162  0.2326  2.9228
 9397SOL    HW239654   2.383   1.359   1.537  0.9874  0.6114  0.5668
 9398SOL     OW39655   1.715   4.587   2.405 -0.0918 -0.6678 -0.4161
 9398SOL    HW139656   1.776   4.522   2.440  0.1337 -0.7547 -0.9698
 9398SOL    HW239657   1.739   4.584   2.313 -1.3102  0.9973 -0.7906
 9399SOL     OW39658   2.181   3.674   6.347  0.3522  0.3151  0.0719
 9399SOL    HW139659   2.187   3.584   6.316  0.3831  0.9066 -1.6871
 9399SOL    HW239660   2.089   3.699   6.335 -0.2220 -1.8658 -0.1317
 9400SOL     OW39661   1.313   1.173  13.696 -0.2310  0.0894  0.4061
 9400SOL    HW139662   1.399   1.208  13.720 -0.4018  0.0362  1.0855
 9400SOL    HW239663   1.343   1.083  13.684  0.3340 -0.0438  2.9141
 9401SOL     OW39664   2.480   2.333   5.978  0.5841 -0.0584 -0.3129
 9401SOL    HW139665   2.462   2.414   6.026  1.5492  0.9583 -1.6584
 9401SOL    HW239666   2.450   2.261   6.034  0.1497 -1.5992 -2.5226
 9402SOL     OW39667   2.163   3.825  11.603 -0.6192 -0.2281  0.1275
 9402SOL    HW139668   2.197   3.737  11.620  0.3787  0.1397  0.0114
 9402SOL    HW239669   2.122   3.800  11.520 -1.0028 -1.2289  0.6084
 9403SOL     OW39670   3.218   2.933   2.202  0.3002  0.1930  0.0762
 9403SOL    HW139671   3.125   2.944   2.223  0.3329  0.5021  0.0499
 9403SOL    HW239672   3.205   2.942   2.108  1.0620 -1.3399 -0.1686
 9404SOL     OW39673   4.454   0.608   5.800  0.3456 -0.3078 -0.2508
 9404SOL    HW139674   4.546   0.605   5.824  0.0758 -0.9048  0.7353
 9404SOL    HW239675   4.406   0.577   5.877 -0.3225  2.4495  0.4263
 9405SOL     OW39676   2.246   2.364   7.367 -1.1135 -0.2388  0.2399
 9405SOL    HW139677   2.190   2.439   7.386  0.6928  1.3112 -0.5261
 9405SOL    HW239678   2.331   2.408   7.365 -0.0774 -2.4103 -2.9477
 9406SOL     OW39679   4.175   3.023   6.273 -0.0680 -0.0823 -0.5585
 9406SOL    HW139680   4.194   3.079   6.348 -2.0608 -1.1557  0.7585
 9406SOL    HW239681   4.183   3.081   6.197 -1.4488 -0.3779 -0.9289
 9407SOL     OW39682   2.953   3.053   8.783  0.3151 -0.4381  0.0045
 9407SOL    HW139683   2.977   2.974   8.831  0.6074  0.6552  1.6568
 9407SOL    HW239684   2.940   3.023   8.693 -0.1383  0.9504 -0.3879
 9408SOL     OW39685   3.348   3.620   2.546 -0.0180  0.5007 -0.0043
 9408SOL    HW139686   3.337   3.525   2.547  3.1810  0.1521  0.6975
 9408SOL    HW239687   3.265   3.639   2.502  0.7678  0.5509 -1.4715
 9409SOL     OW39688   3.970   0.130   6.543 -0.1770 -0.1173  0.1516
 9409SOL    HW139689   3.929   0.045   6.556 -1.3060  0.3037 -0.6243
 9409SOL    HW239690   4.060   0.106   6.521 -0.2923 -0.2213 -0.2099
 9410SOL     OW39691   0.736   4.473  13.614  0.2767  0.5760 -0.0442
 9410SOL    HW139692   0.706   4.394  13.569  1.5197 -0.9464  1.7894
 9410SOL    HW239693   0.764   4.518  13.534 -0.1555  0.9448  0.0113
 9411SOL     OW39694   0.328   1.217  13.878  0.0519  0.7426 -0.6661
 9411SOL    HW139695   0.250   1.268  13.854  0.0379  0.6610 -0.7968
 9411SOL    HW239696   0.284   1.135  13.899  1.0831  0.2672 -0.3962
 9412SOL     OW39697   1.522   3.874   8.174  0.1106  0.3816 -0.3471
 9412SOL    HW139698   1.560   3.880   8.261  0.9590 -1.6469 -0.5776
 9412SOL    HW239699   1.602   3.866   8.121  1.4259  1.9602  1.4093
 9413SOL     OW39700   4.183   3.124   1.107  0.1656 -0.7828  0.6221
 9413SOL    HW139701   4.105   3.104   1.054  0.6363  2.4438 -1.2805
 9413SOL    HW239702   4.152   3.092   1.192 -0.0732  0.2754  0.9305
 9414SOL     OW39703   4.284   2.751   2.054 -0.2591 -0.0259  0.6368
 9414SOL    HW139704   4.290   2.846   2.041 -0.6113 -0.0559  0.2382
 9414SOL    HW239705   4.348   2.728   1.986  1.4811  0.0418  2.2506
 9415SOL     OW39706   0.479   0.003   3.750 -0.0058 -0.3127 -0.9515
 9415SOL    HW139707   0.503   0.043   3.834 -0.9651 -1.5790 -0.0721
 9415SOL    HW239708   0.496   4.637   3.780 -0.9589 -0.4027 -0.6722
 9416SOL     OW39709   1.510   3.504   9.258 -0.3537  0.5579 -0.2758
 9416SOL    HW139710   1.426   3.544   9.236 -0.7154 -0.6790 -1.1683
 9416SOL    HW239711   1.530   3.531   9.347 -1.2784  0.1430  0.0531
 9417SOL     OW39712   4.589   3.828   7.210  0.3427 -0.2643  0.0930
 9417SOL    HW139713   4.507   3.786   7.240 -0.5042  0.4616 -1.2546
 9417SOL    HW239714   4.581   3.836   7.115 -0.9026 -1.0629  0.1294
 9418SOL     OW39715   3.257   3.010  12.753  0.3870  0.2381  0.0082
 9418SOL    HW139716   3.341   2.964  12.759 -1.2240 -2.8379 -1.2662
 9418SOL    HW239717   3.220   2.995  12.840 -1.8324  1.0512 -0.8092
 9419SOL     OW39718   2.101   0.450   3.237  0.5242 -0.4259 -0.7167
 9419SOL    HW139719   2.065   0.443   3.148 -0.0109 -1.4269 -0.4225
 9419SOL    HW239720   2.087   0.543   3.255 -0.2845 -1.0411  1.8236
 9420SOL     OW39721   1.780   3.897   4.130 -0.1638 -0.0525  0.2336
 9420SOL    HW139722   1.729   3.816   4.130  0.1948 -0.2820 -0.3552
 9420SOL    HW239723   1.714   3.956   4.093 -0.2226  0.0623  0.5214
 9421SOL     OW39724   0.977   0.685   9.003  0.0030 -0.2733 -0.0779
 9421SOL    HW139725   0.921   0.666   9.079 -0.4371 -1.7480 -0.7570
 9421SOL    HW239726   1.058   0.710   9.046 -0.0018  0.6700 -0.6300
 9422SOL     OW39727   3.822   4.586  14.682  0.0876 -0.0491  0.2803
 9422SOL    HW139728   3.818   4.626  14.769 -1.5455  0.1719  0.0968
 9422SOL    HW239729   3.839   4.669  14.637 -2.8254 -0.0554 -0.7926
 9423SOL     OW39730   1.727   2.141   2.134  0.1322 -0.3138  0.0924
 9423SOL    HW139731   1.649   2.126   2.081 -0.7772 -1.4422  1.7659
 9423SOL    HW239732   1.704   2.225   2.176  2.6252  0.7436 -0.6707
 9424SOL     OW39733   3.798   1.172   4.075  0.3000 -0.1525 -0.0941
 9424SOL    HW139734   3.704   1.176   4.057  0.0377 -0.1489  1.3321
 9424SOL    HW239735   3.805   1.244   4.137  0.6205  0.9836 -1.4621
 9425SOL     OW39736   3.571   3.717  16.809  0.0706 -0.4391  0.2720
 9425SOL    HW139737   3.620   3.788  16.766 -1.2731  0.2534 -0.1150
 9425SOL    HW239738   3.622   3.701  16.889 -2.2201 -0.2439  1.7580
 9426SOL     OW39739   1.546   3.972   1.728  0.2727  0.0008 -0.0346
 9426SOL    HW139740   1.535   3.901   1.665 -0.0083 -0.2358  0.2826
 9426SOL    HW239741   1.642   3.975   1.723  0.3552  1.3296  2.2515
 9427SOL     OW39742   1.373   0.309   2.972 -0.0199 -0.0268 -0.3614
 9427SOL    HW139743   1.303   0.250   2.999 -0.8029  1.6727  1.3131
 9427SOL    HW239744   1.426   0.242   2.928  2.9556  1.7384  0.6124
 9428SOL     OW39745   1.626   0.572   6.868 -0.6022  0.6877 -0.1654
 9428SOL    HW139746   1.535   0.574   6.838 -0.9100 -0.6806  0.6728
 9428SOL    HW239747   1.604   0.572   6.961  0.6200  1.1912  0.1232
 9429SOL     OW39748   3.735   1.858  13.147  0.0539 -0.1473 -0.2345
 9429SOL    HW139749   3.698   1.789  13.091 -1.0852 -0.3688  0.7974
 9429SOL    HW239750   3.685   1.933  13.117  1.9471  0.5952 -1.5418
 9430SOL     OW39751   1.199   0.750   8.485  0.0374 -0.1807  0.1827
 9430SOL    HW139752   1.246   0.693   8.547 -0.3119  1.2854  1.8026
 9430SOL    HW239753   1.221   0.839   8.510  0.9983  0.3103 -2.4597
 9431SOL     OW39754   1.783   2.153   8.909 -0.0995 -0.2862 -0.0125
 9431SOL    HW139755   1.805   2.066   8.943  0.2035 -0.6316 -1.0896
 9431SOL    HW239756   1.768   2.197   8.992 -0.0499 -1.1226  0.4381
 9432SOL     OW39757   1.268   0.465   2.374  0.0697  0.3535 -0.2443
 9432SOL    HW139758   1.334   0.457   2.443 -0.4379  0.5489  0.2629
 9432SOL    HW239759   1.212   0.392   2.398 -1.0079  1.3605  0.2816
 9433SOL     OW39760   2.963   2.053  14.518 -0.1894  0.1832 -0.0944
 9433SOL    HW139761   2.932   1.969  14.485 -2.2610  0.3353  1.3905
 9433SOL    HW239762   2.932   2.117  14.454 -1.2685 -0.0583  0.1742
 9434SOL     OW39763   1.418   1.159   7.697  1.1680 -0.6419  0.2814
 9434SOL    HW139764   1.447   1.190   7.783 -1.4754  0.7673  0.6569
 9434SOL    HW239765   1.425   1.240   7.646  2.8297  0.3517  2.0916
 9435SOL     OW39766   4.544   1.298   6.415  0.5466 -0.0533 -0.6472
 9435SOL    HW139767   4.522   1.356   6.342  2.4288 -0.3407 -1.4612
 9435SOL    HW239768   4.463   1.246   6.423 -0.6585  1.4844 -2.9716
 9436SOL     OW39769   4.162   0.069   6.162  0.0873 -0.0774 -0.1039
 9436SOL    HW139770   4.135   0.161   6.160  1.5571  0.3524  0.1883
 9436SOL    HW239771   4.171   0.050   6.069 -1.7439  2.7404 -0.8579
 9437SOL     OW39772   0.106   2.986   5.756  0.1668  0.1488  0.2229
 9437SOL    HW139773   0.176   3.049   5.775  1.2003 -1.8240  3.0167
 9437SOL    HW239774   0.155   2.903   5.759  0.8891  0.4943 -1.9234
 9438SOL     OW39775   4.044   3.207  14.700 -0.2205 -0.1239  0.4100
 9438SOL    HW139776   3.995   3.235  14.778  0.7413 -2.1666  1.7623
 9438SOL    HW239777   4.040   3.271  14.629  0.5201  0.9880  1.3689
 9439SOL     OW39778   2.499   3.754   6.672 -0.0950 -0.2433  0.7142
 9439SOL    HW139779   2.482   3.684   6.610 -0.5085  1.2229 -0.8363
 9439SOL    HW239780   2.460   3.717   6.752 -0.1211  0.5231  1.0596
 9440SOL     OW39781   0.795   2.813   8.616 -0.0723 -0.2110 -0.0341
 9440SOL    HW139782   0.816   2.874   8.545  1.0118 -0.9937 -0.4000
 9440SOL    HW239783   0.801   2.730   8.569  2.9135 -0.5189  0.8359
 9441SOL     OW39784   2.851   2.553   6.753 -0.4072  0.4376 -0.8212
 9441SOL    HW139785   2.904   2.473   6.748  0.2130  0.6280  2.7785
 9441SOL    HW239786   2.883   2.614   6.687  0.0320  0.7483 -0.3125
 9442SOL     OW39787   4.198   4.522   7.250 -0.2837  0.2473 -0.1964
 9442SOL    HW139788   4.208   4.564   7.335 -0.3107  0.5308 -0.3344
 9442SOL    HW239789   4.136   4.585   7.213 -0.3849 -0.5864 -1.4674
 9443SOL     OW39790   2.456   1.786  15.013  0.1332  0.3106 -0.3326
 9443SOL    HW139791   2.369   1.749  14.999  0.7865 -1.4718  0.2178
 9443SOL    HW239792   2.505   1.705  15.027  0.1476  0.6893  1.8165
 9444SOL     OW39793   1.964   0.472   2.164  0.3689  0.3832 -0.1319
 9444SOL    HW139794   1.920   0.390   2.186  0.2543  0.1680 -1.1616
 9444SOL    HW239795   1.898   0.541   2.149  1.0230  1.5005  2.1343
 9445SOL     OW39796   3.781   0.719   9.058  0.5402 -0.1268  0.6688
 9445SOL    HW139797   3.740   0.711   8.972  1.4200  0.9963  0.1409
 9445SOL    HW239798   3.828   0.636   9.055 -0.8060 -0.8333 -1.2271
 9446SOL     OW39799   0.256   2.656   4.252  0.0086  0.2996 -0.4559
 9446SOL    HW139800   0.294   2.716   4.188 -0.6151  1.8354  0.6215
 9446SOL    HW239801   0.332   2.642   4.309  0.1227  1.2213 -0.3770
 9447SOL     OW39802   2.733   2.794  12.016 -0.2370 -0.3189  0.0083
 9447SOL    HW139803   2.739   2.717  11.960  0.5583 -0.4951  0.3343
 9447SOL    HW239804   2.764   2.762  12.101  0.5381 -0.8138 -0.4572
 9448SOL     OW39805   2.635   1.296   2.646  0.7843 -0.3047 -0.4375
 9448SOL    HW139806   2.580   1.218   2.638  0.6749 -0.4389  1.5078
 9448SOL    HW239807   2.564   1.358   2.662  0.3538 -0.9557  0.2300
 9449SOL     OW39808   3.083   1.193  15.298  0.0006 -0.0293  0.2336
 9449SOL    HW139809   3.134   1.112  15.306 -1.2475 -0.8074  0.2439
 9449SOL    HW239810   3.105   1.227  15.211  1.2682 -0.7061  0.2904
 9450SOL     OW39811   0.054   3.142   8.938 -0.1406 -0.4566  0.1389
 9450SOL    HW139812   0.002   3.151   8.859 -1.5932 -0.7556  1.0593
 9450SOL    HW239813   0.022   3.063   8.982  0.5110 -0.6449  0.2743
 9451SOL     OW39814   4.389   2.022   8.238 -0.1098 -0.2391  0.2471
 9451SOL    HW139815   4.426   1.941   8.273  0.7154 -0.7552 -1.8261
 9451SOL    HW239816   4.462   2.083   8.252 -0.6600 -0.1165  2.5485
 9452SOL     OW39817   3.790   1.503  15.864  0.3949  0.0394 -0.1310
 9452SOL    HW139818   3.824   1.437  15.804 -1.9441 -1.7083  0.4978
 9452SOL    HW239819   3.817   1.576  15.809  0.2124  0.3304  0.1607
 9453SOL     OW39820   2.553   1.557  12.167  0.2657 -0.1349  0.1321
 9453SOL    HW139821   2.642   1.527  12.147 -0.6303 -2.3150 -0.4957
 9453SOL    HW239822   2.552   1.635  12.111  1.8487 -0.4563 -0.3405
 9454SOL     OW39823   1.840   2.326   8.717 -0.0363  0.5162 -0.5679
 9454SOL    HW139824   1.805   2.267   8.784  0.0214 -0.6715 -1.5952
 9454SOL    HW239825   1.932   2.319   8.744  0.5192  1.9265 -2.1123
 9455SOL     OW39826   3.124   4.105   6.627 -0.5639  0.1694  0.6030
 9455SOL    HW139827   3.189   4.132   6.693 -0.2381 -2.2330  1.2807
 9455SOL    HW239828   3.171   4.035   6.582  2.6513  3.8671 -1.8416
 9456SOL     OW39829   2.322   3.052  14.920  0.0477  0.3255  0.6640
 9456SOL    HW139830   2.334   3.105  14.999  0.6596  0.3648  0.5425
 9456SOL    HW239831   2.227   3.041  14.919 -0.0350  1.2036 -0.8651
 9457SOL     OW39832   0.096   4.257   8.915 -0.3357 -0.0558  0.5584
 9457SOL    HW139833   0.040   4.200   8.863  0.0588  2.1151 -2.2600
 9457SOL    HW239834   0.081   4.340   8.870 -1.8528 -1.6470 -1.8360
 9458SOL     OW39835   0.066   1.483   9.774  0.2837  0.7289  0.6545
 9458SOL    HW139836   0.151   1.520   9.749 -0.4219  1.6843 -0.3252
 9458SOL    HW239837   0.005   1.506   9.705 -1.0144 -0.7777  1.3031
 9459SOL     OW39838   0.105   0.292   3.758  0.3601 -0.6670 -0.9057
 9459SOL    HW139839   0.184   0.258   3.714  0.0346  0.0115 -2.0238
 9459SOL    HW239840   0.102   0.382   3.727  0.8188  0.2092  1.6424
 9460SOL     OW39841   4.668   1.085   2.386  0.3905  0.0658  0.2115
 9460SOL    HW139842   4.678   1.179   2.372 -1.5065  0.1016 -0.9362
 9460SOL    HW239843   0.003   1.052   2.318  1.2659  1.1752  0.4305
 9461SOL     OW39844   1.415   2.284   2.271  0.1293 -0.4715  0.2234
 9461SOL    HW139845   1.509   2.297   2.258  0.2360 -0.1113  1.3346
 9461SOL    HW239846   1.371   2.269   2.187  3.8013 -0.0196 -1.7997
 9462SOL     OW39847   2.652   2.816  10.723 -0.4881 -0.6004 -0.5038
 9462SOL    HW139848   2.685   2.878  10.787  0.5626  0.5530 -2.1521
 9462SOL    HW239849   2.638   2.879  10.653 -0.2541 -1.0001 -0.9159
 9463SOL     OW39850   0.365   4.315   9.745  0.2101 -0.3923  0.2317
 9463SOL    HW139851   0.382   4.381   9.678 -2.8899 -0.9514 -1.0802
 9463SOL    HW239852   0.272   4.300   9.731 -0.0825  0.9580  0.7504
 9464SOL     OW39853   1.714   2.772  14.749  0.6102  0.1889 -0.6195
 9464SOL    HW139854   1.648   2.792  14.816 -1.9009 -1.8172 -2.5024
 9464SOL    HW239855   1.676   2.694  14.709  1.5866  1.4665 -4.0380
 9465SOL     OW39856   3.549   4.629  16.583 -0.3363  0.3720 -0.5722
 9465SOL    HW139857   3.620   4.572  16.554 -0.9309  0.3334 -1.9894
 9465SOL    HW239858   3.514   4.583  16.659 -1.1468 -0.6706 -1.5662
 9466SOL     OW39859   1.783   2.586  11.855 -0.2111  0.2901  0.2967
 9466SOL    HW139860   1.719   2.515  11.852  0.2123  0.0292 -2.4044
 9466SOL    HW239861   1.727   2.658  11.826  0.1154 -0.0966 -1.2857
 9467SOL     OW39862   0.899   1.739   1.704  0.0047  0.1042 -0.0998
 9467SOL    HW139863   0.979   1.709   1.748  2.0028  1.0803 -3.0583
 9467SOL    HW239864   0.860   1.767   1.787 -0.3446  0.0256 -0.2375
 9468SOL     OW39865   1.940   0.411   7.303  0.0505 -0.1197  0.2488
 9468SOL    HW139866   1.945   0.315   7.299 -0.0649 -0.0529 -1.5901
 9468SOL    HW239867   1.930   0.431   7.210  0.8170 -0.5235  0.0781
 9469SOL     OW39868   1.537   4.657   8.297  0.7923 -0.1765 -0.2821
 9469SOL    HW139869   1.518   0.004   8.235  2.3615 -1.3290 -2.0569
 9469SOL    HW239870   1.498   4.694   8.376 -1.4136 -0.4493 -1.2448
 9470SOL     OW39871   1.667   0.544   7.550 -0.2536 -0.1820 -0.0619
 9470SOL    HW139872   1.725   0.482   7.594  1.5911  0.9846 -0.8573
 9470SOL    HW239873   1.724   0.621   7.548 -0.1318 -0.2508  0.7805
 9471SOL     OW39874   4.196   2.055   8.531 -0.2416  0.1664 -0.2448
 9471SOL    HW139875   4.252   2.014   8.596 -0.9812  1.1765  1.0319
 9471SOL    HW239876   4.186   2.139   8.577  0.8751  0.9746 -1.4592
 9472SOL     OW39877   3.901   3.644  17.453 -0.4270  0.0234 -0.3516
 9472SOL    HW139878   3.888   3.738  17.463  0.6066  0.2015 -0.7747
 9472SOL    HW239879   3.989   3.645  17.417 -0.1796 -1.0941  0.2266
 9473SOL     OW39880   1.477   1.980  15.828 -0.1293 -0.6718  0.1009
 9473SOL    HW139881   1.430   1.941  15.755  1.5107 -2.1505 -0.1721
 9473SOL    HW239882   1.504   1.899  15.870  2.6604 -1.2446 -2.8583
 9474SOL     OW39883   1.105   2.338   5.510  0.6233  0.0921 -0.2059
 9474SOL    HW139884   1.168   2.361   5.441  2.9497  0.3216  2.0057
 9474SOL    HW239885   1.129   2.405   5.573  0.9359 -1.8481  1.7251
 9475SOL     OW39886   4.124   0.716  17.463  0.0400 -0.0482  0.7996
 9475SOL    HW139887   4.105   0.623  17.479  1.1787 -0.1513  1.5990
 9475SOL    HW239888   4.217   0.715  17.438 -1.3917 -2.0350 -4.5228
 9476SOL     OW39889   0.269   4.476   7.983 -0.4668  0.1679 -0.1831
 9476SOL    HW139890   0.209   4.458   7.910 -1.1768  1.7344  0.0013
 9476SOL    HW239891   0.347   4.452   7.934 -1.3123 -2.3706 -0.2944
 9477SOL     OW39892   3.095   3.998   4.920  0.1871  0.5142 -0.3066
 9477SOL    HW139893   3.110   3.924   4.978  0.3935  0.8673  0.0899
 9477SOL    HW239894   3.186   4.025   4.908  0.6140 -1.1209 -0.8379
 9478SOL     OW39895   1.076   2.847   3.765 -0.1577  0.3884  0.0561
 9478SOL    HW139896   1.015   2.779   3.794 -1.3543  1.5804  0.3519
 9478SOL    HW239897   1.018   2.923   3.766 -1.7204 -0.7646 -2.0596
 9479SOL     OW39898   0.982   1.509  10.008 -0.3028  0.0976  0.2929
 9479SOL    HW139899   1.065   1.509  10.055 -0.2583  0.5652  0.2206
 9479SOL    HW239900   1.021   1.525   9.922 -0.8892  2.2323  0.4097
 9480SOL     OW39901   4.642   3.002   4.186 -0.0213 -0.2808  0.5790
 9480SOL    HW139902   4.632   3.098   4.184  3.5528  0.1018  1.2791
 9480SOL    HW239903   0.009   3.003   4.215  0.4472 -2.8399 -0.8836
 9481SOL     OW39904   4.217   0.603   4.048  0.4310 -0.5087 -0.0374
 9481SOL    HW139905   4.255   0.672   4.103 -2.4404  0.2006  1.0594
 9481SOL    HW239906   4.290   0.549   4.018 -0.6998 -1.1477 -1.6562
 9482SOL     OW39907   3.597   4.400   0.933  0.3873 -0.4274  0.6546
 9482SOL    HW139908   3.605   4.476   0.991  2.5059 -0.5625  0.5386
 9482SOL    HW239909   3.677   4.349   0.951  0.9411  0.3224  0.2930
 9483SOL     OW39910   4.410   1.455   9.817 -0.4492  0.2664 -0.6283
 9483SOL    HW139911   4.490   1.423   9.775 -1.9480 -1.5443 -2.1137
 9483SOL    HW239912   4.350   1.381   9.825 -0.7709  0.7844  1.8248
 9484SOL     OW39913   3.822   4.111   4.508 -0.0491  0.0911  0.2071
 9484SOL    HW139914   3.818   4.135   4.416  0.2982 -0.0816  0.1493
 9484SOL    HW239915   3.877   4.034   4.495  0.6298  0.8333 -1.3420
 9485SOL     OW39916   2.073   3.255   4.045  0.0899 -0.4825 -0.1364
 9485SOL    HW139917   2.094   3.327   3.986  0.6144  0.6755  1.4712
 9485SOL    HW239918   2.131   3.278   4.117 -2.3885  0.4441  1.5696
 9486SOL     OW39919   0.065   0.007   6.291 -0.2314  0.1485  0.6840
 9486SOL    HW139920   0.159   4.718   6.281 -0.4835 -1.2106  0.1426
 9486SOL    HW239921   0.058   0.022   6.386  0.8388  2.0066  0.4787
 9487SOL     OW39922   3.703   1.435   8.548 -0.0995 -0.1731 -0.3641
 9487SOL    HW139923   3.684   1.495   8.621  0.4401  2.4238 -2.3433
 9487SOL    HW239924   3.762   1.365   8.577  0.9977  1.5256  1.5363
 9488SOL     OW39925   3.829   1.307   7.060  0.3412  0.5420  1.0039
 9488SOL    HW139926   3.913   1.328   7.101  0.1038  1.3978  1.0401
 9488SOL    HW239927   3.770   1.375   7.092  0.3550 -0.0110  2.2000
 9489SOL     OW39928   4.627   0.191   6.201  0.0951 -0.6095 -0.0978
 9489SOL    HW139929   4.692   0.125   6.225 -2.2190 -2.3942  1.1131
 9489SOL    HW239930   4.576   0.202   6.281  0.3510  1.3097 -0.1803
 9490SOL     OW39931   4.308   4.674   9.247 -0.1255 -0.0527 -0.1075
 9490SOL    HW139932   4.274   0.039   9.242  1.0059  0.3199 -1.4019
 9490SOL    HW239933   4.320   4.657   9.341 -1.8132  0.5744  0.2157
 9491SOL     OW39934   2.724   4.435  11.444  0.0337  0.1995  0.1937
 9491SOL    HW139935   2.715   4.382  11.523 -5.3109  0.1999 -0.3737
 9491SOL    HW239936   2.631   4.438  11.420 -0.0661  1.0026  0.6552
 9492SOL     OW39937   3.865   0.024   6.860 -0.4403  0.5667 -0.0708
 9492SOL    HW139938   3.956   0.055   6.854 -0.1543 -0.3621 -0.4935
 9492SOL    HW239939   3.839   0.036   6.952 -2.7134  1.8409 -0.8677
 9493SOL     OW39940   2.005   1.173  17.695  0.0578  0.3514 -0.0023
 9493SOL    HW139941   1.955   1.254  17.690 -1.6770 -0.7066 -0.0839
 9493SOL    HW239942   2.098   1.196  17.692 -0.6159  3.2359  1.3725
 9494SOL     OW39943   3.591   1.980  13.753 -0.5297  0.3521  0.2389
 9494SOL    HW139944   3.650   1.941  13.817  1.4748  0.9278 -1.2524
 9494SOL    HW239945   3.504   1.947  13.777 -1.1211  1.3723 -0.4996
 9495SOL     OW39946   3.827   0.797   3.604  0.1106 -0.3935 -0.1117
 9495SOL    HW139947   3.756   0.845   3.561  1.7960  1.1465 -1.1777
 9495SOL    HW239948   3.860   0.852   3.674  2.5676 -1.3884 -0.4980
 9496SOL     OW39949   4.054   2.812  13.267 -0.1357 -0.3387  0.7513
 9496SOL    HW139950   4.124   2.847  13.323 -1.0685  0.2610  1.5437
 9496SOL    HW239951   4.105   2.780  13.192 -0.7393 -1.5560  0.8587
 9497SOL     OW39952   4.403   2.525   8.667  0.4176  0.9251  0.1592
 9497SOL    HW139953   4.449   2.442   8.676  0.9855  1.0222 -1.9678
 9497SOL    HW239954   4.448   2.560   8.591  1.5170 -0.9297 -0.0524
 9498SOL     OW39955   0.937   4.662   4.278  0.3700  0.2653 -0.5718
 9498SOL    HW139956   0.909   0.021   4.240 -1.9049 -1.6624 -3.0706
 9498SOL    HW239957   0.902   4.609   4.207  1.1867 -1.2306  0.1519
 9499SOL     OW39958   1.761   0.779  10.116 -0.0588 -0.6946  0.0470
 9499SOL    HW139959   1.772   0.719  10.190  0.2638 -0.1041  0.4743
 9499SOL    HW239960   1.842   0.830  10.114  0.6074 -1.7416  0.2703
 9500SOL     OW39961   2.127   4.045   1.300 -0.2767 -0.2100 -0.1075
 9500SOL    HW139962   2.124   3.952   1.278 -1.9515 -0.2081  0.1139
 9500SOL    HW239963   2.195   4.042   1.367  1.1613 -0.8762 -1.5853
 9501SOL     OW39964   0.077   1.056   1.987  0.0071 -0.1771 -0.3648
 9501SOL    HW139965   0.109   1.000   2.058  0.4493 -0.3372 -0.6884
 9501SOL    HW239966   4.706   1.046   1.986  0.1164 -1.0042 -2.3470
 9502SOL     OW39967   2.125   3.166   8.854 -0.0927 -0.5843  0.1514
 9502SOL    HW139968   2.049   3.191   8.906 -0.7402  1.1642 -1.6424
 9502SOL    HW239969   2.100   3.077   8.832  3.1398 -2.4134  3.7678
 9503SOL     OW39970   4.225   3.695   7.819 -0.5878 -0.7748  0.1695
 9503SOL    HW139971   4.228   3.599   7.823 -2.0716 -0.7894  0.7911
 9503SOL    HW239972   4.138   3.702   7.856 -0.8071 -0.3209 -0.4311
 9504SOL     OW39973   1.265   1.357   7.480  0.1313 -0.0914  0.4186
 9504SOL    HW139974   1.223   1.353   7.566 -2.4550  0.0308 -0.8122
 9504SOL    HW239975   1.235   1.440   7.443  0.3676 -0.7330 -1.2394
 9505SOL     OW39976   1.966   2.165  15.900 -0.7089  0.5752  0.3579
 9505SOL    HW139977   2.007   2.212  15.973  2.0497 -2.3414  0.7081
 9505SOL    HW239978   1.873   2.167  15.922 -0.0250 -0.2259  3.2995
 9506SOL     OW39979   3.300   2.779   2.428 -0.2287 -0.0655 -0.3922
 9506SOL    HW139980   3.205   2.784   2.416  0.1881  0.4608 -3.2867
 9506SOL    HW239981   3.322   2.686   2.419 -1.4824 -0.4989  0.8215
 9507SOL     OW39982   2.201   1.213   6.907  0.1385  0.0618  0.1331
 9507SOL    HW139983   2.287   1.175   6.924  0.4110  0.7852  0.3781
 9507SOL    HW239984   2.151   1.181   6.982 -0.5097  0.0588 -0.3022
 9508SOL     OW39985   3.353   4.575   6.765 -0.3073 -0.5925 -0.3868
 9508SOL    HW139986   3.407   4.609   6.694 -0.0979  0.9935  0.5217
 9508SOL    HW239987   3.420   4.515   6.800 -1.4763 -0.8066  1.5056
 9509SOL     OW39988   4.156   3.710  17.374  0.1932 -0.3655 -0.4246
 9509SOL    HW139989   4.125   3.770  17.441 -2.9493  0.3784 -2.5766
 9509SOL    HW239990   4.245   3.742  17.360  0.4558  0.5569  3.3675
 9510SOL     OW39991   0.427   1.759   3.381  0.0140 -0.0614 -0.2134
 9510SOL    HW139992   0.426   1.797   3.469  4.4262 -0.5733  0.0555
 9510SOL    HW239993   0.428   1.668   3.412 -0.7663 -0.9577 -2.8212
 9511SOL     OW39994   1.008   0.613  14.316 -0.2103 -0.1282 -0.0556
 9511SOL    HW139995   1.007   0.705  14.290  0.5978  0.1047  0.7284
 9511SOL    HW239996   0.939   0.598  14.251  0.0254  2.9065 -0.9832
 9512SOL     OW39997   0.865   2.146   3.456  0.0611 -0.3018 -0.2228
 9512SOL    HW139998   0.872   2.240   3.470 -3.1027 -0.1194  0.2886
 9512SOL    HW239999   0.771   2.136   3.471  0.3658 -0.1934  1.6435
 9513SOL     OW40000   0.667   3.098   0.231  0.4257  0.5627 -0.1822
 9513SOL    HW140001   0.651   3.031   0.297 -0.4167 -0.3464 -1.3168
 9513SOL    HW240002   0.762   3.103   0.242  0.6781  1.0660 -2.7018
 9514SOL     OW40003   2.893   4.440   7.615 -0.1719  0.2210  0.2244
 9514SOL    HW140004   2.957   4.373   7.589 -0.5581  0.1397 -0.5149
 9514SOL    HW240005   2.854   4.404   7.694  0.7533  0.2862  0.7100
 9515SOL     OW40006   3.438   2.583  11.786  0.4883 -0.0345 -0.1625
 9515SOL    HW140007   3.516   2.532  11.806  0.2507  0.1348  1.1722
 9515SOL    HW240008   3.444   2.649  11.855  1.5763  0.7407 -0.9946
 9516SOL     OW40009   4.293   4.402   8.129 -0.3378  0.3482  0.3818
 9516SOL    HW140010   4.377   4.448   8.134  0.3310 -0.5470 -2.5536
 9516SOL    HW240011   4.293   4.390   8.034 -1.1765 -1.0669  0.5650
 9517SOL     OW40012   3.531   2.937  10.465  0.1971 -0.0228 -0.4529
 9517SOL    HW140013   3.615   2.961  10.504  0.0968  0.7129 -0.6934
 9517SOL    HW240014   3.512   3.018  10.418 -2.6877  0.4979  1.6132
 9518SOL     OW40015   0.298   2.279  11.042 -0.1390  0.0137  0.0105
 9518SOL    HW140016   0.302   2.226  11.121  1.9297 -0.4378 -0.3968
 9518SOL    HW240017   0.380   2.261  10.996  0.5734 -0.2591  1.4070
 9519SOL     OW40018   4.546   0.141  12.289  0.9341 -0.5924 -0.2875
 9519SOL    HW140019   4.496   0.080  12.344 -0.0777  1.6741  1.3194
 9519SOL    HW240020   4.621   0.139  12.349  1.2463 -0.4173 -0.6744
 9520SOL     OW40021   1.777   2.263   1.447  0.0447 -0.8072 -0.0264
 9520SOL    HW140022   1.698   2.233   1.402 -0.2972  1.6546 -1.0799
 9520SOL    HW240023   1.759   2.219   1.530  1.3562  1.4428  1.4172
 9521SOL     OW40024   1.792   1.155   4.056 -0.1665  0.3766  0.3688
 9521SOL    HW140025   1.811   1.097   4.130 -0.5457 -0.6918 -0.3719
 9521SOL    HW240026   1.843   1.112   3.987 -0.9955 -1.0820  0.6635
 9522SOL     OW40027   0.992   1.807   6.525 -0.3084 -0.0781 -0.3426
 9522SOL    HW140028   0.935   1.878   6.554  0.8091  1.0321 -0.8613
 9522SOL    HW240029   1.027   1.840   6.442 -2.1176 -0.4700 -1.2656
 9523SOL     OW40030   1.172   1.578   4.634  0.1757  0.1949 -0.4567
 9523SOL    HW140031   1.147   1.601   4.544 -1.3828  0.2266 -0.0153
 9523SOL    HW240032   1.128   1.493   4.643 -0.6617  0.5923 -0.7994
 9524SOL     OW40033   4.474   1.125  13.327 -1.5311  0.0597 -0.4175
 9524SOL    HW140034   4.564   1.141  13.355 -0.8868 -1.7180 -1.5510
 9524SOL    HW240035   4.444   1.216  13.319  0.1977  0.5953 -0.8861
 9525SOL     OW40036   1.219   4.253  12.916  0.2620 -0.3840 -0.0634
 9525SOL    HW140037   1.265   4.196  12.977 -0.7596 -0.8636  0.2515
 9525SOL    HW240038   1.292   4.279  12.860  0.9710 -1.7971  0.2210
 9526SOL     OW40039   2.170   2.788   4.516  0.7657  0.1778 -0.0213
 9526SOL    HW140040   2.246   2.823   4.563 -0.1826  1.0591  0.8622
 9526SOL    HW240041   2.109   2.860   4.535 -1.1606 -1.3952 -0.3275
 9527SOL     OW40042   4.362   1.379   8.607 -0.0782  0.2167 -0.7337
 9527SOL    HW140043   4.289   1.323   8.635  1.5681 -1.3963  0.3333
 9527SOL    HW240044   4.349   1.467   8.642  0.5106  0.5868 -1.4538
 9528SOL     OW40045   1.221   1.407   1.161  0.1901 -0.4552 -0.5042
 9528SOL    HW140046   1.153   1.472   1.143  0.1485  0.0366  1.4438
 9528SOL    HW240047   1.261   1.407   1.074 -1.0181  0.6185 -1.0690
 9529SOL     OW40048   1.203   0.019  15.808  0.1439  0.1579 -0.1658
 9529SOL    HW140049   1.252   4.663  15.832  0.8859  0.9602  0.9759
 9529SOL    HW240050   1.226   0.067  15.888 -2.6626 -0.7772  1.2072
 9530SOL     OW40051   2.584   3.978   8.301 -0.3169 -0.0532 -0.6289
 9530SOL    HW140052   2.534   3.898   8.313  0.5135 -0.2860  1.1565
 9530SOL    HW240053   2.673   3.950   8.321 -1.0528  0.6222  3.4144
 9531SOL     OW40054   1.361   3.198   5.885  0.2634 -0.0018 -0.4273
 9531SOL    HW140055   1.433   3.135   5.886 -1.9214 -2.5808 -1.1410
 9531SOL    HW240056   1.333   3.190   5.976  4.2919  0.1417  0.8081
 9532SOL     OW40057   2.141   4.185   1.057 -0.4843  0.6588  0.0294
 9532SOL    HW140058   2.112   4.146   1.140  0.4484  0.3024  0.1868
 9532SOL    HW240059   2.093   4.268   1.057  2.4282  2.3331 -2.6437
 9533SOL     OW40060   2.051   1.488  14.674 -0.5954 -0.3924  0.0420
 9533SOL    HW140061   2.035   1.575  14.637  1.6522 -0.3460 -0.8220
 9533SOL    HW240062   1.964   1.448  14.676  0.1581 -2.0654 -0.6193
 9534SOL     OW40063   0.893   1.141  16.089 -0.0909  0.0977  0.2069
 9534SOL    HW140064   0.809   1.145  16.044  0.2600  0.1420 -0.4520
 9534SOL    HW240065   0.914   1.048  16.089  3.2951  0.8358 -0.7106
 9535SOL     OW40066   2.704   1.633   8.337 -1.0449  0.0472 -0.0230
 9535SOL    HW140067   2.668   1.715   8.370 -1.2554 -0.1539  0.2516
 9535SOL    HW240068   2.623   1.603   8.296  0.1926  2.5143 -4.2620
 9536SOL     OW40069   1.225   3.358   7.136  0.1808  0.1389  0.0205
 9536SOL    HW140070   1.249   3.392   7.222 -2.7583 -3.9506  2.4452
 9536SOL    HW240071   1.145   3.406   7.117 -1.2103 -0.8935  3.3181
 9537SOL     OW40072   3.626   0.810   7.951  0.4337  0.5778 -0.7742
 9537SOL    HW140073   3.613   0.860   8.031  1.3820  2.1442 -1.5973
 9537SOL    HW240074   3.629   0.880   7.886  0.6079  0.7112 -0.6201
 9538SOL     OW40075   2.392   3.595   1.073  1.5051  0.1449 -0.8577
 9538SOL    HW140076   2.485   3.614   1.078  1.2307  0.7635  1.5722
 9538SOL    HW240077   2.394   3.502   1.050 -0.4344  0.2245 -1.3252
 9539SOL     OW40078   0.298   1.949   2.450  0.5260 -0.2427  0.4537
 9539SOL    HW140079   0.291   1.872   2.393  0.3846  1.1299 -1.3829
 9539SOL    HW240080   0.272   2.024   2.396  0.9038 -0.4707 -0.0433
 9540SOL     OW40081   0.327   0.605   5.842 -0.4024  0.5946 -0.1292
 9540SOL    HW140082   0.331   0.509   5.841  1.3072  0.6473  0.4905
 9540SOL    HW240083   0.347   0.617   5.935  1.3880  0.9940 -0.5716
 9541SOL     OW40084   1.428   0.441   3.413 -0.7227  0.1617 -0.0142
 9541SOL    HW140085   1.406   0.473   3.326  0.6518 -0.6766 -0.6596
 9541SOL    HW240086   1.499   0.494   3.450  0.2948  0.5709 -2.5784
 9542SOL     OW40087   0.373   4.618   2.637 -0.5279  0.1174  0.2403
 9542SOL    HW140088   0.466   4.635   2.654  0.0874 -0.0244 -2.9388
 9542SOL    HW240089   0.355   4.628   2.730 -2.1454 -1.9801  0.1545
 9543SOL     OW40090   1.656   1.442   3.122 -0.0144 -0.7068  0.0003
 9543SOL    HW140091   1.750   1.431   3.135  0.2671  1.8929  0.0285
 9543SOL    HW240092   1.639   1.533   3.146 -0.4796 -1.2148  1.6232
 9544SOL     OW40093   0.391   4.110   4.832 -0.0665  0.1847 -0.0403
 9544SOL    HW140094   0.390   4.143   4.743  1.8163  0.9626  0.2359
 9544SOL    HW240095   0.304   4.141   4.859 -0.3204 -0.9497  0.4515
 9545SOL     OW40096   4.480   2.716   3.139  0.4495 -0.2407  0.3622
 9545SOL    HW140097   4.416   2.667   3.190  0.9004 -2.2205 -0.9665
 9545SOL    HW240098   4.432   2.798   3.130 -3.2936 -2.5736 -0.8468
 9546SOL     OW40099   4.512   3.826   1.858  0.4620  0.4146  0.2724
 9546SOL    HW140100   4.577   3.895   1.846  0.3575  0.7746  1.7539
 9546SOL    HW240101   4.571   3.755   1.830 -0.0156  0.0723  0.1231
 9547SOL     OW40102   1.099   0.493   5.417  0.5377 -0.3636  0.0927
 9547SOL    HW140103   1.035   0.503   5.346  1.9305 -1.6591 -1.3252
 9547SOL    HW240104   1.059   0.523   5.499 -0.4579  0.1251 -0.5666
 9548SOL     OW40105   0.070   3.984   4.288 -0.1504  0.0939  0.1318
 9548SOL    HW140106   4.722   4.041   4.259  0.2089  0.3743 -0.2051
 9548SOL    HW240107   0.094   4.021   4.373  2.0682 -0.6109 -0.2164
 9549SOL     OW40108   3.570   3.595   8.818  0.0614  0.2876 -0.0983
 9549SOL    HW140109   3.561   3.684   8.852  1.2576 -0.0260  1.0291
 9549SOL    HW240110   3.527   3.606   8.733  1.0975  2.4027 -0.3467
 9550SOL     OW40111   1.824   0.119   2.372 -0.1440  0.0132  0.1636
 9550SOL    HW140112   1.779   0.040   2.404  2.4377 -1.0173  1.2651
 9550SOL    HW240113   1.746   0.159   2.334 -0.2231  0.6860  1.0378
 9551SOL     OW40114   0.025   2.279   7.308  0.7330 -0.1100 -0.0894
 9551SOL    HW140115   0.070   2.335   7.371  0.4241 -0.3232  0.3246
 9551SOL    HW240116   0.092   2.217   7.280  1.0732  0.0163  0.4387
 9552SOL     OW40117   3.523   2.740   4.350 -0.3714 -0.3148  0.5633
 9552SOL    HW140118   3.448   2.771   4.401 -1.1036 -0.4141 -0.4534
 9552SOL    HW240119   3.571   2.822   4.344  0.6408 -0.9386  0.0854
 9553SOL     OW40120   1.215   3.862   3.189 -0.0785 -0.4090 -0.4891
 9553SOL    HW140121   1.244   3.803   3.259 -1.7172  0.3905  0.8560
 9553SOL    HW240122   1.245   3.948   3.219 -0.2056 -0.4462 -0.2551
 9554SOL     OW40123   4.409   1.392  15.000 -0.2714  0.5145 -0.4045
 9554SOL    HW140124   4.342   1.456  14.977  1.5455  1.5511 -2.6983
 9554SOL    HW240125   4.476   1.451  15.034  0.7146  0.6268 -2.5766
 9555SOL     OW40126   2.401   3.113   0.559  0.2124  0.4243  0.1183
 9555SOL    HW140127   2.489   3.108   0.596 -0.2433 -1.1373  0.9579
 9555SOL    HW240128   2.420   3.157   0.475 -1.0185  2.3717  0.8499
 9556SOL     OW40129   0.527   3.264   0.496 -0.6770  0.1076  0.1323
 9556SOL    HW140130   0.565   3.184   0.460  0.6835  1.1513 -0.7398
 9556SOL    HW240131   0.443   3.267   0.451 -0.9254  1.2978  0.6601
 9557SOL     OW40132   3.038   2.983   1.999 -0.1505 -0.2123  0.8562
 9557SOL    HW140133   3.069   3.073   2.002  1.5535 -0.7470 -0.2563
 9557SOL    HW240134   2.959   2.990   1.945 -0.4229  1.1098  1.4388
 9558SOL     OW40135   1.019   4.582   2.462 -0.5051 -0.0691 -0.4136
 9558SOL    HW140136   1.073   4.536   2.526  1.6154 -0.6815 -2.6473
 9558SOL    HW240137   1.084   4.645   2.433  0.3411 -1.4986 -1.6236
 9559SOL     OW40138   3.360   3.688   9.547 -0.2128  0.6383 -0.3680
 9559SOL    HW140139   3.415   3.701   9.469  1.9193 -0.1957  0.9785
 9559SOL    HW240140   3.274   3.702   9.507  0.1554  1.9446 -0.7063
 9560SOL     OW40141   2.662   2.797   3.942  0.6405 -0.6717  0.0813
 9560SOL    HW140142   2.617   2.731   3.994  1.6758 -0.8006  0.8137
 9560SOL    HW240143   2.591   2.828   3.885  1.4307  1.4095  0.2463
 9561SOL     OW40144   3.491   2.744   4.963  0.5029 -0.1296 -0.3262
 9561SOL    HW140145   3.407   2.780   4.990 -0.0332 -1.3193 -0.4160
 9561SOL    HW240146   3.539   2.820   4.928 -1.4553  1.5208  0.5853
 9562SOL     OW40147   2.009   4.090   8.723  0.1564 -0.5410  0.4248
 9562SOL    HW140148   1.979   4.147   8.793  0.3566 -0.3385  0.3445
 9562SOL    HW240149   2.104   4.102   8.728 -0.0225  1.2317 -0.4515
 9563SOL     OW40150   1.846   3.752   5.735 -0.1735 -0.4791 -0.0210
 9563SOL    HW140151   1.936   3.743   5.767  0.2648 -0.1469 -1.1635
 9563SOL    HW240152   1.845   3.723   5.644 -1.5194 -0.3822 -0.0341
 9564SOL     OW40153   2.901   3.413   9.982 -0.3844 -0.1665  0.3070
 9564SOL    HW140154   2.872   3.393  10.071  0.0799 -0.3024  0.4288
 9564SOL    HW240155   2.973   3.470  10.009 -0.1748 -0.3562  0.1439
 9565SOL     OW40156   3.072   1.482   0.647  0.2653 -0.1492  0.3646
 9565SOL    HW140157   3.081   1.575   0.671  0.6575 -0.7768  2.6159
 9565SOL    HW240158   3.079   1.500   0.553 -0.1598 -0.0188  0.3586
 9566SOL     OW40159   2.675   1.258   7.153  0.5079 -0.4644  0.0570
 9566SOL    HW140160   2.750   1.312   7.178 -0.7527  1.1264  0.4109
 9566SOL    HW240161   2.664   1.298   7.067  2.2957  1.6796  0.8300
 9567SOL     OW40162   4.318   4.025   5.058  0.5887 -0.5109  0.3961
 9567SOL    HW140163   4.317   3.949   5.000  0.5146 -0.6256  0.5509
 9567SOL    HW240164   4.309   3.987   5.145 -1.2700 -0.1136  0.3628
 9568SOL     OW40165   2.785   4.386  12.254  0.3925  0.1375 -0.1881
 9568SOL    HW140166   2.854   4.433  12.301  2.0007 -0.3324 -2.0656
 9568SOL    HW240167   2.717   4.454  12.259 -0.6530 -0.7423 -2.5441
   4.72379   4.72379  17.69688
